<event>
 7    1  0.1910099E-015  0.9000794E+02  0.7816164E-02  0.1186339E+00
        -11   -1    0    0    0    0  0.00000000000E+00  0.00000000000E+00  0.45593999997E+02  0.45594000000E+02  0.51100000000E-03 0.  1.
         11   -1    0    0    0    0 -0.00000000000E+00 -0.00000000000E+00 -0.45593999997E+02  0.45594000000E+02  0.51100000000E-03 0. -1.
    9900012    2    1    2    0    0 -0.94756329509E+00  0.12019659949E+00  0.69297138876E+00  0.90007943744E+02  0.90000207802E+02 0.  0.
        -12    1    1    2    0    0  0.94756329509E+00 -0.12019659949E+00 -0.69297138876E+00  0.11800562556E+01  0.00000000000E+00 0.  1.
         11    1    3    3    0    0  0.37936228137E+01 -0.12576266935E+01 -0.53324248874E+01  0.66639293509E+01  0.51100000000E-03 0. -1.
        -11    1    3    3    0    0 -0.10398421402E+02 -0.33079748793E+02  0.25794389067E+02  0.43217443880E+02  0.51100000000E-03 0.  1.
         12    1    3    3    0    0  0.56572352929E+01  0.34457572086E+02 -0.19768992791E+02  0.40126570514E+02  0.00000000000E+00 0. -1.
</event>
<event>
 7    1  0.1910099E-015  0.9000763E+02  0.7816164E-02  0.1186339E+00
        -11   -1    0    0    0    0  0.00000000000E+00  0.00000000000E+00  0.45593999997E+02  0.45594000000E+02  0.51100000000E-03 0. -1.
         11   -1    0    0    0    0 -0.00000000000E+00 -0.00000000000E+00 -0.45593999997E+02  0.45594000000E+02  0.51100000000E-03 0.  1.
    9900012    2    1    2    0    0 -0.11497621357E+01  0.25492442204E+00 -0.79562847237E-01  0.90007631551E+02  0.89999891487E+02 0.  0.
        -12    1    1    2    0    0  0.11497621357E+01 -0.25492442204E+00  0.79562847237E-01  0.11803684494E+01  0.00000000000E+00 0.  1.
         11    1    3    3    0    0 -0.28133677439E+02 -0.10401935004E+02  0.27088545758E+02  0.40416498730E+02  0.51100000000E-03 0. -1.
        -11    1    3    3    0    0  0.66959639929E+01  0.32736159302E+00  0.62431594635E+01  0.91607936204E+01  0.51100000000E-03 0.  1.
        -12    1    3    3    0    0  0.20287951310E+02  0.10329497833E+02 -0.33411268069E+02  0.40430339200E+02  0.00000000000E+00 0.  1.
</event>
<event>
 7    1  0.1910099E-015  0.9000735E+02  0.7816164E-02  0.1186340E+00
        -11   -1    0    0    0    0  0.00000000000E+00  0.00000000000E+00  0.45593999997E+02  0.45594000000E+02  0.51100000000E-03 0.  1.
         11   -1    0    0    0    0 -0.00000000000E+00 -0.00000000000E+00 -0.45593999997E+02  0.45594000000E+02  0.51100000000E-03 0. -1.
    9900012    2    1    2    0    0 -0.10885390072E+01 -0.40591436256E+00 -0.21035751030E+00  0.90007350212E+02  0.89999606434E+02 0.  0.
        -12    1    1    2    0    0  0.10885390072E+01  0.40591436256E+00  0.21035751030E+00  0.11806497881E+01  0.00000000000E+00 0.  1.
         11    1    3    3    0    0  0.25595183784E+02  0.21562295058E+02 -0.44133005246E+01  0.33756824834E+02  0.51100000000E-03 0. -1.
        -11    1    3    3    0    0  0.10220867859E+02  0.34138498037E+01 -0.22186151218E+01  0.11001943628E+02  0.51100000000E-03 0.  1.
        -12    1    3    3    0    0 -0.36904590650E+02 -0.25382059224E+02  0.64215581361E+01  0.45248581750E+02  0.00000000000E+00 0.  1.
</event>
<event>
 7    1  0.1910099E-015  0.9000784E+02  0.7816164E-02  0.1186339E+00
        -11   -1    0    0    0    0  0.00000000000E+00  0.00000000000E+00  0.45593999997E+02  0.45594000000E+02  0.51100000000E-03 0.  1.
         11   -1    0    0    0    0 -0.00000000000E+00 -0.00000000000E+00 -0.45593999997E+02  0.45594000000E+02  0.51100000000E-03 0. -1.
    9900012    2    1    2    0    0  0.42930854463E+00 -0.42135199829E+00 -0.10153526197E+01  0.90007837183E+02  0.90000099833E+02 0.  0.
        -12    1    1    2    0    0 -0.42930854463E+00  0.42135199829E+00  0.10153526197E+01  0.11801628173E+01  0.00000000000E+00 0.  1.
         11    1    3    3    0    0  0.29305363968E+02 -0.18390637991E+02 -0.16832355269E+02  0.38475292165E+02  0.51100000000E-03 0. -1.
        -11    1    3    3    0    0  0.96724377998E-01 -0.72954555023E+01 -0.39608133613E+01  0.83018714358E+01  0.51100000000E-03 0.  1.
        -12    1    3    3    0    0 -0.28972779802E+02  0.25264741495E+02  0.19777816010E+02  0.43230673582E+02  0.00000000000E+00 0.  1.
</event>
<event>
 7    1  0.1910099E-015  0.9000787E+02  0.7816164E-02  0.1186339E+00
        -11   -1    0    0    0    0  0.00000000000E+00  0.00000000000E+00  0.45593999997E+02  0.45594000000E+02  0.51100000000E-03 0. -1.
         11   -1    0    0    0    0 -0.00000000000E+00 -0.00000000000E+00 -0.45593999997E+02  0.45594000000E+02  0.51100000000E-03 0.  1.
    9900012    2    1    2    0    0  0.90063730382E+00 -0.25603686650E+00 -0.71833628783E+00  0.90007868883E+02  0.90000131953E+02 0.  0.
        -12    1    1    2    0    0 -0.90063730382E+00  0.25603686650E+00  0.71833628783E+00  0.11801311166E+01  0.00000000000E+00 0.  1.
         11    1    3    3    0    0 -0.24758198060E+02 -0.10477180356E+02  0.31094456345E+02  0.41104803795E+02  0.51100000000E-03 0. -1.
        -11    1    3    3    0    0 -0.21501415909E+01  0.77511762293E+01 -0.25022350984E+01  0.84240739875E+01  0.51100000000E-03 0.  1.
        -12    1    3    3    0    0  0.27808976955E+02  0.24699672601E+01 -0.29310557534E+02  0.40478991101E+02  0.00000000000E+00 0.  1.
</event>
<event>
 7    1  0.1910099E-015  0.9000751E+02  0.7816164E-02  0.1186340E+00
        -11   -1    0    0    0    0  0.00000000000E+00  0.00000000000E+00  0.45593999997E+02  0.45594000000E+02  0.51100000000E-03 0. -1.
         11   -1    0    0    0    0 -0.00000000000E+00 -0.00000000000E+00 -0.45593999997E+02  0.45594000000E+02  0.51100000000E-03 0.  1.
    9900012    2    1    2    0    0  0.71121433665E-01  0.24270273712E-01  0.11780997652E+01  0.90007505883E+02  0.89999764160E+02 0.  0.
        -12    1    1    2    0    0 -0.71121433665E-01 -0.24270273712E-01 -0.11780997652E+01  0.11804941175E+01  0.00000000000E+00 0.  1.
         11    1    3    3    0    0 -0.14977926628E+02 -0.24356036292E+02  0.28364501828E+02  0.40275299554E+02  0.51100000000E-03 0. -1.
        -11    1    3    3    0    0  0.91296155968E+00  0.75253973487E+01  0.61706812465E+01  0.97745798565E+01  0.51100000000E-03 0.  1.
        -12    1    3    3    0    0  0.14136086502E+02  0.16854909217E+02 -0.33357083310E+02  0.39957626472E+02  0.00000000000E+00 0.  1.
</event>
<event>
 7    1  0.1910099E-015  0.9000763E+02  0.7816164E-02  0.1186339E+00
        -11   -1    0    0    0    0  0.00000000000E+00  0.00000000000E+00  0.45593999997E+02  0.45594000000E+02  0.51100000000E-03 0.  1.
         11   -1    0    0    0    0 -0.00000000000E+00 -0.00000000000E+00 -0.45593999997E+02  0.45594000000E+02  0.51100000000E-03 0. -1.
    9900012    2    1    2    0    0 -0.26543384662E+00 -0.84355574255E+00 -0.78180632605E+00  0.90007634570E+02  0.89999894546E+02 0.  0.
        -12    1    1    2    0    0  0.26543384662E+00  0.84355574255E+00  0.78180632605E+00  0.11803654303E+01  0.00000000000E+00 0.  1.
         11    1    3    3    0    0  0.58851157762E+01  0.88358755025E+01  0.50123935513E+01  0.11740160688E+02  0.51100000000E-03 0. -1.
        -11    1    3    3    0    0  0.11931482209E+02  0.23254733577E+02  0.19814322998E+02  0.32798632556E+02  0.51100000000E-03 0.  1.
         12    1    3    3    0    0 -0.18082031832E+02 -0.32934164822E+02 -0.25608522875E+02  0.45468841326E+02  0.00000000000E+00 0. -1.
</event>
<event>
 7    1  0.1910099E-015  0.9000794E+02  0.7816164E-02  0.1186339E+00
        -11   -1    0    0    0    0  0.00000000000E+00  0.00000000000E+00  0.45593999997E+02  0.45594000000E+02  0.51100000000E-03 0.  1.
         11   -1    0    0    0    0 -0.00000000000E+00 -0.00000000000E+00 -0.45593999997E+02  0.45594000000E+02  0.51100000000E-03 0. -1.
    9900012    2    1    2    0    0  0.77393240848E+00  0.26120913751E+00  0.85166776597E+00  0.90007940862E+02  0.90000204881E+02 0.  0.
        -12    1    1    2    0    0 -0.77393240848E+00 -0.26120913751E+00 -0.85166776597E+00  0.11800591383E+01  0.00000000000E+00 0.  1.
         11    1    3    3    0    0  0.60744002802E+01 -0.12378842390E+01  0.74031894316E+01  0.96559779502E+01  0.51100000000E-03 0. -1.
        -11    1    3    3    0    0  0.15278410482E+02  0.23645238237E+01  0.32618369750E+02  0.36096798268E+02  0.51100000000E-03 0.  1.
         12    1    3    3    0    0 -0.20578878353E+02 -0.86543044720E+00 -0.39169891416E+02  0.44255164644E+02  0.00000000000E+00 0. -1.
</event>
<event>
 7    1  0.1910099E-015  0.9000802E+02  0.7816164E-02  0.1186338E+00
        -11   -1    0    0    0    0  0.00000000000E+00  0.00000000000E+00  0.45593999997E+02  0.45594000000E+02  0.51100000000E-03 0. -1.
         11   -1    0    0    0    0 -0.00000000000E+00 -0.00000000000E+00 -0.45593999997E+02  0.45594000000E+02  0.51100000000E-03 0.  1.
    9900012    2    1    2    0    0  0.15079190787E+00 -0.63058066040E+00  0.98589620808E+00  0.90008016313E+02  0.90000281328E+02 0.  0.
        -12    1    1    2    0    0 -0.15079190787E+00  0.63058066040E+00 -0.98589620808E+00  0.11799836871E+01  0.00000000000E+00 0.  1.
         11    1    3    3    0    0 -0.29909122745E+02  0.12583978128E+02  0.29081827856E+02  0.43573671415E+02  0.51100000000E-03 0. -1.
        -11    1    3    3    0    0 -0.62335108838E+00 -0.46036697364E+01 -0.62893620180E+01  0.78191058617E+01  0.51100000000E-03 0.  1.
        -12    1    3    3    0    0  0.30683265741E+02 -0.86108890516E+01 -0.21806569630E+02  0.38615239036E+02  0.00000000000E+00 0.  1.
</event>
<event>
 7    1  0.1910099E-015  0.9000772E+02  0.7816164E-02  0.1186339E+00
        -11   -1    0    0    0    0  0.00000000000E+00  0.00000000000E+00  0.45593999997E+02  0.45594000000E+02  0.51100000000E-03 0. -1.
         11   -1    0    0    0    0 -0.00000000000E+00 -0.00000000000E+00 -0.45593999997E+02  0.45594000000E+02  0.51100000000E-03 0.  1.
    9900012    2    1    2    0    0  0.10702028999E+01  0.35701386299E+00  0.34678203360E+00  0.90007724217E+02  0.89999985377E+02 0.  0.
        -12    1    1    2    0    0 -0.10702028999E+01 -0.35701386299E+00 -0.34678203360E+00  0.11802757831E+01  0.00000000000E+00 0.  1.
         11    1    3    3    0    0 -0.25207614148E+01  0.87865249723E+01 -0.69371229004E+01  0.11475231309E+02  0.51100000000E-03 0. -1.
        -11    1    3    3    0    0 -0.22082343328E+02 -0.96064028732E+01 -0.26680065485E+02  0.35940767348E+02  0.51100000000E-03 0.  1.
         12    1    3    3    0    0  0.25673307643E+02  0.11768917639E+01  0.33963970419E+02  0.42591725560E+02  0.00000000000E+00 0. -1.
</event>
<event>
 7    1  0.1910099E-015  0.9000775E+02  0.7816164E-02  0.1186339E+00
        -11   -1    0    0    0    0  0.00000000000E+00  0.00000000000E+00  0.45593999997E+02  0.45594000000E+02  0.51100000000E-03 0.  1.
         11   -1    0    0    0    0 -0.00000000000E+00 -0.00000000000E+00 -0.45593999997E+02  0.45594000000E+02  0.51100000000E-03 0. -1.
    9900012    2    1    2    0    0 -0.78897699478E+00 -0.73412549174E+00  0.48122056583E+00  0.90007746566E+02  0.90000008020E+02 0.  0.
        -12    1    1    2    0    0  0.78897699478E+00  0.73412549174E+00 -0.48122056583E+00  0.11802534342E+01  0.00000000000E+00 0.  1.
         11    1    3    3    0    0  0.49025711029E+01 -0.96642928141E+00 -0.65393165209E+00  0.50395253588E+01  0.51100000000E-03 0. -1.
        -11    1    3    3    0    0  0.34037238824E+02  0.38013919933E+01  0.21238796275E+02  0.40299760239E+02  0.51100000000E-03 0.  1.
         12    1    3    3    0    0 -0.39728786922E+02 -0.35690882037E+01 -0.20103644057E+02  0.44668460968E+02  0.00000000000E+00 0. -1.
</event>
<event>
 7    1  0.1910099E-015  0.9000772E+02  0.7816164E-02  0.1186339E+00
        -11   -1    0    0    0    0  0.00000000000E+00  0.00000000000E+00  0.45593999997E+02  0.45594000000E+02  0.51100000000E-03 0.  1.
         11   -1    0    0    0    0 -0.00000000000E+00 -0.00000000000E+00 -0.45593999997E+02  0.45594000000E+02  0.51100000000E-03 0. -1.
    9900012    2    1    2    0    0  0.81447721409E+00 -0.69399016645E+00 -0.49805424929E+00  0.90007723118E+02  0.89999984263E+02 0.  0.
        -12    1    1    2    0    0 -0.81447721409E+00  0.69399016645E+00  0.49805424929E+00  0.11802768822E+01  0.00000000000E+00 0.  1.
         11    1    3    3    0    0  0.14475037250E+02  0.38646650178E+02  0.27735341162E+01  0.41361609799E+02  0.51100000000E-03 0. -1.
        -11    1    3    3    0    0 -0.67069010657E+00 -0.43868284354E+01  0.84612037776E+01  0.95543737925E+01  0.51100000000E-03 0.  1.
        -12    1    3    3    0    0 -0.12989869930E+02 -0.34953811909E+02 -0.11732792143E+02  0.39091739527E+02  0.00000000000E+00 0.  1.
</event>
<event>
 7    1  0.1910099E-015  0.9000783E+02  0.7816164E-02  0.1186339E+00
        -11   -1    0    0    0    0  0.00000000000E+00  0.00000000000E+00  0.45593999997E+02  0.45594000000E+02  0.51100000000E-03 0.  1.
         11   -1    0    0    0    0 -0.00000000000E+00 -0.00000000000E+00 -0.45593999997E+02  0.45594000000E+02  0.51100000000E-03 0. -1.
    9900012    2    1    2    0    0 -0.10077271984E+01 -0.27316039416E-01 -0.61363508397E+00  0.90007827009E+02  0.90000089525E+02 0.  0.
        -12    1    1    2    0    0  0.10077271984E+01  0.27316039416E-01  0.61363508397E+00  0.11801729910E+01  0.00000000000E+00 0.  1.
         11    1    3    3    0    0 -0.22209612053E+02 -0.58183737215E+01 -0.29215292633E+02  0.37157148225E+02  0.51100000000E-03 0. -1.
        -11    1    3    3    0    0 -0.17971306887E+01 -0.38029866403E+01 -0.77263083988E+01  0.87970579078E+01  0.51100000000E-03 0.  1.
        -12    1    3    3    0    0  0.22999015544E+02  0.95940443224E+01  0.36327965948E+02  0.44053620876E+02  0.00000000000E+00 0.  1.
</event>
<event>
 7    1  0.1910099E-015  0.9000773E+02  0.7816164E-02  0.1186339E+00
        -11   -1    0    0    0    0  0.00000000000E+00  0.00000000000E+00  0.45593999997E+02  0.45594000000E+02  0.51100000000E-03 0. -1.
         11   -1    0    0    0    0 -0.00000000000E+00 -0.00000000000E+00 -0.45593999997E+02  0.45594000000E+02  0.51100000000E-03 0.  1.
    9900012    2    1    2    0    0 -0.77516990487E+00  0.66419604998E+00  0.59244697437E+00  0.90007729611E+02  0.89999990842E+02 0.  0.
        -12    1    1    2    0    0  0.77516990487E+00 -0.66419604998E+00 -0.59244697437E+00  0.11802703892E+01  0.00000000000E+00 0.  1.
         11    1    3    3    0    0 -0.23652380475E+02  0.20819198589E+02  0.18469863280E+02  0.36524101383E+02  0.51100000000E-03 0. -1.
        -11    1    3    3    0    0 -0.83309005595E+01  0.17580046701E+01  0.41221024427E+01  0.94597152896E+01  0.51100000000E-03 0.  1.
        -12    1    3    3    0    0  0.31208111129E+02 -0.21913007209E+02 -0.21999518748E+02  0.44023912938E+02  0.00000000000E+00 0.  1.
</event>
<event>
 7    1  0.1910099E-015  0.9000778E+02  0.7816164E-02  0.1186339E+00
        -11   -1    0    0    0    0  0.00000000000E+00  0.00000000000E+00  0.45593999997E+02  0.45594000000E+02  0.51100000000E-03 0.  1.
         11   -1    0    0    0    0 -0.00000000000E+00 -0.00000000000E+00 -0.45593999997E+02  0.45594000000E+02  0.51100000000E-03 0. -1.
    9900012    2    1    2    0    0  0.79330163593E+00  0.65544811115E+00 -0.57791376718E+00  0.90007777972E+02  0.90000039842E+02 0.  0.
        -12    1    1    2    0    0 -0.79330163593E+00 -0.65544811115E+00  0.57791376718E+00  0.11802220275E+01  0.00000000000E+00 0.  1.
         11    1    3    3    0    0 -0.36935043278E+01 -0.28903521293E+02  0.20691016148E+02  0.35737566605E+02  0.51100000000E-03 0. -1.
        -11    1    3    3    0    0  0.37531371803E+01 -0.78280420501E+01  0.35608661807E+01  0.93831790589E+01  0.51100000000E-03 0.  1.
        -12    1    3    3    0    0  0.73366878339E+00  0.37387011454E+02 -0.24829796096E+02  0.44887032309E+02  0.00000000000E+00 0.  1.
</event>
<event>
 7    1  0.1910099E-015  0.9000788E+02  0.7816164E-02  0.1186339E+00
        -11   -1    0    0    0    0  0.00000000000E+00  0.00000000000E+00  0.45593999997E+02  0.45594000000E+02  0.51100000000E-03 0. -1.
         11   -1    0    0    0    0 -0.00000000000E+00 -0.00000000000E+00 -0.45593999997E+02  0.45594000000E+02  0.51100000000E-03 0.  1.
    9900012    2    1    2    0    0 -0.99104013315E+00 -0.59163473330E+00  0.24595389329E+00  0.90007879023E+02  0.90000142226E+02 0.  0.
        -12    1    1    2    0    0  0.99104013315E+00  0.59163473330E+00 -0.24595389329E+00  0.11801209772E+01  0.00000000000E+00 0.  1.
         11    1    3    3    0    0 -0.10546472660E+02 -0.20353034776E+01 -0.42109710794E+01  0.11537019698E+02  0.51100000000E-03 0. -1.
        -11    1    3    3    0    0 -0.25667377175E+02  0.13455158070E+01 -0.22465793974E+02  0.34137026276E+02  0.51100000000E-03 0.  1.
         12    1    3    3    0    0  0.35222809702E+02  0.98152937278E-01  0.26922718947E+02  0.44333833049E+02  0.00000000000E+00 0. -1.
</event>
<event>
 7    1  0.1910099E-015  0.9000775E+02  0.7816164E-02  0.1186339E+00
        -11   -1    0    0    0    0  0.00000000000E+00  0.00000000000E+00  0.45593999997E+02  0.45594000000E+02  0.51100000000E-03 0.  1.
         11   -1    0    0    0    0 -0.00000000000E+00 -0.00000000000E+00 -0.45593999997E+02  0.45594000000E+02  0.51100000000E-03 0. -1.
    9900012    2    1    2    0    0 -0.56964014845E+00  0.75861475335E+00 -0.70215033621E+00  0.90007745224E+02  0.90000006660E+02 0.  0.
        -12    1    1    2    0    0  0.56964014845E+00 -0.75861475335E+00  0.70215033621E+00  0.11802547765E+01  0.00000000000E+00 0.  1.
         11    1    3    3    0    0  0.47800740552E+00 -0.19617954355E+02 -0.18324260379E+01  0.19709145329E+02  0.51100000000E-03 0. -1.
        -11    1    3    3    0    0  0.61779927143E+01  0.94660868501E+01  0.33514964967E+02  0.35369863885E+02  0.51100000000E-03 0.  1.
         12    1    3    3    0    0 -0.72256402683E+01  0.10910482258E+02 -0.32384689266E+02  0.34928736009E+02  0.00000000000E+00 0. -1.
</event>
<event>
 7    1  0.1910099E-015  0.9000775E+02  0.7816164E-02  0.1186339E+00
        -11   -1    0    0    0    0  0.00000000000E+00  0.00000000000E+00  0.45593999997E+02  0.45594000000E+02  0.51100000000E-03 0.  1.
         11   -1    0    0    0    0 -0.00000000000E+00 -0.00000000000E+00 -0.45593999997E+02  0.45594000000E+02  0.51100000000E-03 0. -1.
    9900012    2    1    2    0    0 -0.24675787993E+00  0.33848658070E+00 -0.11034134552E+01  0.90007752624E+02  0.90000014158E+02 0.  0.
        -12    1    1    2    0    0  0.24675787993E+00 -0.33848658070E+00  0.11034134552E+01  0.11802473765E+01  0.00000000000E+00 0.  1.
         11    1    3    3    0    0  0.13362636125E+01 -0.36138278477E+02  0.11241977294E+01  0.36180444891E+02  0.51100000000E-03 0. -1.
        -11    1    3    3    0    0 -0.36918415896E+01 -0.82286233880E+01 -0.70357549659E+00  0.90462675135E+01  0.51100000000E-03 0.  1.
        -12    1    3    3    0    0  0.21088200972E+01  0.44705388446E+02 -0.15240356880E+01  0.44781040219E+02  0.00000000000E+00 0.  1.
</event>
<event>
 7    1  0.1910099E-015  0.9000841E+02  0.7816164E-02  0.1186338E+00
        -11   -1    0    0    0    0  0.00000000000E+00  0.00000000000E+00  0.45593999997E+02  0.45594000000E+02  0.51100000000E-03 0.  1.
         11   -1    0    0    0    0 -0.00000000000E+00 -0.00000000000E+00 -0.45593999997E+02  0.45594000000E+02  0.51100000000E-03 0. -1.
    9900012    2    1    2    0    0 -0.75561562651E+00 -0.45656615287E+00 -0.78232367051E+00  0.90008407718E+02  0.90000677897E+02 0.  0.
        -12    1    1    2    0    0  0.75561562651E+00  0.45656615287E+00  0.78232367051E+00  0.11795922823E+01  0.00000000000E+00 0.  1.
         11    1    3    3    0    0 -0.75548103136E+01  0.33198268141E+01  0.40667545278E+01  0.91997229089E+01  0.51100000000E-03 0. -1.
        -11    1    3    3    0    0 -0.31578741352E+02  0.15883283454E+01  0.17435113748E+02  0.36107102957E+02  0.51100000000E-03 0.  1.
         12    1    3    3    0    0  0.38377936039E+02 -0.53647213125E+01 -0.22284191946E+02  0.44701581852E+02  0.00000000000E+00 0. -1.
</event>
<event>
 7    1  0.3332305E-015  0.9000785E+02  0.7816164E-02  0.1186339E+00
        -11   -1    0    0    0    0  0.00000000000E+00  0.00000000000E+00  0.45593999997E+02  0.45594000000E+02  0.51100000000E-03 0. -1.
         11   -1    0    0    0    0 -0.00000000000E+00 -0.00000000000E+00 -0.45593999997E+02  0.45594000000E+02  0.51100000000E-03 0.  1.
    9900012    2    1    2    0    0 -0.90700517199E+00  0.19734145665E+00  0.72879984713E+00  0.90007851175E+02  0.90000114010E+02 0.  0.
        -12    1    1    2    0    0  0.90700517199E+00 -0.19734145665E+00 -0.72879984713E+00  0.11801488252E+01  0.00000000000E+00 0.  1.
         11    1    3    3    0    0 -0.81937008586E+00 -0.16883031051E+01  0.99364341336E+01  0.10112094653E+02  0.51100000000E-03 0. -1.
        -11    1    3    3    0    0  0.36805145955E+02 -0.14685733135E+01 -0.19184352061E+02  0.41530890198E+02  0.51100000000E-03 0.  1.
         12    1    3    3    0    0 -0.36892781041E+02  0.33542178752E+01  0.99767177750E+01  0.38364866324E+02  0.00000000000E+00 0. -1.
</event>
<event>
 7    1  0.1910099E-015  0.9000803E+02  0.7816164E-02  0.1186338E+00
        -11   -1    0    0    0    0  0.00000000000E+00  0.00000000000E+00  0.45593999997E+02  0.45594000000E+02  0.51100000000E-03 0.  1.
         11   -1    0    0    0    0 -0.00000000000E+00 -0.00000000000E+00 -0.45593999997E+02  0.45594000000E+02  0.51100000000E-03 0. -1.
    9900012    2    1    2    0    0 -0.71869990100E+00  0.32641043742E+00 -0.87707813564E+00  0.90008025688E+02  0.90000290826E+02 0.  0.
        -12    1    1    2    0    0  0.71869990100E+00 -0.32641043742E+00  0.87707813564E+00  0.11799743122E+01  0.00000000000E+00 0.  1.
         11    1    3    3    0    0  0.14952641078E+02 -0.14501614368E+02 -0.31411336701E+02  0.37690189282E+02  0.51100000000E-03 0. -1.
        -11    1    3    3    0    0  0.85571904598E+01 -0.41956261465E+01  0.89948197252E+00  0.95727663404E+01  0.51100000000E-03 0.  1.
        -12    1    3    3    0    0 -0.24228531439E+02  0.19023650952E+02  0.29634776593E+02  0.42745070066E+02  0.00000000000E+00 0.  1.
</event>
<event>
 7    1  0.1910099E-015  0.9000776E+02  0.7816164E-02  0.1186339E+00
        -11   -1    0    0    0    0  0.00000000000E+00  0.00000000000E+00  0.45593999997E+02  0.45594000000E+02  0.51100000000E-03 0.  1.
         11   -1    0    0    0    0 -0.00000000000E+00 -0.00000000000E+00 -0.45593999997E+02  0.45594000000E+02  0.51100000000E-03 0. -1.
    9900012    2    1    2    0    0  0.70829627601E+00 -0.85787118386E+00 -0.39411927699E+00  0.90007764182E+02  0.90000025869E+02 0.  0.
        -12    1    1    2    0    0 -0.70829627601E+00  0.85787118386E+00  0.39411927699E+00  0.11802358185E+01  0.00000000000E+00 0.  1.
         11    1    3    3    0    0 -0.18776278450E+02  0.62500492832E+01 -0.30493593272E+01  0.20022745592E+02  0.51100000000E-03 0. -1.
        -11    1    3    3    0    0  0.79138473512E+01 -0.14748226777E+01 -0.32010719477E+02  0.33007427097E+02  0.51100000000E-03 0.  1.
         12    1    3    3    0    0  0.11570727374E+02 -0.56330977894E+01  0.34665959528E+02  0.36977591493E+02  0.00000000000E+00 0. -1.
</event>
<event>
 7    1  0.1910099E-015  0.9000775E+02  0.7816164E-02  0.1186339E+00
        -11   -1    0    0    0    0  0.00000000000E+00  0.00000000000E+00  0.45593999997E+02  0.45594000000E+02  0.51100000000E-03 0.  1.
         11   -1    0    0    0    0 -0.00000000000E+00 -0.00000000000E+00 -0.45593999997E+02  0.45594000000E+02  0.51100000000E-03 0. -1.
    9900012    2    1    2    0    0  0.98874847925E+00  0.57949319831E+00 -0.28205533862E+00  0.90007749545E+02  0.90000011039E+02 0.  0.
        -12    1    1    2    0    0 -0.98874847925E+00 -0.57949319831E+00  0.28205533862E+00  0.11802504548E+01  0.00000000000E+00 0.  1.
         11    1    3    3    0    0 -0.29092281233E+01 -0.48458229556E+01  0.92909548207E+01  0.10875083914E+02  0.51100000000E-03 0. -1.
        -11    1    3    3    0    0  0.25350449742E+02 -0.28585839961E+02 -0.69625760015E+01  0.38836490743E+02  0.51100000000E-03 0.  1.
         12    1    3    3    0    0 -0.21452473140E+02  0.34011156115E+02 -0.26104341579E+01  0.40296174888E+02  0.00000000000E+00 0. -1.
</event>
<event>
 7    1  0.1910099E-015  0.9000771E+02  0.7816164E-02  0.1186339E+00
        -11   -1    0    0    0    0  0.00000000000E+00  0.00000000000E+00  0.45593999997E+02  0.45594000000E+02  0.51100000000E-03 0.  1.
         11   -1    0    0    0    0 -0.00000000000E+00 -0.00000000000E+00 -0.45593999997E+02  0.45594000000E+02  0.51100000000E-03 0. -1.
    9900012    2    1    2    0    0 -0.15658863151E+00  0.33356254872E-01 -0.11693832064E+01  0.90007707781E+02  0.89999968724E+02 0.  0.
        -12    1    1    2    0    0  0.15658863151E+00 -0.33356254872E-01  0.11693832064E+01  0.11802922191E+01  0.00000000000E+00 0.  1.
         11    1    3    3    0    0 -0.13514627565E+01  0.74873233301E+01  0.53861810802E+01  0.93218779826E+01  0.51100000000E-03 0. -1.
        -11    1    3    3    0    0 -0.35311121606E+02 -0.21228059278E+02 -0.62100841114E+01  0.41666184787E+02  0.51100000000E-03 0.  1.
         12    1    3    3    0    0  0.36505995731E+02  0.13774092202E+02 -0.34548017520E+00  0.39019645012E+02  0.00000000000E+00 0. -1.
</event>
<event>
 7    1  0.1910099E-015  0.9000786E+02  0.7816164E-02  0.1186339E+00
        -11   -1    0    0    0    0  0.00000000000E+00  0.00000000000E+00  0.45593999997E+02  0.45594000000E+02  0.51100000000E-03 0.  1.
         11   -1    0    0    0    0 -0.00000000000E+00 -0.00000000000E+00 -0.45593999997E+02  0.45594000000E+02  0.51100000000E-03 0. -1.
    9900012    2    1    2    0    0 -0.38326875872E+00  0.57031490916E+00 -0.95946375403E+00  0.90007862410E+02  0.90000125393E+02 0.  0.
        -12    1    1    2    0    0  0.38326875872E+00 -0.57031490916E+00  0.95946375403E+00  0.11801375904E+01  0.00000000000E+00 0.  1.
         11    1    3    3    0    0 -0.84705290923E+01  0.23876627590E+02 -0.27271026269E+02  0.37223004744E+02  0.51100000000E-03 0. -1.
        -11    1    3    3    0    0 -0.58311960422E+01  0.42951155769E+01 -0.49878917041E+01  0.87937437428E+01  0.51100000000E-03 0.  1.
        -12    1    3    3    0    0  0.13918456376E+02 -0.27601428258E+02  0.31299454219E+02  0.43991113923E+02  0.00000000000E+00 0.  1.
</event>
<event>
 7    1  0.1910099E-015  0.9000734E+02  0.7816164E-02  0.1186340E+00
        -11   -1    0    0    0    0  0.00000000000E+00  0.00000000000E+00  0.45593999997E+02  0.45594000000E+02  0.51100000000E-03 0.  1.
         11   -1    0    0    0    0 -0.00000000000E+00 -0.00000000000E+00 -0.45593999997E+02  0.45594000000E+02  0.51100000000E-03 0. -1.
    9900012    2    1    2    0    0  0.53805012650E+00  0.10186121122E+01 -0.25863399219E+00  0.90007339119E+02  0.89999595195E+02 0.  0.
        -12    1    1    2    0    0 -0.53805012650E+00 -0.10186121122E+01  0.25863399219E+00  0.11806608809E+01  0.00000000000E+00 0.  1.
         11    1    3    3    0    0  0.13527145990E+01 -0.18157356660E+01  0.89807909795E+01  0.92618216174E+01  0.51100000000E-03 0. -1.
        -11    1    3    3    0    0  0.24937482569E+02  0.82906839920E+01  0.25861509453E+02  0.36870464458E+02  0.51100000000E-03 0.  1.
         12    1    3    3    0    0 -0.25752147041E+02 -0.54563362139E+01 -0.35100934424E+02  0.43875053044E+02  0.00000000000E+00 0. -1.
</event>
<event>
 7    1  0.1910099E-015  0.9000773E+02  0.7816164E-02  0.1186339E+00
        -11   -1    0    0    0    0  0.00000000000E+00  0.00000000000E+00  0.45593999997E+02  0.45594000000E+02  0.51100000000E-03 0. -1.
         11   -1    0    0    0    0 -0.00000000000E+00 -0.00000000000E+00 -0.45593999997E+02  0.45594000000E+02  0.51100000000E-03 0.  1.
    9900012    2    1    2    0    0 -0.78794080775E+00  0.45926018962E+00 -0.74917639826E+00  0.90007730576E+02  0.89999991819E+02 0.  0.
        -12    1    1    2    0    0  0.78794080775E+00 -0.45926018962E+00  0.74917639826E+00  0.11802694243E+01  0.00000000000E+00 0.  1.
         11    1    3    3    0    0  0.11986359421E+01  0.50489354445E+01 -0.61142192632E+01  0.80194859377E+01  0.51100000000E-03 0. -1.
        -11    1    3    3    0    0  0.13309782739E+01  0.73153096264E+01 -0.37060651856E+02  0.37799168964E+02  0.51100000000E-03 0.  1.
         12    1    3    3    0    0 -0.33175550238E+01 -0.11904984881E+02  0.42425694721E+02  0.44189075674E+02  0.00000000000E+00 0. -1.
</event>
<event>
 7    1  0.1910099E-015  0.9000766E+02  0.7816164E-02  0.1186339E+00
        -11   -1    0    0    0    0  0.00000000000E+00  0.00000000000E+00  0.45593999997E+02  0.45594000000E+02  0.51100000000E-03 0.  1.
         11   -1    0    0    0    0 -0.00000000000E+00 -0.00000000000E+00 -0.45593999997E+02  0.45594000000E+02  0.51100000000E-03 0. -1.
    9900012    2    1    2    0    0  0.10807113405E+01  0.43474212399E+00 -0.19043206594E+00  0.90007660181E+02  0.89999920496E+02 0.  0.
        -12    1    1    2    0    0 -0.10807113405E+01 -0.43474212399E+00  0.19043206594E+00  0.11803398187E+01  0.00000000000E+00 0.  1.
         11    1    3    3    0    0  0.66181897740E+01  0.18204464450E+01 -0.57227513409E+01  0.89366853092E+01  0.51100000000E-03 0. -1.
        -11    1    3    3    0    0  0.18242758388E+01  0.31114091434E+02  0.27162935938E+02  0.41342952932E+02  0.51100000000E-03 0.  1.
         12    1    3    3    0    0 -0.73617542723E+01 -0.32499795755E+02 -0.21630616663E+02  0.39728021940E+02  0.00000000000E+00 0. -1.
</event>
<event>
 7    1  0.1910099E-015  0.9000792E+02  0.7816164E-02  0.1186339E+00
        -11   -1    0    0    0    0  0.00000000000E+00  0.00000000000E+00  0.45593999997E+02  0.45594000000E+02  0.51100000000E-03 0.  1.
         11   -1    0    0    0    0 -0.00000000000E+00 -0.00000000000E+00 -0.45593999997E+02  0.45594000000E+02  0.51100000000E-03 0. -1.
    9900012    2    1    2    0    0  0.49018769868E+00  0.86457263246E+00  0.63625916660E+00  0.90007917145E+02  0.90000180851E+02 0.  0.
        -12    1    1    2    0    0 -0.49018769868E+00 -0.86457263246E+00 -0.63625916660E+00  0.11800828546E+01  0.00000000000E+00 0.  1.
         11    1    3    3    0    0 -0.77995801767E+01 -0.29887407316E+01 -0.36564491787E+02  0.37506373885E+02  0.51100000000E-03 0. -1.
        -11    1    3    3    0    0  0.39761417030E+00 -0.89148299416E+01 -0.31389507016E+01  0.94596671022E+01  0.51100000000E-03 0.  1.
        -12    1    3    3    0    0  0.78921537051E+01  0.12768143306E+02  0.40339701655E+02  0.43041876158E+02  0.00000000000E+00 0.  1.
</event>
<event>
 7    1  0.1910099E-015  0.9000774E+02  0.7816164E-02  0.1186339E+00
        -11   -1    0    0    0    0  0.00000000000E+00  0.00000000000E+00  0.45593999997E+02  0.45594000000E+02  0.51100000000E-03 0.  1.
         11   -1    0    0    0    0 -0.00000000000E+00 -0.00000000000E+00 -0.45593999997E+02  0.45594000000E+02  0.51100000000E-03 0. -1.
    9900012    2    1    2    0    0  0.99760364113E+00 -0.44621987632E+00 -0.44573977918E+00  0.90007741912E+02  0.90000003306E+02 0.  0.
        -12    1    1    2    0    0 -0.99760364113E+00  0.44621987632E+00  0.44573977918E+00  0.11802580877E+01  0.00000000000E+00 0.  1.
         11    1    3    3    0    0 -0.24427892971E+02  0.19523915110E+02 -0.22336788904E+02  0.38429641620E+02  0.51100000000E-03 0. -1.
        -11    1    3    3    0    0  0.97293815313E+00 -0.40884050920E+01 -0.84874779686E+01  0.94709528230E+01  0.51100000000E-03 0.  1.
        -12    1    3    3    0    0  0.24452558459E+02 -0.15881729895E+02  0.30378527093E+02  0.42107147469E+02  0.00000000000E+00 0.  1.
</event>
<event>
 7    1  0.1910099E-015  0.9000766E+02  0.7816164E-02  0.1186339E+00
        -11   -1    0    0    0    0  0.00000000000E+00  0.00000000000E+00  0.45593999997E+02  0.45594000000E+02  0.51100000000E-03 0.  1.
         11   -1    0    0    0    0 -0.00000000000E+00 -0.00000000000E+00 -0.45593999997E+02  0.45594000000E+02  0.51100000000E-03 0. -1.
    9900012    2    1    2    0    0  0.54710433247E+00  0.72814134992E+00 -0.75078504267E+00  0.90007664812E+02  0.89999925187E+02 0.  0.
        -12    1    1    2    0    0 -0.54710433247E+00 -0.72814134992E+00  0.75078504267E+00  0.11803351881E+01  0.00000000000E+00 0.  1.
         11    1    3    3    0    0  0.22708439584E+02  0.26347959111E+02 -0.14356111613E+02  0.37629590996E+02  0.51100000000E-03 0. -1.
        -11    1    3    3    0    0  0.82550326202E+01  0.37503725666E+00 -0.33577207880E+01  0.89196695934E+01  0.51100000000E-03 0.  1.
        -12    1    3    3    0    0 -0.30416367872E+02 -0.25994855017E+02  0.16963047358E+02  0.43458404222E+02  0.00000000000E+00 0.  1.
</event>
<event>
 7    1  0.1910099E-015  0.9000779E+02  0.7816164E-02  0.1186339E+00
        -11   -1    0    0    0    0  0.00000000000E+00  0.00000000000E+00  0.45593999997E+02  0.45594000000E+02  0.51100000000E-03 0.  1.
         11   -1    0    0    0    0 -0.00000000000E+00 -0.00000000000E+00 -0.45593999997E+02  0.45594000000E+02  0.51100000000E-03 0. -1.
    9900012    2    1    2    0    0 -0.90616242824E+00 -0.32783728079E+00 -0.68138845118E+00  0.90007789065E+02  0.90000051081E+02 0.  0.
        -12    1    1    2    0    0  0.90616242824E+00  0.32783728079E+00  0.68138845118E+00  0.11802109347E+01  0.00000000000E+00 0.  1.
         11    1    3    3    0    0 -0.22666255639E+01 -0.12441517960E+02 -0.41395167757E+02  0.43283817697E+02  0.51100000000E-03 0. -1.
        -11    1    3    3    0    0  0.73544781176E+01 -0.17220822410E+00  0.62675729396E+01  0.96643921106E+01  0.51100000000E-03 0.  1.
        -12    1    3    3    0    0 -0.59940149820E+01  0.12285888903E+02  0.34446206366E+02  0.37059579257E+02  0.00000000000E+00 0.  1.
</event>
<event>
 7    1  0.1910099E-015  0.9000756E+02  0.7816164E-02  0.1186339E+00
        -11   -1    0    0    0    0  0.00000000000E+00  0.00000000000E+00  0.45593999997E+02  0.45594000000E+02  0.51100000000E-03 0.  1.
         11   -1    0    0    0    0 -0.00000000000E+00 -0.00000000000E+00 -0.45593999997E+02  0.45594000000E+02  0.51100000000E-03 0. -1.
    9900012    2    1    2    0    0 -0.61409183890E+00 -0.18894121348E+00 -0.99026779793E+00  0.90007560302E+02  0.89999819298E+02 0.  0.
        -12    1    1    2    0    0  0.61409183890E+00  0.18894121348E+00  0.99026779793E+00  0.11804396979E+01  0.00000000000E+00 0.  1.
         11    1    3    3    0    0 -0.35379578345E+01 -0.29728372136E+01  0.99096241375E+01  0.10934146402E+02  0.51100000000E-03 0. -1.
        -11    1    3    3    0    0  0.17876990425E+02  0.34258750602E+01  0.30239975813E+02  0.35295602332E+02  0.51100000000E-03 0.  1.
         12    1    3    3    0    0 -0.14953124429E+02 -0.64197906007E+00 -0.41139867748E+02  0.43777811568E+02  0.00000000000E+00 0. -1.
</event>
<event>
 7    1  0.1910099E-015  0.9000793E+02  0.7816164E-02  0.1186339E+00
        -11   -1    0    0    0    0  0.00000000000E+00  0.00000000000E+00  0.45593999997E+02  0.45594000000E+02  0.51100000000E-03 0. -1.
         11   -1    0    0    0    0 -0.00000000000E+00 -0.00000000000E+00 -0.45593999997E+02  0.45594000000E+02  0.51100000000E-03 0.  1.
    9900012    2    1    2    0    0 -0.73750327405E+00 -0.30685762804E+00  0.86861318050E+00  0.90007931553E+02  0.90000195449E+02 0.  0.
        -12    1    1    2    0    0  0.73750327405E+00  0.30685762804E+00 -0.86861318050E+00  0.11800684474E+01  0.00000000000E+00 0.  1.
         11    1    3    3    0    0 -0.10793191663E+02 -0.24855752577E+01  0.28639976187E+01  0.11439997957E+02  0.51100000000E-03 0. -1.
        -11    1    3    3    0    0 -0.22448461121E+02  0.26302614842E+02  0.10612629441E+02  0.36171658216E+02  0.51100000000E-03 0.  1.
         12    1    3    3    0    0  0.32504149510E+02 -0.24123897212E+02 -0.12608013879E+02  0.42396275379E+02  0.00000000000E+00 0. -1.
</event>
<event>
 7    1  0.1910099E-015  0.9000770E+02  0.7816164E-02  0.1186339E+00
        -11   -1    0    0    0    0  0.00000000000E+00  0.00000000000E+00  0.45593999997E+02  0.45594000000E+02  0.51100000000E-03 0. -1.
         11   -1    0    0    0    0 -0.00000000000E+00 -0.00000000000E+00 -0.45593999997E+02  0.45594000000E+02  0.51100000000E-03 0.  1.
    9900012    2    1    2    0    0 -0.46569616965E+00 -0.62260558296E+00  0.88802615702E+00  0.90007702965E+02  0.89999963845E+02 0.  0.
        -12    1    1    2    0    0  0.46569616965E+00  0.62260558296E+00 -0.88802615702E+00  0.11802970346E+01  0.00000000000E+00 0.  1.
         11    1    3    3    0    0 -0.34941458958E+02 -0.40682589463E+01  0.13324297215E+02  0.37616395116E+02  0.51100000000E-03 0. -1.
        -11    1    3    3    0    0 -0.75383394254E+01 -0.30801093102E+01 -0.38826469449E+01  0.90215620718E+01  0.51100000000E-03 0.  1.
        -12    1    3    3    0    0  0.42014102214E+02  0.65257626735E+01 -0.85536241136E+01  0.43369745777E+02  0.00000000000E+00 0.  1.
</event>
<event>
 7    1  0.1910099E-015  0.9000776E+02  0.7816164E-02  0.1186339E+00
        -11   -1    0    0    0    0  0.00000000000E+00  0.00000000000E+00  0.45593999997E+02  0.45594000000E+02  0.51100000000E-03 0.  1.
         11   -1    0    0    0    0 -0.00000000000E+00 -0.00000000000E+00 -0.45593999997E+02  0.45594000000E+02  0.51100000000E-03 0. -1.
    9900012    2    1    2    0    0  0.27300719816E-01 -0.11271339880E+01  0.34898958668E+00  0.90007758462E+02  0.90000020074E+02 0.  0.
        -12    1    1    2    0    0 -0.27300719816E-01  0.11271339880E+01 -0.34898958668E+00  0.11802415379E+01  0.00000000000E+00 0.  1.
         11    1    3    3    0    0  0.46432041153E+01 -0.29223635924E+01  0.84036369424E+01  0.10035968690E+02  0.51100000000E-03 0. -1.
        -11    1    3    3    0    0 -0.34920720388E+02  0.45626851633E+01  0.18323890515E+02  0.39699367403E+02  0.51100000000E-03 0.  1.
         12    1    3    3    0    0  0.30304816993E+02 -0.27674555588E+01 -0.26378537871E+02  0.40272422369E+02  0.00000000000E+00 0. -1.
</event>
<event>
 7    1  0.1910099E-015  0.9000774E+02  0.7816164E-02  0.1186339E+00
        -11   -1    0    0    0    0  0.00000000000E+00  0.00000000000E+00  0.45593999997E+02  0.45594000000E+02  0.51100000000E-03 0.  1.
         11   -1    0    0    0    0 -0.00000000000E+00 -0.00000000000E+00 -0.45593999997E+02  0.45594000000E+02  0.51100000000E-03 0. -1.
    9900012    2    1    2    0    0 -0.10940562072E+01 -0.42759194791E+00 -0.11494963389E+00  0.90007742707E+02  0.90000004111E+02 0.  0.
        -12    1    1    2    0    0  0.10940562072E+01  0.42759194791E+00  0.11494963389E+00  0.11802572926E+01  0.00000000000E+00 0.  1.
         11    1    3    3    0    0  0.21107132668E+02 -0.31924079747E+02 -0.15466602903E+02  0.41278005315E+02  0.51100000000E-03 0. -1.
        -11    1    3    3    0    0 -0.55023796190E+01 -0.28683224038E+01  0.74823648881E+01  0.97205575696E+01  0.51100000000E-03 0.  1.
        -12    1    3    3    0    0 -0.16698809256E+02  0.34364810203E+02  0.78692883812E+01  0.39009179823E+02  0.00000000000E+00 0.  1.
</event>
<event>
 7    1  0.1910099E-015  0.9000770E+02  0.7816164E-02  0.1186339E+00
        -11   -1    0    0    0    0  0.00000000000E+00  0.00000000000E+00  0.45593999997E+02  0.45594000000E+02  0.51100000000E-03 0. -1.
         11   -1    0    0    0    0 -0.00000000000E+00 -0.00000000000E+00 -0.45593999997E+02  0.45594000000E+02  0.51100000000E-03 0.  1.
    9900012    2    1    2    0    0 -0.52808149283E+00 -0.52794448095E+00  0.91405876415E+00  0.90007703909E+02  0.89999964801E+02 0.  0.
        -12    1    1    2    0    0  0.52808149283E+00  0.52794448095E+00 -0.91405876415E+00  0.11802960910E+01  0.00000000000E+00 0.  1.
         11    1    3    3    0    0 -0.92382042918E+00  0.10660486587E+02  0.41927630904E+01  0.11492548936E+02  0.51100000000E-03 0. -1.
        -11    1    3    3    0    0  0.27876325064E+01 -0.17310364230E+02  0.35281919906E+02  0.39398394349E+02  0.51100000000E-03 0.  1.
         12    1    3    3    0    0 -0.23918935700E+01  0.61219331625E+01 -0.38560624232E+02  0.39116760624E+02  0.00000000000E+00 0. -1.
</event>
<event>
 7    1  0.1910099E-015  0.9000769E+02  0.7816164E-02  0.1186339E+00
        -11   -1    0    0    0    0  0.00000000000E+00  0.00000000000E+00  0.45593999997E+02  0.45594000000E+02  0.51100000000E-03 0. -1.
         11   -1    0    0    0    0 -0.00000000000E+00 -0.00000000000E+00 -0.45593999997E+02  0.45594000000E+02  0.51100000000E-03 0.  1.
    9900012    2    1    2    0    0 -0.27487032073E+00 -0.92234072704E+00  0.68327819506E+00  0.90007688515E+02  0.89999949203E+02 0.  0.
        -12    1    1    2    0    0  0.27487032073E+00  0.92234072704E+00 -0.68327819506E+00  0.11803114851E+01  0.00000000000E+00 0.  1.
         11    1    3    3    0    0  0.15290670187E+00 -0.75484897182E+01 -0.63715890457E+01  0.98792826012E+01  0.51100000000E-03 0. -1.
        -11    1    3    3    0    0 -0.25272057762E+02  0.34311740274E+02  0.41901526127E+01  0.42819736143E+02  0.51100000000E-03 0.  1.
         12    1    3    3    0    0  0.24844280739E+02 -0.27685591283E+02  0.28647146281E+01  0.37308669771E+02  0.00000000000E+00 0. -1.
</event>
<event>
 7    1  0.1910099E-015  0.9000775E+02  0.7816164E-02  0.1186339E+00
        -11   -1    0    0    0    0  0.00000000000E+00  0.00000000000E+00  0.45593999997E+02  0.45594000000E+02  0.51100000000E-03 0. -1.
         11   -1    0    0    0    0 -0.00000000000E+00 -0.00000000000E+00 -0.45593999997E+02  0.45594000000E+02  0.51100000000E-03 0.  1.
    9900012    2    1    2    0    0  0.50500545476E-01  0.11698436318E+01 -0.14802891835E+00  0.90007747066E+02  0.90000008527E+02 0.  0.
        -12    1    1    2    0    0 -0.50500545476E-01 -0.11698436318E+01  0.14802891835E+00  0.11802529342E+01  0.00000000000E+00 0.  1.
         11    1    3    3    0    0  0.14978132152E+02  0.12320159636E+00  0.14036966665E+02  0.20527933525E+02  0.51100000000E-03 0. -1.
        -11    1    3    3    0    0  0.10822469820E+02  0.30026707538E+01  0.22189760875E+02  0.24870210546E+02  0.51100000000E-03 0.  1.
        -12    1    3    3    0    0 -0.25750101427E+02 -0.19560287184E+01 -0.36374756459E+02  0.44609602994E+02  0.00000000000E+00 0.  1.
</event>
<event>
 7    1  0.1910099E-015  0.9000793E+02  0.7816164E-02  0.1186339E+00
        -11   -1    0    0    0    0  0.00000000000E+00  0.00000000000E+00  0.45593999997E+02  0.45594000000E+02  0.51100000000E-03 0. -1.
         11   -1    0    0    0    0 -0.00000000000E+00 -0.00000000000E+00 -0.45593999997E+02  0.45594000000E+02  0.51100000000E-03 0.  1.
    9900012    2    1    2    0    0  0.16135133130E+00 -0.11412538499E+01 -0.25311909175E+00  0.90007930563E+02  0.90000194446E+02 0.  0.
        -12    1    1    2    0    0 -0.16135133130E+00  0.11412538499E+01  0.25311909175E+00  0.11800694372E+01  0.00000000000E+00 0.  1.
         11    1    3    3    0    0  0.82750029657E+01 -0.33644541421E+00 -0.13413131964E+02  0.15763913820E+02  0.51100000000E-03 0. -1.
        -11    1    3    3    0    0 -0.23085292148E+02 -0.31147035852E+02  0.11189086685E+02  0.40351756058E+02  0.51100000000E-03 0.  1.
         12    1    3    3    0    0  0.14971640513E+02  0.30342227416E+02  0.19709261870E+01  0.33892260684E+02  0.00000000000E+00 0. -1.
</event>
<event>
 7    1  0.1910099E-015  0.9000781E+02  0.7816164E-02  0.1186339E+00
        -11   -1    0    0    0    0  0.00000000000E+00  0.00000000000E+00  0.45593999997E+02  0.45594000000E+02  0.51100000000E-03 0.  1.
         11   -1    0    0    0    0 -0.00000000000E+00 -0.00000000000E+00 -0.45593999997E+02  0.45594000000E+02  0.51100000000E-03 0. -1.
    9900012    2    1    2    0    0 -0.56120192085E+00  0.41548317620E+00 -0.95146277011E+00  0.90007807105E+02  0.90000069359E+02 0.  0.
        -12    1    1    2    0    0  0.56120192085E+00 -0.41548317620E+00  0.95146277011E+00  0.11801928946E+01  0.00000000000E+00 0.  1.
         11    1    3    3    0    0  0.32064935665E+02  0.23695392262E+01 -0.15983539416E+02  0.35906104605E+02  0.51100000000E-03 0. -1.
        -11    1    3    3    0    0  0.41160649940E+01  0.26000114327E+01 -0.88099730823E+01  0.10065668207E+02  0.51100000000E-03 0.  1.
        -12    1    3    3    0    0 -0.36742202580E+02 -0.45540674826E+01  0.23842049728E+02  0.44036034294E+02  0.00000000000E+00 0.  1.
</event>
<event>
 7    1  0.1910099E-015  0.9000774E+02  0.7816164E-02  0.1186339E+00
        -11   -1    0    0    0    0  0.00000000000E+00  0.00000000000E+00  0.45593999997E+02  0.45594000000E+02  0.51100000000E-03 0. -1.
         11   -1    0    0    0    0 -0.00000000000E+00 -0.00000000000E+00 -0.45593999997E+02  0.45594000000E+02  0.51100000000E-03 0.  1.
    9900012    2    1    2    0    0 -0.60766547059E+00  0.34443969111E+00 -0.95137758100E+00  0.90007739297E+02  0.90000000656E+02 0.  0.
        -12    1    1    2    0    0  0.60766547059E+00 -0.34443969111E+00  0.95137758100E+00  0.11802607028E+01  0.00000000000E+00 0.  1.
         11    1    3    3    0    0 -0.65590244928E+00 -0.14844005408E+01 -0.98713283150E+01  0.10003838061E+02  0.51100000000E-03 0. -1.
        -11    1    3    3    0    0 -0.33120823904E+00  0.25460421274E+02 -0.26931643047E+02  0.37062867506E+02  0.51100000000E-03 0.  1.
         12    1    3    3    0    0  0.37944521774E+00 -0.23631581042E+02  0.35851593780E+02  0.42941033730E+02  0.00000000000E+00 0. -1.
</event>
<event>
 7    1  0.1910099E-015  0.9000746E+02  0.7816164E-02  0.1186340E+00
        -11   -1    0    0    0    0  0.00000000000E+00  0.00000000000E+00  0.45593999997E+02  0.45594000000E+02  0.51100000000E-03 0.  1.
         11   -1    0    0    0    0 -0.00000000000E+00 -0.00000000000E+00 -0.45593999997E+02  0.45594000000E+02  0.51100000000E-03 0. -1.
    9900012    2    1    2    0    0 -0.86098279549E+00  0.41138707412E+00  0.69508448824E+00  0.90007460655E+02  0.89999718335E+02 0.  0.
        -12    1    1    2    0    0  0.86098279549E+00 -0.41138707412E+00 -0.69508448824E+00  0.11805393448E+01  0.00000000000E+00 0.  1.
         11    1    3    3    0    0 -0.10790968541E+02  0.21557762046E+01 -0.64329113254E+00  0.11022984933E+02  0.51100000000E-03 0. -1.
        -11    1    3    3    0    0 -0.20769966620E+02 -0.23535903136E+02  0.19739108330E+02  0.37080488775E+02  0.51100000000E-03 0.  1.
         12    1    3    3    0    0  0.30699952365E+02  0.21791514006E+02 -0.18400732709E+02  0.41903986948E+02  0.00000000000E+00 0. -1.
</event>
<event>
 7    1  0.2893867E-015  0.9000771E+02  0.7816164E-02  0.1186339E+00
        -11   -1    0    0    0    0  0.00000000000E+00  0.00000000000E+00  0.45593999997E+02  0.45594000000E+02  0.51100000000E-03 0. -1.
         11   -1    0    0    0    0 -0.00000000000E+00 -0.00000000000E+00 -0.45593999997E+02  0.45594000000E+02  0.51100000000E-03 0.  1.
    9900012    2    1    2    0    0  0.95558224112E+00 -0.11581540130E+00  0.68303390982E+00  0.90007709380E+02  0.89999970343E+02 0.  0.
        -12    1    1    2    0    0 -0.95558224112E+00  0.11581540130E+00 -0.68303390982E+00  0.11802906204E+01  0.00000000000E+00 0.  1.
         11    1    3    3    0    0  0.17643376132E+01  0.92935561103E+00 -0.94038528474E+01  0.96129619629E+01  0.51100000000E-03 0. -1.
        -11    1    3    3    0    0  0.27052784026E+02 -0.55225378577E+01 -0.23690249849E+02  0.36381031955E+02  0.51100000000E-03 0.  1.
         12    1    3    3    0    0 -0.27861539398E+02  0.44773668454E+01  0.33777136606E+02  0.44013715462E+02  0.00000000000E+00 0. -1.
</event>
<event>
 7    1  0.1910099E-015  0.9000774E+02  0.7816164E-02  0.1186339E+00
        -11   -1    0    0    0    0  0.00000000000E+00  0.00000000000E+00  0.45593999997E+02  0.45594000000E+02  0.51100000000E-03 0. -1.
         11   -1    0    0    0    0 -0.00000000000E+00 -0.00000000000E+00 -0.45593999997E+02  0.45594000000E+02  0.51100000000E-03 0.  1.
    9900012    2    1    2    0    0 -0.57499665092E+00 -0.84396026318E+00  0.59172016599E+00  0.90007736119E+02  0.89999997436E+02 0.  0.
        -12    1    1    2    0    0  0.57499665092E+00  0.84396026318E+00 -0.59172016599E+00  0.11802638812E+01  0.00000000000E+00 0.  1.
         11    1    3    3    0    0  0.13206464365E+02 -0.33583977547E+02 -0.66453756661E+01  0.36694076728E+02  0.51100000000E-03 0. -1.
        -11    1    3    3    0    0 -0.46702596685E+00 -0.89887103006E+01  0.17581584559E+01  0.91709403847E+01  0.51100000000E-03 0.  1.
        -12    1    3    3    0    0 -0.13314435049E+02  0.41728727585E+02  0.54789373761E+01  0.44142719006E+02  0.00000000000E+00 0.  1.
</event>
<event>
 7    1  0.1910099E-015  0.9000779E+02  0.7816164E-02  0.1186339E+00
        -11   -1    0    0    0    0  0.00000000000E+00  0.00000000000E+00  0.45593999997E+02  0.45594000000E+02  0.51100000000E-03 0.  1.
         11   -1    0    0    0    0 -0.00000000000E+00 -0.00000000000E+00 -0.45593999997E+02  0.45594000000E+02  0.51100000000E-03 0. -1.
    9900012    2    1    2    0    0 -0.61720129318E-01  0.83514000108E+00 -0.83163618561E+00  0.90007793687E+02  0.90000055764E+02 0.  0.
        -12    1    1    2    0    0  0.61720129318E-01 -0.83514000108E+00  0.83163618561E+00  0.11802063129E+01  0.00000000000E+00 0.  1.
         11    1    3    3    0    0  0.18772103087E+02 -0.23594372460E+02 -0.27765472334E+02  0.40987897242E+02  0.51100000000E-03 0. -1.
        -11    1    3    3    0    0  0.69806591494E+01  0.41956692059E+01  0.58687559018E+01  0.10038702025E+02  0.51100000000E-03 0.  1.
        -12    1    3    3    0    0 -0.25814482365E+02  0.20233843255E+02  0.21065080247E+02  0.38981194421E+02  0.00000000000E+00 0.  1.
</event>
<event>
 7    1  0.1910099E-015  0.9000770E+02  0.7816164E-02  0.1186339E+00
        -11   -1    0    0    0    0  0.00000000000E+00  0.00000000000E+00  0.45593999997E+02  0.45594000000E+02  0.51100000000E-03 0.  1.
         11   -1    0    0    0    0 -0.00000000000E+00 -0.00000000000E+00 -0.45593999997E+02  0.45594000000E+02  0.51100000000E-03 0. -1.
    9900012    2    1    2    0    0 -0.18425190388E+00  0.43882751952E+00 -0.10800882166E+01  0.90007699652E+02  0.89999960487E+02 0.  0.
        -12    1    1    2    0    0  0.18425190388E+00 -0.43882751952E+00  0.10800882166E+01  0.11803003480E+01  0.00000000000E+00 0.  1.
         11    1    3    3    0    0  0.57377184031E+01 -0.26271308959E+01 -0.61844186194E+01  0.88357378378E+01  0.51100000000E-03 0. -1.
        -11    1    3    3    0    0 -0.41963298046E+02  0.52877456089E+01 -0.74416445724E+01  0.42944810055E+02  0.51100000000E-03 0.  1.
         12    1    3    3    0    0  0.36041327739E+02 -0.22217871934E+01  0.12545974975E+02  0.38227151759E+02  0.00000000000E+00 0. -1.
</event>
<event>
 7    1  0.1910099E-015  0.9000775E+02  0.7816164E-02  0.1186339E+00
        -11   -1    0    0    0    0  0.00000000000E+00  0.00000000000E+00  0.45593999997E+02  0.45594000000E+02  0.51100000000E-03 0.  1.
         11   -1    0    0    0    0 -0.00000000000E+00 -0.00000000000E+00 -0.45593999997E+02  0.45594000000E+02  0.51100000000E-03 0. -1.
    9900012    2    1    2    0    0 -0.73338664023E+00  0.51826580703E+00 -0.76586187944E+00  0.90007745862E+02  0.90000007308E+02 0.  0.
        -12    1    1    2    0    0  0.73338664023E+00 -0.51826580703E+00  0.76586187944E+00  0.11802541375E+01  0.00000000000E+00 0.  1.
         11    1    3    3    0    0 -0.25814582312E+01 -0.32362996604E+02 -0.24949496762E+02  0.40945144581E+02  0.51100000000E-03 0. -1.
        -11    1    3    3    0    0 -0.84491898533E+01  0.37273312084E+01 -0.85830068917E+00  0.92746152183E+01  0.51100000000E-03 0.  1.
        -12    1    3    3    0    0  0.10297261444E+02  0.29153931203E+02  0.25041935571E+02  0.39787986064E+02  0.00000000000E+00 0.  1.
</event>
<event>
 7    1  0.1910099E-015  0.9000766E+02  0.7816164E-02  0.1186339E+00
        -11   -1    0    0    0    0  0.00000000000E+00  0.00000000000E+00  0.45593999997E+02  0.45594000000E+02  0.51100000000E-03 0. -1.
         11   -1    0    0    0    0 -0.00000000000E+00 -0.00000000000E+00 -0.45593999997E+02  0.45594000000E+02  0.51100000000E-03 0.  1.
    9900012    2    1    2    0    0  0.11222043210E+01 -0.29041400469E+00  0.22251122298E+00  0.90007663575E+02  0.89999923934E+02 0.  0.
        -12    1    1    2    0    0 -0.11222043210E+01  0.29041400469E+00 -0.22251122298E+00  0.11803364252E+01  0.00000000000E+00 0.  1.
         11    1    3    3    0    0 -0.58552564221E+01 -0.35139749918E+02  0.96459426136E+01  0.36907048937E+02  0.51100000000E-03 0. -1.
        -11    1    3    3    0    0 -0.15755737456E+02  0.11233522223E+02 -0.52971928988E+01  0.20062291424E+02  0.51100000000E-03 0.  1.
        -12    1    3    3    0    0  0.22733198199E+02  0.23615813691E+02 -0.41262384918E+01  0.33038323213E+02  0.00000000000E+00 0.  1.
</event>
<event>
 7    1  0.1910099E-015  0.9000775E+02  0.7816164E-02  0.1186339E+00
        -11   -1    0    0    0    0  0.00000000000E+00  0.00000000000E+00  0.45593999997E+02  0.45594000000E+02  0.51100000000E-03 0. -1.
         11   -1    0    0    0    0 -0.00000000000E+00 -0.00000000000E+00 -0.45593999997E+02  0.45594000000E+02  0.51100000000E-03 0.  1.
    9900012    2    1    2    0    0  0.11720656470E+00 -0.65082207178E+00  0.97759620209E+00  0.90007745332E+02  0.90000006770E+02 0.  0.
        -12    1    1    2    0    0 -0.11720656470E+00  0.65082207178E+00 -0.97759620209E+00  0.11802546684E+01  0.00000000000E+00 0.  1.
         11    1    3    3    0    0 -0.16074427226E+02  0.20080433405E+02  0.15953640683E+02  0.30267633995E+02  0.51100000000E-03 0. -1.
        -11    1    3    3    0    0 -0.16944360412E+02 -0.97515088490E+00 -0.12506719260E+02  0.21082701343E+02  0.51100000000E-03 0.  1.
        -12    1    3    3    0    0  0.33135994202E+02 -0.19756104592E+02 -0.24693252205E+01  0.38657409994E+02  0.00000000000E+00 0.  1.
</event>
<event>
 7    1  0.1910099E-015  0.9000772E+02  0.7816164E-02  0.1186339E+00
        -11   -1    0    0    0    0  0.00000000000E+00  0.00000000000E+00  0.45593999997E+02  0.45594000000E+02  0.51100000000E-03 0.  1.
         11   -1    0    0    0    0 -0.00000000000E+00 -0.00000000000E+00 -0.45593999997E+02  0.45594000000E+02  0.51100000000E-03 0. -1.
    9900012    2    1    2    0    0  0.22326898311E+00  0.10759141460E+01  0.43083411286E+00  0.90007721083E+02  0.89999982202E+02 0.  0.
        -12    1    1    2    0    0 -0.22326898311E+00 -0.10759141460E+01 -0.43083411286E+00  0.11802789167E+01  0.00000000000E+00 0.  1.
         11    1    3    3    0    0  0.49471360620E+01  0.45330157605E+01  0.58626245566E+01  0.89102611664E+01  0.51100000000E-03 0. -1.
        -11    1    3    3    0    0  0.21144671724E+02  0.16086078702E+01  0.30122051641E+02  0.36837789794E+02  0.51100000000E-03 0.  1.
         12    1    3    3    0    0 -0.25868538803E+02 -0.50657094847E+01 -0.35553842085E+02  0.44259670123E+02  0.00000000000E+00 0. -1.
</event>
<event>
 7    1  0.1910099E-015  0.9000762E+02  0.7816164E-02  0.1186339E+00
        -11   -1    0    0    0    0  0.00000000000E+00  0.00000000000E+00  0.45593999997E+02  0.45594000000E+02  0.51100000000E-03 0.  1.
         11   -1    0    0    0    0 -0.00000000000E+00 -0.00000000000E+00 -0.45593999997E+02  0.45594000000E+02  0.51100000000E-03 0. -1.
    9900012    2    1    2    0    0 -0.51700007301E+00  0.98114480701E+00 -0.40418937665E+00  0.90007617325E+02  0.89999877073E+02 0.  0.
        -12    1    1    2    0    0  0.51700007301E+00 -0.98114480701E+00  0.40418937665E+00  0.11803826752E+01  0.00000000000E+00 0.  1.
         11    1    3    3    0    0 -0.16430667133E+02  0.17293413235E+02  0.27010893201E+02  0.36036333269E+02  0.51100000000E-03 0. -1.
        -11    1    3    3    0    0 -0.10779088870E+02  0.76978216755E+00  0.16965357131E+01  0.10938901003E+02  0.51100000000E-03 0.  1.
        -12    1    3    3    0    0  0.26692755930E+02 -0.17082050596E+02 -0.29111618290E+02  0.43032383053E+02  0.00000000000E+00 0.  1.
</event>
<event>
 7    1  0.1910099E-015  0.9000763E+02  0.7816164E-02  0.1186339E+00
        -11   -1    0    0    0    0  0.00000000000E+00  0.00000000000E+00  0.45593999997E+02  0.45594000000E+02  0.51100000000E-03 0. -1.
         11   -1    0    0    0    0 -0.00000000000E+00 -0.00000000000E+00 -0.45593999997E+02  0.45594000000E+02  0.51100000000E-03 0.  1.
    9900012    2    1    2    0    0  0.20731396407E+00 -0.10348002584E+01  0.52865721699E+00  0.90007631792E+02  0.89999891731E+02 0.  0.
        -12    1    1    2    0    0 -0.20731396407E+00  0.10348002584E+01 -0.52865721699E+00  0.11803682085E+01  0.00000000000E+00 0.  1.
         11    1    3    3    0    0 -0.43124506581E+01  0.27863765494E+01  0.32112133040E+01  0.60558249726E+01  0.51100000000E-03 0. -1.
        -11    1    3    3    0    0 -0.37706935100E+02 -0.47790899271E+01  0.10974400014E+02  0.39561219788E+02  0.51100000000E-03 0.  1.
         12    1    3    3    0    0  0.42226699722E+02  0.95791311925E+00 -0.13656956101E+02  0.44390587031E+02  0.00000000000E+00 0. -1.
</event>
<event>
 7    1  0.1910099E-015  0.9000715E+02  0.7816164E-02  0.1186340E+00
        -11   -1    0    0    0    0  0.00000000000E+00  0.00000000000E+00  0.45593999997E+02  0.45594000000E+02  0.51100000000E-03 0.  1.
         11   -1    0    0    0    0 -0.00000000000E+00 -0.00000000000E+00 -0.45593999997E+02  0.45594000000E+02  0.51100000000E-03 0. -1.
    9900012    2    1    2    0    0 -0.11557230308E+01  0.13074150222E+00 -0.20401385906E+00  0.90007148308E+02  0.89999401863E+02 0.  0.
        -12    1    1    2    0    0  0.11557230308E+01 -0.13074150222E+00  0.20401385906E+00  0.11808516922E+01  0.00000000000E+00 0.  1.
         11    1    3    3    0    0 -0.20335453186E+02 -0.10304658604E+02  0.37693089018E+00  0.22800410575E+02  0.51100000000E-03 0. -1.
        -11    1    3    3    0    0 -0.15100776896E+02  0.17723761729E+02  0.16184125331E+02  0.28356500236E+02  0.51100000000E-03 0.  1.
         12    1    3    3    0    0  0.34280507051E+02 -0.72883616230E+01 -0.16765070080E+02  0.38850237497E+02  0.00000000000E+00 0. -1.
</event>
<event>
 7    1  0.2276079E-015  0.9000785E+02  0.7816164E-02  0.1186339E+00
        -11   -1    0    0    0    0  0.00000000000E+00  0.00000000000E+00  0.45593999997E+02  0.45594000000E+02  0.51100000000E-03 0. -1.
         11   -1    0    0    0    0 -0.00000000000E+00 -0.00000000000E+00 -0.45593999997E+02  0.45594000000E+02  0.51100000000E-03 0.  1.
    9900012    2    1    2    0    0  0.25246706391E+00  0.31287293809E+00  0.11095556007E+01  0.90007854787E+02  0.90000117670E+02 0.  0.
        -12    1    1    2    0    0 -0.25246706391E+00 -0.31287293809E+00 -0.11095556007E+01  0.11801452134E+01  0.00000000000E+00 0.  1.
         11    1    3    3    0    0 -0.57436599760E+01 -0.37125899693E+00  0.82625347052E+01  0.10069604917E+02  0.51100000000E-03 0. -1.
        -11    1    3    3    0    0 -0.92517429612E+01 -0.37358645277E+02 -0.58797384284E+01  0.38933718664E+02  0.51100000000E-03 0.  1.
         12    1    3    3    0    0  0.15247870001E+02  0.38042777212E+02 -0.12732406760E+01  0.41004531206E+02  0.00000000000E+00 0. -1.
</event>
<event>
 7    1  0.1910099E-015  0.9000786E+02  0.7816164E-02  0.1186339E+00
        -11   -1    0    0    0    0  0.00000000000E+00  0.00000000000E+00  0.45593999997E+02  0.45594000000E+02  0.51100000000E-03 0.  1.
         11   -1    0    0    0    0 -0.00000000000E+00 -0.00000000000E+00 -0.45593999997E+02  0.45594000000E+02  0.51100000000E-03 0. -1.
    9900012    2    1    2    0    0  0.10399719497E+01  0.46201969733E+00  0.31259807602E+00  0.90007863815E+02  0.90000126818E+02 0.  0.
        -12    1    1    2    0    0 -0.10399719497E+01 -0.46201969733E+00 -0.31259807602E+00  0.11801361845E+01  0.00000000000E+00 0.  1.
         11    1    3    3    0    0  0.79736357969E+01 -0.36486830185E+01  0.24435513740E+01  0.91028950982E+01  0.51100000000E-03 0. -1.
        -11    1    3    3    0    0 -0.26800111377E+02 -0.19740484083E+02  0.23420961479E+02  0.40699804895E+02  0.51100000000E-03 0.  1.
         12    1    3    3    0    0  0.19866447530E+02  0.23851186799E+02 -0.25551914777E+02  0.40205163822E+02  0.00000000000E+00 0. -1.
</event>
<event>
 7    1  0.1910099E-015  0.9000772E+02  0.7816164E-02  0.1186339E+00
        -11   -1    0    0    0    0  0.00000000000E+00  0.00000000000E+00  0.45593999997E+02  0.45594000000E+02  0.51100000000E-03 0. -1.
         11   -1    0    0    0    0 -0.00000000000E+00 -0.00000000000E+00 -0.45593999997E+02  0.45594000000E+02  0.51100000000E-03 0.  1.
    9900012    2    1    2    0    0 -0.90959644728E+00 -0.73779420818E+00  0.14611514602E+00  0.90007722225E+02  0.89999983358E+02 0.  0.
        -12    1    1    2    0    0  0.90959644728E+00  0.73779420818E+00 -0.14611514602E+00  0.11802777751E+01  0.00000000000E+00 0.  1.
         11    1    3    3    0    0  0.30604148495E+00 -0.37591482205E+01 -0.77648701054E+01  0.86323846502E+01  0.51100000000E-03 0. -1.
        -11    1    3    3    0    0 -0.18933652475E+02  0.37620975225E+02  0.42894551137E+01  0.42334624108E+02  0.51100000000E-03 0.  1.
         12    1    3    3    0    0  0.17718014543E+02 -0.34599621213E+02  0.36215301377E+01  0.39040713466E+02  0.00000000000E+00 0. -1.
</event>
<event>
 7    1  0.1910099E-015  0.9000770E+02  0.7816164E-02  0.1186339E+00
        -11   -1    0    0    0    0  0.00000000000E+00  0.00000000000E+00  0.45593999997E+02  0.45594000000E+02  0.51100000000E-03 0.  1.
         11   -1    0    0    0    0 -0.00000000000E+00 -0.00000000000E+00 -0.45593999997E+02  0.45594000000E+02  0.51100000000E-03 0. -1.
    9900012    2    1    2    0    0  0.55390830085E+00  0.57377013111E+00 -0.87010672005E+00  0.90007698228E+02  0.89999959044E+02 0.  0.
        -12    1    1    2    0    0 -0.55390830085E+00 -0.57377013111E+00  0.87010672005E+00  0.11803017722E+01  0.00000000000E+00 0.  1.
         11    1    3    3    0    0  0.63053460005E+01  0.33784863029E+01  0.67144863986E+01  0.98110083958E+01  0.51100000000E-03 0. -1.
        -11    1    3    3    0    0  0.60709734773E+01 -0.36386202691E+02  0.12951360008E+02  0.39096677500E+02  0.51100000000E-03 0.  1.
         12    1    3    3    0    0 -0.11822411177E+02  0.33581486519E+02 -0.20535953126E+02  0.41100012332E+02  0.00000000000E+00 0. -1.
</event>
<event>
 7    1  0.1910099E-015  0.9000779E+02  0.7816164E-02  0.1186339E+00
        -11   -1    0    0    0    0  0.00000000000E+00  0.00000000000E+00  0.45593999997E+02  0.45594000000E+02  0.51100000000E-03 0.  1.
         11   -1    0    0    0    0 -0.00000000000E+00 -0.00000000000E+00 -0.45593999997E+02  0.45594000000E+02  0.51100000000E-03 0. -1.
    9900012    2    1    2    0    0 -0.63259491282E+00  0.27454914020E+00 -0.95778572223E+00  0.90007785170E+02  0.90000047135E+02 0.  0.
        -12    1    1    2    0    0  0.63259491282E+00 -0.27454914020E+00  0.95778572223E+00  0.11802148295E+01  0.00000000000E+00 0.  1.
         11    1    3    3    0    0  0.10654134457E+02 -0.11853122353E+02 -0.37305804135E+02  0.40567599300E+02  0.51100000000E-03 0. -1.
        -11    1    3    3    0    0 -0.33062024565E+01 -0.87746354685E+01  0.42043033967E+01  0.10276252702E+02  0.51100000000E-03 0.  1.
        -12    1    3    3    0    0 -0.79805269130E+01  0.20902306961E+02  0.32143715017E+02  0.39163933168E+02  0.00000000000E+00 0.  1.
</event>
<event>
 8    1  0.1910099E-015  0.9000767E+02  0.7816164E-02  0.1186339E+00
        -11   -1    0    0    0    0  0.00000000000E+00  0.00000000000E+00  0.45593999997E+02  0.45594000000E+02  0.51100000000E-03 0.  1.
         11   -1    0    0    0    0 -0.00000000000E+00 -0.00000000000E+00 -0.45593999997E+02  0.45594000000E+02  0.51100000000E-03 0. -1.
    9900012    2    1    2    0    0  0.29832561024E+00  0.11409230515E+01 -0.49773389478E-01  0.90007669127E+02  0.89999929560E+02 0.  0.
         23    2    3    3    0    0  0.17512863468E+02 -0.16662534501E+02  0.17977959401E+01  0.65173883131E+02  0.60498450636E+02 0.  0.
        -12    1    1    2    0    0 -0.29832561024E+00 -0.11409230515E+01  0.49773389478E-01  0.11803308729E+01  0.00000000000E+00 0.  1.
         11    1    4    4    0    0  0.37378960917E+02  0.14259401514E+01  0.62968360665E+01  0.37932442174E+02  0.51100000000E-03 0. -1.
        -11    1    4    4    0    0 -0.19866097449E+02 -0.18088474652E+02 -0.44990401263E+01  0.27241440957E+02  0.51100000000E-03 0.  1.
        -12    1    3    3    0    0 -0.17214537858E+02  0.17803457552E+02 -0.18475693296E+01  0.24833785996E+02  0.00000000000E+00 0.  1.
</event>
<event>
 7    1  0.1910099E-015  0.9000767E+02  0.7816164E-02  0.1186339E+00
        -11   -1    0    0    0    0  0.00000000000E+00  0.00000000000E+00  0.45593999997E+02  0.45594000000E+02  0.51100000000E-03 0. -1.
         11   -1    0    0    0    0 -0.00000000000E+00 -0.00000000000E+00 -0.45593999997E+02  0.45594000000E+02  0.51100000000E-03 0.  1.
    9900012    2    1    2    0    0 -0.19324915077E+00 -0.31826568561E+00  0.11200614218E+01  0.90007671287E+02  0.89999931748E+02 0.  0.
        -12    1    1    2    0    0  0.19324915077E+00  0.31826568561E+00 -0.11200614218E+01  0.11803287125E+01  0.00000000000E+00 0.  1.
         11    1    3    3    0    0  0.23120420562E+02 -0.25171951359E+02  0.59551896356E+01  0.34693591138E+02  0.51100000000E-03 0. -1.
        -11    1    3    3    0    0  0.10446567667E+00 -0.10393265648E+02  0.54910115349E+01  0.11755087913E+02  0.51100000000E-03 0.  1.
        -12    1    3    3    0    0 -0.23418135389E+02  0.35246951322E+02 -0.10326139749E+02  0.43558992237E+02  0.00000000000E+00 0.  1.
</event>
<event>
 7    1  0.1910099E-015  0.9000762E+02  0.7816164E-02  0.1186339E+00
        -11   -1    0    0    0    0  0.00000000000E+00  0.00000000000E+00  0.45593999997E+02  0.45594000000E+02  0.51100000000E-03 0. -1.
         11   -1    0    0    0    0 -0.00000000000E+00 -0.00000000000E+00 -0.45593999997E+02  0.45594000000E+02  0.51100000000E-03 0.  1.
    9900012    2    1    2    0    0 -0.81095309622E+00  0.72662554800E+00  0.45570799363E+00  0.90007618965E+02  0.89999878736E+02 0.  0.
        -12    1    1    2    0    0  0.81095309622E+00 -0.72662554800E+00 -0.45570799363E+00  0.11803810346E+01  0.00000000000E+00 0.  1.
         11    1    3    3    0    0  0.63753321727E+01 -0.13657494358E+01  0.75502500528E+01  0.99757910942E+01  0.51100000000E-03 0. -1.
        -11    1    3    3    0    0  0.66932026465E+01 -0.98410051257E+01 -0.40351691442E+02  0.42070219229E+02  0.51100000000E-03 0.  1.
         12    1    3    3    0    0 -0.13879487915E+02  0.11933380109E+02  0.33257149382E+02  0.37961608642E+02  0.00000000000E+00 0. -1.
</event>
<event>
 7    1  0.1910099E-015  0.9000778E+02  0.7816164E-02  0.1186339E+00
        -11   -1    0    0    0    0  0.00000000000E+00  0.00000000000E+00  0.45593999997E+02  0.45594000000E+02  0.51100000000E-03 0.  1.
         11   -1    0    0    0    0 -0.00000000000E+00 -0.00000000000E+00 -0.45593999997E+02  0.45594000000E+02  0.51100000000E-03 0. -1.
    9900012    2    1    2    0    0 -0.97675200626E+00 -0.13362080636E+00 -0.64885782453E+00  0.90007781597E+02  0.90000043514E+02 0.  0.
        -12    1    1    2    0    0  0.97675200626E+00  0.13362080636E+00  0.64885782453E+00  0.11802184027E+01  0.00000000000E+00 0.  1.
         11    1    3    3    0    0  0.23313354315E+02  0.30994111470E+02  0.10772040313E+02  0.40251512866E+02  0.51100000000E-03 0. -1.
        -11    1    3    3    0    0  0.61631654542E+01 -0.79326632893E+01 -0.10795952238E+01  0.10103330213E+02  0.51100000000E-03 0.  1.
        -12    1    3    3    0    0 -0.30453271776E+02 -0.23195068987E+02 -0.10341302914E+02  0.39652938518E+02  0.00000000000E+00 0.  1.
</event>
<event>
 7    1  0.1910099E-015  0.9000785E+02  0.7816164E-02  0.1186339E+00
        -11   -1    0    0    0    0  0.00000000000E+00  0.00000000000E+00  0.45593999997E+02  0.45594000000E+02  0.51100000000E-03 0. -1.
         11   -1    0    0    0    0 -0.00000000000E+00 -0.00000000000E+00 -0.45593999997E+02  0.45594000000E+02  0.51100000000E-03 0.  1.
    9900012    2    1    2    0    0 -0.61155336466E+00  0.99691211417E+00 -0.15789405568E+00  0.90007846699E+02  0.90000109475E+02 0.  0.
        -12    1    1    2    0    0  0.61155336466E+00 -0.99691211417E+00  0.15789405568E+00  0.11801533011E+01  0.00000000000E+00 0.  1.
         11    1    3    3    0    0 -0.31235789224E+01  0.18903341324E+02  0.39703945087E+02  0.44085103087E+02  0.51100000000E-03 0. -1.
        -11    1    3    3    0    0  0.41930630198E+01 -0.73300052074E+01 -0.58713175343E+01  0.10285092303E+02  0.51100000000E-03 0.  1.
        -12    1    3    3    0    0 -0.16810374620E+01 -0.10576424003E+02 -0.33990521608E+02  0.35637651309E+02  0.00000000000E+00 0.  1.
</event>
<event>
 7    1  0.1910099E-015  0.9000686E+02  0.7816164E-02  0.1186341E+00
        -11   -1    0    0    0    0  0.00000000000E+00  0.00000000000E+00  0.45593999997E+02  0.45594000000E+02  0.51100000000E-03 0. -1.
         11   -1    0    0    0    0 -0.00000000000E+00 -0.00000000000E+00 -0.45593999997E+02  0.45594000000E+02  0.51100000000E-03 0.  1.
    9900012    2    1    2    0    0 -0.46508975107E+00  0.22928969765E+00  0.10612253233E+01  0.90006864348E+02  0.89999114153E+02 0.  0.
        -12    1    1    2    0    0  0.46508975107E+00 -0.22928969765E+00 -0.10612253233E+01  0.11811356521E+01  0.00000000000E+00 0.  1.
         11    1    3    3    0    0 -0.51116913858E+01  0.75142187226E+01 -0.52362803607E+01  0.10488636904E+02  0.51100000000E-03 0. -1.
        -11    1    3    3    0    0  0.11015227807E+02 -0.14644283577E+02 -0.33696649743E+02  0.38356935347E+02  0.51100000000E-03 0.  1.
         12    1    3    3    0    0 -0.63686261721E+01  0.73593545517E+01  0.39994155427E+02  0.41161292096E+02  0.00000000000E+00 0. -1.
</event>
<event>
 7    1  0.1910099E-015  0.9000790E+02  0.7816164E-02  0.1186339E+00
        -11   -1    0    0    0    0  0.00000000000E+00  0.00000000000E+00  0.45593999997E+02  0.45594000000E+02  0.51100000000E-03 0.  1.
         11   -1    0    0    0    0 -0.00000000000E+00 -0.00000000000E+00 -0.45593999997E+02  0.45594000000E+02  0.51100000000E-03 0. -1.
    9900012    2    1    2    0    0 -0.56315789611E+00 -0.33254915286E+00 -0.98229663966E+00  0.90007897274E+02  0.90000160718E+02 0.  0.
        -12    1    1    2    0    0  0.56315789611E+00  0.33254915286E+00  0.98229663966E+00  0.11801027257E+01  0.00000000000E+00 0.  1.
         11    1    3    3    0    0 -0.10920495373E+02  0.12770611889E+01  0.54931852408E+01  0.12290776576E+02  0.51100000000E-03 0. -1.
        -11    1    3    3    0    0 -0.11582964871E+02 -0.34935534576E+02  0.22500967145E+01  0.36874375748E+02  0.51100000000E-03 0.  1.
         12    1    3    3    0    0  0.21940302349E+02  0.33325924235E+02 -0.87255785949E+01  0.40842744950E+02  0.00000000000E+00 0. -1.
</event>
<event>
 7    1  0.1910099E-015  0.9000770E+02  0.7816164E-02  0.1186339E+00
        -11   -1    0    0    0    0  0.00000000000E+00  0.00000000000E+00  0.45593999997E+02  0.45594000000E+02  0.51100000000E-03 0. -1.
         11   -1    0    0    0    0 -0.00000000000E+00 -0.00000000000E+00 -0.45593999997E+02  0.45594000000E+02  0.51100000000E-03 0.  1.
    9900012    2    1    2    0    0 -0.35274640059E+00  0.22554175649E+00  0.11035391466E+01  0.90007704378E+02  0.89999965276E+02 0.  0.
        -12    1    1    2    0    0  0.35274640059E+00 -0.22554175649E+00 -0.11035391466E+01  0.11802956219E+01  0.00000000000E+00 0.  1.
         11    1    3    3    0    0  0.19148623854E+01 -0.38019534615E+02 -0.55860554958E+00  0.38071823580E+02  0.51100000000E-03 0. -1.
        -11    1    3    3    0    0  0.60242864493E+01 -0.18583407847E+01 -0.76759190167E+01  0.99330353220E+01  0.51100000000E-03 0.  1.
        -12    1    3    3    0    0 -0.82918952353E+01  0.40103417156E+02  0.93380637129E+01  0.42002845476E+02  0.00000000000E+00 0.  1.
</event>
<event>
 7    1  0.1910099E-015  0.9000775E+02  0.7816164E-02  0.1186339E+00
        -11   -1    0    0    0    0  0.00000000000E+00  0.00000000000E+00  0.45593999997E+02  0.45594000000E+02  0.51100000000E-03 0.  1.
         11   -1    0    0    0    0 -0.00000000000E+00 -0.00000000000E+00 -0.45593999997E+02  0.45594000000E+02  0.51100000000E-03 0. -1.
    9900012    2    1    2    0    0  0.67090862359E+00  0.62354465996E+00 -0.74434809238E+00  0.90007754091E+02  0.90000015645E+02 0.  0.
        -12    1    1    2    0    0 -0.67090862359E+00 -0.62354465996E+00  0.74434809238E+00  0.11802459095E+01  0.00000000000E+00 0.  1.
         11    1    3    3    0    0  0.33510905304E+01 -0.10794272699E+02 -0.20451297102E+01  0.11486021358E+02  0.51100000000E-03 0. -1.
        -11    1    3    3    0    0  0.12799222146E+02 -0.23342137038E+02  0.22595473469E+02  0.34917486602E+02  0.51100000000E-03 0.  1.
         12    1    3    3    0    0 -0.15479404053E+02  0.34759954397E+02 -0.21294691851E+02  0.43604246130E+02  0.00000000000E+00 0. -1.
</event>
<event>
 7    1  0.1910099E-015  0.9000778E+02  0.7816164E-02  0.1186339E+00
        -11   -1    0    0    0    0  0.00000000000E+00  0.00000000000E+00  0.45593999997E+02  0.45594000000E+02  0.51100000000E-03 0.  1.
         11   -1    0    0    0    0 -0.00000000000E+00 -0.00000000000E+00 -0.45593999997E+02  0.45594000000E+02  0.51100000000E-03 0. -1.
    9900012    2    1    2    0    0  0.85915863916E+00  0.80165220961E+00  0.11004729494E+00  0.90007783817E+02  0.90000045763E+02 0.  0.
        -12    1    1    2    0    0 -0.85915863916E+00 -0.80165220961E+00 -0.11004729494E+00  0.11802161834E+01  0.00000000000E+00 0.  1.
         11    1    3    3    0    0 -0.25871797072E+01  0.35464279416E+02 -0.70971247979E+01  0.36259864782E+02  0.51100000000E-03 0. -1.
        -11    1    3    3    0    0  0.50901470495E+00  0.64624119536E+01 -0.75551115775E+01  0.99549774202E+01  0.51100000000E-03 0.  1.
        -12    1    3    3    0    0  0.29373236414E+01 -0.41125039160E+02  0.14762283670E+02  0.43792941615E+02  0.00000000000E+00 0.  1.
</event>
<event>
 7    1  0.1910099E-015  0.9000730E+02  0.7816164E-02  0.1186340E+00
        -11   -1    0    0    0    0  0.00000000000E+00  0.00000000000E+00  0.45593999997E+02  0.45594000000E+02  0.51100000000E-03 0.  1.
         11   -1    0    0    0    0 -0.00000000000E+00 -0.00000000000E+00 -0.45593999997E+02  0.45594000000E+02  0.51100000000E-03 0. -1.
    9900012    2    1    2    0    0 -0.39628102584E+00  0.88317115148E+00 -0.67602608949E+00  0.90007304778E+02  0.89999560400E+02 0.  0.
        -12    1    1    2    0    0  0.39628102584E+00 -0.88317115148E+00  0.67602608949E+00  0.11806952223E+01  0.00000000000E+00 0.  1.
         11    1    3    3    0    0 -0.65085628067E+01  0.18559997227E+01 -0.66399013088E+01  0.94812664993E+01  0.51100000000E-03 0. -1.
        -11    1    3    3    0    0  0.27182103538E+02  0.29961567467E+02  0.12898135282E+02  0.42460854583E+02  0.51100000000E-03 0.  1.
         12    1    3    3    0    0 -0.21069821757E+02 -0.30934396039E+02 -0.69342600632E+01  0.38065183696E+02  0.00000000000E+00 0. -1.
</event>
<event>
 7    1  0.1910099E-015  0.9000776E+02  0.7816164E-02  0.1186339E+00
        -11   -1    0    0    0    0  0.00000000000E+00  0.00000000000E+00  0.45593999997E+02  0.45594000000E+02  0.51100000000E-03 0. -1.
         11   -1    0    0    0    0 -0.00000000000E+00 -0.00000000000E+00 -0.45593999997E+02  0.45594000000E+02  0.51100000000E-03 0.  1.
    9900012    2    1    2    0    0  0.31611905954E+00  0.59353172121E-01  0.11355647729E+01  0.90007762137E+02  0.90000023798E+02 0.  0.
        -12    1    1    2    0    0 -0.31611905954E+00 -0.59353172121E-01 -0.11355647729E+01  0.11802378626E+01  0.00000000000E+00 0.  1.
         11    1    3    3    0    0 -0.27355524479E+02  0.29487111383E+02 -0.28419247140E+01  0.40322338643E+02  0.51100000000E-03 0. -1.
        -11    1    3    3    0    0  0.63491758268E+01  0.35376774071E+01 -0.57155111615E+01  0.92463107894E+01  0.51100000000E-03 0.  1.
        -12    1    3    3    0    0  0.21322467712E+02 -0.32965435618E+02  0.96930006484E+01  0.40439112705E+02  0.00000000000E+00 0.  1.
</event>
<event>
 7    1  0.1910099E-015  0.9000764E+02  0.7816164E-02  0.1186339E+00
        -11   -1    0    0    0    0  0.00000000000E+00  0.00000000000E+00  0.45593999997E+02  0.45594000000E+02  0.51100000000E-03 0.  1.
         11   -1    0    0    0    0 -0.00000000000E+00 -0.00000000000E+00 -0.45593999997E+02  0.45594000000E+02  0.51100000000E-03 0. -1.
    9900012    2    1    2    0    0  0.68280709068E+00 -0.27471609807E+00 -0.92279515277E+00  0.90007641855E+02  0.89999901927E+02 0.  0.
        -12    1    1    2    0    0 -0.68280709068E+00  0.27471609807E+00  0.92279515277E+00  0.11803581455E+01  0.00000000000E+00 0.  1.
         11    1    3    3    0    0 -0.17529360017E+01 -0.68097031014E+01 -0.70101696031E+01  0.99291147179E+01  0.51100000000E-03 0. -1.
        -11    1    3    3    0    0  0.10242131154E+02 -0.28147683936E+02 -0.19971083546E+02  0.36000521383E+02  0.51100000000E-03 0.  1.
         12    1    3    3    0    0 -0.78063880620E+01  0.34682670940E+02  0.26058457996E+02  0.44078005754E+02  0.00000000000E+00 0. -1.
</event>
<event>
 7    1  0.1910099E-015  0.9000785E+02  0.7816164E-02  0.1186339E+00
        -11   -1    0    0    0    0  0.00000000000E+00  0.00000000000E+00  0.45593999997E+02  0.45594000000E+02  0.51100000000E-03 0. -1.
         11   -1    0    0    0    0 -0.00000000000E+00 -0.00000000000E+00 -0.45593999997E+02  0.45594000000E+02  0.51100000000E-03 0.  1.
    9900012    2    1    2    0    0 -0.88271261920E+00 -0.32091226040E+00  0.71455819059E+00  0.90007847614E+02  0.90000110402E+02 0.  0.
        -12    1    1    2    0    0  0.88271261920E+00  0.32091226040E+00 -0.71455819059E+00  0.11801523862E+01  0.00000000000E+00 0.  1.
         11    1    3    3    0    0 -0.24523155727E+01  0.77953543657E+01 -0.32825514608E+01  0.88066194257E+01  0.51100000000E-03 0. -1.
        -11    1    3    3    0    0  0.64306354834E+01  0.29658189345E+02 -0.19852549872E+02  0.36264100770E+02  0.51100000000E-03 0.  1.
         12    1    3    3    0    0 -0.48610325298E+01 -0.37774455971E+02  0.23849659524E+02  0.44937127418E+02  0.00000000000E+00 0. -1.
</event>
<event>
 7    1  0.1910099E-015  0.9000759E+02  0.7816164E-02  0.1186339E+00
        -11   -1    0    0    0    0  0.00000000000E+00  0.00000000000E+00  0.45593999997E+02  0.45594000000E+02  0.51100000000E-03 0. -1.
         11   -1    0    0    0    0 -0.00000000000E+00 -0.00000000000E+00 -0.45593999997E+02  0.45594000000E+02  0.51100000000E-03 0.  1.
    9900012    2    1    2    0    0 -0.64012596439E-01  0.74418920239E+00 -0.91403116825E+00  0.90007589835E+02  0.89999849221E+02 0.  0.
        -12    1    1    2    0    0  0.64012596439E-01 -0.74418920239E+00  0.91403116825E+00  0.11804101652E+01  0.00000000000E+00 0.  1.
         11    1    3    3    0    0  0.55144647867E+01  0.37830881188E+01 -0.83293379431E+01  0.10681710932E+02  0.51100000000E-03 0. -1.
        -11    1    3    3    0    0 -0.68255769011E+01 -0.31389778993E+02 -0.21623514493E+02  0.38723159795E+02  0.51100000000E-03 0.  1.
         12    1    3    3    0    0  0.12470995180E+01  0.28350880076E+02  0.29038821268E+02  0.40602719108E+02  0.00000000000E+00 0. -1.
</event>
<event>
 7    1  0.1910099E-015  0.9000749E+02  0.7816164E-02  0.1186340E+00
        -11   -1    0    0    0    0  0.00000000000E+00  0.00000000000E+00  0.45593999997E+02  0.45594000000E+02  0.51100000000E-03 0. -1.
         11   -1    0    0    0    0 -0.00000000000E+00 -0.00000000000E+00 -0.45593999997E+02  0.45594000000E+02  0.51100000000E-03 0.  1.
    9900012    2    1    2    0    0  0.84026257304E+00  0.29831199003E+00  0.77367231186E+00  0.90007491601E+02  0.89999749689E+02 0.  0.
        -12    1    1    2    0    0 -0.84026257304E+00 -0.29831199003E+00 -0.77367231186E+00  0.11805083995E+01  0.00000000000E+00 0.  1.
         11    1    3    3    0    0  0.15743570434E+02 -0.33390559762E+02 -0.52140076088E+01  0.37282373407E+02  0.51100000000E-03 0. -1.
        -11    1    3    3    0    0 -0.39729803109E+01 -0.73967811634E+01 -0.36117613141E+01  0.91401183899E+01  0.51100000000E-03 0.  1.
        -12    1    3    3    0    0 -0.10930327550E+02  0.41085652916E+02  0.95994412348E+01  0.43584999804E+02  0.00000000000E+00 0.  1.
</event>
<event>
 7    1  0.1910099E-015  0.9000757E+02  0.7816164E-02  0.1186339E+00
        -11   -1    0    0    0    0  0.00000000000E+00  0.00000000000E+00  0.45593999997E+02  0.45594000000E+02  0.51100000000E-03 0.  1.
         11   -1    0    0    0    0 -0.00000000000E+00 -0.00000000000E+00 -0.45593999997E+02  0.45594000000E+02  0.51100000000E-03 0. -1.
    9900012    2    1    2    0    0 -0.60876326709E+00  0.45377056857E+00 -0.90383002062E+00  0.90007572471E+02  0.89999831628E+02 0.  0.
        -12    1    1    2    0    0  0.60876326709E+00 -0.45377056857E+00  0.90383002062E+00  0.11804275287E+01  0.00000000000E+00 0.  1.
         11    1    3    3    0    0  0.84673903527E+01  0.34930110468E+01 -0.26105244172E+00  0.91632949421E+01  0.51100000000E-03 0. -1.
        -11    1    3    3    0    0  0.22445085035E+01  0.35023617685E+02 -0.15604912025E+02  0.38408396136E+02  0.51100000000E-03 0.  1.
         12    1    3    3    0    0 -0.11320662123E+02 -0.38062858163E+02  0.14962134446E+02  0.42435881393E+02  0.00000000000E+00 0. -1.
</event>
<event>
 7    1  0.1910099E-015  0.9000776E+02  0.7816164E-02  0.1186339E+00
        -11   -1    0    0    0    0  0.00000000000E+00  0.00000000000E+00  0.45593999997E+02  0.45594000000E+02  0.51100000000E-03 0.  1.
         11   -1    0    0    0    0 -0.00000000000E+00 -0.00000000000E+00 -0.45593999997E+02  0.45594000000E+02  0.51100000000E-03 0. -1.
    9900012    2    1    2    0    0  0.10766525109E+01 -0.31933248672E+00  0.36306802160E+00  0.90007757544E+02  0.90000019144E+02 0.  0.
        -12    1    1    2    0    0 -0.10766525109E+01  0.31933248672E+00 -0.36306802160E+00  0.11802424559E+01  0.00000000000E+00 0.  1.
         11    1    3    3    0    0  0.12496034243E+01 -0.37217177314E+02  0.75922718093E+01  0.38004241703E+02  0.51100000000E-03 0. -1.
        -11    1    3    3    0    0 -0.10723214601E+02 -0.58033710094E+00 -0.74464876534E+01  0.13068064170E+02  0.51100000000E-03 0.  1.
        -12    1    3    3    0    0  0.10550263687E+02  0.37478181928E+02  0.21728386570E+00  0.38935451671E+02  0.00000000000E+00 0.  1.
</event>
<event>
 7    1  0.1910099E-015  0.9000772E+02  0.7816164E-02  0.1186339E+00
        -11   -1    0    0    0    0  0.00000000000E+00  0.00000000000E+00  0.45593999997E+02  0.45594000000E+02  0.51100000000E-03 0.  1.
         11   -1    0    0    0    0 -0.00000000000E+00 -0.00000000000E+00 -0.45593999997E+02  0.45594000000E+02  0.51100000000E-03 0. -1.
    9900012    2    1    2    0    0  0.10067162199E+01  0.59985944996E+00 -0.14054885210E+00  0.90007719149E+02  0.89999980242E+02 0.  0.
        -12    1    1    2    0    0 -0.10067162199E+01 -0.59985944996E+00  0.14054885210E+00  0.11802808509E+01  0.00000000000E+00 0.  1.
         11    1    3    3    0    0  0.56897111061E+01  0.64950232633E+01 -0.30606025864E+01  0.91610822567E+01  0.51100000000E-03 0. -1.
        -11    1    3    3    0    0  0.19346744208E+02 -0.35415066032E+02  0.11225670677E+02  0.41887218766E+02  0.51100000000E-03 0.  1.
         12    1    3    3    0    0 -0.24029739094E+02  0.29519902219E+02 -0.83056169422E+01  0.38959418127E+02  0.00000000000E+00 0. -1.
</event>
<event>
 7    1  0.1910099E-015  0.9000779E+02  0.7816164E-02  0.1186339E+00
        -11   -1    0    0    0    0  0.00000000000E+00  0.00000000000E+00  0.45593999997E+02  0.45594000000E+02  0.51100000000E-03 0.  1.
         11   -1    0    0    0    0 -0.00000000000E+00 -0.00000000000E+00 -0.45593999997E+02  0.45594000000E+02  0.51100000000E-03 0. -1.
    9900012    2    1    2    0    0 -0.71815078717E+00  0.72465387225E+00 -0.59332558907E+00  0.90007788560E+02  0.90000050569E+02 0.  0.
        -12    1    1    2    0    0  0.71815078717E+00 -0.72465387225E+00  0.59332558907E+00  0.11802114397E+01  0.00000000000E+00 0.  1.
         11    1    3    3    0    0 -0.85332293092E+00 -0.28084664999E+01 -0.10011366636E+02  0.10432789957E+02  0.51100000000E-03 0. -1.
        -11    1    3    3    0    0 -0.26859143738E+02  0.46713212329E+00 -0.24334835896E+02  0.36246600573E+02  0.51100000000E-03 0.  1.
         12    1    3    3    0    0  0.26994315882E+02  0.30659882489E+01  0.33752876943E+02  0.43328398030E+02  0.00000000000E+00 0. -1.
</event>
<event>
 7    1  0.1910099E-015  0.9000775E+02  0.7816164E-02  0.1186339E+00
        -11   -1    0    0    0    0  0.00000000000E+00  0.00000000000E+00  0.45593999997E+02  0.45594000000E+02  0.51100000000E-03 0.  1.
         11   -1    0    0    0    0 -0.00000000000E+00 -0.00000000000E+00 -0.45593999997E+02  0.45594000000E+02  0.51100000000E-03 0. -1.
    9900012    2    1    2    0    0 -0.14121298070E+00 -0.60297566758E+00 -0.10047247629E+01  0.90007748920E+02  0.90000010406E+02 0.  0.
        -12    1    1    2    0    0  0.14121298070E+00  0.60297566758E+00  0.10047247629E+01  0.11802510795E+01  0.00000000000E+00 0.  1.
         11    1    3    3    0    0 -0.98514025899E+01 -0.11128319046E+01 -0.25205210732E+01  0.10229445468E+02  0.51100000000E-03 0. -1.
        -11    1    3    3    0    0  0.41365505838E+02 -0.80925610598E+01  0.14390966797E+02  0.44538685919E+02  0.51100000000E-03 0.  1.
         12    1    3    3    0    0 -0.31655316229E+02  0.86024172968E+01 -0.12875170487E+02  0.35239617534E+02  0.00000000000E+00 0. -1.
</event>
<event>
 7    1  0.1910099E-015  0.9000758E+02  0.7816164E-02  0.1186339E+00
        -11   -1    0    0    0    0  0.00000000000E+00  0.00000000000E+00  0.45593999997E+02  0.45594000000E+02  0.51100000000E-03 0. -1.
         11   -1    0    0    0    0 -0.00000000000E+00 -0.00000000000E+00 -0.45593999997E+02  0.45594000000E+02  0.51100000000E-03 0.  1.
    9900012    2    1    2    0    0 -0.61828723187E+00 -0.87513507268E+00  0.49522128000E+00  0.90007582865E+02  0.89999842159E+02 0.  0.
        -12    1    1    2    0    0  0.61828723187E+00  0.87513507268E+00 -0.49522128000E+00  0.11804171350E+01  0.00000000000E+00 0.  1.
         11    1    3    3    0    0  0.10397231838E+02  0.92856793588E+00  0.57910079692E+01  0.11937354894E+02  0.51100000000E-03 0. -1.
        -11    1    3    3    0    0 -0.19862172048E+02  0.34444866094E+02  0.29048337476E+01  0.39867188741E+02  0.51100000000E-03 0.  1.
         12    1    3    3    0    0  0.88466529787E+01 -0.36248569102E+02 -0.82006204368E+01  0.38203039231E+02  0.00000000000E+00 0. -1.
</event>
<event>
 7    1  0.1910099E-015  0.9000773E+02  0.7816164E-02  0.1186339E+00
        -11   -1    0    0    0    0  0.00000000000E+00  0.00000000000E+00  0.45593999997E+02  0.45594000000E+02  0.51100000000E-03 0. -1.
         11   -1    0    0    0    0 -0.00000000000E+00 -0.00000000000E+00 -0.45593999997E+02  0.45594000000E+02  0.51100000000E-03 0.  1.
    9900012    2    1    2    0    0  0.81252974113E+00  0.73897409445E+00  0.43213459623E+00  0.90007734097E+02  0.89999995387E+02 0.  0.
        -12    1    1    2    0    0 -0.81252974113E+00 -0.73897409445E+00 -0.43213459623E+00  0.11802659030E+01  0.00000000000E+00 0.  1.
         11    1    3    3    0    0  0.39452111606E+01 -0.12148383910E+02  0.19733185065E+02  0.23506308000E+02  0.51100000000E-03 0. -1.
        -11    1    3    3    0    0 -0.10365418333E+02  0.28671023637E+02  0.10303620993E+02  0.32181269389E+02  0.51100000000E-03 0.  1.
        -12    1    3    3    0    0  0.72327369135E+01 -0.15783665633E+02 -0.29604671462E+02  0.34320156708E+02  0.00000000000E+00 0.  1.
</event>
<event>
 7    1  0.1910099E-015  0.9000777E+02  0.7816164E-02  0.1186339E+00
        -11   -1    0    0    0    0  0.00000000000E+00  0.00000000000E+00  0.45593999997E+02  0.45594000000E+02  0.51100000000E-03 0.  1.
         11   -1    0    0    0    0 -0.00000000000E+00 -0.00000000000E+00 -0.45593999997E+02  0.45594000000E+02  0.51100000000E-03 0. -1.
    9900012    2    1    2    0    0  0.20054996213E+00  0.70648763376E+00 -0.92389720910E+00  0.90007774972E+02  0.90000036802E+02 0.  0.
        -12    1    1    2    0    0 -0.20054996213E+00 -0.70648763376E+00  0.92389720910E+00  0.11802250281E+01  0.00000000000E+00 0.  1.
         11    1    3    3    0    0 -0.27557997764E+02  0.91801057679E+01 -0.24977459311E+02  0.38309151081E+02  0.51100000000E-03 0. -1.
        -11    1    3    3    0    0 -0.11899972473E+01 -0.52628610100E+01 -0.71868472968E+01  0.89869112485E+01  0.51100000000E-03 0.  1.
        -12    1    3    3    0    0  0.28948544973E+02 -0.32107571242E+01  0.31240409399E+02  0.42711712642E+02  0.00000000000E+00 0.  1.
</event>
<event>
 7    1  0.1910099E-015  0.9000773E+02  0.7816164E-02  0.1186339E+00
        -11   -1    0    0    0    0  0.00000000000E+00  0.00000000000E+00  0.45593999997E+02  0.45594000000E+02  0.51100000000E-03 0. -1.
         11   -1    0    0    0    0 -0.00000000000E+00 -0.00000000000E+00 -0.45593999997E+02  0.45594000000E+02  0.51100000000E-03 0.  1.
    9900012    2    1    2    0    0  0.40989469425E-01 -0.10953770899E+01  0.43761179090E+00  0.90007730884E+02  0.89999992132E+02 0.  0.
        -12    1    1    2    0    0 -0.40989469425E-01  0.10953770899E+01 -0.43761179090E+00  0.11802691156E+01  0.00000000000E+00 0.  1.
         11    1    3    3    0    0 -0.56163331525E+01  0.20034818963E+01  0.70636397381E+01  0.92440329077E+01  0.51100000000E-03 0. -1.
        -11    1    3    3    0    0 -0.61060413671E+01  0.20339964890E+02 -0.35744003143E+02  0.41576816543E+02  0.51100000000E-03 0.  1.
         12    1    3    3    0    0  0.11763363989E+02 -0.23438823876E+02  0.29117975195E+02  0.39186881434E+02  0.00000000000E+00 0. -1.
</event>
<event>
 7    1  0.1910099E-015  0.9000770E+02  0.7816164E-02  0.1186339E+00
        -11   -1    0    0    0    0  0.00000000000E+00  0.00000000000E+00  0.45593999997E+02  0.45594000000E+02  0.51100000000E-03 0. -1.
         11   -1    0    0    0    0 -0.00000000000E+00 -0.00000000000E+00 -0.45593999997E+02  0.45594000000E+02  0.51100000000E-03 0.  1.
    9900012    2    1    2    0    0  0.69903176063E+00 -0.93949669739E+00 -0.14771613751E+00  0.90007695165E+02  0.89999955941E+02 0.  0.
        -12    1    1    2    0    0 -0.69903176063E+00  0.93949669739E+00  0.14771613751E+00  0.11803048352E+01  0.00000000000E+00 0.  1.
         11    1    3    3    0    0  0.24455149615E+02 -0.90187704645E-01  0.76794865891E+01  0.25632732805E+02  0.51100000000E-03 0. -1.
        -11    1    3    3    0    0  0.12144359995E+02 -0.16689915154E+02  0.78997455293E+01  0.22100785670E+02  0.51100000000E-03 0.  1.
        -12    1    3    3    0    0 -0.35900477850E+02  0.15840606161E+02 -0.15726948256E+02  0.42274176690E+02  0.00000000000E+00 0.  1.
</event>
<event>
 7    1  0.1910099E-015  0.9000779E+02  0.7816164E-02  0.1186339E+00
        -11   -1    0    0    0    0  0.00000000000E+00  0.00000000000E+00  0.45593999997E+02  0.45594000000E+02  0.51100000000E-03 0.  1.
         11   -1    0    0    0    0 -0.00000000000E+00 -0.00000000000E+00 -0.45593999997E+02  0.45594000000E+02  0.51100000000E-03 0. -1.
    9900012    2    1    2    0    0 -0.75848060244E+00 -0.26020556767E+00 -0.86596342238E+00  0.90007791370E+02  0.90000053416E+02 0.  0.
        -12    1    1    2    0    0  0.75848060244E+00  0.26020556767E+00  0.86596342238E+00  0.11802086301E+01  0.00000000000E+00 0.  1.
         11    1    3    3    0    0 -0.22651309538E+02  0.18074549477E+02  0.20596575138E+02  0.35552638021E+02  0.51100000000E-03 0. -1.
        -11    1    3    3    0    0 -0.44745744699E+01  0.13256971874E+01  0.86715347757E+01  0.98475786540E+01  0.51100000000E-03 0.  1.
        -12    1    3    3    0    0  0.26367403405E+02 -0.19660452232E+02 -0.30134073336E+02  0.44607574695E+02  0.00000000000E+00 0.  1.
</event>
<event>
 7    1  0.1910099E-015  0.9000775E+02  0.7816164E-02  0.1186339E+00
        -11   -1    0    0    0    0  0.00000000000E+00  0.00000000000E+00  0.45593999997E+02  0.45594000000E+02  0.51100000000E-03 0.  1.
         11   -1    0    0    0    0 -0.00000000000E+00 -0.00000000000E+00 -0.45593999997E+02  0.45594000000E+02  0.51100000000E-03 0. -1.
    9900012    2    1    2    0    0 -0.93640358907E+00 -0.78755253213E-01 -0.71410152421E+00  0.90007747884E+02  0.90000009356E+02 0.  0.
        -12    1    1    2    0    0  0.93640358907E+00  0.78755253213E-01  0.71410152421E+00  0.11802521165E+01  0.00000000000E+00 0.  1.
         11    1    3    3    0    0 -0.59215351087E+01 -0.65072008946E+01 -0.27077758228E+01  0.92054490219E+01  0.51100000000E-03 0. -1.
        -11    1    3    3    0    0 -0.28429712175E+02  0.25798849621E+02 -0.11194635579E+02  0.39989361612E+02  0.51100000000E-03 0.  1.
         12    1    3    3    0    0  0.33414843695E+02 -0.19370403980E+02  0.13188309878E+02  0.40812937249E+02  0.00000000000E+00 0. -1.
</event>
<event>
 7    1  0.1910099E-015  0.9000771E+02  0.7816164E-02  0.1186339E+00
        -11   -1    0    0    0    0  0.00000000000E+00  0.00000000000E+00  0.45593999997E+02  0.45594000000E+02  0.51100000000E-03 0.  1.
         11   -1    0    0    0    0 -0.00000000000E+00 -0.00000000000E+00 -0.45593999997E+02  0.45594000000E+02  0.51100000000E-03 0. -1.
    9900012    2    1    2    0    0 -0.58198014762E+00 -0.10241710113E+01  0.73895479791E-01  0.90007708640E+02  0.89999969594E+02 0.  0.
        -12    1    1    2    0    0  0.58198014762E+00  0.10241710113E+01 -0.73895479791E-01  0.11802913600E+01  0.00000000000E+00 0.  1.
         11    1    3    3    0    0  0.38936839534E+01 -0.74111480925E+01  0.56963334953E+01  0.10125912617E+02  0.51100000000E-03 0. -1.
        -11    1    3    3    0    0 -0.35471359224E+01 -0.26641830155E+02 -0.28898230940E+02  0.39464883618E+02  0.51100000000E-03 0.  1.
         12    1    3    3    0    0 -0.92852817862E+00  0.33028807237E+02  0.23275792925E+02  0.40416912405E+02  0.00000000000E+00 0. -1.
</event>
<event>
 7    1  0.1910099E-015  0.9000775E+02  0.7816164E-02  0.1186339E+00
        -11   -1    0    0    0    0  0.00000000000E+00  0.00000000000E+00  0.45593999997E+02  0.45594000000E+02  0.51100000000E-03 0. -1.
         11   -1    0    0    0    0 -0.00000000000E+00 -0.00000000000E+00 -0.45593999997E+02  0.45594000000E+02  0.51100000000E-03 0.  1.
    9900012    2    1    2    0    0  0.10449379734E+00 -0.12185348679E+00  0.11692849697E+01  0.90007748092E+02  0.90000009567E+02 0.  0.
        -12    1    1    2    0    0 -0.10449379734E+00  0.12185348679E+00 -0.11692849697E+01  0.11802519080E+01  0.00000000000E+00 0.  1.
         11    1    3    3    0    0 -0.11150861835E+02  0.34362293989E+02  0.88678532150E+01  0.37198760581E+02  0.51100000000E-03 0. -1.
        -11    1    3    3    0    0  0.12397240208E+01  0.81892283774E+01 -0.25969706803E+01  0.86801286880E+01  0.51100000000E-03 0.  1.
        -12    1    3    3    0    0  0.10015631611E+02 -0.42673375853E+02 -0.51015975650E+01  0.44128858823E+02  0.00000000000E+00 0.  1.
</event>
<event>
 7    1  0.1910099E-015  0.9000775E+02  0.7816164E-02  0.1186339E+00
        -11   -1    0    0    0    0  0.00000000000E+00  0.00000000000E+00  0.45593999997E+02  0.45594000000E+02  0.51100000000E-03 0.  1.
         11   -1    0    0    0    0 -0.00000000000E+00 -0.00000000000E+00 -0.45593999997E+02  0.45594000000E+02  0.51100000000E-03 0. -1.
    9900012    2    1    2    0    0 -0.62105005408E-01 -0.60558322799E+00 -0.10111339474E+01  0.90007754289E+02  0.90000015846E+02 0.  0.
        -12    1    1    2    0    0  0.62105005408E-01  0.60558322799E+00  0.10111339474E+01  0.11802457106E+01  0.00000000000E+00 0.  1.
         11    1    3    3    0    0 -0.51974370021E+01  0.33107235968E+01 -0.81735813995E+01  0.10236292067E+02  0.51100000000E-03 0. -1.
        -11    1    3    3    0    0  0.58821719592E+01  0.14491361481E+01  0.43051615558E+02  0.43475758130E+02  0.51100000000E-03 0.  1.
         12    1    3    3    0    0 -0.74683996248E+00 -0.53654429729E+01 -0.35889168106E+02  0.36295704093E+02  0.00000000000E+00 0. -1.
</event>
<event>
 7    1  0.1910099E-015  0.9000772E+02  0.7816164E-02  0.1186339E+00
        -11   -1    0    0    0    0  0.00000000000E+00  0.00000000000E+00  0.45593999997E+02  0.45594000000E+02  0.51100000000E-03 0.  1.
         11   -1    0    0    0    0 -0.00000000000E+00 -0.00000000000E+00 -0.45593999997E+02  0.45594000000E+02  0.51100000000E-03 0. -1.
    9900012    2    1    2    0    0  0.60414186795E+00 -0.94002520063E+00  0.38002346612E+00  0.90007723503E+02  0.89999984653E+02 0.  0.
        -12    1    1    2    0    0 -0.60414186795E+00  0.94002520063E+00 -0.38002346612E+00  0.11802764969E+01  0.00000000000E+00 0.  1.
         11    1    3    3    0    0 -0.76264865140E+01 -0.54900947636E+00  0.59842374112E+01  0.97095728850E+01  0.51100000000E-03 0. -1.
        -11    1    3    3    0    0 -0.22383388319E+02  0.23480663824E+02  0.15673878413E+02  0.36028157198E+02  0.51100000000E-03 0.  1.
         12    1    3    3    0    0  0.30614016701E+02 -0.23871679548E+02 -0.21278092359E+02  0.44269993421E+02  0.00000000000E+00 0. -1.
</event>
<event>
 7    1  0.1910099E-015  0.9000787E+02  0.7816164E-02  0.1186339E+00
        -11   -1    0    0    0    0  0.00000000000E+00  0.00000000000E+00  0.45593999997E+02  0.45594000000E+02  0.51100000000E-03 0.  1.
         11   -1    0    0    0    0 -0.00000000000E+00 -0.00000000000E+00 -0.45593999997E+02  0.45594000000E+02  0.51100000000E-03 0. -1.
    9900012    2    1    2    0    0  0.90660052030E+00  0.69815615478E+00  0.28873480681E+00  0.90007866826E+02  0.90000129868E+02 0.  0.
        -12    1    1    2    0    0 -0.90660052030E+00 -0.69815615478E+00 -0.28873480681E+00  0.11801331741E+01  0.00000000000E+00 0.  1.
         11    1    3    3    0    0 -0.16047015204E+01  0.42150975150E+01  0.84732264272E+01  0.95988374493E+01  0.51100000000E-03 0. -1.
        -11    1    3    3    0    0 -0.61212497355E+01  0.63829478654E+01  0.34569518836E+02  0.35682815956E+02  0.51100000000E-03 0.  1.
         12    1    3    3    0    0  0.86325517762E+01 -0.98998892256E+01 -0.42754010456E+02  0.44726213420E+02  0.00000000000E+00 0. -1.
</event>
<event>
 7    1  0.1910099E-015  0.9000772E+02  0.7816164E-02  0.1186339E+00
        -11   -1    0    0    0    0  0.00000000000E+00  0.00000000000E+00  0.45593999997E+02  0.45594000000E+02  0.51100000000E-03 0.  1.
         11   -1    0    0    0    0 -0.00000000000E+00 -0.00000000000E+00 -0.45593999997E+02  0.45594000000E+02  0.51100000000E-03 0. -1.
    9900012    2    1    2    0    0  0.84951513730E+00  0.78382352435E+00 -0.23877078687E+00  0.90007717502E+02  0.89999978573E+02 0.  0.
        -12    1    1    2    0    0 -0.84951513730E+00 -0.78382352435E+00  0.23877078687E+00  0.11802824978E+01  0.00000000000E+00 0.  1.
         11    1    3    3    0    0 -0.20291124911E+02 -0.22877706987E+02 -0.31028186295E+01  0.30736732274E+02  0.51100000000E-03 0. -1.
        -11    1    3    3    0    0  0.26427307189E+01 -0.64563247946E+01 -0.17247445215E+02  0.18604905864E+02  0.51100000000E-03 0.  1.
        -12    1    3    3    0    0  0.18497909330E+02  0.30117855306E+02  0.20111493058E+02  0.40666079364E+02  0.00000000000E+00 0.  1.
</event>
<event>
 7    1  0.1910099E-015  0.9000763E+02  0.7816164E-02  0.1186339E+00
        -11   -1    0    0    0    0  0.00000000000E+00  0.00000000000E+00  0.45593999997E+02  0.45594000000E+02  0.51100000000E-03 0. -1.
         11   -1    0    0    0    0 -0.00000000000E+00 -0.00000000000E+00 -0.45593999997E+02  0.45594000000E+02  0.51100000000E-03 0.  1.
    9900012    2    1    2    0    0 -0.23516086985E+00 -0.42348480838E+00  0.10763955209E+01  0.90007632542E+02  0.89999892492E+02 0.  0.
        -12    1    1    2    0    0  0.23516086985E+00  0.42348480838E+00 -0.10763955209E+01  0.11803674576E+01  0.00000000000E+00 0.  1.
         11    1    3    3    0    0  0.86554622419E+01  0.83153074266E+01  0.15429139530E+02  0.19547882523E+02  0.51100000000E-03 0. -1.
        -11    1    3    3    0    0 -0.21714012554E+02  0.24370848200E+02 -0.12342865755E+02  0.34896746532E+02  0.51100000000E-03 0.  1.
         12    1    3    3    0    0  0.12823389443E+02 -0.33109640435E+02 -0.20098782542E+01  0.35563003488E+02  0.00000000000E+00 0. -1.
</event>
<event>
 7    1  0.1910099E-015  0.9000775E+02  0.7816164E-02  0.1186339E+00
        -11   -1    0    0    0    0  0.00000000000E+00  0.00000000000E+00  0.45593999997E+02  0.45594000000E+02  0.51100000000E-03 0.  1.
         11   -1    0    0    0    0 -0.00000000000E+00 -0.00000000000E+00 -0.45593999997E+02  0.45594000000E+02  0.51100000000E-03 0. -1.
    9900012    2    1    2    0    0 -0.21374178585E+00 -0.10852110014E+01  0.41184881969E+00  0.90007750908E+02  0.90000012420E+02 0.  0.
        -12    1    1    2    0    0  0.21374178585E+00  0.10852110014E+01 -0.41184881969E+00  0.11802490918E+01  0.00000000000E+00 0.  1.
         11    1    3    3    0    0  0.70586802030E+01 -0.16391124423E+02 -0.40312941464E+02  0.44086587256E+02  0.51100000000E-03 0. -1.
        -11    1    3    3    0    0  0.22981225290E+01  0.63986101022E+01  0.70349330897E+01  0.97833461676E+01  0.51100000000E-03 0.  1.
        -12    1    3    3    0    0 -0.95705445178E+01  0.89073033198E+01  0.33689857194E+02  0.36137817485E+02  0.00000000000E+00 0.  1.
</event>
<event>
 7    1  0.1910099E-015  0.9000761E+02  0.7816164E-02  0.1186339E+00
        -11   -1    0    0    0    0  0.00000000000E+00  0.00000000000E+00  0.45593999997E+02  0.45594000000E+02  0.51100000000E-03 0.  1.
         11   -1    0    0    0    0 -0.00000000000E+00 -0.00000000000E+00 -0.45593999997E+02  0.45594000000E+02  0.51100000000E-03 0. -1.
    9900012    2    1    2    0    0 -0.25987552022E-01  0.50406598799E+00 -0.10670326485E+01  0.90007611697E+02  0.89999871371E+02 0.  0.
        -12    1    1    2    0    0  0.25987552022E-01 -0.50406598799E+00  0.10670326485E+01  0.11803883031E+01  0.00000000000E+00 0.  1.
         11    1    3    3    0    0  0.35914991170E+01 -0.87875743862E+01  0.69797199158E+00  0.95187969126E+01  0.51100000000E-03 0. -1.
        -11    1    3    3    0    0 -0.93619755324E-01 -0.35005778203E+02  0.55821121985E+01  0.35448176951E+02  0.51100000000E-03 0.  1.
         12    1    3    3    0    0 -0.35238669137E+01  0.44297418577E+02 -0.73471168386E+01  0.45040637834E+02  0.00000000000E+00 0. -1.
</event>
<event>
 7    1  0.1910099E-015  0.9000787E+02  0.7816164E-02  0.1186339E+00
        -11   -1    0    0    0    0  0.00000000000E+00  0.00000000000E+00  0.45593999997E+02  0.45594000000E+02  0.51100000000E-03 0.  1.
         11   -1    0    0    0    0 -0.00000000000E+00 -0.00000000000E+00 -0.45593999997E+02  0.45594000000E+02  0.51100000000E-03 0. -1.
    9900012    2    1    2    0    0 -0.25997492892E+00  0.61053377382E+00 -0.97589904055E+00  0.90007865520E+02  0.90000128545E+02 0.  0.
        -12    1    1    2    0    0  0.25997492892E+00 -0.61053377382E+00  0.97589904055E+00  0.11801344796E+01  0.00000000000E+00 0.  1.
         11    1    3    3    0    0 -0.35689602078E+02  0.26523205261E+01 -0.12834751239E+02  0.38019907158E+02  0.51100000000E-03 0. -1.
        -11    1    3    3    0    0  0.11070739979E+00 -0.37249741340E+01 -0.98261353267E+01  0.10509073420E+02  0.51100000000E-03 0.  1.
        -12    1    3    3    0    0  0.35318919750E+02  0.16831873817E+01  0.21684987526E+02  0.41478884942E+02  0.00000000000E+00 0.  1.
</event>
<event>
 7    1  0.1910099E-015  0.9000777E+02  0.7816164E-02  0.1186339E+00
        -11   -1    0    0    0    0  0.00000000000E+00  0.00000000000E+00  0.45593999997E+02  0.45594000000E+02  0.51100000000E-03 0.  1.
         11   -1    0    0    0    0 -0.00000000000E+00 -0.00000000000E+00 -0.45593999997E+02  0.45594000000E+02  0.51100000000E-03 0. -1.
    9900012    2    1    2    0    0  0.69629856838E-01  0.48570237450E+00 -0.10734005312E+01  0.90007769593E+02  0.90000031351E+02 0.  0.
        -12    1    1    2    0    0 -0.69629856838E-01 -0.48570237450E+00  0.10734005312E+01  0.11802304072E+01  0.00000000000E+00 0.  1.
         11    1    3    3    0    0  0.53544203680E+00 -0.29191437254E+01  0.97094505844E+01  0.10152907425E+02  0.51100000000E-03 0. -1.
        -11    1    3    3    0    0 -0.90638218132E+01 -0.34351911890E+02  0.85966957726E+01  0.36552837029E+02  0.51100000000E-03 0.  1.
         12    1    3    3    0    0  0.85980096333E+01  0.37756757990E+02 -0.19379546888E+02  0.43302025139E+02  0.00000000000E+00 0. -1.
</event>
<event>
 7    1  0.1910099E-015  0.9000772E+02  0.7816164E-02  0.1186339E+00
        -11   -1    0    0    0    0  0.00000000000E+00  0.00000000000E+00  0.45593999997E+02  0.45594000000E+02  0.51100000000E-03 0.  1.
         11   -1    0    0    0    0 -0.00000000000E+00 -0.00000000000E+00 -0.45593999997E+02  0.45594000000E+02  0.51100000000E-03 0. -1.
    9900012    2    1    2    0    0 -0.75393596876E+00 -0.69128975572E+00 -0.58886122573E+00  0.90007721001E+02  0.89999982119E+02 0.  0.
        -12    1    1    2    0    0  0.75393596876E+00  0.69128975572E+00  0.58886122573E+00  0.11802789986E+01  0.00000000000E+00 0.  1.
         11    1    3    3    0    0  0.64572813554E+01  0.42875308064E+01 -0.80673765244E+01  0.11187580935E+02  0.51100000000E-03 0. -1.
        -11    1    3    3    0    0  0.15563941473E+02 -0.35282578267E+02 -0.50572047738E+01  0.38893083238E+02  0.51100000000E-03 0.  1.
         12    1    3    3    0    0 -0.22775158797E+02  0.30303757705E+02  0.12535720073E+02  0.39927056829E+02  0.00000000000E+00 0. -1.
</event>
<event>
 7    1  0.1910099E-015  0.9000770E+02  0.7816164E-02  0.1186339E+00
        -11   -1    0    0    0    0  0.00000000000E+00  0.00000000000E+00  0.45593999997E+02  0.45594000000E+02  0.51100000000E-03 0.  1.
         11   -1    0    0    0    0 -0.00000000000E+00 -0.00000000000E+00 -0.45593999997E+02  0.45594000000E+02  0.51100000000E-03 0. -1.
    9900012    2    1    2    0    0  0.63092630741E-01  0.20319668004E+00 -0.11609596265E+01  0.90007704772E+02  0.89999965675E+02 0.  0.
        -12    1    1    2    0    0 -0.63092630741E-01 -0.20319668004E+00  0.11609596265E+01  0.11802952280E+01  0.00000000000E+00 0.  1.
         11    1    3    3    0    0 -0.57394058869E+01  0.76795907753E+01  0.37217454796E+01  0.10284370865E+02  0.51100000000E-03 0. -1.
        -11    1    3    3    0    0  0.43617037940E+01 -0.23834775860E+02  0.31538106624E+02  0.39771512040E+02  0.51100000000E-03 0.  1.
         12    1    3    3    0    0  0.14407947236E+01  0.16358381765E+02 -0.36420811730E+02  0.39951821867E+02  0.00000000000E+00 0. -1.
</event>
<event>
 7    1  0.1910099E-015  0.9000773E+02  0.7816164E-02  0.1186339E+00
        -11   -1    0    0    0    0  0.00000000000E+00  0.00000000000E+00  0.45593999997E+02  0.45594000000E+02  0.51100000000E-03 0.  1.
         11   -1    0    0    0    0 -0.00000000000E+00 -0.00000000000E+00 -0.45593999997E+02  0.45594000000E+02  0.51100000000E-03 0. -1.
    9900012    2    1    2    0    0 -0.23687743274E+00 -0.20915841338E+00 -0.11371759580E+01  0.90007734217E+02  0.89999995508E+02 0.  0.
        -12    1    1    2    0    0  0.23687743274E+00  0.20915841338E+00  0.11371759580E+01  0.11802657834E+01  0.00000000000E+00 0.  1.
         11    1    3    3    0    0 -0.35711478284E+02  0.57122785712E+01  0.69342815691E+01  0.36824232088E+02  0.51100000000E-03 0. -1.
        -11    1    3    3    0    0 -0.60435764819E+01  0.66739609834E+01 -0.30546047449E+01  0.95077432816E+01  0.51100000000E-03 0.  1.
        -12    1    3    3    0    0  0.41518177333E+02 -0.12595397968E+02 -0.50168527822E+01  0.43675758847E+02  0.00000000000E+00 0.  1.
</event>
<event>
 7    1  0.1910099E-015  0.9000772E+02  0.7816164E-02  0.1186339E+00
        -11   -1    0    0    0    0  0.00000000000E+00  0.00000000000E+00  0.45593999997E+02  0.45594000000E+02  0.51100000000E-03 0.  1.
         11   -1    0    0    0    0 -0.00000000000E+00 -0.00000000000E+00 -0.45593999997E+02  0.45594000000E+02  0.51100000000E-03 0. -1.
    9900012    2    1    2    0    0 -0.77642384512E+00  0.26758103605E+00 -0.84771672088E+00  0.90007721543E+02  0.89999982667E+02 0.  0.
        -12    1    1    2    0    0  0.77642384512E+00 -0.26758103605E+00  0.84771672088E+00  0.11802784574E+01  0.00000000000E+00 0.  1.
         11    1    3    3    0    0  0.15221322980E+02  0.54459668616E+01 -0.36634060474E+02  0.40042497617E+02  0.51100000000E-03 0. -1.
        -11    1    3    3    0    0  0.31351836943E+01  0.77972026049E+01  0.13841847305E+01  0.85171422959E+01  0.51100000000E-03 0.  1.
        -12    1    3    3    0    0 -0.19132930520E+02 -0.12975588430E+02  0.34402159022E+02  0.41448081630E+02  0.00000000000E+00 0.  1.
</event>
<event>
 7    1  0.1910099E-015  0.9000776E+02  0.7816164E-02  0.1186339E+00
        -11   -1    0    0    0    0  0.00000000000E+00  0.00000000000E+00  0.45593999997E+02  0.45594000000E+02  0.51100000000E-03 0.  1.
         11   -1    0    0    0    0 -0.00000000000E+00 -0.00000000000E+00 -0.45593999997E+02  0.45594000000E+02  0.51100000000E-03 0. -1.
    9900012    2    1    2    0    0 -0.29071502357E+00  0.73535752694E+00 -0.87618642185E+00  0.90007759108E+02  0.90000020728E+02 0.  0.
        -12    1    1    2    0    0  0.29071502357E+00 -0.73535752694E+00  0.87618642185E+00  0.11802408920E+01  0.00000000000E+00 0.  1.
         11    1    3    3    0    0  0.29053966269E+02  0.36003554521E+01 -0.27875978203E+02  0.40424815106E+02  0.51100000000E-03 0. -1.
        -11    1    3    3    0    0  0.33818469667E+01  0.66481192799E+01  0.39622239481E+01  0.84459219593E+01  0.51100000000E-03 0.  1.
        -12    1    3    3    0    0 -0.32726528259E+02 -0.95131172050E+01  0.23037567833E+02  0.41137022042E+02  0.00000000000E+00 0.  1.
</event>
<event>
 7    1  0.1910099E-015  0.9000795E+02  0.7816164E-02  0.1186339E+00
        -11   -1    0    0    0    0  0.00000000000E+00  0.00000000000E+00  0.45593999997E+02  0.45594000000E+02  0.51100000000E-03 0.  1.
         11   -1    0    0    0    0 -0.00000000000E+00 -0.00000000000E+00 -0.45593999997E+02  0.45594000000E+02  0.51100000000E-03 0. -1.
    9900012    2    1    2    0    0 -0.11604787809E+01 -0.10076351310E+00 -0.18880320946E+00  0.90007952993E+02  0.90000217172E+02 0.  0.
        -12    1    1    2    0    0  0.11604787809E+01  0.10076351310E+00  0.18880320946E+00  0.11800470068E+01  0.00000000000E+00 0.  1.
         11    1    3    3    0    0  0.37639596794E+01  0.80343530224E+01  0.30877664582E+01  0.93942813944E+01  0.51100000000E-03 0. -1.
        -11    1    3    3    0    0  0.93917052048E+01  0.56690454157E+01  0.35434064994E+02  0.37093330463E+02  0.51100000000E-03 0.  1.
         12    1    3    3    0    0 -0.14316143665E+02 -0.13804161951E+02 -0.38710634662E+02  0.43520341135E+02  0.00000000000E+00 0. -1.
</event>
<event>
 7    1  0.1910099E-015  0.9000776E+02  0.7816164E-02  0.1186339E+00
        -11   -1    0    0    0    0  0.00000000000E+00  0.00000000000E+00  0.45593999997E+02  0.45594000000E+02  0.51100000000E-03 0. -1.
         11   -1    0    0    0    0 -0.00000000000E+00 -0.00000000000E+00 -0.45593999997E+02  0.45594000000E+02  0.51100000000E-03 0.  1.
    9900012    2    1    2    0    0  0.37422388495E+00  0.76912901400E+00  0.81324857057E+00  0.90007755875E+02  0.90000017453E+02 0.  0.
        -12    1    1    2    0    0 -0.37422388495E+00 -0.76912901400E+00 -0.81324857057E+00  0.11802441246E+01  0.00000000000E+00 0.  1.
         11    1    3    3    0    0 -0.22619861492E+02  0.33987255539E+02  0.88194339275E+01  0.41768098929E+02  0.51100000000E-03 0. -1.
        -11    1    3    3    0    0  0.47871095973E+01  0.15286117223E-01  0.61449822906E+01  0.77895737736E+01  0.51100000000E-03 0.  1.
        -12    1    3    3    0    0  0.18206975780E+02 -0.33233412643E+02 -0.14151167647E+02  0.40450083173E+02  0.00000000000E+00 0.  1.
</event>
<event>
 7    1  0.1910099E-015  0.9000777E+02  0.7816164E-02  0.1186339E+00
        -11   -1    0    0    0    0  0.00000000000E+00  0.00000000000E+00  0.45593999997E+02  0.45594000000E+02  0.51100000000E-03 0.  1.
         11   -1    0    0    0    0 -0.00000000000E+00 -0.00000000000E+00 -0.45593999997E+02  0.45594000000E+02  0.51100000000E-03 0. -1.
    9900012    2    1    2    0    0 -0.79732740374E+00 -0.22177645127E+00 -0.84144699441E+00  0.90007767469E+02  0.90000029199E+02 0.  0.
        -12    1    1    2    0    0  0.79732740374E+00  0.22177645127E+00  0.84144699441E+00  0.11802325311E+01  0.00000000000E+00 0.  1.
         11    1    3    3    0    0  0.32196092694E+02  0.25597526447E+00 -0.18426761839E+02  0.37097162428E+02  0.51100000000E-03 0. -1.
        -11    1    3    3    0    0  0.66192906509E+01 -0.35184867929E+01 -0.31081772773E+01  0.81151416674E+01  0.51100000000E-03 0.  1.
        -12    1    3    3    0    0 -0.39612710748E+02  0.30407350772E+01  0.20693492122E+02  0.44795463373E+02  0.00000000000E+00 0.  1.
</event>
<event>
 7    1  0.1910099E-015  0.9000771E+02  0.7816164E-02  0.1186339E+00
        -11   -1    0    0    0    0  0.00000000000E+00  0.00000000000E+00  0.45593999997E+02  0.45594000000E+02  0.51100000000E-03 0. -1.
         11   -1    0    0    0    0 -0.00000000000E+00 -0.00000000000E+00 -0.45593999997E+02  0.45594000000E+02  0.51100000000E-03 0.  1.
    9900012    2    1    2    0    0  0.10523840255E+01  0.52413898110E+00  0.10422290449E+00  0.90007705027E+02  0.89999965934E+02 0.  0.
        -12    1    1    2    0    0 -0.10523840255E+01 -0.52413898110E+00 -0.10422290449E+00  0.11802949726E+01  0.00000000000E+00 0.  1.
         11    1    3    3    0    0  0.95405071545E+01 -0.67034489628E+00 -0.33245216118E+00  0.95698047914E+01  0.51100000000E-03 0. -1.
        -11    1    3    3    0    0  0.83184026017E+01  0.17326141625E+00 -0.37775323713E+02  0.38680756498E+02  0.51100000000E-03 0.  1.
         12    1    3    3    0    0 -0.16806525731E+02  0.10212224611E+01  0.38211998779E+02  0.41757143738E+02  0.00000000000E+00 0. -1.
</event>
<event>
 7    1  0.1910099E-015  0.9000779E+02  0.7816164E-02  0.1186339E+00
        -11   -1    0    0    0    0  0.00000000000E+00  0.00000000000E+00  0.45593999997E+02  0.45594000000E+02  0.51100000000E-03 0. -1.
         11   -1    0    0    0    0 -0.00000000000E+00 -0.00000000000E+00 -0.45593999997E+02  0.45594000000E+02  0.51100000000E-03 0.  1.
    9900012    2    1    2    0    0 -0.74357293676E+00  0.82374272800E+00  0.40179186343E+00  0.90007792605E+02  0.90000054667E+02 0.  0.
        -12    1    1    2    0    0  0.74357293676E+00 -0.82374272800E+00 -0.40179186343E+00  0.11802073952E+01  0.00000000000E+00 0.  1.
         11    1    3    3    0    0 -0.22076381834E+02  0.23676605274E+02  0.25051582785E+02  0.40933239213E+02  0.51100000000E-03 0. -1.
        -11    1    3    3    0    0 -0.18809938438E+01  0.44644027639E+01 -0.84400762668E+01  0.97315937816E+01  0.51100000000E-03 0.  1.
        -12    1    3    3    0    0  0.23213802741E+02 -0.27317265310E+02 -0.16209714655E+02  0.39342959610E+02  0.00000000000E+00 0.  1.
</event>
<event>
 7    1  0.1910099E-015  0.9000773E+02  0.7816164E-02  0.1186339E+00
        -11   -1    0    0    0    0  0.00000000000E+00  0.00000000000E+00  0.45593999997E+02  0.45594000000E+02  0.51100000000E-03 0.  1.
         11   -1    0    0    0    0 -0.00000000000E+00 -0.00000000000E+00 -0.45593999997E+02  0.45594000000E+02  0.51100000000E-03 0. -1.
    9900012    2    1    2    0    0  0.29344803503E+00  0.28079484737E+00 -0.11081828697E+01  0.90007734450E+02  0.89999995745E+02 0.  0.
        -12    1    1    2    0    0 -0.29344803503E+00 -0.28079484737E+00  0.11081828697E+01  0.11802655499E+01  0.00000000000E+00 0.  1.
         11    1    3    3    0    0  0.17297407694E+02  0.30935565408E+02 -0.14264206871E+02  0.38205721011E+02  0.51100000000E-03 0. -1.
        -11    1    3    3    0    0  0.92136774792E+01  0.47726352240E+00  0.76986463189E+00  0.92580951050E+01  0.51100000000E-03 0.  1.
        -12    1    3    3    0    0 -0.26217637139E+02 -0.31132034083E+02  0.12386159369E+02  0.42543918334E+02  0.00000000000E+00 0.  1.
</event>
<event>
 7    1  0.1910099E-015  0.9000776E+02  0.7816164E-02  0.1186339E+00
        -11   -1    0    0    0    0  0.00000000000E+00  0.00000000000E+00  0.45593999997E+02  0.45594000000E+02  0.51100000000E-03 0.  1.
         11   -1    0    0    0    0 -0.00000000000E+00 -0.00000000000E+00 -0.45593999997E+02  0.45594000000E+02  0.51100000000E-03 0. -1.
    9900012    2    1    2    0    0 -0.17632494701E-02  0.10228707008E+00 -0.11757981832E+01  0.90007759719E+02  0.90000021347E+02 0.  0.
        -12    1    1    2    0    0  0.17632494701E-02 -0.10228707008E+00  0.11757981832E+01  0.11802402812E+01  0.00000000000E+00 0.  1.
         11    1    3    3    0    0 -0.50972301761E+01 -0.36671576670E+02 -0.26459767475E+01  0.37118559834E+02  0.51100000000E-03 0. -1.
        -11    1    3    3    0    0 -0.18203090800E+01 -0.76682998600E+01  0.59191893717E+00  0.79035888164E+01  0.51100000000E-03 0.  1.
        -12    1    3    3    0    0  0.69157760067E+01  0.44442163600E+02  0.87825962712E+00  0.44985611068E+02  0.00000000000E+00 0.  1.
</event>
<event>
 7    1  0.1910099E-015  0.9000770E+02  0.7816164E-02  0.1186339E+00
        -11   -1    0    0    0    0  0.00000000000E+00  0.00000000000E+00  0.45593999997E+02  0.45594000000E+02  0.51100000000E-03 0. -1.
         11   -1    0    0    0    0 -0.00000000000E+00 -0.00000000000E+00 -0.45593999997E+02  0.45594000000E+02  0.51100000000E-03 0.  1.
    9900012    2    1    2    0    0 -0.22015498261E+00 -0.86007691497E+00  0.77775871767E+00  0.90007699556E+02  0.89999960390E+02 0.  0.
        -12    1    1    2    0    0  0.22015498261E+00  0.86007691497E+00 -0.77775871767E+00  0.11803004444E+01  0.00000000000E+00 0.  1.
         11    1    3    3    0    0 -0.34918638544E+00  0.26798828623E+02  0.28333585120E+02  0.39001169120E+02  0.51100000000E-03 0. -1.
        -11    1    3    3    0    0  0.64599374152E+01  0.57652819800E+01 -0.34862405626E+01  0.93339777822E+01  0.51100000000E-03 0.  1.
        -12    1    3    3    0    0 -0.63309060123E+01 -0.33424187518E+02 -0.24069585840E+02  0.41672552654E+02  0.00000000000E+00 0.  1.
</event>
<event>
 7    1  0.1910099E-015  0.9000768E+02  0.7816164E-02  0.1186339E+00
        -11   -1    0    0    0    0  0.00000000000E+00  0.00000000000E+00  0.45593999997E+02  0.45594000000E+02  0.51100000000E-03 0.  1.
         11   -1    0    0    0    0 -0.00000000000E+00 -0.00000000000E+00 -0.45593999997E+02  0.45594000000E+02  0.51100000000E-03 0. -1.
    9900012    2    1    2    0    0 -0.33192056820E-01 -0.48016122868E-01 -0.11788754797E+01  0.90007680273E+02  0.89999940853E+02 0.  0.
        -12    1    1    2    0    0  0.33192056820E-01  0.48016122868E-01  0.11788754797E+01  0.11803197267E+01  0.00000000000E+00 0.  1.
         11    1    3    3    0    0  0.18066759304E+02 -0.23029548831E+01 -0.32498707662E+02  0.37254226510E+02  0.51100000000E-03 0. -1.
        -11    1    3    3    0    0  0.54565417764E+01 -0.40217390682E+01 -0.54078522937E+01  0.86713955037E+01  0.51100000000E-03 0.  1.
        -12    1    3    3    0    0 -0.23556493137E+02  0.62766778284E+01  0.36727684476E+02  0.44082058260E+02  0.00000000000E+00 0.  1.
</event>
<event>
 7    1  0.2268544E-015  0.9000772E+02  0.7816164E-02  0.1186339E+00
        -11   -1    0    0    0    0  0.00000000000E+00  0.00000000000E+00  0.45593999997E+02  0.45594000000E+02  0.51100000000E-03 0.  1.
         11   -1    0    0    0    0 -0.00000000000E+00 -0.00000000000E+00 -0.45593999997E+02  0.45594000000E+02  0.51100000000E-03 0. -1.
    9900012    2    1    2    0    0  0.53279741970E+00 -0.28747758976E+00 -0.10131835456E+01  0.90007721494E+02  0.89999982618E+02 0.  0.
        -12    1    1    2    0    0 -0.53279741970E+00  0.28747758976E+00  0.10131835456E+01  0.11802785061E+01  0.00000000000E+00 0.  1.
         11    1    3    3    0    0 -0.52719664799E+01 -0.64859274571E+01  0.39843856636E+01  0.92593852346E+01  0.51100000000E-03 0. -1.
        -11    1    3    3    0    0 -0.33370185910E+02  0.48251661600E+01  0.14813061272E+02  0.36827684161E+02  0.51100000000E-03 0.  1.
         12    1    3    3    0    0  0.39174949810E+02  0.13732837074E+01 -0.19810630481E+02  0.43920652099E+02  0.00000000000E+00 0. -1.
</event>
<event>
 7    1  0.2014186E-015  0.9000765E+02  0.7816164E-02  0.1186339E+00
        -11   -1    0    0    0    0  0.00000000000E+00  0.00000000000E+00  0.45593999997E+02  0.45594000000E+02  0.51100000000E-03 0.  1.
         11   -1    0    0    0    0 -0.00000000000E+00 -0.00000000000E+00 -0.45593999997E+02  0.45594000000E+02  0.51100000000E-03 0. -1.
    9900012    2    1    2    0    0  0.11337883515E+01 -0.16269138546E+00 -0.28508394792E+00  0.90007653707E+02  0.89999913936E+02 0.  0.
        -12    1    1    2    0    0 -0.11337883515E+01  0.16269138546E+00  0.28508394792E+00  0.11803462925E+01  0.00000000000E+00 0.  1.
         11    1    3    3    0    0  0.77569810191E+01 -0.34798464832E+01  0.48850670207E+01  0.98053029599E+01  0.51100000000E-03 0. -1.
        -11    1    3    3    0    0 -0.98441623198E+01 -0.92254364398E+01  0.35257907430E+02  0.37750976755E+02  0.51100000000E-03 0.  1.
         12    1    3    3    0    0  0.32209696523E+01  0.12542591538E+02 -0.40428058399E+02  0.42451373993E+02  0.00000000000E+00 0. -1.
</event>
<event>
 7    1  0.1910099E-015  0.9000764E+02  0.7816164E-02  0.1186339E+00
        -11   -1    0    0    0    0  0.00000000000E+00  0.00000000000E+00  0.45593999997E+02  0.45594000000E+02  0.51100000000E-03 0.  1.
         11   -1    0    0    0    0 -0.00000000000E+00 -0.00000000000E+00 -0.45593999997E+02  0.45594000000E+02  0.51100000000E-03 0. -1.
    9900012    2    1    2    0    0  0.83954874335E+00  0.55172881561E+00 -0.61968179031E+00  0.90007638911E+02  0.89999898945E+02 0.  0.
        -12    1    1    2    0    0 -0.83954874335E+00 -0.55172881561E+00  0.61968179031E+00  0.11803610887E+01  0.00000000000E+00 0.  1.
         11    1    3    3    0    0 -0.93440044240E+01 -0.39390342578E+02 -0.16339447698E+02  0.43656466399E+02  0.51100000000E-03 0. -1.
        -11    1    3    3    0    0  0.59761883350E+01  0.85325836513E+01 -0.10981308170E+01  0.10475003691E+02  0.51100000000E-03 0.  1.
        -12    1    3    3    0    0  0.42073648323E+01  0.31409487742E+02  0.16817896725E+02  0.35876168821E+02  0.00000000000E+00 0.  1.
</event>
<event>
 7    1  0.1910099E-015  0.9000780E+02  0.7816164E-02  0.1186339E+00
        -11   -1    0    0    0    0  0.00000000000E+00  0.00000000000E+00  0.45593999997E+02  0.45594000000E+02  0.51100000000E-03 0. -1.
         11   -1    0    0    0    0 -0.00000000000E+00 -0.00000000000E+00 -0.45593999997E+02  0.45594000000E+02  0.51100000000E-03 0.  1.
    9900012    2    1    2    0    0  0.61505048610E+00  0.10039699206E+01 -0.81425992265E-01  0.90007799638E+02  0.90000061793E+02 0.  0.
        -12    1    1    2    0    0 -0.61505048610E+00 -0.10039699206E+01  0.81425992265E-01  0.11802003618E+01  0.00000000000E+00 0.  1.
         11    1    3    3    0    0 -0.23243593066E+02 -0.28837077100E+02  0.12006144830E+01  0.37057834660E+02  0.51100000000E-03 0. -1.
        -11    1    3    3    0    0 -0.89375686694E+01  0.13596740385E+01  0.24104078627E+01  0.93562232518E+01  0.51100000000E-03 0.  1.
        -12    1    3    3    0    0  0.32796212221E+02  0.28481372982E+02 -0.36924483379E+01  0.43593741727E+02  0.00000000000E+00 0.  1.
</event>
<event>
 7    1  0.1910099E-015  0.9000772E+02  0.7816164E-02  0.1186339E+00
        -11   -1    0    0    0    0  0.00000000000E+00  0.00000000000E+00  0.45593999997E+02  0.45594000000E+02  0.51100000000E-03 0.  1.
         11   -1    0    0    0    0 -0.00000000000E+00 -0.00000000000E+00 -0.45593999997E+02  0.45594000000E+02  0.51100000000E-03 0. -1.
    9900012    2    1    2    0    0 -0.83829182935E+00 -0.78262052880E+00  0.27897479708E+00  0.90007722482E+02  0.89999983618E+02 0.  0.
        -12    1    1    2    0    0  0.83829182935E+00  0.78262052880E+00 -0.27897479708E+00  0.11802775185E+01  0.00000000000E+00 0.  1.
         11    1    3    3    0    0 -0.50819072857E+01  0.36202880467E+01  0.58922575649E+01  0.85820141386E+01  0.51100000000E-03 0. -1.
        -11    1    3    3    0    0 -0.20953289997E+02 -0.72590665852E+00  0.30638043458E+02  0.37124883964E+02  0.51100000000E-03 0.  1.
         12    1    3    3    0    0  0.25196905453E+02 -0.36770019170E+01 -0.36251326226E+02  0.44300824379E+02  0.00000000000E+00 0. -1.
</event>
<event>
 7    1  0.1910099E-015  0.9000779E+02  0.7816164E-02  0.1186339E+00
        -11   -1    0    0    0    0  0.00000000000E+00  0.00000000000E+00  0.45593999997E+02  0.45594000000E+02  0.51100000000E-03 0.  1.
         11   -1    0    0    0    0 -0.00000000000E+00 -0.00000000000E+00 -0.45593999997E+02  0.45594000000E+02  0.51100000000E-03 0. -1.
    9900012    2    1    2    0    0 -0.67594659485E-01  0.65441187491E+00 -0.97983644076E+00  0.90007786718E+02  0.90000048703E+02 0.  0.
        -12    1    1    2    0    0  0.67594659485E-01 -0.65441187491E+00  0.97983644076E+00  0.11802132818E+01  0.00000000000E+00 0.  1.
         11    1    3    3    0    0 -0.36085897925E+01 -0.36846245966E+01  0.85959327353E+01  0.10024392179E+02  0.51100000000E-03 0. -1.
        -11    1    3    3    0    0  0.24781022677E+02  0.16222463257E+02  0.24272128751E+02  0.38293650041E+02  0.51100000000E-03 0.  1.
         12    1    3    3    0    0 -0.21240027544E+02 -0.11883426786E+02 -0.33847897927E+02  0.41689744498E+02  0.00000000000E+00 0. -1.
</event>
<event>
 7    1  0.1910099E-015  0.9000770E+02  0.7816164E-02  0.1186339E+00
        -11   -1    0    0    0    0  0.00000000000E+00  0.00000000000E+00  0.45593999997E+02  0.45594000000E+02  0.51100000000E-03 0.  1.
         11   -1    0    0    0    0 -0.00000000000E+00 -0.00000000000E+00 -0.45593999997E+02  0.45594000000E+02  0.51100000000E-03 0. -1.
    9900012    2    1    2    0    0 -0.75121421234E+00  0.31687884781E+00 -0.85345434680E+00  0.90007695243E+02  0.89999956020E+02 0.  0.
        -12    1    1    2    0    0  0.75121421234E+00 -0.31687884781E+00  0.85345434680E+00  0.11803047569E+01  0.00000000000E+00 0.  1.
         11    1    3    3    0    0  0.12063329251E+01  0.35587624476E+01 -0.84158271698E+01  0.92166250058E+01  0.51100000000E-03 0. -1.
        -11    1    3    3    0    0  0.11026413139E+02  0.10089827437E+02  0.40383835929E+02  0.43060894197E+02  0.51100000000E-03 0.  1.
         12    1    3    3    0    0 -0.12983960276E+02 -0.13331711037E+02 -0.32821463106E+02  0.37730176041E+02  0.00000000000E+00 0. -1.
</event>
<event>
 7    1  0.1910099E-015  0.9000774E+02  0.7816164E-02  0.1186339E+00
        -11   -1    0    0    0    0  0.00000000000E+00  0.00000000000E+00  0.45593999997E+02  0.45594000000E+02  0.51100000000E-03 0. -1.
         11   -1    0    0    0    0 -0.00000000000E+00 -0.00000000000E+00 -0.45593999997E+02  0.45594000000E+02  0.51100000000E-03 0.  1.
    9900012    2    1    2    0    0 -0.85060039695E+00 -0.61862465681E+00 -0.53554104005E+00  0.90007736594E+02  0.89999997917E+02 0.  0.
        -12    1    1    2    0    0  0.85060039695E+00  0.61862465681E+00  0.53554104005E+00  0.11802634057E+01  0.00000000000E+00 0.  1.
         11    1    3    3    0    0  0.27854891514E+02  0.17064337205E+02  0.21541173783E+02  0.39129384786E+02  0.51100000000E-03 0. -1.
        -11    1    3    3    0    0  0.13755769886E+01 -0.97634546019E+01  0.36480468141E+01  0.10513111035E+02  0.51100000000E-03 0.  1.
        -12    1    3    3    0    0 -0.30081068900E+02 -0.79195072603E+01 -0.25724761637E+02  0.40365240773E+02  0.00000000000E+00 0.  1.
</event>
<event>
 7    1  0.1910099E-015  0.9000865E+02  0.7816164E-02  0.1186337E+00
        -11   -1    0    0    0    0  0.00000000000E+00  0.00000000000E+00  0.45593999997E+02  0.45594000000E+02  0.51100000000E-03 0.  1.
         11   -1    0    0    0    0 -0.00000000000E+00 -0.00000000000E+00 -0.45593999997E+02  0.45594000000E+02  0.51100000000E-03 0. -1.
    9900012    2    1    2    0    0  0.45640063245E+00 -0.70265621898E+00 -0.82995654153E+00  0.90008654775E+02  0.90000928213E+02 0.  0.
        -12    1    1    2    0    0 -0.45640063245E+00  0.70265621898E+00  0.82995654153E+00  0.11793452252E+01  0.00000000000E+00 0.  1.
         11    1    3    3    0    0  0.88767565513E+01 -0.58871932372E+01 -0.16401824939E+01  0.10777107680E+02  0.51100000000E-03 0. -1.
        -11    1    3    3    0    0 -0.15398107879E+02 -0.33809273061E+02 -0.94045993345E+01  0.38322515054E+02  0.51100000000E-03 0.  1.
         12    1    3    3    0    0  0.69777519599E+01  0.38993810079E+02  0.10214825287E+02  0.40909032041E+02  0.00000000000E+00 0. -1.
</event>
<event>
 7    1  0.1910099E-015  0.9000811E+02  0.7816164E-02  0.1186338E+00
        -11   -1    0    0    0    0  0.00000000000E+00  0.00000000000E+00  0.45593999997E+02  0.45594000000E+02  0.51100000000E-03 0. -1.
         11   -1    0    0    0    0 -0.00000000000E+00 -0.00000000000E+00 -0.45593999997E+02  0.45594000000E+02  0.51100000000E-03 0.  1.
    9900012    2    1    2    0    0 -0.86620062290E+00 -0.80110419464E+00  0.77011009575E-02  0.90008114092E+02  0.90000380397E+02 0.  0.
        -12    1    1    2    0    0  0.86620062290E+00  0.80110419464E+00 -0.77011009575E-02  0.11798859084E+01  0.00000000000E+00 0.  1.
         11    1    3    3    0    0 -0.33338999774E+02 -0.12791330960E+02  0.54739595477E+01  0.36125770400E+02  0.51100000000E-03 0. -1.
        -11    1    3    3    0    0 -0.92040004781E+01 -0.10413299336E+01  0.22672347087E+01  0.95361599356E+01  0.51100000000E-03 0.  1.
        -12    1    3    3    0    0  0.41676799629E+02  0.13031556698E+02 -0.77334931555E+01  0.44346183756E+02  0.00000000000E+00 0.  1.
</event>
<event>
 7    1  0.1910099E-015  0.9000775E+02  0.7816164E-02  0.1186339E+00
        -11   -1    0    0    0    0  0.00000000000E+00  0.00000000000E+00  0.45593999997E+02  0.45594000000E+02  0.51100000000E-03 0.  1.
         11   -1    0    0    0    0 -0.00000000000E+00 -0.00000000000E+00 -0.45593999997E+02  0.45594000000E+02  0.51100000000E-03 0. -1.
    9900012    2    1    2    0    0 -0.19162841189E+00  0.77721452106E+00 -0.86730404935E+00  0.90007745716E+02  0.90000007160E+02 0.  0.
        -12    1    1    2    0    0  0.19162841189E+00 -0.77721452106E+00  0.86730404935E+00  0.11802542836E+01  0.00000000000E+00 0.  1.
         11    1    3    3    0    0  0.10359853928E+02 -0.26206976180E+00  0.27535378629E+01  0.10722743352E+02  0.51100000000E-03 0. -1.
        -11    1    3    3    0    0  0.31345951889E+02  0.99339036885E+01  0.99508333209E+01  0.34355061146E+02  0.51100000000E-03 0.  1.
         12    1    3    3    0    0 -0.41897434228E+02 -0.88946194056E+01 -0.13571675233E+02  0.44929941219E+02  0.00000000000E+00 0. -1.
</event>
<event>
 7    1  0.1910099E-015  0.9000772E+02  0.7816164E-02  0.1186339E+00
        -11   -1    0    0    0    0  0.00000000000E+00  0.00000000000E+00  0.45593999997E+02  0.45594000000E+02  0.51100000000E-03 0. -1.
         11   -1    0    0    0    0 -0.00000000000E+00 -0.00000000000E+00 -0.45593999997E+02  0.45594000000E+02  0.51100000000E-03 0.  1.
    9900012    2    1    2    0    0 -0.10559732060E+01 -0.52452701624E+00 -0.53385501185E-01  0.90007721213E+02  0.89999982333E+02 0.  0.
        -12    1    1    2    0    0  0.10559732060E+01  0.52452701624E+00  0.53385501185E-01  0.11802787867E+01  0.00000000000E+00 0.  1.
         11    1    3    3    0    0 -0.18699592347E+02 -0.27934776107E+02  0.21801427220E+02  0.40066553373E+02  0.51100000000E-03 0. -1.
        -11    1    3    3    0    0  0.21264951018E+01 -0.68072868300E+01 -0.52930340328E+01  0.88812918507E+01  0.51100000000E-03 0.  1.
        -12    1    3    3    0    0  0.15517124040E+02  0.34217535921E+02 -0.16561778689E+02  0.41059875989E+02  0.00000000000E+00 0.  1.
</event>
<event>
 7    1  0.2350868E-015  0.9000819E+02  0.7816164E-02  0.1186338E+00
        -11   -1    0    0    0    0  0.00000000000E+00  0.00000000000E+00  0.45593999997E+02  0.45594000000E+02  0.51100000000E-03 0.  1.
         11   -1    0    0    0    0 -0.00000000000E+00 -0.00000000000E+00 -0.45593999997E+02  0.45594000000E+02  0.51100000000E-03 0. -1.
    9900012    2    1    2    0    0 -0.89079075522E+00  0.45003584846E+00 -0.62920598628E+00  0.90008194674E+02  0.90000462042E+02 0.  0.
        -12    1    1    2    0    0  0.89079075522E+00 -0.45003584846E+00  0.62920598628E+00  0.11798053262E+01  0.00000000000E+00 0.  1.
         11    1    3    3    0    0  0.11550919895E+01 -0.30381949006E+01  0.90815409622E+01  0.96456856815E+01  0.51100000000E-03 0. -1.
        -11    1    3    3    0    0  0.23188738509E+02  0.17455212301E+02  0.22795232277E+02  0.36905618067E+02  0.51100000000E-03 0.  1.
         12    1    3    3    0    0 -0.25234621254E+02 -0.13966981552E+02 -0.32505979225E+02  0.43456890925E+02  0.00000000000E+00 0. -1.
</event>
<event>
 7    1  0.1910099E-015  0.9000775E+02  0.7816164E-02  0.1186339E+00
        -11   -1    0    0    0    0  0.00000000000E+00  0.00000000000E+00  0.45593999997E+02  0.45594000000E+02  0.51100000000E-03 0. -1.
         11   -1    0    0    0    0 -0.00000000000E+00 -0.00000000000E+00 -0.45593999997E+02  0.45594000000E+02  0.51100000000E-03 0.  1.
    9900012    2    1    2    0    0 -0.37887099286E+00 -0.11171451636E+01 -0.37839072896E-01  0.90007750729E+02  0.90000012239E+02 0.  0.
        -12    1    1    2    0    0  0.37887099286E+00  0.11171451636E+01  0.37839072896E-01  0.11802492708E+01  0.00000000000E+00 0.  1.
         11    1    3    3    0    0 -0.29060946044E+00  0.20503826725E+01  0.85269962555E+01  0.87748611593E+01  0.51100000000E-03 0. -1.
        -11    1    3    3    0    0  0.16764033387E+02  0.31945610104E+02  0.10905754107E+02  0.37689392317E+02  0.51100000000E-03 0.  1.
         12    1    3    3    0    0 -0.16852294919E+02 -0.35113137940E+02 -0.19470589435E+02  0.43543497253E+02  0.00000000000E+00 0. -1.
</event>
<event>
 7    1  0.1910099E-015  0.9000763E+02  0.7816164E-02  0.1186339E+00
        -11   -1    0    0    0    0  0.00000000000E+00  0.00000000000E+00  0.45593999997E+02  0.45594000000E+02  0.51100000000E-03 0.  1.
         11   -1    0    0    0    0 -0.00000000000E+00 -0.00000000000E+00 -0.45593999997E+02  0.45594000000E+02  0.51100000000E-03 0. -1.
    9900012    2    1    2    0    0 -0.27457785213E+00  0.68116113358E+00 -0.92406090604E+00  0.90007634783E+02  0.89999894762E+02 0.  0.
        -12    1    1    2    0    0  0.27457785213E+00 -0.68116113358E+00  0.92406090604E+00  0.11803652167E+01  0.00000000000E+00 0.  1.
         11    1    3    3    0    0 -0.35277396178E+01  0.29907829927E+02 -0.19139635849E+02  0.35682613392E+02  0.51100000000E-03 0. -1.
        -11    1    3    3    0    0  0.64626179445E+00  0.71890427399E+01 -0.69206338089E+01  0.99997581172E+01  0.51100000000E-03 0.  1.
        -12    1    3    3    0    0  0.26068999712E+01 -0.36415711533E+02  0.25136208752E+02  0.44325263275E+02  0.00000000000E+00 0.  1.
</event>
<event>
 7    1  0.1910099E-015  0.9000767E+02  0.7816164E-02  0.1186339E+00
        -11   -1    0    0    0    0  0.00000000000E+00  0.00000000000E+00  0.45593999997E+02  0.45594000000E+02  0.51100000000E-03 0.  1.
         11   -1    0    0    0    0 -0.00000000000E+00 -0.00000000000E+00 -0.45593999997E+02  0.45594000000E+02  0.51100000000E-03 0. -1.
    9900012    2    1    2    0    0 -0.10506734459E+01  0.48579113647E+00  0.23080695212E+00  0.90007669721E+02  0.89999930161E+02 0.  0.
        -12    1    1    2    0    0  0.10506734459E+01 -0.48579113647E+00 -0.23080695212E+00  0.11803302790E+01  0.00000000000E+00 0.  1.
         11    1    3    3    0    0  0.81966261099E+01 -0.42352381217E+01 -0.36503136671E+01  0.99220316298E+01  0.51100000000E-03 0. -1.
        -11    1    3    3    0    0 -0.27331455294E+01 -0.34576565222E+02  0.16351338534E+02  0.38345471951E+02  0.51100000000E-03 0.  1.
         12    1    3    3    0    0 -0.65141540265E+01  0.39297594480E+02 -0.12470217915E+02  0.41740166140E+02  0.00000000000E+00 0. -1.
</event>
<event>
 7    1  0.1910099E-015  0.9000773E+02  0.7816164E-02  0.1186339E+00
        -11   -1    0    0    0    0  0.00000000000E+00  0.00000000000E+00  0.45593999997E+02  0.45594000000E+02  0.51100000000E-03 0.  1.
         11   -1    0    0    0    0 -0.00000000000E+00 -0.00000000000E+00 -0.45593999997E+02  0.45594000000E+02  0.51100000000E-03 0. -1.
    9900012    2    1    2    0    0  0.59501507380E-01 -0.11688606228E+01  0.15254870782E+00  0.90007726009E+02  0.89999987193E+02 0.  0.
        -12    1    1    2    0    0 -0.59501507380E-01  0.11688606228E+01 -0.15254870782E+00  0.11802739907E+01  0.00000000000E+00 0.  1.
         11    1    3    3    0    0 -0.42739404441E+01 -0.29067593632E+02 -0.25919117806E+02  0.39178976947E+02  0.51100000000E-03 0. -1.
        -11    1    3    3    0    0 -0.95242868140E+01 -0.19724261926E+00 -0.79363475460E+00  0.95593305389E+01  0.51100000000E-03 0.  1.
        -12    1    3    3    0    0  0.13857728766E+02  0.28095975628E+02  0.26865301269E+02  0.41269418524E+02  0.00000000000E+00 0.  1.
</event>
<event>
 7    1  0.1910099E-015  0.9000776E+02  0.7816164E-02  0.1186339E+00
        -11   -1    0    0    0    0  0.00000000000E+00  0.00000000000E+00  0.45593999997E+02  0.45594000000E+02  0.51100000000E-03 0.  1.
         11   -1    0    0    0    0 -0.00000000000E+00 -0.00000000000E+00 -0.45593999997E+02  0.45594000000E+02  0.51100000000E-03 0. -1.
    9900012    2    1    2    0    0 -0.21689334623E+00  0.22538791021E+00 -0.11380355514E+01  0.90007759622E+02  0.90000021249E+02 0.  0.
        -12    1    1    2    0    0  0.21689334623E+00 -0.22538791021E+00  0.11380355514E+01  0.11802403780E+01  0.00000000000E+00 0.  1.
         11    1    3    3    0    0 -0.38455146786E+02 -0.86531519229E+01 -0.51615813879E+01  0.39753204591E+02  0.51100000000E-03 0. -1.
        -11    1    3    3    0    0  0.31070977017E+00  0.87920359075E+01 -0.64484879041E+01  0.10907769363E+02  0.51100000000E-03 0.  1.
        -12    1    3    3    0    0  0.37927543670E+02  0.86503925566E-01  0.10472033741E+02  0.39346785668E+02  0.00000000000E+00 0.  1.
</event>
<event>
 7    1  0.1910099E-015  0.9000854E+02  0.7816164E-02  0.1186337E+00
        -11   -1    0    0    0    0  0.00000000000E+00  0.00000000000E+00  0.45593999997E+02  0.45594000000E+02  0.51100000000E-03 0. -1.
         11   -1    0    0    0    0 -0.00000000000E+00 -0.00000000000E+00 -0.45593999997E+02  0.45594000000E+02  0.51100000000E-03 0.  1.
    9900012    2    1    2    0    0 -0.39629023048E+00 -0.70022005450E+00 -0.86242254867E+00  0.90008539647E+02  0.90000811567E+02 0.  0.
        -12    1    1    2    0    0  0.39629023048E+00  0.70022005450E+00  0.86242254867E+00  0.11794603529E+01  0.00000000000E+00 0.  1.
         11    1    3    3    0    0 -0.28563741078E+01 -0.66749189812E+01  0.70973565865E+01  0.10153122043E+02  0.51100000000E-03 0. -1.
        -11    1    3    3    0    0  0.36208410102E+02  0.20788917812E+02  0.15880645469E+01  0.41782173414E+02  0.51100000000E-03 0.  1.
         12    1    3    3    0    0 -0.33748326225E+02 -0.14814218885E+02 -0.95478436821E+01  0.38073244190E+02  0.00000000000E+00 0. -1.
</event>
<event>
 7    1  0.1910099E-015  0.9000788E+02  0.7816164E-02  0.1186339E+00
        -11   -1    0    0    0    0  0.00000000000E+00  0.00000000000E+00  0.45593999997E+02  0.45594000000E+02  0.51100000000E-03 0.  1.
         11   -1    0    0    0    0 -0.00000000000E+00 -0.00000000000E+00 -0.45593999997E+02  0.45594000000E+02  0.51100000000E-03 0. -1.
    9900012    2    1    2    0    0  0.28912404759E+00 -0.74500269450E+00 -0.86836384593E+00  0.90007882422E+02  0.90000145670E+02 0.  0.
        -12    1    1    2    0    0 -0.28912404759E+00  0.74500269450E+00  0.86836384593E+00  0.11801175783E+01  0.00000000000E+00 0.  1.
         11    1    3    3    0    0  0.40434761200E+01  0.76990217106E+01  0.41082250674E+01  0.96178036941E+01  0.51100000000E-03 0. -1.
        -11    1    3    3    0    0  0.35606522685E+02 -0.90745070424E+01  0.10304606975E+02  0.38162233438E+02  0.51100000000E-03 0.  1.
         12    1    3    3    0    0 -0.39360874758E+02  0.63048263734E+00 -0.15281195889E+02  0.42227845290E+02  0.00000000000E+00 0. -1.
</event>
<event>
 7    1  0.1910099E-015  0.9000775E+02  0.7816164E-02  0.1186339E+00
        -11   -1    0    0    0    0  0.00000000000E+00  0.00000000000E+00  0.45593999997E+02  0.45594000000E+02  0.51100000000E-03 0.  1.
         11   -1    0    0    0    0 -0.00000000000E+00 -0.00000000000E+00 -0.45593999997E+02  0.45594000000E+02  0.51100000000E-03 0. -1.
    9900012    2    1    2    0    0  0.19664412728E+00 -0.11329574298E+01 -0.26594519463E+00  0.90007750748E+02  0.90000012258E+02 0.  0.
        -12    1    1    2    0    0 -0.19664412728E+00  0.11329574298E+01  0.26594519463E+00  0.11802492521E+01  0.00000000000E+00 0.  1.
         11    1    3    3    0    0  0.27534649111E+02  0.93904252808E+01 -0.11938024887E+02  0.31446039927E+02  0.51100000000E-03 0. -1.
        -11    1    3    3    0    0  0.11243794851E+02 -0.49918138830E+01 -0.82270655175E+01  0.14799518093E+02  0.51100000000E-03 0.  1.
        -12    1    3    3    0    0 -0.38581799835E+02 -0.55315688276E+01  0.19899145210E+02  0.43762192728E+02  0.00000000000E+00 0.  1.
</event>
<event>
 7    1  0.1910099E-015  0.9000802E+02  0.7816164E-02  0.1186338E+00
        -11   -1    0    0    0    0  0.00000000000E+00  0.00000000000E+00  0.45593999997E+02  0.45594000000E+02  0.51100000000E-03 0. -1.
         11   -1    0    0    0    0 -0.00000000000E+00 -0.00000000000E+00 -0.45593999997E+02  0.45594000000E+02  0.51100000000E-03 0.  1.
    9900012    2    1    2    0    0  0.79062697405E-01 -0.10546260598E+01  0.52333310483E+00  0.90008015011E+02  0.90000280008E+02 0.  0.
        -12    1    1    2    0    0 -0.79062697405E-01  0.10546260598E+01 -0.52333310483E+00  0.11799849892E+01  0.00000000000E+00 0.  1.
         11    1    3    3    0    0 -0.80616558424E+01  0.54326609194E+01 -0.40699585217E+01  0.10538911814E+02  0.51100000000E-03 0. -1.
        -11    1    3    3    0    0 -0.44106117668E+00  0.15345219771E+02 -0.32292419048E+02  0.35755707698E+02  0.51100000000E-03 0.  1.
         12    1    3    3    0    0  0.85817797165E+01 -0.21832506750E+02  0.36885710674E+02  0.43713395499E+02  0.00000000000E+00 0. -1.
</event>
<event>
 7    1  0.1910099E-015  0.9000778E+02  0.7816164E-02  0.1186339E+00
        -11   -1    0    0    0    0  0.00000000000E+00  0.00000000000E+00  0.45593999997E+02  0.45594000000E+02  0.51100000000E-03 0.  1.
         11   -1    0    0    0    0 -0.00000000000E+00 -0.00000000000E+00 -0.45593999997E+02  0.45594000000E+02  0.51100000000E-03 0. -1.
    9900012    2    1    2    0    0 -0.42882637447E+00 -0.91346006667E-01 -0.10957555617E+01  0.90007781205E+02  0.90000043117E+02 0.  0.
        -12    1    1    2    0    0  0.42882637447E+00  0.91346006667E-01  0.10957555617E+01  0.11802187947E+01  0.00000000000E+00 0.  1.
         11    1    3    3    0    0  0.81277559304E+01 -0.20564032791E+01  0.57488955521E+01  0.10165579730E+02  0.51100000000E-03 0. -1.
        -11    1    3    3    0    0 -0.28665095183E+02  0.19042889189E+02  0.21927288893E+02  0.40805946981E+02  0.51100000000E-03 0.  1.
         12    1    3    3    0    0  0.20108512878E+02 -0.17077831917E+02 -0.28771940007E+02  0.39036254494E+02  0.00000000000E+00 0. -1.
</event>
<event>
 7    1  0.1910099E-015  0.9000770E+02  0.7816164E-02  0.1186339E+00
        -11   -1    0    0    0    0  0.00000000000E+00  0.00000000000E+00  0.45593999997E+02  0.45594000000E+02  0.51100000000E-03 0.  1.
         11   -1    0    0    0    0 -0.00000000000E+00 -0.00000000000E+00 -0.45593999997E+02  0.45594000000E+02  0.51100000000E-03 0. -1.
    9900012    2    1    2    0    0 -0.84414866039E+00 -0.20988418345E+00 -0.79778824415E+00  0.90007701557E+02  0.89999962418E+02 0.  0.
        -12    1    1    2    0    0  0.84414866039E+00  0.20988418345E+00  0.79778824415E+00  0.11802984427E+01  0.00000000000E+00 0.  1.
         11    1    3    3    0    0 -0.18981966664E+02  0.28362094364E+02 -0.41430382362E+01  0.34378601211E+02  0.51100000000E-03 0. -1.
        -11    1    3    3    0    0 -0.56100997212E+01  0.29918387965E+01 -0.11736423968E+02  0.13347957375E+02  0.51100000000E-03 0.  1.
        -12    1    3    3    0    0  0.23747917725E+02 -0.31563817343E+02  0.15081673960E+02  0.42281142972E+02  0.00000000000E+00 0.  1.
</event>
<event>
 7    1  0.1910099E-015  0.9000772E+02  0.7816164E-02  0.1186339E+00
        -11   -1    0    0    0    0  0.00000000000E+00  0.00000000000E+00  0.45593999997E+02  0.45594000000E+02  0.51100000000E-03 0. -1.
         11   -1    0    0    0    0 -0.00000000000E+00 -0.00000000000E+00 -0.45593999997E+02  0.45594000000E+02  0.51100000000E-03 0.  1.
    9900012    2    1    2    0    0  0.54336460409E+00  0.90085774731E+00 -0.53503424005E+00  0.90007724010E+02  0.89999985167E+02 0.  0.
        -12    1    1    2    0    0 -0.54336460409E+00 -0.90085774731E+00  0.53503424005E+00  0.11802759897E+01  0.00000000000E+00 0.  1.
         11    1    3    3    0    0 -0.44326103066E+01  0.88163072418E+01  0.14526941403E+01  0.99742482442E+01  0.51100000000E-03 0. -1.
        -11    1    3    3    0    0  0.31927692993E+02 -0.29653263566E+02  0.73063054758E+01  0.44182300980E+02  0.51100000000E-03 0.  1.
         12    1    3    3    0    0 -0.26951718082E+02  0.21737814071E+02 -0.92940338561E+01  0.35851174786E+02  0.00000000000E+00 0. -1.
</event>
<event>
 7    1  0.1910099E-015  0.9000768E+02  0.7816164E-02  0.1186339E+00
        -11   -1    0    0    0    0  0.00000000000E+00  0.00000000000E+00  0.45593999997E+02  0.45594000000E+02  0.51100000000E-03 0.  1.
         11   -1    0    0    0    0 -0.00000000000E+00 -0.00000000000E+00 -0.45593999997E+02  0.45594000000E+02  0.51100000000E-03 0. -1.
    9900012    2    1    2    0    0 -0.27942671350E+00  0.20575236065E+00 -0.11281584082E+01  0.90007680248E+02  0.89999940828E+02 0.  0.
        -12    1    1    2    0    0  0.27942671350E+00 -0.20575236065E+00  0.11281584082E+01  0.11803197516E+01  0.00000000000E+00 0.  1.
         11    1    3    3    0    0  0.58113637865E+01 -0.10892296931E+02 -0.39367702453E+02  0.41258091064E+02  0.51100000000E-03 0. -1.
        -11    1    3    3    0    0 -0.51800092708E+01 -0.71249401095E+01  0.34397811661E+01  0.94567099110E+01  0.51100000000E-03 0.  1.
        -12    1    3    3    0    0 -0.91078122918E+00  0.18222989401E+02  0.34799762879E+02  0.39292879274E+02  0.00000000000E+00 0.  1.
</event>
<event>
 7    1  0.1910099E-015  0.9000769E+02  0.7816164E-02  0.1186339E+00
        -11   -1    0    0    0    0  0.00000000000E+00  0.00000000000E+00  0.45593999997E+02  0.45594000000E+02  0.51100000000E-03 0.  1.
         11   -1    0    0    0    0 -0.00000000000E+00 -0.00000000000E+00 -0.45593999997E+02  0.45594000000E+02  0.51100000000E-03 0. -1.
    9900012    2    1    2    0    0 -0.34494497415E+00 -0.89408838313E+00 -0.68902986618E+00  0.90007685115E+02  0.89999945758E+02 0.  0.
        -12    1    1    2    0    0  0.34494497415E+00  0.89408838313E+00  0.68902986618E+00  0.11803148853E+01  0.00000000000E+00 0.  1.
         11    1    3    3    0    0 -0.30595744599E+01  0.67174507677E+01  0.48722712577E+01  0.88444427841E+01  0.51100000000E-03 0. -1.
        -11    1    3    3    0    0 -0.60260235798E+01 -0.87531339493E+01  0.36589045904E+02  0.38101031411E+02  0.51100000000E-03 0.  1.
         12    1    3    3    0    0  0.87406530655E+01  0.11415947985E+01 -0.42150347028E+02  0.43062210920E+02  0.00000000000E+00 0. -1.
</event>
<event>
 7    1  0.1934085E-015  0.9000772E+02  0.7816164E-02  0.1186339E+00
        -11   -1    0    0    0    0  0.00000000000E+00  0.00000000000E+00  0.45593999997E+02  0.45594000000E+02  0.51100000000E-03 0.  1.
         11   -1    0    0    0    0 -0.00000000000E+00 -0.00000000000E+00 -0.45593999997E+02  0.45594000000E+02  0.51100000000E-03 0. -1.
    9900012    2    1    2    0    0 -0.96144578345E+00 -0.63500694258E+00 -0.25582889802E+00  0.90007720272E+02  0.89999981379E+02 0.  0.
        -12    1    1    2    0    0  0.96144578345E+00  0.63500694258E+00  0.25582889802E+00  0.11802797282E+01  0.00000000000E+00 0.  1.
         11    1    3    3    0    0 -0.83295607368E+01 -0.10467127948E+01 -0.46816962606E+01  0.96122562326E+01  0.51100000000E-03 0. -1.
        -11    1    3    3    0    0  0.16860284721E+02  0.37620404242E+02  0.73820059492E+01  0.41881475956E+02  0.51100000000E-03 0.  1.
         12    1    3    3    0    0 -0.94921697671E+01 -0.37208698389E+02 -0.29561385866E+01  0.38513988083E+02  0.00000000000E+00 0. -1.
</event>
<event>
 7    1  0.1910099E-015  0.9000779E+02  0.7816164E-02  0.1186339E+00
        -11   -1    0    0    0    0  0.00000000000E+00  0.00000000000E+00  0.45593999997E+02  0.45594000000E+02  0.51100000000E-03 0.  1.
         11   -1    0    0    0    0 -0.00000000000E+00 -0.00000000000E+00 -0.45593999997E+02  0.45594000000E+02  0.51100000000E-03 0. -1.
    9900012    2    1    2    0    0 -0.12731436360E+00  0.51795687192E+00 -0.10528047561E+01  0.90007794034E+02  0.90000056115E+02 0.  0.
        -12    1    1    2    0    0  0.12731436360E+00 -0.51795687192E+00  0.10528047561E+01  0.11802059662E+01  0.00000000000E+00 0.  1.
         11    1    3    3    0    0  0.31941368564E+01 -0.52493238522E+01  0.69877054444E+01  0.93051565705E+01  0.51100000000E-03 0. -1.
        -11    1    3    3    0    0  0.36136957733E+02  0.30130555968E+01  0.94198791778E+01  0.37465882376E+02  0.51100000000E-03 0.  1.
         12    1    3    3    0    0 -0.39458408953E+02  0.27542251273E+01 -0.17460389378E+02  0.43236755087E+02  0.00000000000E+00 0. -1.
</event>
<event>
 7    1  0.1910099E-015  0.9000749E+02  0.7816164E-02  0.1186340E+00
        -11   -1    0    0    0    0  0.00000000000E+00  0.00000000000E+00  0.45593999997E+02  0.45594000000E+02  0.51100000000E-03 0.  1.
         11   -1    0    0    0    0 -0.00000000000E+00 -0.00000000000E+00 -0.45593999997E+02  0.45594000000E+02  0.51100000000E-03 0. -1.
    9900012    2    1    2    0    0  0.40198984612E+00 -0.79665980353E+00  0.77287878698E+00  0.90007489814E+02  0.89999747880E+02 0.  0.
        -12    1    1    2    0    0 -0.40198984612E+00  0.79665980353E+00 -0.77287878698E+00  0.11805101856E+01  0.00000000000E+00 0.  1.
         11    1    3    3    0    0  0.18712227743E+02  0.12729908974E+02 -0.18518582179E+02  0.29242707394E+02  0.51100000000E-03 0. -1.
        -11    1    3    3    0    0  0.25535127461E+01  0.16190593414E+02 -0.49316725707E+01  0.17116574921E+02  0.51100000000E-03 0.  1.
        -12    1    3    3    0    0 -0.20863750643E+02 -0.29717162191E+02  0.24223133536E+02  0.43648207499E+02  0.00000000000E+00 0.  1.
</event>
<event>
 7    1  0.1910099E-015  0.9000760E+02  0.7816164E-02  0.1186339E+00
        -11   -1    0    0    0    0  0.00000000000E+00  0.00000000000E+00  0.45593999997E+02  0.45594000000E+02  0.51100000000E-03 0.  1.
         11   -1    0    0    0    0 -0.00000000000E+00 -0.00000000000E+00 -0.45593999997E+02  0.45594000000E+02  0.51100000000E-03 0. -1.
    9900012    2    1    2    0    0  0.67009212690E+00 -0.48915531233E-01 -0.97052989538E+00  0.90007599871E+02  0.89999859389E+02 0.  0.
        -12    1    1    2    0    0 -0.67009212690E+00  0.48915531233E-01  0.97052989538E+00  0.11804001294E+01  0.00000000000E+00 0.  1.
         11    1    3    3    0    0  0.54738165150E+01  0.83195341476E+00  0.78676473121E+01  0.96205347156E+01  0.51100000000E-03 0. -1.
        -11    1    3    3    0    0 -0.32909272035E+02  0.19986045335E+02 -0.20334544949E+02  0.43542575860E+02  0.51100000000E-03 0.  1.
         12    1    3    3    0    0  0.28105547647E+02 -0.20866914281E+02  0.11496367741E+02  0.36844489295E+02  0.00000000000E+00 0. -1.
</event>
<event>
 7    1  0.1982954E-015  0.9000778E+02  0.7816164E-02  0.1186339E+00
        -11   -1    0    0    0    0  0.00000000000E+00  0.00000000000E+00  0.45593999997E+02  0.45594000000E+02  0.51100000000E-03 0. -1.
         11   -1    0    0    0    0 -0.00000000000E+00 -0.00000000000E+00 -0.45593999997E+02  0.45594000000E+02  0.51100000000E-03 0.  1.
    9900012    2    1    2    0    0  0.61064633128E+00 -0.94971564618E+00  0.34361154778E+00  0.90007780679E+02  0.90000042584E+02 0.  0.
        -12    1    1    2    0    0 -0.61064633128E+00  0.94971564618E+00 -0.34361154778E+00  0.11802193213E+01  0.00000000000E+00 0.  1.
         11    1    3    3    0    0  0.69634038384E+01 -0.38095869255E+01  0.63708145961E+01  0.10177879172E+02  0.51100000000E-03 0. -1.
        -11    1    3    3    0    0  0.36522889243E+01 -0.23118436702E+02 -0.33402640574E+02  0.40786489522E+02  0.51100000000E-03 0.  1.
         12    1    3    3    0    0 -0.10005046431E+02  0.25978307982E+02  0.27375437526E+02  0.39043411985E+02  0.00000000000E+00 0. -1.
</event>
<event>
 7    1  0.2059901E-015  0.9000777E+02  0.7816164E-02  0.1186339E+00
        -11   -1    0    0    0    0  0.00000000000E+00  0.00000000000E+00  0.45593999997E+02  0.45594000000E+02  0.51100000000E-03 0. -1.
         11   -1    0    0    0    0 -0.00000000000E+00 -0.00000000000E+00 -0.45593999997E+02  0.45594000000E+02  0.51100000000E-03 0.  1.
    9900012    2    1    2    0    0 -0.26527578450E+00  0.11304465246E+01 -0.21133307079E+00  0.90007770254E+02  0.90000032021E+02 0.  0.
        -12    1    1    2    0    0  0.26527578450E+00 -0.11304465246E+01  0.21133307079E+00  0.11802297462E+01  0.00000000000E+00 0.  1.
         11    1    3    3    0    0  0.33182731614E+00  0.77039385726E+01  0.58891689858E+01  0.97027362379E+01  0.51100000000E-03 0. -1.
        -11    1    3    3    0    0 -0.30088798262E+02  0.22881763088E+02 -0.77641014650E+01  0.38590052276E+02  0.51100000000E-03 0.  1.
         12    1    3    3    0    0  0.29491695161E+02 -0.29455255136E+02  0.16635994084E+01  0.41714981740E+02  0.00000000000E+00 0. -1.
</event>
<event>
 7    1  0.1910099E-015  0.9000807E+02  0.7816164E-02  0.1186338E+00
        -11   -1    0    0    0    0  0.00000000000E+00  0.00000000000E+00  0.45593999997E+02  0.45594000000E+02  0.51100000000E-03 0. -1.
         11   -1    0    0    0    0 -0.00000000000E+00 -0.00000000000E+00 -0.45593999997E+02  0.45594000000E+02  0.51100000000E-03 0.  1.
    9900012    2    1    2    0    0  0.35227180510E+00 -0.25510006505E+00  0.10968397458E+01  0.90008072504E+02  0.90000338260E+02 0.  0.
        -12    1    1    2    0    0 -0.35227180510E+00  0.25510006505E+00 -0.10968397458E+01  0.11799274960E+01  0.00000000000E+00 0.  1.
         11    1    3    3    0    0 -0.38592732870E+02  0.67714157979E+01 -0.77622520614E+01  0.39943756203E+02  0.51100000000E-03 0. -1.
        -11    1    3    3    0    0  0.11169528363E+02 -0.40059919050E+01 -0.10684878858E+02  0.15967873104E+02  0.51100000000E-03 0.  1.
        -12    1    3    3    0    0  0.27775476312E+02 -0.30205239579E+01  0.19543970665E+02  0.34096443197E+02  0.00000000000E+00 0.  1.
</event>
<event>
 7    1  0.1910099E-015  0.9000768E+02  0.7816164E-02  0.1186339E+00
        -11   -1    0    0    0    0  0.00000000000E+00  0.00000000000E+00  0.45593999997E+02  0.45594000000E+02  0.51100000000E-03 0.  1.
         11   -1    0    0    0    0 -0.00000000000E+00 -0.00000000000E+00 -0.45593999997E+02  0.45594000000E+02  0.51100000000E-03 0. -1.
    9900012    2    1    2    0    0  0.67696681756E+00 -0.74296432448E+00 -0.61876269270E+00  0.90007683377E+02  0.89999943998E+02 0.  0.
        -12    1    1    2    0    0 -0.67696681756E+00  0.74296432448E+00  0.61876269270E+00  0.11803166225E+01  0.00000000000E+00 0.  1.
         11    1    3    3    0    0  0.17362299740E+02  0.36753362289E+02  0.86530685310E+00  0.40657199215E+02  0.51100000000E-03 0. -1.
        -11    1    3    3    0    0 -0.28465723048E+01  0.16481470671E+01  0.63013222120E+01  0.71081660449E+01  0.51100000000E-03 0.  1.
        -12    1    3    3    0    0 -0.13838760618E+02 -0.39144473680E+02 -0.77853917578E+01  0.42242318118E+02  0.00000000000E+00 0.  1.
</event>
<event>
 7    1  0.1910099E-015  0.9000776E+02  0.7816164E-02  0.1186339E+00
        -11   -1    0    0    0    0  0.00000000000E+00  0.00000000000E+00  0.45593999997E+02  0.45594000000E+02  0.51100000000E-03 0. -1.
         11   -1    0    0    0    0 -0.00000000000E+00 -0.00000000000E+00 -0.45593999997E+02  0.45594000000E+02  0.51100000000E-03 0.  1.
    9900012    2    1    2    0    0  0.10826324548E+01 -0.35064845379E+00  0.31292396667E+00  0.90007759016E+02  0.90000020635E+02 0.  0.
        -12    1    1    2    0    0 -0.10826324548E+01  0.35064845379E+00 -0.31292396667E+00  0.11802409835E+01  0.00000000000E+00 0.  1.
         11    1    3    3    0    0 -0.90399342433E+01  0.28010795457E+02 -0.21025983956E+02  0.36172048253E+02  0.51100000000E-03 0. -1.
        -11    1    3    3    0    0 -0.25922421671E+01  0.49605368209E+01 -0.65101653940E+01  0.85853886762E+01  0.51100000000E-03 0.  1.
        -12    1    3    3    0    0  0.12714808865E+02 -0.33321980732E+02  0.27849073317E+02  0.45250322087E+02  0.00000000000E+00 0.  1.
</event>
<event>
 7    1  0.1910099E-015  0.9000775E+02  0.7816164E-02  0.1186339E+00
        -11   -1    0    0    0    0  0.00000000000E+00  0.00000000000E+00  0.45593999997E+02  0.45594000000E+02  0.51100000000E-03 0. -1.
         11   -1    0    0    0    0 -0.00000000000E+00 -0.00000000000E+00 -0.45593999997E+02  0.45594000000E+02  0.51100000000E-03 0.  1.
    9900012    2    1    2    0    0  0.28675151714E+00 -0.52928434644E+00  0.10151928215E+01  0.90007752222E+02  0.90000013752E+02 0.  0.
        -12    1    1    2    0    0 -0.28675151714E+00  0.52928434644E+00 -0.10151928215E+01  0.11802477777E+01  0.00000000000E+00 0.  1.
         11    1    3    3    0    0 -0.37277603390E+02  0.12439126466E+02  0.68623568009E+01  0.39892900658E+02  0.51100000000E-03 0. -1.
        -11    1    3    3    0    0  0.41339636526E+01  0.52099488784E+01  0.72804403562E+01  0.98609347852E+01  0.51100000000E-03 0.  1.
        -12    1    3    3    0    0  0.33430391255E+02 -0.18178359691E+02 -0.13127604336E+02  0.40253916779E+02  0.00000000000E+00 0.  1.
</event>
<event>
 7    1  0.1910099E-015  0.9000774E+02  0.7816164E-02  0.1186339E+00
        -11   -1    0    0    0    0  0.00000000000E+00  0.00000000000E+00  0.45593999997E+02  0.45594000000E+02  0.51100000000E-03 0.  1.
         11   -1    0    0    0    0 -0.00000000000E+00 -0.00000000000E+00 -0.45593999997E+02  0.45594000000E+02  0.51100000000E-03 0. -1.
    9900012    2    1    2    0    0  0.66604069493E+00  0.40184751459E+00 -0.88764782662E+00  0.90007741428E+02  0.90000002815E+02 0.  0.
        -12    1    1    2    0    0 -0.66604069493E+00 -0.40184751459E+00  0.88764782662E+00  0.11802585718E+01  0.00000000000E+00 0.  1.
         11    1    3    3    0    0 -0.81751640310E+01 -0.25286511105E+02 -0.31976729256E+02  0.41578265536E+02  0.51100000000E-03 0. -1.
        -11    1    3    3    0    0  0.96665520279E+01  0.25337994566E-01  0.24632837273E+01  0.99755018472E+01  0.51100000000E-03 0.  1.
        -12    1    3    3    0    0 -0.82534730201E+00  0.25663020625E+02  0.28625797702E+02  0.38453974045E+02  0.00000000000E+00 0.  1.
</event>
<event>
 7    1  0.1910099E-015  0.9000778E+02  0.7816164E-02  0.1186339E+00
        -11   -1    0    0    0    0  0.00000000000E+00  0.00000000000E+00  0.45593999997E+02  0.45594000000E+02  0.51100000000E-03 0.  1.
         11   -1    0    0    0    0 -0.00000000000E+00 -0.00000000000E+00 -0.45593999997E+02  0.45594000000E+02  0.51100000000E-03 0. -1.
    9900012    2    1    2    0    0  0.26826479595E+00 -0.11433703506E+01 -0.11683054201E+00  0.90007783437E+02  0.90000045379E+02 0.  0.
        -12    1    1    2    0    0 -0.26826479595E+00  0.11433703506E+01  0.11683054201E+00  0.11802165627E+01  0.00000000000E+00 0.  1.
         11    1    3    3    0    0 -0.32764289524E+02  0.11810046557E+02 -0.15415875438E+02  0.38087072393E+02  0.51100000000E-03 0. -1.
        -11    1    3    3    0    0  0.64986317429E+00  0.76685427765E+01  0.10807131547E+02  0.13267364583E+02  0.51100000000E-03 0.  1.
        -12    1    3    3    0    0  0.32382691146E+02 -0.20621959684E+02  0.44919133495E+01  0.38653346461E+02  0.00000000000E+00 0.  1.
</event>
<event>
 7    1  0.1910099E-015  0.9000775E+02  0.7816164E-02  0.1186339E+00
        -11   -1    0    0    0    0  0.00000000000E+00  0.00000000000E+00  0.45593999997E+02  0.45594000000E+02  0.51100000000E-03 0.  1.
         11   -1    0    0    0    0 -0.00000000000E+00 -0.00000000000E+00 -0.45593999997E+02  0.45594000000E+02  0.51100000000E-03 0. -1.
    9900012    2    1    2    0    0 -0.68405202817E-01 -0.49148375808E+00 -0.10708682186E+01  0.90007748206E+02  0.90000009682E+02 0.  0.
        -12    1    1    2    0    0  0.68405202817E-01  0.49148375808E+00  0.10708682186E+01  0.11802517943E+01  0.00000000000E+00 0.  1.
         11    1    3    3    0    0 -0.14944845340E+02  0.17532472805E+02 -0.31940474053E+02  0.39381847188E+02  0.51100000000E-03 0. -1.
        -11    1    3    3    0    0 -0.74066892276E+01 -0.54350191897E+01 -0.15550844187E+01  0.93175515409E+01  0.51100000000E-03 0.  1.
        -12    1    3    3    0    0  0.22283129365E+02 -0.12588937374E+02  0.32424690253E+02  0.41308349477E+02  0.00000000000E+00 0.  1.
</event>
<event>
 7    1  0.1910099E-015  0.9000719E+02  0.7816164E-02  0.1186340E+00
        -11   -1    0    0    0    0  0.00000000000E+00  0.00000000000E+00  0.45593999997E+02  0.45594000000E+02  0.51100000000E-03 0.  1.
         11   -1    0    0    0    0 -0.00000000000E+00 -0.00000000000E+00 -0.45593999997E+02  0.45594000000E+02  0.51100000000E-03 0. -1.
    9900012    2    1    2    0    0  0.50681944984E+00  0.97283490806E+00 -0.43707434519E+00  0.90007191931E+02  0.89999446063E+02 0.  0.
        -12    1    1    2    0    0 -0.50681944984E+00 -0.97283490806E+00  0.43707434519E+00  0.11808080692E+01  0.00000000000E+00 0.  1.
         11    1    3    3    0    0  0.59804871387E+01  0.26854304849E+02 -0.31735952247E+02  0.42001078328E+02  0.51100000000E-03 0. -1.
        -11    1    3    3    0    0  0.74362658979E+01 -0.26909455712E+01  0.14089794231E+01  0.80327119858E+01  0.51100000000E-03 0.  1.
        -12    1    3    3    0    0 -0.12909933587E+02 -0.23190524370E+02  0.29889898479E+02  0.39973401617E+02  0.00000000000E+00 0.  1.
</event>
<event>
 7    1  0.1910099E-015  0.9000764E+02  0.7816164E-02  0.1186339E+00
        -11   -1    0    0    0    0  0.00000000000E+00  0.00000000000E+00  0.45593999997E+02  0.45594000000E+02  0.51100000000E-03 0.  1.
         11   -1    0    0    0    0 -0.00000000000E+00 -0.00000000000E+00 -0.45593999997E+02  0.45594000000E+02  0.51100000000E-03 0. -1.
    9900012    2    1    2    0    0 -0.54994169280E+00 -0.39544726183E+00 -0.96665860096E+00  0.90007642743E+02  0.89999902828E+02 0.  0.
        -12    1    1    2    0    0  0.54994169280E+00  0.39544726183E+00  0.96665860096E+00  0.11803572566E+01  0.00000000000E+00 0.  1.
         11    1    3    3    0    0 -0.31163840573E+02 -0.85404204945E+01 -0.16806267292E+02  0.36422168552E+02  0.51100000000E-03 0. -1.
        -11    1    3    3    0    0 -0.40838033297E+00 -0.95666289121E+00  0.20844541202E+02  0.20870478590E+02  0.51100000000E-03 0.  1.
        -12    1    3    3    0    0  0.31022279213E+02  0.91016361239E+01 -0.50049325109E+01  0.32714995601E+02  0.00000000000E+00 0.  1.
</event>
<event>
 7    1  0.1910099E-015  0.9000755E+02  0.7816164E-02  0.1186339E+00
        -11   -1    0    0    0    0  0.00000000000E+00  0.00000000000E+00  0.45593999997E+02  0.45594000000E+02  0.51100000000E-03 0. -1.
         11   -1    0    0    0    0 -0.00000000000E+00 -0.00000000000E+00 -0.45593999997E+02  0.45594000000E+02  0.51100000000E-03 0.  1.
    9900012    2    1    2    0    0  0.21400033300E+00  0.54567001788E+00  0.10246531087E+01  0.90007548432E+02  0.89999807271E+02 0.  0.
        -12    1    1    2    0    0 -0.21400033300E+00 -0.54567001788E+00 -0.10246531087E+01  0.11804515679E+01  0.00000000000E+00 0.  1.
         11    1    3    3    0    0 -0.13182991585E+02  0.37591069146E+02 -0.25693714123E+01  0.39918434543E+02  0.51100000000E-03 0. -1.
        -11    1    3    3    0    0 -0.26708383632E+00  0.74651278269E+00  0.94458125752E+01  0.94790289892E+01  0.51100000000E-03 0.  1.
        -12    1    3    3    0    0  0.13664075754E+02 -0.37791911911E+02 -0.58517880542E+01  0.40610084899E+02  0.00000000000E+00 0.  1.
</event>
<event>
 7    1  0.1910099E-015  0.9000782E+02  0.7816164E-02  0.1186339E+00
        -11   -1    0    0    0    0  0.00000000000E+00  0.00000000000E+00  0.45593999997E+02  0.45594000000E+02  0.51100000000E-03 0.  1.
         11   -1    0    0    0    0 -0.00000000000E+00 -0.00000000000E+00 -0.45593999997E+02  0.45594000000E+02  0.51100000000E-03 0. -1.
    9900012    2    1    2    0    0  0.66696334972E+00 -0.73303354153E+00 -0.64082482228E+00  0.90007815804E+02  0.90000078173E+02 0.  0.
        -12    1    1    2    0    0 -0.66696334972E+00  0.73303354153E+00  0.64082482228E+00  0.11801841957E+01  0.00000000000E+00 0.  1.
         11    1    3    3    0    0 -0.21600263539E+02  0.24654821853E+02 -0.17433820595E+02  0.37126402012E+02  0.51100000000E-03 0. -1.
        -11    1    3    3    0    0 -0.98930342608E+01 -0.30507214213E+01  0.20104177186E+00  0.10354682329E+02  0.51100000000E-03 0.  1.
        -12    1    3    3    0    0  0.32160261150E+02 -0.22337133973E+02  0.16591954001E+02  0.42526731463E+02  0.00000000000E+00 0.  1.
</event>
<event>
 7    1  0.1910099E-015  0.9000776E+02  0.7816164E-02  0.1186339E+00
        -11   -1    0    0    0    0  0.00000000000E+00  0.00000000000E+00  0.45593999997E+02  0.45594000000E+02  0.51100000000E-03 0. -1.
         11   -1    0    0    0    0 -0.00000000000E+00 -0.00000000000E+00 -0.45593999997E+02  0.45594000000E+02  0.51100000000E-03 0.  1.
    9900012    2    1    2    0    0 -0.23152004617E+00  0.97916137084E+00  0.61692573332E+00  0.90007764480E+02  0.90000026171E+02 0.  0.
        -12    1    1    2    0    0  0.23152004617E+00 -0.97916137084E+00 -0.61692573332E+00  0.11802355199E+01  0.00000000000E+00 0.  1.
         11    1    3    3    0    0  0.35242506009E+02  0.45908222475E+01 -0.41957923401E+01  0.35787072419E+02  0.51100000000E-03 0. -1.
        -11    1    3    3    0    0  0.89147732862E+01  0.20619825028E+01  0.21036677938E+01  0.93888430082E+01  0.51100000000E-03 0.  1.
        -12    1    3    3    0    0 -0.44388799341E+02 -0.56736433794E+01  0.27090502797E+01  0.44831849053E+02  0.00000000000E+00 0.  1.
</event>
<event>
 7    1  0.1910099E-015  0.9000715E+02  0.7816164E-02  0.1186340E+00
        -11   -1    0    0    0    0  0.00000000000E+00  0.00000000000E+00  0.45593999997E+02  0.45594000000E+02  0.51100000000E-03 0. -1.
         11   -1    0    0    0    0 -0.00000000000E+00 -0.00000000000E+00 -0.45593999997E+02  0.45594000000E+02  0.51100000000E-03 0.  1.
    9900012    2    1    2    0    0 -0.68645689992E+00 -0.78080252671E+00  0.55992810728E+00  0.90007154902E+02  0.89999408544E+02 0.  0.
        -12    1    1    2    0    0  0.68645689992E+00  0.78080252671E+00 -0.55992810728E+00  0.11808450984E+01  0.00000000000E+00 0.  1.
         11    1    3    3    0    0 -0.16595808919E+02 -0.14866985965E+01  0.35804240145E+02  0.39491451721E+02  0.51100000000E-03 0. -1.
        -11    1    3    3    0    0  0.10864820196E+02 -0.11494776019E+01  0.34442990273E+01  0.11455514511E+02  0.51100000000E-03 0.  1.
        -12    1    3    3    0    0  0.50445318230E+01  0.18553736717E+01 -0.38688611065E+02  0.39060188670E+02  0.00000000000E+00 0.  1.
</event>
<event>
 7    1  0.1910099E-015  0.9000788E+02  0.7816164E-02  0.1186339E+00
        -11   -1    0    0    0    0  0.00000000000E+00  0.00000000000E+00  0.45593999997E+02  0.45594000000E+02  0.51100000000E-03 0. -1.
         11   -1    0    0    0    0 -0.00000000000E+00 -0.00000000000E+00 -0.45593999997E+02  0.45594000000E+02  0.51100000000E-03 0.  1.
    9900012    2    1    2    0    0  0.62806019536E+00  0.94491697437E+00 -0.32458501552E+00  0.90007880036E+02  0.90000143252E+02 0.  0.
        -12    1    1    2    0    0 -0.62806019536E+00 -0.94491697437E+00  0.32458501552E+00  0.11801199641E+01  0.00000000000E+00 0.  1.
         11    1    3    3    0    0  0.23171219784E+02  0.17928138025E+02  0.18998021370E+02  0.34917737263E+02  0.51100000000E-03 0. -1.
        -11    1    3    3    0    0  0.44424907048E+01  0.21921851658E+01  0.98114799259E+01  0.10991202758E+02  0.51100000000E-03 0.  1.
        -12    1    3    3    0    0 -0.26985650293E+02 -0.19175406216E+02 -0.29134086311E+02  0.44098940016E+02  0.00000000000E+00 0.  1.
</event>
<event>
 7    1  0.1910099E-015  0.9000766E+02  0.7816164E-02  0.1186339E+00
        -11   -1    0    0    0    0  0.00000000000E+00  0.00000000000E+00  0.45593999997E+02  0.45594000000E+02  0.51100000000E-03 0. -1.
         11   -1    0    0    0    0 -0.00000000000E+00 -0.00000000000E+00 -0.45593999997E+02  0.45594000000E+02  0.51100000000E-03 0.  1.
    9900012    2    1    2    0    0 -0.33427583731E+00 -0.10655065127E+01 -0.38230912089E+00  0.90007659063E+02  0.89999919362E+02 0.  0.
        -12    1    1    2    0    0  0.33427583731E+00  0.10655065127E+01  0.38230912089E+00  0.11803409372E+01  0.00000000000E+00 0.  1.
         11    1    3    3    0    0  0.69313835189E+00 -0.46493363176E+01  0.78959995807E+01  0.91893187238E+01  0.51100000000E-03 0. -1.
        -11    1    3    3    0    0 -0.31477061836E+02 -0.22630575853E+02  0.35609080089E+01  0.38931073083E+02  0.51100000000E-03 0.  1.
         12    1    3    3    0    0  0.30449647647E+02  0.26214405658E+02 -0.11839216711E+02  0.41887267256E+02  0.00000000000E+00 0. -1.
</event>
<event>
 7    1  0.1910099E-015  0.9000767E+02  0.7816164E-02  0.1186339E+00
        -11   -1    0    0    0    0  0.00000000000E+00  0.00000000000E+00  0.45593999997E+02  0.45594000000E+02  0.51100000000E-03 0. -1.
         11   -1    0    0    0    0 -0.00000000000E+00 -0.00000000000E+00 -0.45593999997E+02  0.45594000000E+02  0.51100000000E-03 0.  1.
    9900012    2    1    2    0    0 -0.36158047751E+00  0.10747428889E+01 -0.32765200646E+00  0.90007674385E+02  0.89999934887E+02 0.  0.
        -12    1    1    2    0    0  0.36158047751E+00 -0.10747428889E+01  0.32765200646E+00  0.11803256146E+01  0.00000000000E+00 0.  1.
         11    1    3    3    0    0 -0.17807144939E+02 -0.14871649019E+02 -0.22750494771E+02  0.32493774296E+02  0.51100000000E-03 0. -1.
        -11    1    3    3    0    0 -0.94563969993E+01 -0.43466094067E+01 -0.71932920174E+01  0.12651478485E+02  0.51100000000E-03 0.  1.
        -12    1    3    3    0    0  0.26901961461E+02  0.20293001314E+02  0.29616134782E+02  0.44862421604E+02  0.00000000000E+00 0.  1.
</event>
<event>
 7    1  0.1910099E-015  0.9000775E+02  0.7816164E-02  0.1186339E+00
        -11   -1    0    0    0    0  0.00000000000E+00  0.00000000000E+00  0.45593999997E+02  0.45594000000E+02  0.51100000000E-03 0.  1.
         11   -1    0    0    0    0 -0.00000000000E+00 -0.00000000000E+00 -0.45593999997E+02  0.45594000000E+02  0.51100000000E-03 0. -1.
    9900012    2    1    2    0    0  0.75291199671E+00  0.83383975306E+00  0.36171234081E+00  0.90007745355E+02  0.90000006794E+02 0.  0.
        -12    1    1    2    0    0 -0.75291199671E+00 -0.83383975306E+00 -0.36171234081E+00  0.11802546446E+01  0.00000000000E+00 0.  1.
         11    1    3    3    0    0 -0.34029571827E+02  0.89587806730E+01 -0.14987999308E+02  0.38248027836E+02  0.51100000000E-03 0. -1.
        -11    1    3    3    0    0 -0.22513183556E+01 -0.83920415772E+01 -0.44526064621E+01  0.97632218421E+01  0.51100000000E-03 0.  1.
        -12    1    3    3    0    0  0.37033802179E+02  0.26710065725E+00  0.19802318111E+02  0.41996495677E+02  0.00000000000E+00 0.  1.
</event>
<event>
 7    1  0.1910099E-015  0.9000778E+02  0.7816164E-02  0.1186339E+00
        -11   -1    0    0    0    0  0.00000000000E+00  0.00000000000E+00  0.45593999997E+02  0.45594000000E+02  0.51100000000E-03 0. -1.
         11   -1    0    0    0    0 -0.00000000000E+00 -0.00000000000E+00 -0.45593999997E+02  0.45594000000E+02  0.51100000000E-03 0.  1.
    9900012    2    1    2    0    0  0.45824506138E+00 -0.67035469857E+00  0.85647703129E+00  0.90007781010E+02  0.90000042920E+02 0.  0.
        -12    1    1    2    0    0 -0.45824506138E+00  0.67035469857E+00 -0.85647703129E+00  0.11802189896E+01  0.00000000000E+00 0.  1.
         11    1    3    3    0    0  0.98083951564E+01 -0.17731405680E+01 -0.27876416993E+01  0.10349859396E+02  0.51100000000E-03 0. -1.
        -11    1    3    3    0    0 -0.22042606883E+02 -0.33963563474E+02  0.10292488155E+02  0.41777212386E+02  0.51100000000E-03 0.  1.
         12    1    3    3    0    0  0.12692456788E+02  0.35066349344E+02 -0.66483694243E+01  0.37880709228E+02  0.00000000000E+00 0. -1.
</event>
<event>
 7    1  0.1910099E-015  0.9000721E+02  0.7816164E-02  0.1186340E+00
        -11   -1    0    0    0    0  0.00000000000E+00  0.00000000000E+00  0.45593999997E+02  0.45594000000E+02  0.51100000000E-03 0.  1.
         11   -1    0    0    0    0 -0.00000000000E+00 -0.00000000000E+00 -0.45593999997E+02  0.45594000000E+02  0.51100000000E-03 0. -1.
    9900012    2    1    2    0    0  0.24248760268E+00  0.10072611667E+01 -0.56646649534E+00  0.90007212303E+02  0.89999466704E+02 0.  0.
        -12    1    1    2    0    0 -0.24248760268E+00 -0.10072611667E+01  0.56646649534E+00  0.11807876972E+01  0.00000000000E+00 0.  1.
         11    1    3    3    0    0  0.17839855148E+01 -0.11781855974E+02 -0.39367737805E+01  0.12549618423E+02  0.51100000000E-03 0. -1.
        -11    1    3    3    0    0 -0.30987322840E+02  0.13648598285E+02  0.23992198774E+02  0.41498482071E+02  0.51100000000E-03 0.  1.
         12    1    3    3    0    0  0.29445824928E+02 -0.85948114469E+00 -0.20621891488E+02  0.35959111809E+02  0.00000000000E+00 0. -1.
</event>
<event>
 7    1  0.1910099E-015  0.9000774E+02  0.7816164E-02  0.1186339E+00
        -11   -1    0    0    0    0  0.00000000000E+00  0.00000000000E+00  0.45593999997E+02  0.45594000000E+02  0.51100000000E-03 0. -1.
         11   -1    0    0    0    0 -0.00000000000E+00 -0.00000000000E+00 -0.45593999997E+02  0.45594000000E+02  0.51100000000E-03 0.  1.
    9900012    2    1    2    0    0  0.28564705179E+00  0.76264184180E+00  0.85428036144E+00  0.90007740811E+02  0.90000002190E+02 0.  0.
        -12    1    1    2    0    0 -0.28564705179E+00 -0.76264184180E+00 -0.85428036144E+00  0.11802591889E+01  0.00000000000E+00 0.  1.
         11    1    3    3    0    0 -0.81126911729E+01  0.54486352272E+01  0.96390408624E+00  0.98200048500E+01  0.51100000000E-03 0. -1.
        -11    1    3    3    0    0 -0.32431240154E+02 -0.10187884279E+02 -0.13923717276E+02  0.36734836695E+02  0.51100000000E-03 0.  1.
         12    1    3    3    0    0  0.40829578378E+02  0.55018908933E+01  0.13814093551E+02  0.43452899266E+02  0.00000000000E+00 0. -1.
</event>
<event>
 7    1  0.1910099E-015  0.9000816E+02  0.7816164E-02  0.1186338E+00
        -11   -1    0    0    0    0  0.00000000000E+00  0.00000000000E+00  0.45593999997E+02  0.45594000000E+02  0.51100000000E-03 0. -1.
         11   -1    0    0    0    0 -0.00000000000E+00 -0.00000000000E+00 -0.45593999997E+02  0.45594000000E+02  0.51100000000E-03 0.  1.
    9900012    2    1    2    0    0  0.10191443236E+01 -0.43959212032E+00 -0.40014978086E+00  0.90008162625E+02  0.90000429571E+02 0.  0.
        -12    1    1    2    0    0 -0.10191443236E+01  0.43959212032E+00  0.40014978086E+00  0.11798373751E+01  0.00000000000E+00 0.  1.
         11    1    3    3    0    0  0.37016759686E+02  0.12011993343E+00  0.10347609905E+02  0.38436024215E+02  0.51100000000E-03 0. -1.
        -11    1    3    3    0    0  0.17244160197E+01  0.93203978732E+01  0.34302212740E+01  0.10080170900E+02  0.51100000000E-03 0.  1.
        -12    1    3    3    0    0 -0.37722031382E+02 -0.98801099270E+01 -0.14177980960E+02  0.41491967510E+02  0.00000000000E+00 0.  1.
</event>
<event>
 7    1  0.1910099E-015  0.9000767E+02  0.7816164E-02  0.1186339E+00
        -11   -1    0    0    0    0  0.00000000000E+00  0.00000000000E+00  0.45593999997E+02  0.45594000000E+02  0.51100000000E-03 0.  1.
         11   -1    0    0    0    0 -0.00000000000E+00 -0.00000000000E+00 -0.45593999997E+02  0.45594000000E+02  0.51100000000E-03 0. -1.
    9900012    2    1    2    0    0 -0.90161227417E+00 -0.65710320081E+00 -0.38535767122E+00  0.90007665368E+02  0.89999925751E+02 0.  0.
        -12    1    1    2    0    0  0.90161227417E+00  0.65710320081E+00  0.38535767122E+00  0.11803346323E+01  0.00000000000E+00 0.  1.
         11    1    3    3    0    0  0.84620955773E+01  0.35459559822E+02 -0.10380084697E+02  0.37904268927E+02  0.51100000000E-03 0. -1.
        -11    1    3    3    0    0  0.52471892907E+01  0.25074540582E+01  0.90986183310E+01  0.10798387708E+02  0.51100000000E-03 0.  1.
        -12    1    3    3    0    0 -0.14610897142E+02 -0.38624117081E+02  0.89610869477E+00  0.41305008732E+02  0.00000000000E+00 0.  1.
</event>
<event>
 7    1  0.1910099E-015  0.9000773E+02  0.7816164E-02  0.1186339E+00
        -11   -1    0    0    0    0  0.00000000000E+00  0.00000000000E+00  0.45593999997E+02  0.45594000000E+02  0.51100000000E-03 0. -1.
         11   -1    0    0    0    0 -0.00000000000E+00 -0.00000000000E+00 -0.45593999997E+02  0.45594000000E+02  0.51100000000E-03 0.  1.
    9900012    2    1    2    0    0  0.11417845626E+01  0.89747208452E-01  0.28516743071E+00  0.90007725874E+02  0.89999987056E+02 0.  0.
        -12    1    1    2    0    0 -0.11417845626E+01 -0.89747208452E-01 -0.28516743071E+00  0.11802741259E+01  0.00000000000E+00 0.  1.
         11    1    3    3    0    0 -0.90125195731E+01  0.23349472177E+02  0.22424351424E+02  0.33604685641E+02  0.51100000000E-03 0. -1.
        -11    1    3    3    0    0 -0.31513574242E+01  0.51876606290E+01  0.98528319901E+01  0.11572431676E+02  0.51100000000E-03 0.  1.
        -12    1    3    3    0    0  0.13305661560E+02 -0.28447385598E+02 -0.31992015983E+02  0.44830608557E+02  0.00000000000E+00 0.  1.
</event>
<event>
 7    1  0.1910099E-015  0.9000765E+02  0.7816164E-02  0.1186339E+00
        -11   -1    0    0    0    0  0.00000000000E+00  0.00000000000E+00  0.45593999997E+02  0.45594000000E+02  0.51100000000E-03 0.  1.
         11   -1    0    0    0    0 -0.00000000000E+00 -0.00000000000E+00 -0.45593999997E+02  0.45594000000E+02  0.51100000000E-03 0. -1.
    9900012    2    1    2    0    0 -0.24074443928E+00 -0.19351809174E+00 -0.11392208500E+01  0.90007647814E+02  0.89999907966E+02 0.  0.
        -12    1    1    2    0    0  0.24074443928E+00  0.19351809174E+00  0.11392208500E+01  0.11803521856E+01  0.00000000000E+00 0.  1.
         11    1    3    3    0    0  0.18129739649E+02 -0.35071004256E+01 -0.35698673129E+02  0.40191821016E+02  0.51100000000E-03 0. -1.
        -11    1    3    3    0    0 -0.11017157403E+02 -0.11131562240E+02  0.56075666063E+01  0.16635331035E+02  0.51100000000E-03 0.  1.
        -12    1    3    3    0    0 -0.73533266857E+01  0.14445144574E+02  0.28951885672E+02  0.33180495763E+02  0.00000000000E+00 0.  1.
</event>
<event>
 7    1  0.1910099E-015  0.9000771E+02  0.7816164E-02  0.1186339E+00
        -11   -1    0    0    0    0  0.00000000000E+00  0.00000000000E+00  0.45593999997E+02  0.45594000000E+02  0.51100000000E-03 0.  1.
         11   -1    0    0    0    0 -0.00000000000E+00 -0.00000000000E+00 -0.45593999997E+02  0.45594000000E+02  0.51100000000E-03 0. -1.
    9900012    2    1    2    0    0 -0.47685257499E+00  0.34739813733E+00 -0.10222527268E+01  0.90007714237E+02  0.89999975265E+02 0.  0.
        -12    1    1    2    0    0  0.47685257499E+00 -0.34739813733E+00  0.10222527268E+01  0.11802857627E+01  0.00000000000E+00 0.  1.
         11    1    3    3    0    0  0.24205405729E+01 -0.29131129466E+02 -0.17950148633E+02  0.34302908869E+02  0.51100000000E-03 0. -1.
        -11    1    3    3    0    0 -0.77689986917E+01  0.48066758047E+01 -0.13455559475E+02  0.16263872663E+02  0.51100000000E-03 0.  1.
        -12    1    3    3    0    0  0.48716055438E+01  0.24671851799E+02  0.30383455382E+02  0.39440932705E+02  0.00000000000E+00 0.  1.
</event>
<event>
 7    1  0.1910099E-015  0.9000768E+02  0.7816164E-02  0.1186339E+00
        -11   -1    0    0    0    0  0.00000000000E+00  0.00000000000E+00  0.45593999997E+02  0.45594000000E+02  0.51100000000E-03 0.  1.
         11   -1    0    0    0    0 -0.00000000000E+00 -0.00000000000E+00 -0.45593999997E+02  0.45594000000E+02  0.51100000000E-03 0. -1.
    9900012    2    1    2    0    0 -0.71625647546E-01 -0.84357607638E+00 -0.82243305392E+00  0.90007683535E+02  0.89999944157E+02 0.  0.
        -12    1    1    2    0    0  0.71625647546E-01  0.84357607638E+00  0.82243305392E+00  0.11803164653E+01  0.00000000000E+00 0.  1.
         11    1    3    3    0    0  0.23275049009E+02  0.10862626130E+02 -0.26398287715E+02  0.36831971809E+02  0.51100000000E-03 0. -1.
        -11    1    3    3    0    0  0.55679007324E+01  0.78442829881E+01 -0.46086189709E+00  0.96305081960E+01  0.51100000000E-03 0.  1.
        -12    1    3    3    0    0 -0.28914575389E+02 -0.19550485194E+02  0.26036716558E+02  0.43545203529E+02  0.00000000000E+00 0.  1.
</event>
<event>
 7    1  0.1910099E-015  0.9000776E+02  0.7816164E-02  0.1186339E+00
        -11   -1    0    0    0    0  0.00000000000E+00  0.00000000000E+00  0.45593999997E+02  0.45594000000E+02  0.51100000000E-03 0. -1.
         11   -1    0    0    0    0 -0.00000000000E+00 -0.00000000000E+00 -0.45593999997E+02  0.45594000000E+02  0.51100000000E-03 0.  1.
    9900012    2    1    2    0    0  0.30583435875E+00  0.10088365972E+01  0.53073898151E+00  0.90007758583E+02  0.90000020197E+02 0.  0.
        -12    1    1    2    0    0 -0.30583435875E+00 -0.10088365972E+01 -0.53073898151E+00  0.11802414165E+01  0.00000000000E+00 0.  1.
         11    1    3    3    0    0  0.30960385700E+01  0.30841717532E+00  0.32956437316E+02  0.33102980785E+02  0.51100000000E-03 0. -1.
        -11    1    3    3    0    0  0.40125759760E+01 -0.19677535679E+02 -0.27514444642E+01  0.20270091842E+02  0.51100000000E-03 0.  1.
        -12    1    3    3    0    0 -0.68027801872E+01  0.20377955101E+02 -0.29674253871E+02  0.36634685957E+02  0.00000000000E+00 0.  1.
</event>
<event>
 7    1  0.1910099E-015  0.9000780E+02  0.7816164E-02  0.1186339E+00
        -11   -1    0    0    0    0  0.00000000000E+00  0.00000000000E+00  0.45593999997E+02  0.45594000000E+02  0.51100000000E-03 0. -1.
         11   -1    0    0    0    0 -0.00000000000E+00 -0.00000000000E+00 -0.45593999997E+02  0.45594000000E+02  0.51100000000E-03 0.  1.
    9900012    2    1    2    0    0  0.10908557727E+01 -0.26214201975E+00 -0.36630216495E+00  0.90007804240E+02  0.90000066456E+02 0.  0.
        -12    1    1    2    0    0 -0.10908557727E+01  0.26214201975E+00  0.36630216495E+00  0.11801957597E+01  0.00000000000E+00 0.  1.
         11    1    3    3    0    0 -0.20715481139E+02 -0.30980195072E+02 -0.10119808179E+02  0.38617536992E+02  0.51100000000E-03 0. -1.
        -11    1    3    3    0    0  0.18536553106E+01 -0.63852902755E+00 -0.93836365718E+01  0.95862606319E+01  0.51100000000E-03 0.  1.
        -12    1    3    3    0    0  0.19952681601E+02  0.31356582080E+02  0.19137142586E+02  0.41804006616E+02  0.00000000000E+00 0.  1.
</event>
<event>
 7    1  0.1910099E-015  0.9000770E+02  0.7816164E-02  0.1186339E+00
        -11   -1    0    0    0    0  0.00000000000E+00  0.00000000000E+00  0.45593999997E+02  0.45594000000E+02  0.51100000000E-03 0.  1.
         11   -1    0    0    0    0 -0.00000000000E+00 -0.00000000000E+00 -0.45593999997E+02  0.45594000000E+02  0.51100000000E-03 0. -1.
    9900012    2    1    2    0    0  0.49143780574E+00  0.60496954662E+00 -0.88633980849E+00  0.90007704475E+02  0.89999965374E+02 0.  0.
        -12    1    1    2    0    0 -0.49143780574E+00 -0.60496954662E+00  0.88633980849E+00  0.11802955246E+01  0.00000000000E+00 0.  1.
         11    1    3    3    0    0  0.25043584556E+02  0.80200092292E+01 -0.88151433317E+01  0.27734607041E+02  0.51100000000E-03 0. -1.
        -11    1    3    3    0    0 -0.12210801551E+02  0.21909008605E+02  0.15611185398E+02  0.29543483924E+02  0.51100000000E-03 0.  1.
         12    1    3    3    0    0 -0.12341345200E+02 -0.29324048287E+02 -0.76823818751E+01  0.32729613511E+02  0.00000000000E+00 0. -1.
</event>
<event>
 7    1  0.1910099E-015  0.9000783E+02  0.7816164E-02  0.1186339E+00
        -11   -1    0    0    0    0  0.00000000000E+00  0.00000000000E+00  0.45593999997E+02  0.45594000000E+02  0.51100000000E-03 0.  1.
         11   -1    0    0    0    0 -0.00000000000E+00 -0.00000000000E+00 -0.45593999997E+02  0.45594000000E+02  0.51100000000E-03 0. -1.
    9900012    2    1    2    0    0 -0.60990532295E-01 -0.59086585112E+00 -0.10197861296E+01  0.90007827958E+02  0.90000090487E+02 0.  0.
        -12    1    1    2    0    0  0.60990532295E-01  0.59086585112E+00  0.10197861296E+01  0.11801720422E+01  0.00000000000E+00 0.  1.
         11    1    3    3    0    0 -0.10715616482E+02  0.24688514865E+01 -0.65449662791E+01  0.12796728023E+02  0.51100000000E-03 0. -1.
        -11    1    3    3    0    0 -0.18214592090E+02 -0.73936060292E+01  0.32160952938E+02  0.37693018840E+02  0.51100000000E-03 0.  1.
         12    1    3    3    0    0  0.28869218039E+02  0.43338886915E+01 -0.26635772788E+02  0.39518081095E+02  0.00000000000E+00 0. -1.
</event>
<event>
 7    1  0.1910099E-015  0.9000742E+02  0.7816164E-02  0.1186340E+00
        -11   -1    0    0    0    0  0.00000000000E+00  0.00000000000E+00  0.45593999997E+02  0.45594000000E+02  0.51100000000E-03 0.  1.
         11   -1    0    0    0    0 -0.00000000000E+00 -0.00000000000E+00 -0.45593999997E+02  0.45594000000E+02  0.51100000000E-03 0. -1.
    9900012    2    1    2    0    0  0.90094421293E+00  0.25790299213E+00 -0.71801355945E+00  0.90007424759E+02  0.89999681965E+02 0.  0.
        -12    1    1    2    0    0 -0.90094421293E+00 -0.25790299213E+00  0.71801355945E+00  0.11805752410E+01  0.00000000000E+00 0.  1.
         11    1    3    3    0    0 -0.18248131530E+02  0.66289956061E+01 -0.37314108317E+02  0.42062816915E+02  0.51100000000E-03 0. -1.
        -11    1    3    3    0    0  0.32153105204E+01 -0.37442484128E+01 -0.25811783204E+01  0.55695690769E+01  0.51100000000E-03 0.  1.
        -12    1    3    3    0    0  0.15933765223E+02 -0.26268442011E+01  0.39177273078E+02  0.42375038767E+02  0.00000000000E+00 0.  1.
</event>
<event>
 7    1  0.1910099E-015  0.9000776E+02  0.7816164E-02  0.1186339E+00
        -11   -1    0    0    0    0  0.00000000000E+00  0.00000000000E+00  0.45593999997E+02  0.45594000000E+02  0.51100000000E-03 0. -1.
         11   -1    0    0    0    0 -0.00000000000E+00 -0.00000000000E+00 -0.45593999997E+02  0.45594000000E+02  0.51100000000E-03 0.  1.
    9900012    2    1    2    0    0 -0.39851386436E+00 -0.10258570336E+01  0.42634108661E+00  0.90007761602E+02  0.90000023255E+02 0.  0.
        -12    1    1    2    0    0  0.39851386436E+00  0.10258570336E+01 -0.42634108661E+00  0.11802383978E+01  0.00000000000E+00 0.  1.
         11    1    3    3    0    0 -0.11112010381E+02 -0.27402706200E+02  0.95235259416E+01  0.31065779057E+02  0.51100000000E-03 0. -1.
        -11    1    3    3    0    0 -0.50742151662E+01 -0.12998760978E+02  0.40479280341E+01  0.14529320980E+02  0.51100000000E-03 0.  1.
        -12    1    3    3    0    0  0.15787711683E+02  0.39375610144E+02 -0.13145112889E+02  0.44412661565E+02  0.00000000000E+00 0.  1.
</event>
<event>
 7    1  0.1910099E-015  0.9000814E+02  0.7816164E-02  0.1186338E+00
        -11   -1    0    0    0    0  0.00000000000E+00  0.00000000000E+00  0.45593999997E+02  0.45594000000E+02  0.51100000000E-03 0. -1.
         11   -1    0    0    0    0 -0.00000000000E+00 -0.00000000000E+00 -0.45593999997E+02  0.45594000000E+02  0.51100000000E-03 0.  1.
    9900012    2    1    2    0    0 -0.44662088987E-01  0.11354520751E+01  0.31752095635E+00  0.90008141672E+02  0.90000408341E+02 0.  0.
        -12    1    1    2    0    0  0.44662088987E-01 -0.11354520751E+01 -0.31752095635E+00  0.11798583283E+01  0.00000000000E+00 0.  1.
         11    1    3    3    0    0 -0.32929561736E+02  0.11874723085E+02  0.14101875499E+02  0.37738945101E+02  0.51100000000E-03 0. -1.
        -11    1    3    3    0    0 -0.80351206318E+01 -0.70937418983E+00 -0.45326628224E+00  0.80790980865E+01  0.51100000000E-03 0.  1.
        -12    1    3    3    0    0  0.40920020279E+02 -0.10029896821E+02 -0.13331088260E+02  0.44190098484E+02  0.00000000000E+00 0.  1.
</event>
<event>
 7    1  0.1910099E-015  0.9000761E+02  0.7816164E-02  0.1186339E+00
        -11   -1    0    0    0    0  0.00000000000E+00  0.00000000000E+00  0.45593999997E+02  0.45594000000E+02  0.51100000000E-03 0.  1.
         11   -1    0    0    0    0 -0.00000000000E+00 -0.00000000000E+00 -0.45593999997E+02  0.45594000000E+02  0.51100000000E-03 0. -1.
    9900012    2    1    2    0    0 -0.76778735178E+00  0.44687950015E+00 -0.77724555508E+00  0.90007614742E+02  0.89999874456E+02 0.  0.
        -12    1    1    2    0    0  0.76778735178E+00 -0.44687950015E+00  0.77724555508E+00  0.11803852583E+01  0.00000000000E+00 0.  1.
         11    1    3    3    0    0  0.14340766744E+02  0.23963625201E+01 -0.41489208113E+01  0.15119976465E+02  0.51100000000E-03 0. -1.
        -11    1    3    3    0    0 -0.24333007211E+02  0.28536767947E+02  0.15803341150E+02  0.40696289223E+02  0.51100000000E-03 0.  1.
         12    1    3    3    0    0  0.92244531149E+01 -0.30486250967E+02 -0.12431665894E+02  0.34191349054E+02  0.00000000000E+00 0. -1.
</event>
<event>
 7    1  0.1910099E-015  0.9000739E+02  0.7816164E-02  0.1186340E+00
        -11   -1    0    0    0    0  0.00000000000E+00  0.00000000000E+00  0.45593999997E+02  0.45594000000E+02  0.51100000000E-03 0.  1.
         11   -1    0    0    0    0 -0.00000000000E+00 -0.00000000000E+00 -0.45593999997E+02  0.45594000000E+02  0.51100000000E-03 0. -1.
    9900012    2    1    2    0    0 -0.88041304536E+00  0.29783307970E+00 -0.72801633425E+00  0.90007390218E+02  0.89999646968E+02 0.  0.
        -12    1    1    2    0    0  0.88041304536E+00 -0.29783307970E+00  0.72801633425E+00  0.11806097817E+01  0.00000000000E+00 0.  1.
         11    1    3    3    0    0 -0.85825442159E+01  0.22930011867E+02 -0.34588085181E+02  0.42376658034E+02  0.51100000000E-03 0. -1.
        -11    1    3    3    0    0 -0.69459391494E+01 -0.18367693500E+01  0.34058252795E+01  0.79510652373E+01  0.51100000000E-03 0.  1.
        -12    1    3    3    0    0  0.14648070320E+02 -0.20795409437E+02  0.30454243567E+02  0.39679666947E+02  0.00000000000E+00 0.  1.
</event>
<event>
 7    1  0.1910099E-015  0.9000762E+02  0.7816164E-02  0.1186339E+00
        -11   -1    0    0    0    0  0.00000000000E+00  0.00000000000E+00  0.45593999997E+02  0.45594000000E+02  0.51100000000E-03 0. -1.
         11   -1    0    0    0    0 -0.00000000000E+00 -0.00000000000E+00 -0.45593999997E+02  0.45594000000E+02  0.51100000000E-03 0.  1.
    9900012    2    1    2    0    0  0.30549879546E+00  0.10076808346E+01 -0.53342112990E+00  0.90007623670E+02  0.89999883502E+02 0.  0.
        -12    1    1    2    0    0 -0.30549879546E+00 -0.10076808346E+01  0.53342112990E+00  0.11803763299E+01  0.00000000000E+00 0.  1.
         11    1    3    3    0    0 -0.12522150893E+02  0.82455053124E+01 -0.36026433828E+01  0.15419846317E+02  0.51100000000E-03 0. -1.
        -11    1    3    3    0    0  0.35835636637E+01  0.30457737026E+02  0.14784820484E+02  0.34045654500E+02  0.51100000000E-03 0.  1.
         12    1    3    3    0    0  0.92440860246E+01 -0.37695561504E+02 -0.11715598231E+02  0.40542122853E+02  0.00000000000E+00 0. -1.
</event>
<event>
 7    1  0.1910099E-015  0.9000779E+02  0.7816164E-02  0.1186339E+00
        -11   -1    0    0    0    0  0.00000000000E+00  0.00000000000E+00  0.45593999997E+02  0.45594000000E+02  0.51100000000E-03 0. -1.
         11   -1    0    0    0    0 -0.00000000000E+00 -0.00000000000E+00 -0.45593999997E+02  0.45594000000E+02  0.51100000000E-03 0.  1.
    9900012    2    1    2    0    0 -0.31639775689E+00  0.87789486277E+00  0.72255733382E+00  0.90007789836E+02  0.90000051862E+02 0.  0.
        -12    1    1    2    0    0  0.31639775689E+00 -0.87789486277E+00 -0.72255733382E+00  0.11802101640E+01  0.00000000000E+00 0.  1.
         11    1    3    3    0    0  0.64807132766E+01  0.42607804849E+02  0.56165539087E+01  0.43462286602E+02  0.51100000000E-03 0. -1.
        -11    1    3    3    0    0  0.26462190029E+01 -0.57644780118E+01 -0.68167895826E+01  0.93112997070E+01  0.51100000000E-03 0.  1.
        -12    1    3    3    0    0 -0.94433300363E+01 -0.35965431975E+02  0.19227930077E+01  0.37234203526E+02  0.00000000000E+00 0.  1.
</event>
<event>
 7    1  0.1910099E-015  0.9000776E+02  0.7816164E-02  0.1186339E+00
        -11   -1    0    0    0    0  0.00000000000E+00  0.00000000000E+00  0.45593999997E+02  0.45594000000E+02  0.51100000000E-03 0.  1.
         11   -1    0    0    0    0 -0.00000000000E+00 -0.00000000000E+00 -0.45593999997E+02  0.45594000000E+02  0.51100000000E-03 0. -1.
    9900012    2    1    2    0    0 -0.80327825974E-01 -0.86271632511E+00  0.80139434642E+00  0.90007760653E+02  0.90000022294E+02 0.  0.
        -12    1    1    2    0    0  0.80327825974E-01  0.86271632511E+00 -0.80139434642E+00  0.11802393468E+01  0.00000000000E+00 0.  1.
         11    1    3    3    0    0 -0.36388489028E+01  0.45096540594E+01 -0.37740408434E+02  0.38182674476E+02  0.51100000000E-03 0. -1.
        -11    1    3    3    0    0 -0.12732738637E+01 -0.33464771029E+01 -0.59940911774E+01  0.69820673612E+01  0.51100000000E-03 0.  1.
        -12    1    3    3    0    0  0.48317949405E+01 -0.20258932817E+01  0.44535893958E+02  0.44843018816E+02  0.00000000000E+00 0.  1.
</event>
<event>
 7    1  0.1910099E-015  0.9000778E+02  0.7816164E-02  0.1186339E+00
        -11   -1    0    0    0    0  0.00000000000E+00  0.00000000000E+00  0.45593999997E+02  0.45594000000E+02  0.51100000000E-03 0.  1.
         11   -1    0    0    0    0 -0.00000000000E+00 -0.00000000000E+00 -0.45593999997E+02  0.45594000000E+02  0.51100000000E-03 0. -1.
    9900012    2    1    2    0    0 -0.52577667259E-01 -0.11787687644E+01  0.25484638213E-01  0.90007784055E+02  0.90000046004E+02 0.  0.
        -12    1    1    2    0    0  0.52577667259E-01  0.11787687644E+01 -0.25484638213E-01  0.11802159454E+01  0.00000000000E+00 0.  1.
         11    1    3    3    0    0 -0.14485199745E+01 -0.29197285494E+02 -0.26817762344E+02  0.39670796157E+02  0.51100000000E-03 0. -1.
        -11    1    3    3    0    0  0.88446469654E+01 -0.39777909407E+01  0.69535747583E+01  0.11933264553E+02  0.51100000000E-03 0.  1.
        -12    1    3    3    0    0 -0.74487046581E+01  0.31996307670E+02  0.19889672224E+02  0.38403723345E+02  0.00000000000E+00 0.  1.
</event>
<event>
 7    1  0.1910099E-015  0.9000778E+02  0.7816164E-02  0.1186339E+00
        -11   -1    0    0    0    0  0.00000000000E+00  0.00000000000E+00  0.45593999997E+02  0.45594000000E+02  0.51100000000E-03 0.  1.
         11   -1    0    0    0    0 -0.00000000000E+00 -0.00000000000E+00 -0.45593999997E+02  0.45594000000E+02  0.51100000000E-03 0. -1.
    9900012    2    1    2    0    0 -0.61549798725E+00  0.88356675621E+00 -0.48309968843E+00  0.90007782523E+02  0.90000044452E+02 0.  0.
        -12    1    1    2    0    0  0.61549798725E+00 -0.88356675621E+00  0.48309968843E+00  0.11802174774E+01  0.00000000000E+00 0.  1.
         11    1    3    3    0    0 -0.39099472369E+02  0.19096986737E+02  0.38031142129E+01  0.43679827380E+02  0.51100000000E-03 0. -1.
        -11    1    3    3    0    0  0.47103462511E+01  0.66252439702E+00 -0.59305380620E+01  0.76024721209E+01  0.51100000000E-03 0.  1.
        -12    1    3    3    0    0  0.33773628131E+02 -0.18875944378E+02  0.16443241607E+01  0.38725483021E+02  0.00000000000E+00 0.  1.
</event>
<event>
 7    1  0.1910099E-015  0.9000774E+02  0.7816164E-02  0.1186339E+00
        -11   -1    0    0    0    0  0.00000000000E+00  0.00000000000E+00  0.45593999997E+02  0.45594000000E+02  0.51100000000E-03 0.  1.
         11   -1    0    0    0    0 -0.00000000000E+00 -0.00000000000E+00 -0.45593999997E+02  0.45594000000E+02  0.51100000000E-03 0. -1.
    9900012    2    1    2    0    0 -0.24255545510E+00 -0.19816889080E+00 -0.11379411653E+01  0.90007739794E+02  0.90000001159E+02 0.  0.
        -12    1    1    2    0    0  0.24255545510E+00  0.19816889080E+00  0.11379411653E+01  0.11802602059E+01  0.00000000000E+00 0.  1.
         11    1    3    3    0    0  0.14051189013E+01 -0.18261143642E+01 -0.90534896247E+01  0.93420943821E+01  0.51100000000E-03 0. -1.
        -11    1    3    3    0    0  0.35468364271E+02  0.17919037316E+02  0.43479774360E+01  0.39975013077E+02  0.51100000000E-03 0.  1.
         12    1    3    3    0    0 -0.37116038628E+02 -0.16291091843E+02  0.35675710235E+01  0.40690632335E+02  0.00000000000E+00 0. -1.
</event>
<event>
 7    1  0.1910099E-015  0.9000773E+02  0.7816164E-02  0.1186339E+00
        -11   -1    0    0    0    0  0.00000000000E+00  0.00000000000E+00  0.45593999997E+02  0.45594000000E+02  0.51100000000E-03 0.  1.
         11   -1    0    0    0    0 -0.00000000000E+00 -0.00000000000E+00 -0.45593999997E+02  0.45594000000E+02  0.51100000000E-03 0. -1.
    9900012    2    1    2    0    0  0.10583057712E+00  0.11330983488E+01 -0.31294281343E+00  0.90007726649E+02  0.89999987841E+02 0.  0.
        -12    1    1    2    0    0 -0.10583057712E+00 -0.11330983488E+01  0.31294281343E+00  0.11802733512E+01  0.00000000000E+00 0.  1.
         11    1    3    3    0    0  0.30948585303E+02  0.21126468119E+02  0.11227367691E+02  0.39117724537E+02  0.51100000000E-03 0. -1.
        -11    1    3    3    0    0 -0.17847494600E+02  0.59129809746E+01  0.19857970640E+01  0.18906078328E+02  0.51100000000E-03 0.  1.
        -12    1    3    3    0    0 -0.12995260126E+02 -0.25906350744E+02 -0.13526107569E+02  0.31983923784E+02  0.00000000000E+00 0.  1.
</event>
<event>
 7    1  0.1910099E-015  0.9000774E+02  0.7816164E-02  0.1186339E+00
        -11   -1    0    0    0    0  0.00000000000E+00  0.00000000000E+00  0.45593999997E+02  0.45594000000E+02  0.51100000000E-03 0.  1.
         11   -1    0    0    0    0 -0.00000000000E+00 -0.00000000000E+00 -0.45593999997E+02  0.45594000000E+02  0.51100000000E-03 0. -1.
    9900012    2    1    2    0    0  0.11319532574E+01 -0.24854902045E+00 -0.22343184945E+00  0.90007738765E+02  0.90000000116E+02 0.  0.
        -12    1    1    2    0    0 -0.11319532574E+01  0.24854902045E+00  0.22343184945E+00  0.11802612354E+01  0.00000000000E+00 0.  1.
         11    1    3    3    0    0 -0.69417463177E+01 -0.98943058499E+01  0.39914966662E+01  0.12728596784E+02  0.51100000000E-03 0. -1.
        -11    1    3    3    0    0 -0.28086809736E+02 -0.13640282343E+02  0.86263223294E+01  0.32393512016E+02  0.51100000000E-03 0.  1.
         12    1    3    3    0    0  0.36160509311E+02  0.23286039173E+02 -0.12841250845E+02  0.44885629964E+02  0.00000000000E+00 0. -1.
</event>
<event>
 7    1  0.1910099E-015  0.9000774E+02  0.7816164E-02  0.1186339E+00
        -11   -1    0    0    0    0  0.00000000000E+00  0.00000000000E+00  0.45593999997E+02  0.45594000000E+02  0.51100000000E-03 0. -1.
         11   -1    0    0    0    0 -0.00000000000E+00 -0.00000000000E+00 -0.45593999997E+02  0.45594000000E+02  0.51100000000E-03 0.  1.
    9900012    2    1    2    0    0  0.61595623599E+00  0.87633727586E+00  0.49562521823E+00  0.90007740087E+02  0.90000001456E+02 0.  0.
        -12    1    1    2    0    0 -0.61595623599E+00 -0.87633727586E+00 -0.49562521823E+00  0.11802599132E+01  0.00000000000E+00 0.  1.
         11    1    3    3    0    0  0.87117895687E+01  0.69624368515E+01 -0.37326131147E+01  0.11760238319E+02  0.51100000000E-03 0. -1.
        -11    1    3    3    0    0 -0.29293585887E+02 -0.75789567832E+01 -0.26947518583E+02  0.40518187498E+02  0.51100000000E-03 0.  1.
         12    1    3    3    0    0  0.21197752554E+02  0.14928572075E+01  0.31175756916E+02  0.37729314270E+02  0.00000000000E+00 0. -1.
</event>
<event>
 7    1  0.2037075E-015  0.9000777E+02  0.7816164E-02  0.1186339E+00
        -11   -1    0    0    0    0  0.00000000000E+00  0.00000000000E+00  0.45593999997E+02  0.45594000000E+02  0.51100000000E-03 0.  1.
         11   -1    0    0    0    0 -0.00000000000E+00 -0.00000000000E+00 -0.45593999997E+02  0.45594000000E+02  0.51100000000E-03 0. -1.
    9900012    2    1    2    0    0 -0.91785879689E+00  0.35152806775E+00  0.65338204018E+00  0.90007769157E+02  0.90000030909E+02 0.  0.
        -12    1    1    2    0    0  0.91785879689E+00 -0.35152806775E+00 -0.65338204018E+00  0.11802308435E+01  0.00000000000E+00 0.  1.
         11    1    3    3    0    0  0.62211701588E+01  0.66693090599E+01 -0.11890594739E+01  0.91976357927E+01  0.51100000000E-03 0. -1.
        -11    1    3    3    0    0  0.31189931327E+02  0.17130374253E+02 -0.24761902479E+01  0.35670618955E+02  0.51100000000E-03 0.  1.
         12    1    3    3    0    0 -0.38328960283E+02 -0.23448155245E+02  0.43186317619E+01  0.45139514409E+02  0.00000000000E+00 0. -1.
</event>
<event>
 7    1  0.1910099E-015  0.9000773E+02  0.7816164E-02  0.1186339E+00
        -11   -1    0    0    0    0  0.00000000000E+00  0.00000000000E+00  0.45593999997E+02  0.45594000000E+02  0.51100000000E-03 0. -1.
         11   -1    0    0    0    0 -0.00000000000E+00 -0.00000000000E+00 -0.45593999997E+02  0.45594000000E+02  0.51100000000E-03 0.  1.
    9900012    2    1    2    0    0 -0.27084321606E+00 -0.70282936852E-01  0.11466250632E+01  0.90007726822E+02  0.89999988016E+02 0.  0.
        -12    1    1    2    0    0  0.27084321606E+00  0.70282936852E-01 -0.11466250632E+01  0.11802731779E+01  0.00000000000E+00 0.  1.
         11    1    3    3    0    0  0.34780004954E+02  0.71690706424E+00  0.15380822826E+02  0.38035935790E+02  0.51100000000E-03 0. -1.
        -11    1    3    3    0    0 -0.59728315367E+01  0.12284976037E+02 -0.14726930262E+02  0.20086757528E+02  0.51100000000E-03 0.  1.
        -12    1    3    3    0    0 -0.29078016633E+02 -0.13072166038E+02  0.49273249974E+00  0.31885033504E+02  0.00000000000E+00 0.  1.
</event>
<event>
 7    1  0.1910099E-015  0.9000775E+02  0.7816164E-02  0.1186339E+00
        -11   -1    0    0    0    0  0.00000000000E+00  0.00000000000E+00  0.45593999997E+02  0.45594000000E+02  0.51100000000E-03 0. -1.
         11   -1    0    0    0    0 -0.00000000000E+00 -0.00000000000E+00 -0.45593999997E+02  0.45594000000E+02  0.51100000000E-03 0.  1.
    9900012    2    1    2    0    0 -0.47500019550E+00 -0.10432378400E+01 -0.28111730122E+00  0.90007746928E+02  0.90000008388E+02 0.  0.
        -12    1    1    2    0    0  0.47500019550E+00  0.10432378400E+01  0.28111730122E+00  0.11802530718E+01  0.00000000000E+00 0.  1.
         11    1    3    3    0    0 -0.66371894394E+01 -0.16947809825E+01 -0.55310966917E+01  0.88044078227E+01  0.51100000000E-03 0. -1.
        -11    1    3    3    0    0  0.20558734662E+02  0.18678320026E+02 -0.28839850858E+02  0.40040956628E+02  0.51100000000E-03 0.  1.
         12    1    3    3    0    0 -0.14396545418E+02 -0.18026776884E+02  0.34089830249E+02  0.41162382477E+02  0.00000000000E+00 0. -1.
</event>
<event>
 7    1  0.1910099E-015  0.9000755E+02  0.7816164E-02  0.1186339E+00
        -11   -1    0    0    0    0  0.00000000000E+00  0.00000000000E+00  0.45593999997E+02  0.45594000000E+02  0.51100000000E-03 0.  1.
         11   -1    0    0    0    0 -0.00000000000E+00 -0.00000000000E+00 -0.45593999997E+02  0.45594000000E+02  0.51100000000E-03 0. -1.
    9900012    2    1    2    0    0 -0.17964736127E+00 -0.11655697332E+01  0.51329310264E-01  0.90007550647E+02  0.89999809515E+02 0.  0.
        -12    1    1    2    0    0  0.17964736127E+00  0.11655697332E+01 -0.51329310264E-01  0.11804493532E+01  0.00000000000E+00 0.  1.
         11    1    3    3    0    0  0.17205699466E+00  0.69682967972E+01  0.69288297560E+01  0.98282982205E+01  0.51100000000E-03 0. -1.
        -11    1    3    3    0    0 -0.16117338095E+01  0.33824658797E+02  0.94204077941E+01  0.35148958902E+02  0.51100000000E-03 0.  1.
         12    1    3    3    0    0  0.12600294535E+01 -0.41958525328E+02 -0.16297908240E+02  0.45030293524E+02  0.00000000000E+00 0. -1.
</event>
<event>
 7    1  0.1910099E-015  0.9000772E+02  0.7816164E-02  0.1186339E+00
        -11   -1    0    0    0    0  0.00000000000E+00  0.00000000000E+00  0.45593999997E+02  0.45594000000E+02  0.51100000000E-03 0. -1.
         11   -1    0    0    0    0 -0.00000000000E+00 -0.00000000000E+00 -0.45593999997E+02  0.45594000000E+02  0.51100000000E-03 0.  1.
    9900012    2    1    2    0    0 -0.92473975748E+00 -0.51502436689E+00 -0.52217637996E+00  0.90007719572E+02  0.89999980670E+02 0.  0.
        -12    1    1    2    0    0  0.92473975748E+00  0.51502436689E+00  0.52217637996E+00  0.11802804283E+01  0.00000000000E+00 0.  1.
         11    1    3    3    0    0  0.12048456897E+02 -0.34387340072E+02 -0.11462598112E+02  0.38197455761E+02  0.51100000000E-03 0. -1.
        -11    1    3    3    0    0 -0.40208906039E+01 -0.58799962329E+01 -0.42826514709E+01  0.83116196273E+01  0.51100000000E-03 0.  1.
        -12    1    3    3    0    0 -0.89523060510E+01  0.39752311938E+02  0.15223073203E+02  0.43498644184E+02  0.00000000000E+00 0.  1.
</event>
<event>
 7    1  0.1910099E-015  0.9000821E+02  0.7816164E-02  0.1186338E+00
        -11   -1    0    0    0    0  0.00000000000E+00  0.00000000000E+00  0.45593999997E+02  0.45594000000E+02  0.51100000000E-03 0.  1.
         11   -1    0    0    0    0 -0.00000000000E+00 -0.00000000000E+00 -0.45593999997E+02  0.45594000000E+02  0.51100000000E-03 0. -1.
    9900012    2    1    2    0    0  0.10011594473E+01  0.62047148814E+00  0.67868150571E-01  0.90008207140E+02  0.90000474673E+02 0.  0.
        -12    1    1    2    0    0 -0.10011594473E+01 -0.62047148814E+00 -0.67868150571E-01  0.11797928600E+01  0.00000000000E+00 0.  1.
         11    1    3    3    0    0 -0.91065274278E+01 -0.30276592516E+01 -0.72254745005E+00  0.96238057657E+01  0.51100000000E-03 0. -1.
        -11    1    3    3    0    0  0.18170939545E+01  0.31895149635E+02 -0.25530369320E+02  0.40895013860E+02  0.51100000000E-03 0.  1.
         12    1    3    3    0    0  0.82905929206E+01 -0.28247018895E+02  0.26320784921E+02  0.39489387515E+02  0.00000000000E+00 0. -1.
</event>
<event>
 7    1  0.1910099E-015  0.9000770E+02  0.7816164E-02  0.1186339E+00
        -11   -1    0    0    0    0  0.00000000000E+00  0.00000000000E+00  0.45593999997E+02  0.45594000000E+02  0.51100000000E-03 0.  1.
         11   -1    0    0    0    0 -0.00000000000E+00 -0.00000000000E+00 -0.45593999997E+02  0.45594000000E+02  0.51100000000E-03 0. -1.
    9900012    2    1    2    0    0  0.11620952492E+01  0.16518905482E-01  0.20586756746E+00  0.90007695083E+02  0.89999955858E+02 0.  0.
        -12    1    1    2    0    0 -0.11620952492E+01 -0.16518905482E-01 -0.20586756746E+00  0.11803049173E+01  0.00000000000E+00 0.  1.
         11    1    3    3    0    0  0.16701046440E+01 -0.93058558609E+01 -0.24135998327E+01  0.97577490867E+01  0.51100000000E-03 0. -1.
        -11    1    3    3    0    0  0.11075150868E+02  0.32927181758E+02 -0.24474149949E+02  0.42495203038E+02  0.51100000000E-03 0.  1.
         12    1    3    3    0    0 -0.11583160263E+02 -0.23604806991E+02  0.27093617349E+02  0.37754742958E+02  0.00000000000E+00 0. -1.
</event>
<event>
 7    1  0.1910099E-015  0.9000775E+02  0.7816164E-02  0.1186339E+00
        -11   -1    0    0    0    0  0.00000000000E+00  0.00000000000E+00  0.45593999997E+02  0.45594000000E+02  0.51100000000E-03 0. -1.
         11   -1    0    0    0    0 -0.00000000000E+00 -0.00000000000E+00 -0.45593999997E+02  0.45594000000E+02  0.51100000000E-03 0.  1.
    9900012    2    1    2    0    0  0.44643499699E+00  0.94537079157E+00  0.54768087303E+00  0.90007752365E+02  0.90000013897E+02 0.  0.
        -12    1    1    2    0    0 -0.44643499699E+00 -0.94537079157E+00 -0.54768087303E+00  0.11802476345E+01  0.00000000000E+00 0.  1.
         11    1    3    3    0    0  0.54436105160E+01  0.32707422154E+01 -0.10070009883E+02  0.11905282415E+02  0.51100000000E-03 0. -1.
        -11    1    3    3    0    0 -0.13747336692E+02  0.46664222119E+01 -0.31412730411E+02  0.34605265416E+02  0.51100000000E-03 0.  1.
         12    1    3    3    0    0  0.87501611734E+01 -0.69917936357E+01  0.42030421167E+02  0.43497204534E+02  0.00000000000E+00 0. -1.
</event>
<event>
 7    1  0.3246723E-015  0.9000790E+02  0.7816164E-02  0.1186339E+00
        -11   -1    0    0    0    0  0.00000000000E+00  0.00000000000E+00  0.45593999997E+02  0.45594000000E+02  0.51100000000E-03 0.  1.
         11   -1    0    0    0    0 -0.00000000000E+00 -0.00000000000E+00 -0.45593999997E+02  0.45594000000E+02  0.51100000000E-03 0. -1.
    9900012    2    1    2    0    0  0.39217168585E+00 -0.97969371047E+00 -0.52824562013E+00  0.90007897533E+02  0.90000160980E+02 0.  0.
        -12    1    1    2    0    0 -0.39217168585E+00  0.97969371047E+00  0.52824562013E+00  0.11801024670E+01  0.00000000000E+00 0.  1.
         11    1    3    3    0    0 -0.10670731276E+01 -0.12759445727E+01  0.93151041878E+01  0.94624439709E+01  0.51100000000E-03 0. -1.
        -11    1    3    3    0    0 -0.39415508795E+01  0.15352600990E+02  0.32021011484E+02  0.35729306699E+02  0.51100000000E-03 0.  1.
         12    1    3    3    0    0  0.54007956929E+01 -0.15056350128E+02 -0.41864361292E+02  0.44816146863E+02  0.00000000000E+00 0. -1.
</event>
<event>
 7    1  0.1910099E-015  0.9000771E+02  0.7816164E-02  0.1186339E+00
        -11   -1    0    0    0    0  0.00000000000E+00  0.00000000000E+00  0.45593999997E+02  0.45594000000E+02  0.51100000000E-03 0.  1.
         11   -1    0    0    0    0 -0.00000000000E+00 -0.00000000000E+00 -0.45593999997E+02  0.45594000000E+02  0.51100000000E-03 0. -1.
    9900012    2    1    2    0    0 -0.44402136048E+00  0.10482637327E+01 -0.31156211825E+00  0.90007710724E+02  0.89999971705E+02 0.  0.
        -12    1    1    2    0    0  0.44402136048E+00 -0.10482637327E+01  0.31156211825E+00  0.11802892761E+01  0.00000000000E+00 0.  1.
         11    1    3    3    0    0 -0.95694388623E+00 -0.10931348465E+02  0.52244794629E+01  0.12153407209E+02  0.51100000000E-03 0. -1.
        -11    1    3    3    0    0  0.32173793600E+02 -0.15466026710E+02 -0.40518146653E+01  0.35927262339E+02  0.51100000000E-03 0.  1.
         12    1    3    3    0    0 -0.31660871074E+02  0.27445638908E+02 -0.14842269158E+01  0.41927041176E+02  0.00000000000E+00 0. -1.
</event>
<event>
 8    1  0.1910099E-015  0.9000782E+02  0.7816164E-02  0.1186339E+00
        -11   -1    0    0    0    0  0.00000000000E+00  0.00000000000E+00  0.45593999997E+02  0.45594000000E+02  0.51100000000E-03 0.  1.
         11   -1    0    0    0    0 -0.00000000000E+00 -0.00000000000E+00 -0.45593999997E+02  0.45594000000E+02  0.51100000000E-03 0. -1.
    9900012    2    1    2    0    0  0.10846517820E+01  0.70152990826E-01 -0.45982271162E+00  0.90007818719E+02  0.90000081126E+02 0.  0.
         23    2    3    3    0    0  0.25041677491E+01  0.14788492554E+00  0.20244155609E+02  0.69255089112E+02  0.66182692644E+02 0.  0.
        -12    1    1    2    0    0 -0.10846517820E+01 -0.70152990826E-01  0.45982271162E+00  0.11801812812E+01  0.00000000000E+00 0.  1.
         11    1    4    4    0    0  0.11999669909E+02  0.77881207723E+01 -0.21468654651E+02  0.25798256450E+02  0.51100000000E-03 0. -1.
        -11    1    4    4    0    0 -0.94955021596E+01 -0.76402358468E+01  0.41712810259E+02  0.43456832662E+02  0.51100000000E-03 0.  1.
         12    1    3    3    0    0 -0.14195159671E+01 -0.77731934716E-01 -0.20703978320E+02  0.20752729606E+02  0.00000000000E+00 0. -1.
</event>
<event>
 7    1  0.1910099E-015  0.9000799E+02  0.7816164E-02  0.1186339E+00
        -11   -1    0    0    0    0  0.00000000000E+00  0.00000000000E+00  0.45593999997E+02  0.45594000000E+02  0.51100000000E-03 0. -1.
         11   -1    0    0    0    0 -0.00000000000E+00 -0.00000000000E+00 -0.45593999997E+02  0.45594000000E+02  0.51100000000E-03 0.  1.
    9900012    2    1    2    0    0  0.87349065286E+00 -0.29160232152E+00 -0.73783577491E+00  0.90007991752E+02  0.90000256443E+02 0.  0.
        -12    1    1    2    0    0 -0.87349065286E+00  0.29160232152E+00  0.73783577491E+00  0.11800082480E+01  0.00000000000E+00 0.  1.
         11    1    3    3    0    0  0.57774122140E+01 -0.38607358022E+02 -0.87554373043E+01  0.40007052728E+02  0.51100000000E-03 0. -1.
        -11    1    3    3    0    0  0.43663026540E+01 -0.11318250243E+01  0.83353020972E+01  0.94774937649E+01  0.51100000000E-03 0.  1.
        -12    1    3    3    0    0 -0.92702242152E+01  0.39447580725E+02 -0.31770056779E+00  0.40523445259E+02  0.00000000000E+00 0.  1.
</event>
<event>
 7    1  0.1910099E-015  0.9000779E+02  0.7816164E-02  0.1186339E+00
        -11   -1    0    0    0    0  0.00000000000E+00  0.00000000000E+00  0.45593999997E+02  0.45594000000E+02  0.51100000000E-03 0. -1.
         11   -1    0    0    0    0 -0.00000000000E+00 -0.00000000000E+00 -0.45593999997E+02  0.45594000000E+02  0.51100000000E-03 0.  1.
    9900012    2    1    2    0    0  0.92582880593E+00 -0.39385181692E+00 -0.61695067063E+00  0.90007785460E+02  0.90000047428E+02 0.  0.
        -12    1    1    2    0    0 -0.92582880593E+00  0.39385181692E+00  0.61695067063E+00  0.11802145405E+01  0.00000000000E+00 0.  1.
         11    1    3    3    0    0 -0.23549860621E+00 -0.78503241943E+01  0.61811105462E+01  0.99944573336E+01  0.51100000000E-03 0. -1.
        -11    1    3    3    0    0  0.19617696269E+02  0.17866786035E+02 -0.35510026668E+02  0.44328749637E+02  0.51100000000E-03 0.  1.
         12    1    3    3    0    0 -0.18456368857E+02 -0.10410313657E+02  0.28711965452E+02  0.35684578489E+02  0.00000000000E+00 0. -1.
</event>
<event>
 7    1  0.1910099E-015  0.9000777E+02  0.7816164E-02  0.1186339E+00
        -11   -1    0    0    0    0  0.00000000000E+00  0.00000000000E+00  0.45593999997E+02  0.45594000000E+02  0.51100000000E-03 0. -1.
         11   -1    0    0    0    0 -0.00000000000E+00 -0.00000000000E+00 -0.45593999997E+02  0.45594000000E+02  0.51100000000E-03 0.  1.
    9900012    2    1    2    0    0 -0.57656560275E+00  0.88507172802E+00 -0.52646160206E+00  0.90007770498E+02  0.90000032269E+02 0.  0.
        -12    1    1    2    0    0  0.57656560275E+00 -0.88507172802E+00  0.52646160206E+00  0.11802295016E+01  0.00000000000E+00 0.  1.
         11    1    3    3    0    0  0.37271872949E+02  0.55969260840E+01 -0.89310493673E+01  0.38733470511E+02  0.51100000000E-03 0. -1.
        -11    1    3    3    0    0  0.45399253729E+01 -0.63350026299E+01  0.35953958975E+01  0.85831260409E+01  0.51100000000E-03 0.  1.
        -12    1    3    3    0    0 -0.42388363925E+02  0.16231482739E+01  0.48091918678E+01  0.42691173947E+02  0.00000000000E+00 0.  1.
</event>
<event>
 7    1  0.1910099E-015  0.9000713E+02  0.7816164E-02  0.1186340E+00
        -11   -1    0    0    0    0  0.00000000000E+00  0.00000000000E+00  0.45593999997E+02  0.45594000000E+02  0.51100000000E-03 0.  1.
         11   -1    0    0    0    0 -0.00000000000E+00 -0.00000000000E+00 -0.45593999997E+02  0.45594000000E+02  0.51100000000E-03 0. -1.
    9900012    2    1    2    0    0  0.19256375207E+00  0.75073353963E+00 -0.89094186877E+00  0.90007127839E+02  0.89999381125E+02 0.  0.
        -12    1    1    2    0    0 -0.19256375207E+00 -0.75073353963E+00  0.89094186877E+00  0.11808721606E+01  0.00000000000E+00 0.  1.
         11    1    3    3    0    0 -0.24585003934E+02 -0.15009716703E+02 -0.49132687057E+01  0.29220784103E+02  0.51100000000E-03 0. -1.
        -11    1    3    3    0    0 -0.15476118730E+02 -0.24333160297E+01 -0.32978484024E+01  0.16009593443E+02  0.51100000000E-03 0.  1.
        -12    1    3    3    0    0  0.40253686417E+02  0.18193766272E+02  0.73201752393E+01  0.44776750294E+02  0.00000000000E+00 0.  1.
</event>
<event>
 7    1  0.1910099E-015  0.9000789E+02  0.7816164E-02  0.1186339E+00
        -11   -1    0    0    0    0  0.00000000000E+00  0.00000000000E+00  0.45593999997E+02  0.45594000000E+02  0.51100000000E-03 0.  1.
         11   -1    0    0    0    0 -0.00000000000E+00 -0.00000000000E+00 -0.45593999997E+02  0.45594000000E+02  0.51100000000E-03 0. -1.
    9900012    2    1    2    0    0  0.46184881505E+00  0.74770229439E+00 -0.78759295223E+00  0.90007887417E+02  0.90000150731E+02 0.  0.
        -12    1    1    2    0    0 -0.46184881505E+00 -0.74770229439E+00  0.78759295223E+00  0.11801125825E+01  0.00000000000E+00 0.  1.
         11    1    3    3    0    0 -0.10388893923E+02  0.92424374845E+01 -0.41224181479E+02  0.43506147916E+02  0.51100000000E-03 0. -1.
        -11    1    3    3    0    0 -0.16618170553E+01 -0.78471594875E+01  0.64938545207E+01  0.10320353422E+02  0.51100000000E-03 0.  1.
        -12    1    3    3    0    0  0.12512559793E+02 -0.64757570255E+00  0.33942734006E+02  0.36181386080E+02  0.00000000000E+00 0.  1.
</event>
<event>
 7    1  0.1910099E-015  0.9000774E+02  0.7816164E-02  0.1186339E+00
        -11   -1    0    0    0    0  0.00000000000E+00  0.00000000000E+00  0.45593999997E+02  0.45594000000E+02  0.51100000000E-03 0.  1.
         11   -1    0    0    0    0 -0.00000000000E+00 -0.00000000000E+00 -0.45593999997E+02  0.45594000000E+02  0.51100000000E-03 0. -1.
    9900012    2    1    2    0    0 -0.11133063433E+01 -0.12561736464E+00 -0.37120248551E+00  0.90007736461E+02  0.89999997782E+02 0.  0.
        -12    1    1    2    0    0  0.11133063433E+01  0.12561736464E+00  0.37120248551E+00  0.11802635390E+01  0.00000000000E+00 0.  1.
         11    1    3    3    0    0 -0.81278338067E+01 -0.41946366550E+01  0.19908484783E+00  0.91485678712E+01  0.51100000000E-03 0. -1.
        -11    1    3    3    0    0 -0.30069537696E+02  0.42917840934E+01  0.21947059811E+02  0.37473589934E+02  0.51100000000E-03 0.  1.
         12    1    3    3    0    0  0.37084065159E+02 -0.22276480306E+00 -0.22517347144E+02  0.43385578656E+02  0.00000000000E+00 0. -1.
</event>
<event>
 7    1  0.1910099E-015  0.9000778E+02  0.7816164E-02  0.1186339E+00
        -11   -1    0    0    0    0  0.00000000000E+00  0.00000000000E+00  0.45593999997E+02  0.45594000000E+02  0.51100000000E-03 0.  1.
         11   -1    0    0    0    0 -0.00000000000E+00 -0.00000000000E+00 -0.45593999997E+02  0.45594000000E+02  0.51100000000E-03 0. -1.
    9900012    2    1    2    0    0  0.32142667954E+00  0.11322353270E+01 -0.87516038742E-01  0.90007775020E+02  0.90000036850E+02 0.  0.
        -12    1    1    2    0    0 -0.32142667954E+00 -0.11322353270E+01  0.87516038742E-01  0.11802249799E+01  0.00000000000E+00 0.  1.
         11    1    3    3    0    0 -0.74410393869E+01  0.23750843468E+01  0.37838576453E+01  0.86791515572E+01  0.51100000000E-03 0. -1.
        -11    1    3    3    0    0  0.25339870592E+02  0.13524739557E+02  0.29272038929E+02  0.41010728901E+02  0.51100000000E-03 0.  1.
         12    1    3    3    0    0 -0.17577404525E+02 -0.14767588576E+02 -0.33143412613E+02  0.40317894561E+02  0.00000000000E+00 0. -1.
</event>
<event>
 7    1  0.1910099E-015  0.9000775E+02  0.7816164E-02  0.1186339E+00
        -11   -1    0    0    0    0  0.00000000000E+00  0.00000000000E+00  0.45593999997E+02  0.45594000000E+02  0.51100000000E-03 0.  1.
         11   -1    0    0    0    0 -0.00000000000E+00 -0.00000000000E+00 -0.45593999997E+02  0.45594000000E+02  0.51100000000E-03 0. -1.
    9900012    2    1    2    0    0  0.30045513673E+00 -0.23198088173E+00 -0.11175388004E+01  0.90007753674E+02  0.90000015223E+02 0.  0.
        -12    1    1    2    0    0 -0.30045513673E+00  0.23198088173E+00  0.11175388004E+01  0.11802463256E+01  0.00000000000E+00 0.  1.
         11    1    3    3    0    0  0.25381093800E+02  0.27223659776E+02 -0.13278362443E+02  0.39517622442E+02  0.51100000000E-03 0. -1.
        -11    1    3    3    0    0  0.75935215922E+01 -0.77048225128E+01  0.23546780395E+01  0.11071150304E+02  0.51100000000E-03 0.  1.
        -12    1    3    3    0    0 -0.32674160256E+02 -0.19750818145E+02  0.98061456027E+01  0.39418980928E+02  0.00000000000E+00 0.  1.
</event>
<event>
 7    1  0.1910099E-015  0.9000775E+02  0.7816164E-02  0.1186339E+00
        -11   -1    0    0    0    0  0.00000000000E+00  0.00000000000E+00  0.45593999997E+02  0.45594000000E+02  0.51100000000E-03 0.  1.
         11   -1    0    0    0    0 -0.00000000000E+00 -0.00000000000E+00 -0.45593999997E+02  0.45594000000E+02  0.51100000000E-03 0. -1.
    9900012    2    1    2    0    0 -0.12178649286E+00  0.96798989989E+00 -0.66418845886E+00  0.90007753117E+02  0.90000014658E+02 0.  0.
        -12    1    1    2    0    0  0.12178649286E+00 -0.96798989989E+00  0.66418845886E+00  0.11802468831E+01  0.00000000000E+00 0.  1.
         11    1    3    3    0    0 -0.12450259636E+02 -0.15722781212E+02 -0.29739189167E+02  0.35869683392E+02  0.51100000000E-03 0. -1.
        -11    1    3    3    0    0 -0.56254433283E+00 -0.11160759144E+01 -0.95843628586E+01  0.96655105007E+01  0.51100000000E-03 0.  1.
        -12    1    3    3    0    0  0.12891017476E+02  0.17806847026E+02  0.38659363567E+02  0.44472559224E+02  0.00000000000E+00 0.  1.
</event>
<event>
 7    1  0.1910099E-015  0.9000775E+02  0.7816164E-02  0.1186339E+00
        -11   -1    0    0    0    0  0.00000000000E+00  0.00000000000E+00  0.45593999997E+02  0.45594000000E+02  0.51100000000E-03 0.  1.
         11   -1    0    0    0    0 -0.00000000000E+00 -0.00000000000E+00 -0.45593999997E+02  0.45594000000E+02  0.51100000000E-03 0. -1.
    9900012    2    1    2    0    0 -0.87684777644E+00 -0.71395939771E+00  0.33822738482E+00  0.90007746719E+02  0.90000008175E+02 0.  0.
        -12    1    1    2    0    0  0.87684777644E+00  0.71395939771E+00 -0.33822738482E+00  0.11802532815E+01  0.00000000000E+00 0.  1.
         11    1    3    3    0    0  0.21969083851E+01  0.72243401902E+01  0.18297113061E+01  0.77695135859E+01  0.51100000000E-03 0. -1.
        -11    1    3    3    0    0 -0.18653267187E+00  0.34811301523E+00  0.39912569913E+02  0.39914523853E+02  0.51100000000E-03 0.  1.
         12    1    3    3    0    0 -0.28872234897E+01 -0.82864126032E+01 -0.41404053834E+02  0.42323709280E+02  0.00000000000E+00 0. -1.
</event>
<event>
 7    1  0.2072210E-015  0.9000778E+02  0.7816164E-02  0.1186339E+00
        -11   -1    0    0    0    0  0.00000000000E+00  0.00000000000E+00  0.45593999997E+02  0.45594000000E+02  0.51100000000E-03 0.  1.
         11   -1    0    0    0    0 -0.00000000000E+00 -0.00000000000E+00 -0.45593999997E+02  0.45594000000E+02  0.51100000000E-03 0. -1.
    9900012    2    1    2    0    0  0.28218363561E+00  0.66518765079E+00 -0.93318047330E+00  0.90007776288E+02  0.90000038135E+02 0.  0.
        -12    1    1    2    0    0 -0.28218363561E+00 -0.66518765079E+00  0.93318047330E+00  0.11802237121E+01  0.00000000000E+00 0.  1.
         11    1    3    3    0    0  0.78622277632E+01  0.11930337705E+01 -0.56478883774E+01  0.97537991759E+01  0.51100000000E-03 0. -1.
        -11    1    3    3    0    0  0.25691657727E+02 -0.27196539564E+02  0.62895099403E+00  0.37418025344E+02  0.51100000000E-03 0.  1.
         12    1    3    3    0    0 -0.33271701855E+02  0.26668693444E+02  0.40857569101E+01  0.42835951768E+02  0.00000000000E+00 0. -1.
</event>
<event>
 7    1  0.1910099E-015  0.9000771E+02  0.7816164E-02  0.1186339E+00
        -11   -1    0    0    0    0  0.00000000000E+00  0.00000000000E+00  0.45593999997E+02  0.45594000000E+02  0.51100000000E-03 0. -1.
         11   -1    0    0    0    0 -0.00000000000E+00 -0.00000000000E+00 -0.45593999997E+02  0.45594000000E+02  0.51100000000E-03 0.  1.
    9900012    2    1    2    0    0  0.10779519213E+00  0.24668883287E+00  0.11491774189E+01  0.90007710237E+02  0.89999971212E+02 0.  0.
        -12    1    1    2    0    0 -0.10779519213E+00 -0.24668883287E+00 -0.11491774189E+01  0.11802897626E+01  0.00000000000E+00 0.  1.
         11    1    3    3    0    0  0.34640536953E+02 -0.72607306495E+00  0.77789363421E+01  0.35510643944E+02  0.51100000000E-03 0. -1.
        -11    1    3    3    0    0  0.94592623524E+01 -0.30463645468E+00  0.19373799669E+01  0.96604290287E+01  0.51100000000E-03 0.  1.
        -12    1    3    3    0    0 -0.43992004113E+02  0.12773983525E+01 -0.85671388901E+01  0.44836637264E+02  0.00000000000E+00 0.  1.
</event>
<event>
 7    1  0.1910099E-015  0.9000779E+02  0.7816164E-02  0.1186339E+00
        -11   -1    0    0    0    0  0.00000000000E+00  0.00000000000E+00  0.45593999997E+02  0.45594000000E+02  0.51100000000E-03 0. -1.
         11   -1    0    0    0    0 -0.00000000000E+00 -0.00000000000E+00 -0.45593999997E+02  0.45594000000E+02  0.51100000000E-03 0.  1.
    9900012    2    1    2    0    0 -0.61290477320E+00 -0.90352076943E+00  0.44820690926E+00  0.90007791766E+02  0.90000053817E+02 0.  0.
        -12    1    1    2    0    0  0.61290477320E+00  0.90352076943E+00 -0.44820690926E+00  0.11802082339E+01  0.00000000000E+00 0.  1.
         11    1    3    3    0    0  0.18825383998E+02  0.67532704911E+01  0.30438616205E+02  0.36421300111E+02  0.51100000000E-03 0. -1.
        -11    1    3    3    0    0  0.57666084564E+01 -0.20531821626E+01  0.64716716384E+01  0.89079663301E+01  0.51100000000E-03 0.  1.
        -12    1    3    3    0    0 -0.25204897228E+02 -0.56036090980E+01 -0.36462080934E+02  0.44678525325E+02  0.00000000000E+00 0.  1.
</event>
<event>
 8    1  0.1910099E-015  0.9000777E+02  0.7816164E-02  0.1186339E+00
        -11   -1    0    0    0    0  0.00000000000E+00  0.00000000000E+00  0.45593999997E+02  0.45594000000E+02  0.51100000000E-03 0.  1.
         11   -1    0    0    0    0 -0.00000000000E+00 -0.00000000000E+00 -0.45593999997E+02  0.45594000000E+02  0.51100000000E-03 0. -1.
    9900012    2    1    2    0    0  0.84711445399E+00  0.71183670459E+00 -0.41065144282E+00  0.90007767396E+02  0.90000029126E+02 0.  0.
         23    2    3    3    0    0 -0.12380124869E+02 -0.11048493555E+02  0.17959100529E+02  0.64498690277E+02  0.59684294870E+02 0.  0.
        -12    1    1    2    0    0 -0.84711445399E+00 -0.71183670459E+00  0.41065144282E+00  0.11802326040E+01  0.00000000000E+00 0.  1.
         11    1    4    4    0    0  0.20369230689E+02  0.51259545663E+01  0.18468982366E+02  0.27969345344E+02  0.51100000000E-03 0. -1.
        -11    1    4    4    0    0 -0.32749355558E+02 -0.16174448121E+02 -0.50988183724E+00  0.36529344933E+02  0.51100000000E-03 0.  1.
         12    1    3    3    0    0  0.13227239323E+02  0.11760330260E+02 -0.18369751972E+02  0.25509077118E+02  0.00000000000E+00 0. -1.
</event>
<event>
 7    1  0.1910099E-015  0.9000776E+02  0.7816164E-02  0.1186339E+00
        -11   -1    0    0    0    0  0.00000000000E+00  0.00000000000E+00  0.45593999997E+02  0.45594000000E+02  0.51100000000E-03 0.  1.
         11   -1    0    0    0    0 -0.00000000000E+00 -0.00000000000E+00 -0.45593999997E+02  0.45594000000E+02  0.51100000000E-03 0. -1.
    9900012    2    1    2    0    0 -0.86779243466E+00 -0.53101431079E+00 -0.59826667418E+00  0.90007761498E+02  0.90000023150E+02 0.  0.
        -12    1    1    2    0    0  0.86779243466E+00  0.53101431079E+00  0.59826667418E+00  0.11802385019E+01  0.00000000000E+00 0.  1.
         11    1    3    3    0    0  0.80677578931E+01  0.13290330894E+02  0.80869018120E+00  0.15568416514E+02  0.51100000000E-03 0. -1.
        -11    1    3    3    0    0  0.11641184973E+02  0.22958634268E+02  0.14319478757E+02  0.29456129195E+02  0.51100000000E-03 0.  1.
         12    1    3    3    0    0 -0.20576735300E+02 -0.36779979473E+02 -0.15726435612E+02  0.44983215789E+02  0.00000000000E+00 0. -1.
</event>
<event>
 7    1  0.1910099E-015  0.9000775E+02  0.7816164E-02  0.1186339E+00
        -11   -1    0    0    0    0  0.00000000000E+00  0.00000000000E+00  0.45593999997E+02  0.45594000000E+02  0.51100000000E-03 0.  1.
         11   -1    0    0    0    0 -0.00000000000E+00 -0.00000000000E+00 -0.45593999997E+02  0.45594000000E+02  0.51100000000E-03 0. -1.
    9900012    2    1    2    0    0 -0.62744794306E+00  0.22118192623E+00 -0.97487791615E+00  0.90007746079E+02  0.90000007528E+02 0.  0.
        -12    1    1    2    0    0  0.62744794306E+00 -0.22118192623E+00  0.97487791615E+00  0.11802539206E+01  0.00000000000E+00 0.  1.
         11    1    3    3    0    0  0.66293707038E+01  0.10420594563E+02 -0.25555205854E+00  0.12353244679E+02  0.51100000000E-03 0. -1.
        -11    1    3    3    0    0  0.51516409375E+01  0.12436757726E+02  0.32737230009E+02  0.35396872404E+02  0.51100000000E-03 0.  1.
         12    1    3    3    0    0 -0.12408459584E+02 -0.22636170362E+02 -0.33456555867E+02  0.42257628996E+02  0.00000000000E+00 0. -1.
</event>
<event>
 7    1  0.1910099E-015  0.9000773E+02  0.7816164E-02  0.1186339E+00
        -11   -1    0    0    0    0  0.00000000000E+00  0.00000000000E+00  0.45593999997E+02  0.45594000000E+02  0.51100000000E-03 0. -1.
         11   -1    0    0    0    0 -0.00000000000E+00 -0.00000000000E+00 -0.45593999997E+02  0.45594000000E+02  0.51100000000E-03 0.  1.
    9900012    2    1    2    0    0  0.55942202095E+00  0.16944170961E-02  0.10392742627E+01  0.90007725938E+02  0.89999987120E+02 0.  0.
        -12    1    1    2    0    0 -0.55942202095E+00 -0.16944170961E-02 -0.10392742627E+01  0.11802740621E+01  0.00000000000E+00 0.  1.
         11    1    3    3    0    0 -0.15671055568E+02 -0.33360559973E+02 -0.34111476215E+01  0.37015468019E+02  0.51100000000E-03 0. -1.
        -11    1    3    3    0    0 -0.22667117130E+01 -0.59124094308E+01  0.70821327749E+01  0.95000616929E+01  0.51100000000E-03 0.  1.
        -12    1    3    3    0    0  0.18497189302E+02  0.39274663821E+02 -0.26317108907E+01  0.43492196226E+02  0.00000000000E+00 0.  1.
</event>
<event>
 7    1  0.1910099E-015  0.9000774E+02  0.7816164E-02  0.1186339E+00
        -11   -1    0    0    0    0  0.00000000000E+00  0.00000000000E+00  0.45593999997E+02  0.45594000000E+02  0.51100000000E-03 0.  1.
         11   -1    0    0    0    0 -0.00000000000E+00 -0.00000000000E+00 -0.45593999997E+02  0.45594000000E+02  0.51100000000E-03 0. -1.
    9900012    2    1    2    0    0  0.43959003769E+00 -0.18649659467E+00  0.10793455944E+01  0.90007742700E+02  0.90000004104E+02 0.  0.
        -12    1    1    2    0    0 -0.43959003769E+00  0.18649659467E+00 -0.10793455944E+01  0.11802572996E+01  0.00000000000E+00 0.  1.
         11    1    3    3    0    0  0.27147656649E+02  0.80901334970E+00 -0.26379313238E+02  0.37861826835E+02  0.51100000000E-03 0. -1.
        -11    1    3    3    0    0  0.83268985996E+01  0.33113824576E+01  0.43997426872E+01  0.99829970472E+01  0.51100000000E-03 0.  1.
        -12    1    3    3    0    0 -0.35034965211E+02 -0.43068924019E+01  0.23058916145E+02  0.42162918818E+02  0.00000000000E+00 0.  1.
</event>
<event>
 7    1  0.1910099E-015  0.9000755E+02  0.7816164E-02  0.1186339E+00
        -11   -1    0    0    0    0  0.00000000000E+00  0.00000000000E+00  0.45593999997E+02  0.45594000000E+02  0.51100000000E-03 0.  1.
         11   -1    0    0    0    0 -0.00000000000E+00 -0.00000000000E+00 -0.45593999997E+02  0.45594000000E+02  0.51100000000E-03 0. -1.
    9900012    2    1    2    0    0 -0.45211274072E+00 -0.52186428498E+00  0.95744889930E+00  0.90007552349E+02  0.89999811240E+02 0.  0.
        -12    1    1    2    0    0  0.45211274072E+00  0.52186428498E+00 -0.95744889930E+00  0.11804476511E+01  0.00000000000E+00 0.  1.
         11    1    3    3    0    0 -0.65835348759E+01  0.34525759418E+01 -0.37897416547E+01  0.83441808565E+01  0.51100000000E-03 0. -1.
        -11    1    3    3    0    0 -0.12380868235E+02 -0.81401328890E+01  0.39433876107E+02  0.42125743279E+02  0.51100000000E-03 0.  1.
         12    1    3    3    0    0  0.18512290370E+02  0.41656926622E+01 -0.34686685553E+02  0.39537628214E+02  0.00000000000E+00 0. -1.
</event>
<event>
 7    1  0.1910099E-015  0.9000789E+02  0.7816164E-02  0.1186339E+00
        -11   -1    0    0    0    0  0.00000000000E+00  0.00000000000E+00  0.45593999997E+02  0.45594000000E+02  0.51100000000E-03 0.  1.
         11   -1    0    0    0    0 -0.00000000000E+00 -0.00000000000E+00 -0.45593999997E+02  0.45594000000E+02  0.51100000000E-03 0. -1.
    9900012    2    1    2    0    0 -0.68935641121E+00  0.66174908486E+00 -0.69248083050E+00  0.90007892457E+02  0.90000155837E+02 0.  0.
        -12    1    1    2    0    0  0.68935641121E+00 -0.66174908486E+00  0.69248083050E+00  0.11801075432E+01  0.00000000000E+00 0.  1.
         11    1    3    3    0    0  0.15932637047E+01  0.18668302895E+01 -0.11090176899E+02  0.11358502035E+02  0.51100000000E-03 0. -1.
        -11    1    3    3    0    0 -0.12588525144E+02 -0.36214999432E+02 -0.56992645935E+01  0.38761820989E+02  0.51100000000E-03 0.  1.
         12    1    3    3    0    0  0.10305905028E+02  0.35009918228E+02  0.16096960662E+02  0.39887569433E+02  0.00000000000E+00 0. -1.
</event>
<event>
 7    1  0.1910099E-015  0.9000782E+02  0.7816164E-02  0.1186339E+00
        -11   -1    0    0    0    0  0.00000000000E+00  0.00000000000E+00  0.45593999997E+02  0.45594000000E+02  0.51100000000E-03 0.  1.
         11   -1    0    0    0    0 -0.00000000000E+00 -0.00000000000E+00 -0.45593999997E+02  0.45594000000E+02  0.51100000000E-03 0. -1.
    9900012    2    1    2    0    0 -0.25516033637E+00 -0.10377741180E+01  0.50075000912E+00  0.90007816756E+02  0.90000079137E+02 0.  0.
        -12    1    1    2    0    0  0.25516033637E+00  0.10377741180E+01 -0.50075000912E+00  0.11801832438E+01  0.00000000000E+00 0.  1.
         11    1    3    3    0    0  0.62402820799E+01  0.99600813537E+01 -0.85367696295E+01  0.14526554202E+02  0.51100000000E-03 0. -1.
        -11    1    3    3    0    0 -0.35986913672E+02 -0.98081421957E+01  0.21934607368E+02  0.43271059724E+02  0.51100000000E-03 0.  1.
         12    1    3    3    0    0  0.29491471256E+02 -0.11897132760E+01 -0.12897087729E+02  0.32210202831E+02  0.00000000000E+00 0. -1.
</event>
<event>
 7    1  0.1910099E-015  0.9000776E+02  0.7816164E-02  0.1186339E+00
        -11   -1    0    0    0    0  0.00000000000E+00  0.00000000000E+00  0.45593999997E+02  0.45594000000E+02  0.51100000000E-03 0. -1.
         11   -1    0    0    0    0 -0.00000000000E+00 -0.00000000000E+00 -0.45593999997E+02  0.45594000000E+02  0.51100000000E-03 0.  1.
    9900012    2    1    2    0    0  0.51067862408E-01  0.11790821393E+01 -0.11253543518E-01  0.90007758813E+02  0.90000020429E+02 0.  0.
        -12    1    1    2    0    0 -0.51067862408E-01 -0.11790821393E+01  0.11253543518E-01  0.11802411872E+01  0.00000000000E+00 0.  1.
         11    1    3    3    0    0 -0.54817348930E+01 -0.74635352175E+01 -0.37976431105E+01  0.10008789579E+02  0.51100000000E-03 0. -1.
        -11    1    3    3    0    0 -0.18734489478E+02 -0.17985230998E+02 -0.23327672185E+02  0.34908880244E+02  0.51100000000E-03 0.  1.
         12    1    3    3    0    0  0.24267292234E+02  0.26627848355E+02  0.27114061752E+02  0.45090088989E+02  0.00000000000E+00 0. -1.
</event>
<event>
 7    1  0.1910099E-015  0.9000774E+02  0.7816164E-02  0.1186339E+00
        -11   -1    0    0    0    0  0.00000000000E+00  0.00000000000E+00  0.45593999997E+02  0.45594000000E+02  0.51100000000E-03 0.  1.
         11   -1    0    0    0    0 -0.00000000000E+00 -0.00000000000E+00 -0.45593999997E+02  0.45594000000E+02  0.51100000000E-03 0. -1.
    9900012    2    1    2    0    0  0.30751488083E+00  0.10421242647E+01  0.46089971174E+00  0.90007738618E+02  0.89999999968E+02 0.  0.
        -12    1    1    2    0    0 -0.30751488083E+00 -0.10421242647E+01 -0.46089971174E+00  0.11802613818E+01  0.00000000000E+00 0.  1.
         11    1    3    3    0    0  0.13422294305E+01  0.11170217404E+02 -0.38476564682E+00  0.11257148021E+02  0.51100000000E-03 0. -1.
        -11    1    3    3    0    0  0.15979596019E+02  0.30424076637E+02  0.43246763158E+01  0.34636321307E+02  0.51100000000E-03 0.  1.
         12    1    3    3    0    0 -0.17014310569E+02 -0.40552169777E+02 -0.34790109572E+01  0.44114269290E+02  0.00000000000E+00 0. -1.
</event>
<event>
 7    1  0.1910099E-015  0.9000759E+02  0.7816164E-02  0.1186339E+00
        -11   -1    0    0    0    0  0.00000000000E+00  0.00000000000E+00  0.45593999997E+02  0.45594000000E+02  0.51100000000E-03 0. -1.
         11   -1    0    0    0    0 -0.00000000000E+00 -0.00000000000E+00 -0.45593999997E+02  0.45594000000E+02  0.51100000000E-03 0.  1.
    9900012    2    1    2    0    0 -0.10589947715E+01  0.25872577998E+00  0.45271121357E+00  0.90007594816E+02  0.89999854268E+02 0.  0.
        -12    1    1    2    0    0  0.10589947715E+01 -0.25872577998E+00 -0.45271121357E+00  0.11804051839E+01  0.00000000000E+00 0.  1.
         11    1    3    3    0    0 -0.57256454227E+01 -0.68745484788E+00 -0.90983025897E+01  0.10771941327E+02  0.51100000000E-03 0. -1.
        -11    1    3    3    0    0 -0.28824443413E+02 -0.10488718513E+02 -0.16929986195E+02  0.35035498954E+02  0.51100000000E-03 0.  1.
         12    1    3    3    0    0  0.33491094064E+02  0.11434899141E+02  0.26480999999E+02  0.44200154535E+02  0.00000000000E+00 0. -1.
</event>
<event>
 7    1  0.1910099E-015  0.9000778E+02  0.7816164E-02  0.1186339E+00
        -11   -1    0    0    0    0  0.00000000000E+00  0.00000000000E+00  0.45593999997E+02  0.45594000000E+02  0.51100000000E-03 0.  1.
         11   -1    0    0    0    0 -0.00000000000E+00 -0.00000000000E+00 -0.45593999997E+02  0.45594000000E+02  0.51100000000E-03 0. -1.
    9900012    2    1    2    0    0  0.41565881885E+00 -0.11014776279E+01 -0.83030156063E-01  0.90007780010E+02  0.90000041906E+02 0.  0.
        -12    1    1    2    0    0 -0.41565881885E+00  0.11014776279E+01  0.83030156063E-01  0.11802199902E+01  0.00000000000E+00 0.  1.
         11    1    3    3    0    0  0.39804971435E+02  0.50924682159E+01 -0.61562349994E+01  0.40598869604E+02  0.51100000000E-03 0. -1.
        -11    1    3    3    0    0 -0.40613596666E+01  0.91719229951E+01  0.40907317522E+01  0.10832954366E+02  0.51100000000E-03 0.  1.
        -12    1    3    3    0    0 -0.35327952950E+02 -0.15365868839E+02  0.19824730911E+01  0.38575956040E+02  0.00000000000E+00 0.  1.
</event>
<event>
 7    1  0.1910099E-015  0.9000776E+02  0.7816164E-02  0.1186339E+00
        -11   -1    0    0    0    0  0.00000000000E+00  0.00000000000E+00  0.45593999997E+02  0.45594000000E+02  0.51100000000E-03 0.  1.
         11   -1    0    0    0    0 -0.00000000000E+00 -0.00000000000E+00 -0.45593999997E+02  0.45594000000E+02  0.51100000000E-03 0. -1.
    9900012    2    1    2    0    0  0.65238966489E+00 -0.29572526079E+00 -0.93803285603E+00  0.90007757930E+02  0.90000019535E+02 0.  0.
        -12    1    1    2    0    0 -0.65238966489E+00  0.29572526079E+00  0.93803285603E+00  0.11802420700E+01  0.00000000000E+00 0.  1.
         11    1    3    3    0    0  0.82581807194E+01 -0.26407271453E+00  0.95540949225E+01  0.12631231660E+02  0.51100000000E-03 0. -1.
        -11    1    3    3    0    0 -0.23130927784E+02  0.24890104666E+02  0.16247429339E+02  0.37663458296E+02  0.51100000000E-03 0.  1.
         12    1    3    3    0    0  0.15525136730E+02 -0.24921757212E+02 -0.26739557118E+02  0.39713067974E+02  0.00000000000E+00 0. -1.
</event>
<event>
 7    1  0.1910099E-015  0.9000774E+02  0.7816164E-02  0.1186339E+00
        -11   -1    0    0    0    0  0.00000000000E+00  0.00000000000E+00  0.45593999997E+02  0.45594000000E+02  0.51100000000E-03 0.  1.
         11   -1    0    0    0    0 -0.00000000000E+00 -0.00000000000E+00 -0.45593999997E+02  0.45594000000E+02  0.51100000000E-03 0. -1.
    9900012    2    1    2    0    0  0.81705541875E+00 -0.80456298234E-01 -0.84791804666E+00  0.90007738255E+02  0.89999999600E+02 0.  0.
        -12    1    1    2    0    0 -0.81705541875E+00  0.80456298234E-01  0.84791804666E+00  0.11802617452E+01  0.00000000000E+00 0.  1.
         11    1    3    3    0    0 -0.15442828071E+02  0.47154746598E+01  0.11105359144E+02  0.19597082489E+02  0.51100000000E-03 0. -1.
        -11    1    3    3    0    0 -0.12196758039E+02 -0.13327271997E+02  0.19884089884E+02  0.26865481874E+02  0.51100000000E-03 0.  1.
         12    1    3    3    0    0  0.28456641529E+02  0.85313410393E+01 -0.31837367075E+02  0.43545173892E+02  0.00000000000E+00 0. -1.
</event>
<event>
 7    1  0.1910099E-015  0.9000851E+02  0.7816164E-02  0.1186338E+00
        -11   -1    0    0    0    0  0.00000000000E+00  0.00000000000E+00  0.45593999997E+02  0.45594000000E+02  0.51100000000E-03 0.  1.
         11   -1    0    0    0    0 -0.00000000000E+00 -0.00000000000E+00 -0.45593999997E+02  0.45594000000E+02  0.51100000000E-03 0. -1.
    9900012    2    1    2    0    0 -0.22238193166E+00  0.11533150437E+01 -0.10774200823E+00  0.90008509579E+02  0.90000781102E+02 0.  0.
        -12    1    1    2    0    0  0.22238193166E+00 -0.11533150437E+01  0.10774200823E+00  0.11794904213E+01  0.00000000000E+00 0.  1.
         11    1    3    3    0    0  0.53725991807E+01  0.39244223098E+01 -0.48495122467E+01  0.82330845808E+01  0.51100000000E-03 0. -1.
        -11    1    3    3    0    0 -0.14190730473E+02  0.37452107980E+02 -0.19754037740E+01  0.40099120237E+02  0.51100000000E-03 0.  1.
         12    1    3    3    0    0  0.85957493604E+01 -0.40223215246E+02  0.67171740125E+01  0.41676304761E+02  0.00000000000E+00 0. -1.
</event>
<event>
 7    1  0.1910099E-015  0.9000777E+02  0.7816164E-02  0.1186339E+00
        -11   -1    0    0    0    0  0.00000000000E+00  0.00000000000E+00  0.45593999997E+02  0.45594000000E+02  0.51100000000E-03 0. -1.
         11   -1    0    0    0    0 -0.00000000000E+00 -0.00000000000E+00 -0.45593999997E+02  0.45594000000E+02  0.51100000000E-03 0.  1.
    9900012    2    1    2    0    0  0.28604883340E+00 -0.11384144443E+01 -0.12304623014E+00  0.90007766228E+02  0.90000027942E+02 0.  0.
        -12    1    1    2    0    0 -0.28604883340E+00  0.11384144443E+01  0.12304623014E+00  0.11802337721E+01  0.00000000000E+00 0.  1.
         11    1    3    3    0    0 -0.26221538592E+01  0.87828032449E+01  0.29009779885E+01  0.96140000651E+01  0.51100000000E-03 0. -1.
        -11    1    3    3    0    0 -0.80767019863E+01  0.26544853909E+02  0.21495435246E+02  0.35098662663E+02  0.51100000000E-03 0.  1.
         12    1    3    3    0    0  0.10984904679E+02 -0.36466071598E+02 -0.24519459465E+02  0.45295103500E+02  0.00000000000E+00 0. -1.
</event>
<event>
 7    1  0.1910099E-015  0.9000773E+02  0.7816164E-02  0.1186339E+00
        -11   -1    0    0    0    0  0.00000000000E+00  0.00000000000E+00  0.45593999997E+02  0.45594000000E+02  0.51100000000E-03 0. -1.
         11   -1    0    0    0    0 -0.00000000000E+00 -0.00000000000E+00 -0.45593999997E+02  0.45594000000E+02  0.51100000000E-03 0.  1.
    9900012    2    1    2    0    0  0.40480853443E+00 -0.53767483543E-02  0.11086611929E+01  0.90007733717E+02  0.89999995002E+02 0.  0.
        -12    1    1    2    0    0 -0.40480853443E+00  0.53767483543E-02 -0.11086611929E+01  0.11802662834E+01  0.00000000000E+00 0.  1.
         11    1    3    3    0    0 -0.24331926438E+02  0.13282201221E+01 -0.11120723510E+02  0.26785766827E+02  0.51100000000E-03 0. -1.
        -11    1    3    3    0    0  0.58495451854E+01 -0.27089733259E+02 -0.29287572903E+01  0.27868413060E+02  0.51100000000E-03 0.  1.
        -12    1    3    3    0    0  0.18887189787E+02  0.25756136389E+02  0.15158141993E+02  0.35353553830E+02  0.00000000000E+00 0.  1.
</event>
<event>
 7    1  0.1910099E-015  0.9000781E+02  0.7816164E-02  0.1186339E+00
        -11   -1    0    0    0    0  0.00000000000E+00  0.00000000000E+00  0.45593999997E+02  0.45594000000E+02  0.51100000000E-03 0.  1.
         11   -1    0    0    0    0 -0.00000000000E+00 -0.00000000000E+00 -0.45593999997E+02  0.45594000000E+02  0.51100000000E-03 0. -1.
    9900012    2    1    2    0    0 -0.11525235966E+01 -0.37659969424E-03 -0.25402755388E+00  0.90007813243E+02  0.90000075578E+02 0.  0.
        -12    1    1    2    0    0  0.11525235966E+01  0.37659969424E-03  0.25402755388E+00  0.11801867567E+01  0.00000000000E+00 0.  1.
         11    1    3    3    0    0 -0.22838210344E+02  0.69264422930E+01 -0.19257276909E+02  0.30665977382E+02  0.51100000000E-03 0. -1.
        -11    1    3    3    0    0 -0.12148511841E+02  0.66586005797E+01 -0.60365201470E+01  0.15111680164E+02  0.51100000000E-03 0.  1.
        -12    1    3    3    0    0  0.33834198588E+02 -0.13585419472E+02  0.25039769502E+02  0.44230155698E+02  0.00000000000E+00 0.  1.
</event>
<event>
 7    1  0.1910099E-015  0.9000764E+02  0.7816164E-02  0.1186339E+00
        -11   -1    0    0    0    0  0.00000000000E+00  0.00000000000E+00  0.45593999997E+02  0.45594000000E+02  0.51100000000E-03 0.  1.
         11   -1    0    0    0    0 -0.00000000000E+00 -0.00000000000E+00 -0.45593999997E+02  0.45594000000E+02  0.51100000000E-03 0. -1.
    9900012    2    1    2    0    0  0.25540680639E+00 -0.21156411360E+00 -0.11328125714E+01  0.90007637203E+02  0.89999897214E+02 0.  0.
        -12    1    1    2    0    0 -0.25540680639E+00  0.21156411360E+00  0.11328125714E+01  0.11803627972E+01  0.00000000000E+00 0.  1.
         11    1    3    3    0    0 -0.57512546869E+01  0.32858113256E+02  0.20998940721E+02  0.39416849809E+02  0.51100000000E-03 0. -1.
        -11    1    3    3    0    0  0.13429550615E+01  0.49572433881E+01 -0.84901792408E+01  0.99227483142E+01  0.51100000000E-03 0.  1.
        -12    1    3    3    0    0  0.46637064318E+01 -0.38026920758E+02 -0.13641574051E+02  0.40668039080E+02  0.00000000000E+00 0.  1.
</event>
<event>
 7    1  0.1910099E-015  0.9000771E+02  0.7816164E-02  0.1186339E+00
        -11   -1    0    0    0    0  0.00000000000E+00  0.00000000000E+00  0.45593999997E+02  0.45594000000E+02  0.51100000000E-03 0.  1.
         11   -1    0    0    0    0 -0.00000000000E+00 -0.00000000000E+00 -0.45593999997E+02  0.45594000000E+02  0.51100000000E-03 0. -1.
    9900012    2    1    2    0    0 -0.67729603256E+00  0.95500000410E+00 -0.14946068130E+00  0.90007706215E+02  0.89999967137E+02 0.  0.
        -12    1    1    2    0    0  0.67729603256E+00 -0.95500000410E+00  0.14946068130E+00  0.11802937850E+01  0.00000000000E+00 0.  1.
         11    1    3    3    0    0 -0.62687799027E+01 -0.30117470920E+01  0.44534472019E+01  0.82584147544E+01  0.51100000000E-03 0. -1.
        -11    1    3    3    0    0 -0.77101111558E+01 -0.29032991171E+02 -0.26427182080E+02  0.40009453174E+02  0.51100000000E-03 0.  1.
         12    1    3    3    0    0  0.13301595026E+02  0.32999738268E+02  0.21824274196E+02  0.41739838286E+02  0.00000000000E+00 0. -1.
</event>
<event>
 7    1  0.1910099E-015  0.9000773E+02  0.7816164E-02  0.1186339E+00
        -11   -1    0    0    0    0  0.00000000000E+00  0.00000000000E+00  0.45593999997E+02  0.45594000000E+02  0.51100000000E-03 0. -1.
         11   -1    0    0    0    0 -0.00000000000E+00 -0.00000000000E+00 -0.45593999997E+02  0.45594000000E+02  0.51100000000E-03 0.  1.
    9900012    2    1    2    0    0  0.97450923332E+00 -0.52050551756E+00 -0.41526599525E+00  0.90007728808E+02  0.89999990028E+02 0.  0.
        -12    1    1    2    0    0 -0.97450923332E+00  0.52050551756E+00  0.41526599525E+00  0.11802711919E+01  0.00000000000E+00 0.  1.
         11    1    3    3    0    0  0.22702172698E+02  0.34060831707E+02 -0.92290107207E+01  0.41960738088E+02  0.51100000000E-03 0. -1.
        -11    1    3    3    0    0 -0.79896345130E+01  0.14753879773E+01 -0.11251642813E+01  0.82022572659E+01  0.51100000000E-03 0.  1.
        -12    1    3    3    0    0 -0.13738028951E+02 -0.36056725202E+02  0.99389090068E+01  0.39844733454E+02  0.00000000000E+00 0.  1.
</event>
<event>
 7    1  0.1910099E-015  0.9000767E+02  0.7816164E-02  0.1186339E+00
        -11   -1    0    0    0    0  0.00000000000E+00  0.00000000000E+00  0.45593999997E+02  0.45594000000E+02  0.51100000000E-03 0.  1.
         11   -1    0    0    0    0 -0.00000000000E+00 -0.00000000000E+00 -0.45593999997E+02  0.45594000000E+02  0.51100000000E-03 0. -1.
    9900012    2    1    2    0    0  0.90850978055E+00  0.73761935110E+00 -0.15397873092E+00  0.90007668785E+02  0.89999929213E+02 0.  0.
        -12    1    1    2    0    0 -0.90850978055E+00 -0.73761935110E+00  0.15397873092E+00  0.11803312154E+01  0.00000000000E+00 0.  1.
         11    1    3    3    0    0 -0.88734237568E+01 -0.32132977046E+01 -0.48739920633E+01  0.10621616176E+02  0.51100000000E-03 0. -1.
        -11    1    3    3    0    0  0.81687772143E+01  0.20787311349E+02 -0.31962050715E+02  0.38992485436E+02  0.51100000000E-03 0.  1.
         12    1    3    3    0    0  0.16131563231E+01 -0.16836394293E+02  0.36682064048E+02  0.40393567172E+02  0.00000000000E+00 0. -1.
</event>
<event>
 7    1  0.1910099E-015  0.9000767E+02  0.7816164E-02  0.1186339E+00
        -11   -1    0    0    0    0  0.00000000000E+00  0.00000000000E+00  0.45593999997E+02  0.45594000000E+02  0.51100000000E-03 0.  1.
         11   -1    0    0    0    0 -0.00000000000E+00 -0.00000000000E+00 -0.45593999997E+02  0.45594000000E+02  0.51100000000E-03 0. -1.
    9900012    2    1    2    0    0  0.33316158225E+00  0.73475451611E+00 -0.86158134413E+00  0.90007668160E+02  0.89999928580E+02 0.  0.
        -12    1    1    2    0    0 -0.33316158225E+00 -0.73475451611E+00  0.86158134413E+00  0.11803318395E+01  0.00000000000E+00 0.  1.
         11    1    3    3    0    0 -0.87787119783E+01  0.42235067035E+01  0.12672138768E+01  0.98239311959E+01  0.51100000000E-03 0. -1.
        -11    1    3    3    0    0 -0.33551355114E+02  0.10282860943E+02  0.20955719206E+01  0.35154261208E+02  0.51100000000E-03 0.  1.
         12    1    3    3    0    0  0.42663228674E+02 -0.13771613130E+02 -0.42243671415E+01  0.45029475756E+02  0.00000000000E+00 0. -1.
</event>
<event>
 7    1  0.1910099E-015  0.9000771E+02  0.7816164E-02  0.1186339E+00
        -11   -1    0    0    0    0  0.00000000000E+00  0.00000000000E+00  0.45593999997E+02  0.45594000000E+02  0.51100000000E-03 0.  1.
         11   -1    0    0    0    0 -0.00000000000E+00 -0.00000000000E+00 -0.45593999997E+02  0.45594000000E+02  0.51100000000E-03 0. -1.
    9900012    2    1    2    0    0 -0.63851509665E+00 -0.99223597252E+00  0.29236707077E-01  0.90007708282E+02  0.89999969232E+02 0.  0.
        -12    1    1    2    0    0  0.63851509665E+00  0.99223597252E+00 -0.29236707077E-01  0.11802917177E+01  0.00000000000E+00 0.  1.
         11    1    3    3    0    0  0.87646980826E+01 -0.31270487599E+02 -0.26108654859E+02  0.41669235486E+02  0.51100000000E-03 0. -1.
        -11    1    3    3    0    0 -0.10028098891E+01 -0.29434488289E+01  0.99791595655E+01  0.10452422905E+02  0.51100000000E-03 0.  1.
        -12    1    3    3    0    0 -0.84004032901E+01  0.33221700455E+02  0.16158732001E+02  0.37886049892E+02  0.00000000000E+00 0.  1.
</event>
<event>
 7    1  0.2347294E-015  0.9000775E+02  0.7816164E-02  0.1186339E+00
        -11   -1    0    0    0    0  0.00000000000E+00  0.00000000000E+00  0.45593999997E+02  0.45594000000E+02  0.51100000000E-03 0. -1.
         11   -1    0    0    0    0 -0.00000000000E+00 -0.00000000000E+00 -0.45593999997E+02  0.45594000000E+02  0.51100000000E-03 0.  1.
    9900012    2    1    2    0    0  0.22615110885E+00 -0.19810466806E+00  0.11413137494E+01  0.90007751358E+02  0.90000012875E+02 0.  0.
        -12    1    1    2    0    0 -0.22615110885E+00  0.19810466806E+00 -0.11413137494E+01  0.11802486425E+01  0.00000000000E+00 0.  1.
         11    1    3    3    0    0  0.91792034424E+01  0.16029575795E+01 -0.18007634363E+01  0.94905214848E+01  0.51100000000E-03 0. -1.
        -11    1    3    3    0    0  0.28991029036E+02  0.65852709581E+01 -0.19584275263E+02  0.35600412863E+02  0.51100000000E-03 0.  1.
         12    1    3    3    0    0 -0.37944081370E+02 -0.83863332057E+01  0.22526352449E+02  0.44916817010E+02  0.00000000000E+00 0. -1.
</event>
<event>
 7    1  0.1910099E-015  0.9000773E+02  0.7816164E-02  0.1186339E+00
        -11   -1    0    0    0    0  0.00000000000E+00  0.00000000000E+00  0.45593999997E+02  0.45594000000E+02  0.51100000000E-03 0.  1.
         11   -1    0    0    0    0 -0.00000000000E+00 -0.00000000000E+00 -0.45593999997E+02  0.45594000000E+02  0.51100000000E-03 0. -1.
    9900012    2    1    2    0    0 -0.10665032531E+01  0.35369059133E+00  0.36125034445E+00  0.90007733914E+02  0.89999995201E+02 0.  0.
        -12    1    1    2    0    0  0.10665032531E+01 -0.35369059133E+00 -0.36125034445E+00  0.11802660864E+01  0.00000000000E+00 0.  1.
         11    1    3    3    0    0  0.23925131895E+02 -0.21345977239E+02  0.73375347168E+01  0.32892280196E+02  0.51100000000E-03 0. -1.
        -11    1    3    3    0    0  0.74377704816E+01 -0.67557571429E+01  0.64391636773E+01  0.11934132287E+02  0.51100000000E-03 0.  1.
        -12    1    3    3    0    0 -0.32429405630E+02  0.28455424973E+02 -0.13415448050E+02  0.45181321431E+02  0.00000000000E+00 0.  1.
</event>
<event>
 7    1  0.1910099E-015  0.9000779E+02  0.7816164E-02  0.1186339E+00
        -11   -1    0    0    0    0  0.00000000000E+00  0.00000000000E+00  0.45593999997E+02  0.45594000000E+02  0.51100000000E-03 0. -1.
         11   -1    0    0    0    0 -0.00000000000E+00 -0.00000000000E+00 -0.45593999997E+02  0.45594000000E+02  0.51100000000E-03 0.  1.
    9900012    2    1    2    0    0  0.47292044971E+00 -0.10594047247E+01 -0.21658729070E+00  0.90007787232E+02  0.90000049224E+02 0.  0.
        -12    1    1    2    0    0 -0.47292044971E+00  0.10594047247E+01  0.21658729070E+00  0.11802127676E+01  0.00000000000E+00 0.  1.
         11    1    3    3    0    0 -0.37751515213E+02 -0.11239347815E+02 -0.48719156327E+01  0.39689235347E+02  0.51100000000E-03 0. -1.
        -11    1    3    3    0    0 -0.27311512997E+01  0.70997236865E+01  0.52504797791E+01  0.92429866396E+01  0.51100000000E-03 0.  1.
        -12    1    3    3    0    0  0.40955586963E+02  0.30802194042E+01 -0.59515143707E+00  0.41075565246E+02  0.00000000000E+00 0.  1.
</event>
<event>
 7    1  0.1910099E-015  0.9000773E+02  0.7816164E-02  0.1186339E+00
        -11   -1    0    0    0    0  0.00000000000E+00  0.00000000000E+00  0.45593999997E+02  0.45594000000E+02  0.51100000000E-03 0.  1.
         11   -1    0    0    0    0 -0.00000000000E+00 -0.00000000000E+00 -0.45593999997E+02  0.45594000000E+02  0.51100000000E-03 0. -1.
    9900012    2    1    2    0    0 -0.92512295710E+00 -0.38594991091E+00 -0.62307145931E+00  0.90007733986E+02  0.89999995275E+02 0.  0.
        -12    1    1    2    0    0  0.92512295710E+00  0.38594991091E+00  0.62307145931E+00  0.11802660136E+01  0.00000000000E+00 0.  1.
         11    1    3    3    0    0  0.20490051441E+02 -0.90224894317E+01 -0.16340897177E+02  0.27717727981E+02  0.51100000000E-03 0. -1.
        -11    1    3    3    0    0 -0.19196227178E+02 -0.25608383100E+01 -0.18155044257E+02  0.26545407569E+02  0.51100000000E-03 0.  1.
        -12    1    3    3    0    0 -0.22189472194E+01  0.11197377831E+02  0.33872869975E+02  0.35744598437E+02  0.00000000000E+00 0.  1.
</event>
<event>
 7    1  0.1910099E-015  0.9000770E+02  0.7816164E-02  0.1186339E+00
        -11   -1    0    0    0    0  0.00000000000E+00  0.00000000000E+00  0.45593999997E+02  0.45594000000E+02  0.51100000000E-03 0.  1.
         11   -1    0    0    0    0 -0.00000000000E+00 -0.00000000000E+00 -0.45593999997E+02  0.45594000000E+02  0.51100000000E-03 0. -1.
    9900012    2    1    2    0    0 -0.11889457047E+00 -0.10723408481E+01  0.47859833862E+00  0.90007700384E+02  0.89999961229E+02 0.  0.
        -12    1    1    2    0    0  0.11889457047E+00  0.10723408481E+01 -0.47859833862E+00  0.11802996159E+01  0.00000000000E+00 0.  1.
         11    1    3    3    0    0  0.26931926320E+01  0.20956954513E+02 -0.13174756126E+02  0.24900229482E+02  0.51100000000E-03 0. -1.
        -11    1    3    3    0    0  0.54740982972E+01 -0.12630276310E+01 -0.22174764771E+02  0.22875340082E+02  0.51100000000E-03 0.  1.
        -12    1    3    3    0    0 -0.82861854997E+01 -0.20766267731E+02  0.35828119236E+02  0.42232130820E+02  0.00000000000E+00 0.  1.
</event>
<event>
 7    1  0.2003181E-015  0.9000791E+02  0.7816164E-02  0.1186339E+00
        -11   -1    0    0    0    0  0.00000000000E+00  0.00000000000E+00  0.45593999997E+02  0.45594000000E+02  0.51100000000E-03 0. -1.
         11   -1    0    0    0    0 -0.00000000000E+00 -0.00000000000E+00 -0.45593999997E+02  0.45594000000E+02  0.51100000000E-03 0.  1.
    9900012    2    1    2    0    0 -0.29814065325E+00  0.10854804304E+01  0.35419096463E+00  0.90007912354E+02  0.90000175996E+02 0.  0.
        -12    1    1    2    0    0  0.29814065325E+00 -0.10854804304E+01 -0.35419096463E+00  0.11800876464E+01  0.00000000000E+00 0.  1.
         11    1    3    3    0    0  0.58360300054E+01 -0.26469296559E+01 -0.66661904913E+01  0.92468145193E+01  0.51100000000E-03 0. -1.
        -11    1    3    3    0    0  0.26132523066E+02  0.27893604371E+02 -0.53510779172E+01  0.38595284191E+02  0.51100000000E-03 0.  1.
         12    1    3    3    0    0 -0.32266693725E+02 -0.24161194285E+02  0.12371459373E+02  0.42165813644E+02  0.00000000000E+00 0. -1.
</event>
<event>
 7    1  0.1910099E-015  0.9000778E+02  0.7816164E-02  0.1186339E+00
        -11   -1    0    0    0    0  0.00000000000E+00  0.00000000000E+00  0.45593999997E+02  0.45594000000E+02  0.51100000000E-03 0.  1.
         11   -1    0    0    0    0 -0.00000000000E+00 -0.00000000000E+00 -0.45593999997E+02  0.45594000000E+02  0.51100000000E-03 0. -1.
    9900012    2    1    2    0    0 -0.92999598170E+00 -0.20124455980E-01 -0.72637493908E+00  0.90007780498E+02  0.90000042401E+02 0.  0.
        -12    1    1    2    0    0  0.92999598170E+00  0.20124455980E-01  0.72637493908E+00  0.11802195015E+01  0.00000000000E+00 0.  1.
         11    1    3    3    0    0  0.19612985971E+02  0.26253496101E+02  0.46909361590E+01  0.33104684843E+02  0.51100000000E-03 0. -1.
        -11    1    3    3    0    0  0.80577767389E+01  0.36909022853E+01  0.93907926326E+01  0.12912688031E+02  0.51100000000E-03 0.  1.
        -12    1    3    3    0    0 -0.28600758691E+02 -0.29964522843E+02 -0.14808103731E+02  0.43990407625E+02  0.00000000000E+00 0.  1.
</event>
<event>
 7    1  0.1910099E-015  0.9000829E+02  0.7816164E-02  0.1186338E+00
        -11   -1    0    0    0    0  0.00000000000E+00  0.00000000000E+00  0.45593999997E+02  0.45594000000E+02  0.51100000000E-03 0. -1.
         11   -1    0    0    0    0 -0.00000000000E+00 -0.00000000000E+00 -0.45593999997E+02  0.45594000000E+02  0.51100000000E-03 0.  1.
    9900012    2    1    2    0    0 -0.16368806943E-01 -0.11775605545E+01 -0.69285710027E-01  0.90008289312E+02  0.90000557929E+02 0.  0.
        -12    1    1    2    0    0  0.16368806943E-01  0.11775605545E+01  0.69285710027E-01  0.11797106879E+01  0.00000000000E+00 0.  1.
         11    1    3    3    0    0  0.12915505622E+02  0.13268674911E+02  0.32669269954E+02  0.37551953597E+02  0.51100000000E-03 0. -1.
        -11    1    3    3    0    0  0.23557625207E+01 -0.11249405203E+01  0.72035011415E+01  0.76619538752E+01  0.51100000000E-03 0.  1.
        -12    1    3    3    0    0 -0.15287636950E+02 -0.13321294945E+02 -0.39942056806E+02  0.44794381840E+02  0.00000000000E+00 0.  1.
</event>
<event>
 7    1  0.1910099E-015  0.9000768E+02  0.7816164E-02  0.1186339E+00
        -11   -1    0    0    0    0  0.00000000000E+00  0.00000000000E+00  0.45593999997E+02  0.45594000000E+02  0.51100000000E-03 0. -1.
         11   -1    0    0    0    0 -0.00000000000E+00 -0.00000000000E+00 -0.45593999997E+02  0.45594000000E+02  0.51100000000E-03 0.  1.
    9900012    2    1    2    0    0 -0.74114850330E+00 -0.62520179391E+00  0.67304350209E+00  0.90007675493E+02  0.89999936009E+02 0.  0.
        -12    1    1    2    0    0  0.74114850330E+00  0.62520179391E+00 -0.67304350209E+00  0.11803245074E+01  0.00000000000E+00 0.  1.
         11    1    3    3    0    0 -0.11671751204E+01 -0.58707521663E+01 -0.55324099690E+01  0.81508029719E+01  0.51100000000E-03 0. -1.
        -11    1    3    3    0    0  0.20226499901E+02  0.11301314269E+01 -0.32436418042E+02  0.38242773317E+02  0.51100000000E-03 0.  1.
         12    1    3    3    0    0 -0.19800473284E+02  0.41154189455E+01  0.38641871513E+02  0.43614099204E+02  0.00000000000E+00 0. -1.
</event>
<event>
 7    1  0.1910099E-015  0.9000784E+02  0.7816164E-02  0.1186339E+00
        -11   -1    0    0    0    0  0.00000000000E+00  0.00000000000E+00  0.45593999997E+02  0.45594000000E+02  0.51100000000E-03 0.  1.
         11   -1    0    0    0    0 -0.00000000000E+00 -0.00000000000E+00 -0.45593999997E+02  0.45594000000E+02  0.51100000000E-03 0. -1.
    9900012    2    1    2    0    0 -0.75508078255E+00 -0.86439760346E+00 -0.27466539273E+00  0.90007842687E+02  0.90000105411E+02 0.  0.
        -12    1    1    2    0    0  0.75508078255E+00  0.86439760346E+00  0.27466539273E+00  0.11801573128E+01  0.00000000000E+00 0.  1.
         11    1    3    3    0    0  0.33725342003E+02  0.45932623608E+01 -0.13678530182E+02  0.36682406417E+02  0.51100000000E-03 0. -1.
        -11    1    3    3    0    0  0.77461647296E+01 -0.23479368829E+01 -0.18813634120E+01  0.83099581330E+01  0.51100000000E-03 0.  1.
        -12    1    3    3    0    0 -0.42226587515E+02 -0.31097230814E+01  0.15285228201E+02  0.45015478138E+02  0.00000000000E+00 0.  1.
</event>
<event>
 7    1  0.1910099E-015  0.9000777E+02  0.7816164E-02  0.1186339E+00
        -11   -1    0    0    0    0  0.00000000000E+00  0.00000000000E+00  0.45593999997E+02  0.45594000000E+02  0.51100000000E-03 0. -1.
         11   -1    0    0    0    0 -0.00000000000E+00 -0.00000000000E+00 -0.45593999997E+02  0.45594000000E+02  0.51100000000E-03 0.  1.
    9900012    2    1    2    0    0  0.11405303640E+01 -0.30340142461E+00  0.85642935915E-02  0.90007773207E+02  0.90000035013E+02 0.  0.
        -12    1    1    2    0    0 -0.11405303640E+01  0.30340142461E+00 -0.85642935915E-02  0.11802267929E+01  0.00000000000E+00 0.  1.
         11    1    3    3    0    0 -0.22038316352E+02 -0.95553144912E+01  0.30268644969E+02  0.38641716980E+02  0.51100000000E-03 0. -1.
        -11    1    3    3    0    0 -0.79698933574E+01 -0.22828741270E+01 -0.59625548222E+01  0.10211893785E+02  0.51100000000E-03 0.  1.
        -12    1    3    3    0    0  0.31148740073E+02  0.11534787194E+02 -0.24297525853E+02  0.41154162442E+02  0.00000000000E+00 0.  1.
</event>
<event>
 7    1  0.1910099E-015  0.9000776E+02  0.7816164E-02  0.1186339E+00
        -11   -1    0    0    0    0  0.00000000000E+00  0.00000000000E+00  0.45593999997E+02  0.45594000000E+02  0.51100000000E-03 0.  1.
         11   -1    0    0    0    0 -0.00000000000E+00 -0.00000000000E+00 -0.45593999997E+02  0.45594000000E+02  0.51100000000E-03 0. -1.
    9900012    2    1    2    0    0 -0.67905291009E+00  0.42966497821E+00 -0.86443474024E+00  0.90007757538E+02  0.90000019138E+02 0.  0.
        -12    1    1    2    0    0  0.67905291009E+00 -0.42966497821E+00  0.86443474024E+00  0.11802424617E+01  0.00000000000E+00 0.  1.
         11    1    3    3    0    0  0.14676593683E+02 -0.33815663880E+02 -0.10785354823E+02  0.38408663147E+02  0.51100000000E-03 0. -1.
        -11    1    3    3    0    0 -0.55362707016E+01 -0.58319491834E+01  0.62288827247E+01  0.10171573370E+02  0.51100000000E-03 0.  1.
        -12    1    3    3    0    0 -0.98193758920E+01  0.40077278042E+02  0.36920373577E+01  0.41427521022E+02  0.00000000000E+00 0.  1.
</event>
<event>
 7    1  0.1910099E-015  0.9000772E+02  0.7816164E-02  0.1186339E+00
        -11   -1    0    0    0    0  0.00000000000E+00  0.00000000000E+00  0.45593999997E+02  0.45594000000E+02  0.51100000000E-03 0.  1.
         11   -1    0    0    0    0 -0.00000000000E+00 -0.00000000000E+00 -0.45593999997E+02  0.45594000000E+02  0.51100000000E-03 0. -1.
    9900012    2    1    2    0    0  0.41654926892E+00  0.65460849611E+00  0.88940265805E+00  0.90007719243E+02  0.89999980337E+02 0.  0.
        -12    1    1    2    0    0 -0.41654926892E+00 -0.65460849611E+00 -0.88940265805E+00  0.11802807568E+01  0.00000000000E+00 0.  1.
         11    1    3    3    0    0 -0.96692539058E+01 -0.20730625588E+02  0.19991564712E+02  0.30379532061E+02  0.51100000000E-03 0. -1.
        -11    1    3    3    0    0 -0.10351819025E+02  0.14375006052E+02  0.12260404913E+02  0.21543409317E+02  0.51100000000E-03 0.  1.
        -12    1    3    3    0    0  0.20437622199E+02  0.70102280319E+01 -0.31362566967E+02  0.38084777865E+02  0.00000000000E+00 0.  1.
</event>
<event>
 7    1  0.1910099E-015  0.9000829E+02  0.7816164E-02  0.1186338E+00
        -11   -1    0    0    0    0  0.00000000000E+00  0.00000000000E+00  0.45593999997E+02  0.45594000000E+02  0.51100000000E-03 0. -1.
         11   -1    0    0    0    0 -0.00000000000E+00 -0.00000000000E+00 -0.45593999997E+02  0.45594000000E+02  0.51100000000E-03 0.  1.
    9900012    2    1    2    0    0  0.36616406961E+00  0.10297520261E+01 -0.44412315249E+00  0.90008292097E+02  0.90000560751E+02 0.  0.
        -12    1    1    2    0    0 -0.36616406961E+00 -0.10297520261E+01  0.44412315249E+00  0.11797079027E+01  0.00000000000E+00 0.  1.
         11    1    3    3    0    0 -0.17542227350E+01 -0.44525790154E+00 -0.89035945392E+01  0.90856781796E+01  0.51100000000E-03 0. -1.
        -11    1    3    3    0    0 -0.18012437972E+02  0.86004381605E+01 -0.30524900526E+02  0.36471701504E+02  0.51100000000E-03 0.  1.
         12    1    3    3    0    0  0.20132824776E+02 -0.71254282329E+01  0.38984371913E+02  0.44450912414E+02  0.00000000000E+00 0. -1.
</event>
<event>
 7    1  0.1910099E-015  0.9000775E+02  0.7816164E-02  0.1186339E+00
        -11   -1    0    0    0    0  0.00000000000E+00  0.00000000000E+00  0.45593999997E+02  0.45594000000E+02  0.51100000000E-03 0.  1.
         11   -1    0    0    0    0 -0.00000000000E+00 -0.00000000000E+00 -0.45593999997E+02  0.45594000000E+02  0.51100000000E-03 0. -1.
    9900012    2    1    2    0    0  0.11313387894E+01  0.89742343819E-01 -0.32406033482E+00  0.90007747381E+02  0.90000008846E+02 0.  0.
        -12    1    1    2    0    0 -0.11313387894E+01 -0.89742343819E-01  0.32406033482E+00  0.11802526192E+01  0.00000000000E+00 0.  1.
         11    1    3    3    0    0  0.11450362856E+02 -0.21967110126E+01 -0.35302004809E+01  0.12181899052E+02  0.51100000000E-03 0. -1.
        -11    1    3    3    0    0  0.15183889810E+01 -0.48864845783E+01  0.39059676951E+02  0.39393420775E+02  0.51100000000E-03 0.  1.
         12    1    3    3    0    0 -0.11837413048E+02  0.71729379347E+01 -0.35853536805E+02  0.38432427554E+02  0.00000000000E+00 0. -1.
</event>
<event>
 7    1  0.1910099E-015  0.9000777E+02  0.7816164E-02  0.1186339E+00
        -11   -1    0    0    0    0  0.00000000000E+00  0.00000000000E+00  0.45593999997E+02  0.45594000000E+02  0.51100000000E-03 0. -1.
         11   -1    0    0    0    0 -0.00000000000E+00 -0.00000000000E+00 -0.45593999997E+02  0.45594000000E+02  0.51100000000E-03 0.  1.
    9900012    2    1    2    0    0  0.40693389521E+00 -0.10291448160E+01  0.41013523766E+00  0.90007769022E+02  0.90000030773E+02 0.  0.
        -12    1    1    2    0    0 -0.40693389521E+00  0.10291448160E+01 -0.41013523766E+00  0.11802309776E+01  0.00000000000E+00 0.  1.
         11    1    3    3    0    0  0.30765213586E+02  0.19782954590E+02 -0.28641702764E+01  0.36688787537E+02  0.51100000000E-03 0. -1.
        -11    1    3    3    0    0  0.84116393218E+01 -0.52960426174E+00 -0.33420509521E+01  0.90667227586E+01  0.51100000000E-03 0.  1.
        -12    1    3    3    0    0 -0.38769919013E+02 -0.20282495144E+02  0.66163564661E+01  0.44252258727E+02  0.00000000000E+00 0.  1.
</event>
<event>
 7    1  0.1910099E-015  0.9000770E+02  0.7816164E-02  0.1186339E+00
        -11   -1    0    0    0    0  0.00000000000E+00  0.00000000000E+00  0.45593999997E+02  0.45594000000E+02  0.51100000000E-03 0.  1.
         11   -1    0    0    0    0 -0.00000000000E+00 -0.00000000000E+00 -0.45593999997E+02  0.45594000000E+02  0.51100000000E-03 0. -1.
    9900012    2    1    2    0    0  0.11537699480E+01  0.66741693392E-01  0.23974096805E+00  0.90007696955E+02  0.89999957755E+02 0.  0.
        -12    1    1    2    0    0 -0.11537699480E+01 -0.66741693392E-01 -0.23974096805E+00  0.11803030451E+01  0.00000000000E+00 0.  1.
         11    1    3    3    0    0 -0.10258190822E+02 -0.32554634085E+02 -0.11048272271E+02  0.35876161999E+02  0.51100000000E-03 0. -1.
        -11    1    3    3    0    0 -0.86040412795E+01 -0.44545022897E+01 -0.21156604281E+01  0.99170628865E+01  0.51100000000E-03 0.  1.
        -12    1    3    3    0    0  0.20016002050E+02  0.37075878068E+02  0.13403673667E+02  0.44214472069E+02  0.00000000000E+00 0.  1.
</event>
<event>
 7    1  0.1910099E-015  0.9000810E+02  0.7816164E-02  0.1186338E+00
        -11   -1    0    0    0    0  0.00000000000E+00  0.00000000000E+00  0.45593999997E+02  0.45594000000E+02  0.51100000000E-03 0.  1.
         11   -1    0    0    0    0 -0.00000000000E+00 -0.00000000000E+00 -0.45593999997E+02  0.45594000000E+02  0.51100000000E-03 0. -1.
    9900012    2    1    2    0    0 -0.31328943073E+00  0.37095899926E+00 -0.10753581334E+01  0.90008103411E+02  0.90000369575E+02 0.  0.
        -12    1    1    2    0    0  0.31328943073E+00 -0.37095899926E+00  0.10753581334E+01  0.11798965893E+01  0.00000000000E+00 0.  1.
         11    1    3    3    0    0 -0.80663629959E+01 -0.24441033806E+02 -0.32731557200E+02  0.41638746168E+02  0.51100000000E-03 0. -1.
        -11    1    3    3    0    0  0.34280714872E+01 -0.31495708799E+01 -0.13966088193E+01  0.48602456013E+01  0.51100000000E-03 0.  1.
        -12    1    3    3    0    0  0.43250020780E+01  0.27961563685E+02  0.33052807886E+02  0.43509111641E+02  0.00000000000E+00 0.  1.
</event>
<event>
 7    1  0.1910099E-015  0.9000771E+02  0.7816164E-02  0.1186339E+00
        -11   -1    0    0    0    0  0.00000000000E+00  0.00000000000E+00  0.45593999997E+02  0.45594000000E+02  0.51100000000E-03 0.  1.
         11   -1    0    0    0    0 -0.00000000000E+00 -0.00000000000E+00 -0.45593999997E+02  0.45594000000E+02  0.51100000000E-03 0. -1.
    9900012    2    1    2    0    0 -0.68866516504E+00 -0.63458372390E+00 -0.71842746889E+00  0.90007705867E+02  0.89999966785E+02 0.  0.
        -12    1    1    2    0    0  0.68866516504E+00  0.63458372390E+00  0.71842746889E+00  0.11802941329E+01  0.00000000000E+00 0.  1.
         11    1    3    3    0    0 -0.29288193004E+02  0.83877956683E+01  0.24892284449E+02  0.39341824957E+02  0.51100000000E-03 0. -1.
        -11    1    3    3    0    0  0.63565205828E+01  0.64803849195E-01  0.74516759025E+01  0.97947448908E+01  0.51100000000E-03 0.  1.
        -12    1    3    3    0    0  0.22243007256E+02 -0.90871832414E+01 -0.33062387821E+02  0.40871136019E+02  0.00000000000E+00 0.  1.
</event>
<event>
 7    1  0.1910099E-015  0.9000777E+02  0.7816164E-02  0.1186339E+00
        -11   -1    0    0    0    0  0.00000000000E+00  0.00000000000E+00  0.45593999997E+02  0.45594000000E+02  0.51100000000E-03 0. -1.
         11   -1    0    0    0    0 -0.00000000000E+00 -0.00000000000E+00 -0.45593999997E+02  0.45594000000E+02  0.51100000000E-03 0.  1.
    9900012    2    1    2    0    0 -0.75017557537E+00 -0.39784541921E+00  0.81969113870E+00  0.90007772084E+02  0.90000033875E+02 0.  0.
        -12    1    1    2    0    0  0.75017557537E+00  0.39784541921E+00 -0.81969113870E+00  0.11802279163E+01  0.00000000000E+00 0.  1.
         11    1    3    3    0    0  0.21981597627E-01 -0.75703471626E+01  0.57589734728E+01  0.95119091183E+01  0.51100000000E-03 0. -1.
        -11    1    3    3    0    0 -0.40362609611E+02  0.27536051289E+01 -0.10485156674E+01  0.40470013358E+02  0.51100000000E-03 0.  1.
         12    1    3    3    0    0  0.39590452438E+02  0.44188966145E+01 -0.38907666668E+01  0.40025849607E+02  0.00000000000E+00 0. -1.
</event>
<event>
 7    1  0.1910099E-015  0.9000774E+02  0.7816164E-02  0.1186339E+00
        -11   -1    0    0    0    0  0.00000000000E+00  0.00000000000E+00  0.45593999997E+02  0.45594000000E+02  0.51100000000E-03 0.  1.
         11   -1    0    0    0    0 -0.00000000000E+00 -0.00000000000E+00 -0.45593999997E+02  0.45594000000E+02  0.51100000000E-03 0. -1.
    9900012    2    1    2    0    0 -0.40357129614E+00  0.39387040463E+00 -0.10368308091E+01  0.90007736549E+02  0.89999997872E+02 0.  0.
        -12    1    1    2    0    0  0.40357129614E+00 -0.39387040463E+00  0.10368308091E+01  0.11802634509E+01  0.00000000000E+00 0.  1.
         11    1    3    3    0    0 -0.17507783930E+02  0.22777632905E+02  0.29522881294E+02  0.41193975034E+02  0.51100000000E-03 0. -1.
        -11    1    3    3    0    0 -0.67634837928E+01 -0.51486626298E+01 -0.52575809628E+01  0.99947785235E+01  0.51100000000E-03 0.  1.
        -12    1    3    3    0    0  0.23867696427E+02 -0.17235099871E+02 -0.25302131140E+02  0.38818982992E+02  0.00000000000E+00 0.  1.
</event>
<event>
 7    1  0.1910099E-015  0.9000775E+02  0.7816164E-02  0.1186339E+00
        -11   -1    0    0    0    0  0.00000000000E+00  0.00000000000E+00  0.45593999997E+02  0.45594000000E+02  0.51100000000E-03 0.  1.
         11   -1    0    0    0    0 -0.00000000000E+00 -0.00000000000E+00 -0.45593999997E+02  0.45594000000E+02  0.51100000000E-03 0. -1.
    9900012    2    1    2    0    0 -0.56345237050E+00 -0.96567734849E+00 -0.37814083981E+00  0.90007745023E+02  0.90000006458E+02 0.  0.
        -12    1    1    2    0    0  0.56345237050E+00  0.96567734849E+00  0.37814083981E+00  0.11802549767E+01  0.00000000000E+00 0.  1.
         11    1    3    3    0    0  0.12763234907E+02  0.43148271173E+01  0.11672793105E+02  0.17826160481E+02  0.51100000000E-03 0. -1.
        -11    1    3    3    0    0  0.16905570914E+02 -0.27401018761E+02  0.17886252731E+01  0.32246136787E+02  0.51100000000E-03 0.  1.
        -12    1    3    3    0    0 -0.30232258192E+02  0.22120514295E+02 -0.13839559218E+02  0.39935447755E+02  0.00000000000E+00 0.  1.
</event>
<event>
 7    1  0.1910099E-015  0.9000775E+02  0.7816164E-02  0.1186339E+00
        -11   -1    0    0    0    0  0.00000000000E+00  0.00000000000E+00  0.45593999997E+02  0.45594000000E+02  0.51100000000E-03 0. -1.
         11   -1    0    0    0    0 -0.00000000000E+00 -0.00000000000E+00 -0.45593999997E+02  0.45594000000E+02  0.51100000000E-03 0.  1.
    9900012    2    1    2    0    0 -0.10081381863E+01  0.42704104356E+00 -0.44077827129E+00  0.90007749120E+02  0.90000010608E+02 0.  0.
        -12    1    1    2    0    0  0.10081381863E+01 -0.42704104356E+00  0.44077827129E+00  0.11802508801E+01  0.00000000000E+00 0.  1.
         11    1    3    3    0    0  0.27213111360E+01 -0.32254404044E+02  0.74100195357E+01  0.33206332293E+02  0.51100000000E-03 0. -1.
        -11    1    3    3    0    0 -0.16453617900E+02 -0.19866426814E+01  0.56075767274E+01  0.17496091225E+02  0.51100000000E-03 0.  1.
        -12    1    3    3    0    0  0.12724168578E+02  0.34668087769E+02 -0.13458374534E+02  0.39305325602E+02  0.00000000000E+00 0.  1.
</event>
<event>
 7    1  0.1910099E-015  0.9000770E+02  0.7816164E-02  0.1186339E+00
        -11   -1    0    0    0    0  0.00000000000E+00  0.00000000000E+00  0.45593999997E+02  0.45594000000E+02  0.51100000000E-03 0. -1.
         11   -1    0    0    0    0 -0.00000000000E+00 -0.00000000000E+00 -0.45593999997E+02  0.45594000000E+02  0.51100000000E-03 0.  1.
    9900012    2    1    2    0    0 -0.91970115887E-01  0.89155537686E+00  0.76796281432E+00  0.90007704962E+02  0.89999965868E+02 0.  0.
        -12    1    1    2    0    0  0.91970115887E-01 -0.89155537686E+00 -0.76796281432E+00  0.11802950379E+01  0.00000000000E+00 0.  1.
         11    1    3    3    0    0 -0.17226913516E+02  0.24128191081E+01  0.12327586984E+02  0.21320357559E+02  0.51100000000E-03 0. -1.
        -11    1    3    3    0    0 -0.38513595384E+01  0.28163834706E+02  0.47884978871E+01  0.28826450838E+02  0.51100000000E-03 0.  1.
         12    1    3    3    0    0  0.20986302938E+02 -0.29685098437E+02 -0.16348122057E+02  0.39860896566E+02  0.00000000000E+00 0. -1.
</event>
<event>
 7    1  0.1910099E-015  0.9000773E+02  0.7816164E-02  0.1186339E+00
        -11   -1    0    0    0    0  0.00000000000E+00  0.00000000000E+00  0.45593999997E+02  0.45594000000E+02  0.51100000000E-03 0. -1.
         11   -1    0    0    0    0 -0.00000000000E+00 -0.00000000000E+00 -0.45593999997E+02  0.45594000000E+02  0.51100000000E-03 0.  1.
    9900012    2    1    2    0    0 -0.17661755203E+00  0.65029334707E+00  0.96900380943E+00  0.90007727328E+02  0.89999988529E+02 0.  0.
        -12    1    1    2    0    0  0.17661755203E+00 -0.65029334707E+00 -0.96900380943E+00  0.11802726717E+01  0.00000000000E+00 0.  1.
         11    1    3    3    0    0 -0.64437032324E+01  0.31995998495E+01  0.80492873974E+01  0.10795822267E+02  0.51100000000E-03 0. -1.
        -11    1    3    3    0    0  0.37387485775E+02  0.24667316647E+01  0.15384211754E+02  0.40504108794E+02  0.51100000000E-03 0.  1.
         12    1    3    3    0    0 -0.31120400094E+02 -0.50160381672E+01 -0.22464495342E+02  0.38707796268E+02  0.00000000000E+00 0. -1.
</event>
<event>
 7    1  0.1910099E-015  0.9000745E+02  0.7816164E-02  0.1186340E+00
        -11   -1    0    0    0    0  0.00000000000E+00  0.00000000000E+00  0.45593999997E+02  0.45594000000E+02  0.51100000000E-03 0.  1.
         11   -1    0    0    0    0 -0.00000000000E+00 -0.00000000000E+00 -0.45593999997E+02  0.45594000000E+02  0.51100000000E-03 0. -1.
    9900012    2    1    2    0    0  0.10268541883E+01 -0.31571958752E+00 -0.48947346492E+00  0.90007452392E+02  0.89999709963E+02 0.  0.
        -12    1    1    2    0    0 -0.10268541883E+01  0.31571958752E+00  0.48947346492E+00  0.11805476080E+01  0.00000000000E+00 0.  1.
         11    1    3    3    0    0 -0.35931323044E+02  0.16278978469E+02  0.31241326412E+01  0.39570510746E+02  0.51100000000E-03 0. -1.
        -11    1    3    3    0    0 -0.31132939544E+01 -0.88644045716E+01 -0.19332544204E+01  0.95920665433E+01  0.51100000000E-03 0.  1.
        -12    1    3    3    0    0  0.40071471186E+02 -0.77302934846E+01 -0.16803516857E+01  0.40844875103E+02  0.00000000000E+00 0.  1.
</event>
<event>
 7    1  0.1910099E-015  0.9000776E+02  0.7816164E-02  0.1186339E+00
        -11   -1    0    0    0    0  0.00000000000E+00  0.00000000000E+00  0.45593999997E+02  0.45594000000E+02  0.51100000000E-03 0. -1.
         11   -1    0    0    0    0 -0.00000000000E+00 -0.00000000000E+00 -0.45593999997E+02  0.45594000000E+02  0.51100000000E-03 0.  1.
    9900012    2    1    2    0    0  0.10306291944E+01  0.30676710843E+00 -0.48647995546E+00  0.90007760473E+02  0.90000022111E+02 0.  0.
        -12    1    1    2    0    0 -0.10306291944E+01 -0.30676710843E+00  0.48647995546E+00  0.11802395274E+01  0.00000000000E+00 0.  1.
         11    1    3    3    0    0 -0.17037238772E+02  0.34122385739E+01  0.33327933510E+02  0.37585396491E+02  0.51100000000E-03 0. -1.
        -11    1    3    3    0    0 -0.60217212507E+01  0.87081341056E+01 -0.19482148521E+01  0.10765141327E+02  0.51100000000E-03 0.  1.
        -12    1    3    3    0    0  0.24089589217E+02 -0.11813605571E+02 -0.31866198614E+02  0.41657222655E+02  0.00000000000E+00 0.  1.
</event>
<event>
 7    1  0.1910099E-015  0.9000779E+02  0.7816164E-02  0.1186339E+00
        -11   -1    0    0    0    0  0.00000000000E+00  0.00000000000E+00  0.45593999997E+02  0.45594000000E+02  0.51100000000E-03 0. -1.
         11   -1    0    0    0    0 -0.00000000000E+00 -0.00000000000E+00 -0.45593999997E+02  0.45594000000E+02  0.51100000000E-03 0.  1.
    9900012    2    1    2    0    0 -0.90494571862E+00  0.57945917846E+00  0.48805633546E+00  0.90007788714E+02  0.90000050725E+02 0.  0.
        -12    1    1    2    0    0  0.90494571862E+00 -0.57945917846E+00 -0.48805633546E+00  0.11802112861E+01  0.00000000000E+00 0.  1.
         11    1    3    3    0    0  0.16901171113E+02  0.37183947472E+02  0.58251443329E+01  0.41258063956E+02  0.51100000000E-03 0. -1.
        -11    1    3    3    0    0  0.61254448695E+01 -0.81232669754E+01  0.30380224304E+01  0.10617820951E+02  0.51100000000E-03 0.  1.
        -12    1    3    3    0    0 -0.23931561701E+02 -0.28481221319E+02 -0.83751104279E+01  0.38131903807E+02  0.00000000000E+00 0.  1.
</event>
<event>
 7    1  0.1910099E-015  0.9000761E+02  0.7816164E-02  0.1186339E+00
        -11   -1    0    0    0    0  0.00000000000E+00  0.00000000000E+00  0.45593999997E+02  0.45594000000E+02  0.51100000000E-03 0. -1.
         11   -1    0    0    0    0 -0.00000000000E+00 -0.00000000000E+00 -0.45593999997E+02  0.45594000000E+02  0.51100000000E-03 0.  1.
    9900012    2    1    2    0    0  0.39612092701E+00 -0.23621274223E+00  0.10865570272E+01  0.90007612597E+02  0.89999872283E+02 0.  0.
        -12    1    1    2    0    0 -0.39612092701E+00  0.23621274223E+00 -0.10865570272E+01  0.11803874033E+01  0.00000000000E+00 0.  1.
         11    1    3    3    0    0  0.37930700810E+01  0.41281487946E+00 -0.30684612081E+01  0.48962486876E+01  0.51100000000E-03 0. -1.
        -11    1    3    3    0    0  0.83347426857E+01 -0.60262571796E+01 -0.38862121189E+02  0.40200101676E+02  0.51100000000E-03 0.  1.
         12    1    3    3    0    0 -0.11731691840E+02  0.53772295579E+01  0.43017139424E+02  0.44911262233E+02  0.00000000000E+00 0. -1.
</event>
<event>
 7    1  0.1910099E-015  0.9000781E+02  0.7816164E-02  0.1186339E+00
        -11   -1    0    0    0    0  0.00000000000E+00  0.00000000000E+00  0.45593999997E+02  0.45594000000E+02  0.51100000000E-03 0.  1.
         11   -1    0    0    0    0 -0.00000000000E+00 -0.00000000000E+00 -0.45593999997E+02  0.45594000000E+02  0.51100000000E-03 0. -1.
    9900012    2    1    2    0    0  0.23247001724E+00  0.15112585852E+00 -0.11471567724E+01  0.90007809340E+02  0.90000071623E+02 0.  0.
        -12    1    1    2    0    0 -0.23247001724E+00 -0.15112585852E+00  0.11471567724E+01  0.11801906602E+01  0.00000000000E+00 0.  1.
         11    1    3    3    0    0  0.41992147344E+01  0.41553680219E+01 -0.14766305832E+02  0.15904221954E+02  0.51100000000E-03 0. -1.
        -11    1    3    3    0    0  0.26767734409E+02  0.35616240368E+00 -0.16008762726E+02  0.31191648583E+02  0.51100000000E-03 0.  1.
         12    1    3    3    0    0 -0.30734479126E+02 -0.43604045670E+01  0.29627911785E+02  0.42911938803E+02  0.00000000000E+00 0. -1.
</event>
<event>
 7    1  0.1910099E-015  0.9000774E+02  0.7816164E-02  0.1186339E+00
        -11   -1    0    0    0    0  0.00000000000E+00  0.00000000000E+00  0.45593999997E+02  0.45594000000E+02  0.51100000000E-03 0. -1.
         11   -1    0    0    0    0 -0.00000000000E+00 -0.00000000000E+00 -0.45593999997E+02  0.45594000000E+02  0.51100000000E-03 0.  1.
    9900012    2    1    2    0    0 -0.10049130408E+01 -0.27256252454E+00  0.55577288789E+00  0.90007735601E+02  0.89999996911E+02 0.  0.
        -12    1    1    2    0    0  0.10049130408E+01  0.27256252454E+00 -0.55577288789E+00  0.11802643993E+01  0.00000000000E+00 0.  1.
         11    1    3    3    0    0 -0.30533082543E+01  0.12109024194E+02  0.68548781569E+01  0.14245719113E+02  0.51100000000E-03 0. -1.
        -11    1    3    3    0    0  0.33708984312E+02  0.11741180463E+02 -0.31888433493E+01  0.35837405936E+02  0.51100000000E-03 0.  1.
         12    1    3    3    0    0 -0.31660589099E+02 -0.24122767181E+02 -0.31102619197E+01  0.39924610553E+02  0.00000000000E+00 0. -1.
</event>
<event>
 7    1  0.1910099E-015  0.9000836E+02  0.7816164E-02  0.1186338E+00
        -11   -1    0    0    0    0  0.00000000000E+00  0.00000000000E+00  0.45593999997E+02  0.45594000000E+02  0.51100000000E-03 0.  1.
         11   -1    0    0    0    0 -0.00000000000E+00 -0.00000000000E+00 -0.45593999997E+02  0.45594000000E+02  0.51100000000E-03 0. -1.
    9900012    2    1    2    0    0  0.84085790593E+00 -0.10682044504E+00 -0.82042135539E+00  0.90008362841E+02  0.90000632429E+02 0.  0.
        -12    1    1    2    0    0 -0.84085790593E+00  0.10682044504E+00  0.82042135539E+00  0.11796371586E+01  0.00000000000E+00 0.  1.
         11    1    3    3    0    0  0.24175260441E+02 -0.19525132401E+02 -0.92561471612E+01  0.32424531966E+02  0.51100000000E-03 0. -1.
        -11    1    3    3    0    0  0.90457110055E+01 -0.96087137435E+01 -0.42790018275E+00  0.13203611863E+02  0.51100000000E-03 0.  1.
        -12    1    3    3    0    0 -0.32380113541E+02  0.29027025700E+02  0.88636259886E+01  0.44380219012E+02  0.00000000000E+00 0.  1.
</event>
<event>
 7    1  0.1910099E-015  0.9000772E+02  0.7816164E-02  0.1186339E+00
        -11   -1    0    0    0    0  0.00000000000E+00  0.00000000000E+00  0.45593999997E+02  0.45594000000E+02  0.51100000000E-03 0.  1.
         11   -1    0    0    0    0 -0.00000000000E+00 -0.00000000000E+00 -0.45593999997E+02  0.45594000000E+02  0.51100000000E-03 0. -1.
    9900012    2    1    2    0    0  0.76353626362E+00 -0.87474077458E+00 -0.21192649195E+00  0.90007715337E+02  0.89999976379E+02 0.  0.
        -12    1    1    2    0    0 -0.76353626362E+00  0.87474077458E+00  0.21192649195E+00  0.11802846634E+01  0.00000000000E+00 0.  1.
         11    1    3    3    0    0 -0.21751213253E+02 -0.19845427225E+02  0.94997059767E+01  0.30938659855E+02  0.51100000000E-03 0. -1.
        -11    1    3    3    0    0 -0.14363688501E+02  0.10658275823E+01 -0.10890450720E+02  0.18056950267E+02  0.51100000000E-03 0.  1.
        -12    1    3    3    0    0  0.36878438017E+02  0.17904858868E+02  0.11788182511E+01  0.41012105215E+02  0.00000000000E+00 0.  1.
</event>
<event>
 7    1  0.1910099E-015  0.9000792E+02  0.7816164E-02  0.1186339E+00
        -11   -1    0    0    0    0  0.00000000000E+00  0.00000000000E+00  0.45593999997E+02  0.45594000000E+02  0.51100000000E-03 0.  1.
         11   -1    0    0    0    0 -0.00000000000E+00 -0.00000000000E+00 -0.45593999997E+02  0.45594000000E+02  0.51100000000E-03 0. -1.
    9900012    2    1    2    0    0  0.10520280660E+01 -0.17156879727E+00 -0.50633865798E+00  0.90007924689E+02  0.90000188494E+02 0.  0.
        -12    1    1    2    0    0 -0.10520280660E+01  0.17156879727E+00  0.50633865798E+00  0.11800753113E+01  0.00000000000E+00 0.  1.
         11    1    3    3    0    0 -0.27322177076E+02  0.23930873643E+02  0.86447418767E+00  0.36330915064E+02  0.51100000000E-03 0. -1.
        -11    1    3    3    0    0 -0.81032432443E+01  0.49238269326E+00  0.45171937167E+01  0.92903192157E+01  0.51100000000E-03 0.  1.
        -12    1    3    3    0    0  0.36477448387E+02 -0.24594825134E+02 -0.58880065624E+01  0.44386690409E+02  0.00000000000E+00 0.  1.
</event>
<event>
 7    1  0.1910099E-015  0.9000786E+02  0.7816164E-02  0.1186339E+00
        -11   -1    0    0    0    0  0.00000000000E+00  0.00000000000E+00  0.45593999997E+02  0.45594000000E+02  0.51100000000E-03 0. -1.
         11   -1    0    0    0    0 -0.00000000000E+00 -0.00000000000E+00 -0.45593999997E+02  0.45594000000E+02  0.51100000000E-03 0.  1.
    9900012    2    1    2    0    0 -0.10965200223E+01 -0.30205177840E+00  0.31486817074E+00  0.90007858737E+02  0.90000121672E+02 0.  0.
        -12    1    1    2    0    0  0.10965200223E+01  0.30205177840E+00 -0.31486817074E+00  0.11801412632E+01  0.00000000000E+00 0.  1.
         11    1    3    3    0    0 -0.13380628571E+02  0.34980135432E+02  0.10022488249E+02  0.38769851261E+02  0.51100000000E-03 0. -1.
        -11    1    3    3    0    0 -0.79102852151E+01 -0.55856202354E+01  0.66791657040E+01  0.11763631257E+02  0.51100000000E-03 0.  1.
        -12    1    3    3    0    0  0.20194393764E+02 -0.29696566975E+02 -0.16386785782E+02  0.39474376219E+02  0.00000000000E+00 0.  1.
</event>
<event>
 7    1  0.1910099E-015  0.9000765E+02  0.7816164E-02  0.1186339E+00
        -11   -1    0    0    0    0  0.00000000000E+00  0.00000000000E+00  0.45593999997E+02  0.45594000000E+02  0.51100000000E-03 0.  1.
         11   -1    0    0    0    0 -0.00000000000E+00 -0.00000000000E+00 -0.45593999997E+02  0.45594000000E+02  0.51100000000E-03 0. -1.
    9900012    2    1    2    0    0 -0.11764239455E+00 -0.10952179292E+01 -0.42413286251E+00  0.90007648048E+02  0.89999908202E+02 0.  0.
        -12    1    1    2    0    0  0.11764239455E+00  0.10952179292E+01  0.42413286251E+00  0.11803519519E+01  0.00000000000E+00 0.  1.
         11    1    3    3    0    0  0.33925103113E+02 -0.12407549835E+02 -0.23748451915E+02  0.43230184857E+02  0.51100000000E-03 0. -1.
        -11    1    3    3    0    0 -0.84176569973E+01  0.15628073929E+01 -0.26986588467E+01  0.89767519796E+01  0.51100000000E-03 0.  1.
        -12    1    3    3    0    0 -0.25625088511E+02  0.97495245125E+01  0.26022977899E+02  0.37800711212E+02  0.00000000000E+00 0.  1.
</event>
<event>
 7    1  0.1910099E-015  0.9000780E+02  0.7816164E-02  0.1186339E+00
        -11   -1    0    0    0    0  0.00000000000E+00  0.00000000000E+00  0.45593999997E+02  0.45594000000E+02  0.51100000000E-03 0.  1.
         11   -1    0    0    0    0 -0.00000000000E+00 -0.00000000000E+00 -0.45593999997E+02  0.45594000000E+02  0.51100000000E-03 0. -1.
    9900012    2    1    2    0    0 -0.46712515247E+00 -0.76172892445E+00 -0.77099922262E+00  0.90007798041E+02  0.90000060175E+02 0.  0.
        -12    1    1    2    0    0  0.46712515247E+00  0.76172892445E+00  0.77099922262E+00  0.11802019589E+01  0.00000000000E+00 0.  1.
         11    1    3    3    0    0 -0.28799614527E+02  0.26603647778E+02 -0.77048041421E+01  0.39956675026E+02  0.51100000000E-03 0. -1.
        -11    1    3    3    0    0 -0.50127975022E+01 -0.10820192457E+02  0.45053287742E+01  0.12747654343E+02  0.51100000000E-03 0.  1.
        -12    1    3    3    0    0  0.33345286877E+02 -0.16545184245E+02  0.24284761453E+01  0.37303468672E+02  0.00000000000E+00 0.  1.
</event>
<event>
 7    1  0.1910099E-015  0.9000784E+02  0.7816164E-02  0.1186339E+00
        -11   -1    0    0    0    0  0.00000000000E+00  0.00000000000E+00  0.45593999997E+02  0.45594000000E+02  0.51100000000E-03 0.  1.
         11   -1    0    0    0    0 -0.00000000000E+00 -0.00000000000E+00 -0.45593999997E+02  0.45594000000E+02  0.51100000000E-03 0. -1.
    9900012    2    1    2    0    0 -0.76061086175E+00 -0.88366048133E+00 -0.18275910148E+00  0.90007836614E+02  0.90000099257E+02 0.  0.
        -12    1    1    2    0    0  0.76061086175E+00  0.88366048133E+00  0.18275910148E+00  0.11801633863E+01  0.00000000000E+00 0.  1.
         11    1    3    3    0    0  0.31767553658E+01  0.92564748793E+01  0.34486963152E+01  0.10376300322E+02  0.51100000000E-03 0. -1.
        -11    1    3    3    0    0  0.23616375740E+02 -0.28197203847E+02 -0.21037936907E+02  0.42372282184E+02  0.51100000000E-03 0.  1.
         12    1    3    3    0    0 -0.27553741968E+02  0.18057068487E+02  0.17406481490E+02  0.37259254107E+02  0.00000000000E+00 0. -1.
</event>
<event>
 7    1  0.1910099E-015  0.9000770E+02  0.7816164E-02  0.1186339E+00
        -11   -1    0    0    0    0  0.00000000000E+00  0.00000000000E+00  0.45593999997E+02  0.45594000000E+02  0.51100000000E-03 0.  1.
         11   -1    0    0    0    0 -0.00000000000E+00 -0.00000000000E+00 -0.45593999997E+02  0.45594000000E+02  0.51100000000E-03 0. -1.
    9900012    2    1    2    0    0  0.11583843284E+01  0.21043090566E+00  0.83498872148E-01  0.90007700258E+02  0.89999961102E+02 0.  0.
        -12    1    1    2    0    0 -0.11583843284E+01 -0.21043090566E+00 -0.83498872148E-01  0.11802997416E+01  0.00000000000E+00 0.  1.
         11    1    3    3    0    0  0.16488660791E+02 -0.28366390721E+02 -0.70910403055E+01  0.33568004262E+02  0.51100000000E-03 0. -1.
        -11    1    3    3    0    0  0.56203123961E+01 -0.92593952023E+01 -0.43638482947E+01  0.11677648871E+02  0.51100000000E-03 0.  1.
        -12    1    3    3    0    0 -0.20950588859E+02  0.37836216829E+02  0.11538387472E+02  0.44762047126E+02  0.00000000000E+00 0.  1.
</event>
<event>
 7    1  0.1910099E-015  0.9000779E+02  0.7816164E-02  0.1186339E+00
        -11   -1    0    0    0    0  0.00000000000E+00  0.00000000000E+00  0.45593999997E+02  0.45594000000E+02  0.51100000000E-03 0. -1.
         11   -1    0    0    0    0 -0.00000000000E+00 -0.00000000000E+00 -0.45593999997E+02  0.45594000000E+02  0.51100000000E-03 0.  1.
    9900012    2    1    2    0    0  0.83805801137E+00  0.44854923480E+00  0.69954559909E+00  0.90007787438E+02  0.90000049432E+02 0.  0.
        -12    1    1    2    0    0 -0.83805801137E+00 -0.44854923480E+00 -0.69954559909E+00  0.11802125621E+01  0.00000000000E+00 0.  1.
         11    1    3    3    0    0  0.24094719051E+02 -0.24162466971E+02 -0.51589260596E+01  0.34510792727E+02  0.51100000000E-03 0. -1.
        -11    1    3    3    0    0  0.69127113884E+01 -0.61665728309E+01 -0.56988990884E+01  0.10876104555E+02  0.51100000000E-03 0.  1.
        -12    1    3    3    0    0 -0.30169372428E+02  0.30777589037E+02  0.11557370747E+02  0.44620890155E+02  0.00000000000E+00 0.  1.
</event>
<event>
 7    1  0.1910099E-015  0.9000774E+02  0.7816164E-02  0.1186339E+00
        -11   -1    0    0    0    0  0.00000000000E+00  0.00000000000E+00  0.45593999997E+02  0.45594000000E+02  0.51100000000E-03 0. -1.
         11   -1    0    0    0    0 -0.00000000000E+00 -0.00000000000E+00 -0.45593999997E+02  0.45594000000E+02  0.51100000000E-03 0.  1.
    9900012    2    1    2    0    0  0.11464189393E+01  0.26332686058E+00  0.96880788859E-01  0.90007744389E+02  0.90000005815E+02 0.  0.
        -12    1    1    2    0    0 -0.11464189393E+01 -0.26332686058E+00 -0.96880788859E-01  0.11802556110E+01  0.00000000000E+00 0.  1.
         11    1    3    3    0    0 -0.66754289059E+01 -0.57541750830E+01  0.40591678000E+01  0.97030266130E+01  0.51100000000E-03 0. -1.
        -11    1    3    3    0    0 -0.67580361458E+01 -0.35449607823E+02  0.76123022131E+00  0.36096055450E+02  0.51100000000E-03 0.  1.
         12    1    3    3    0    0  0.14579883991E+02  0.41467109767E+02 -0.47235172324E+01  0.44208662326E+02  0.00000000000E+00 0. -1.
</event>
<event>
 7    1  0.1910099E-015  0.9000775E+02  0.7816164E-02  0.1186339E+00
        -11   -1    0    0    0    0  0.00000000000E+00  0.00000000000E+00  0.45593999997E+02  0.45594000000E+02  0.51100000000E-03 0.  1.
         11   -1    0    0    0    0 -0.00000000000E+00 -0.00000000000E+00 -0.45593999997E+02  0.45594000000E+02  0.51100000000E-03 0. -1.
    9900012    2    1    2    0    0 -0.50175053416E+00  0.10662713248E+01  0.65632290146E-01  0.90007747597E+02  0.90000009066E+02 0.  0.
        -12    1    1    2    0    0  0.50175053416E+00 -0.10662713248E+01 -0.65632290146E-01  0.11802524027E+01  0.00000000000E+00 0.  1.
         11    1    3    3    0    0 -0.29165110712E+02  0.17407189772E+02 -0.11129617834E+02  0.35741884841E+02  0.51100000000E-03 0. -1.
        -11    1    3    3    0    0 -0.91242352065E+01 -0.46179745618E+01 -0.51599798229E+01  0.11454376857E+02  0.51100000000E-03 0.  1.
        -12    1    3    3    0    0  0.37787595384E+02 -0.11722943885E+02  0.16355229947E+02  0.42811485899E+02  0.00000000000E+00 0.  1.
</event>
<event>
 7    1  0.1910099E-015  0.9000776E+02  0.7816164E-02  0.1186339E+00
        -11   -1    0    0    0    0  0.00000000000E+00  0.00000000000E+00  0.45593999997E+02  0.45594000000E+02  0.51100000000E-03 0.  1.
         11   -1    0    0    0    0 -0.00000000000E+00 -0.00000000000E+00 -0.45593999997E+02  0.45594000000E+02  0.51100000000E-03 0. -1.
    9900012    2    1    2    0    0  0.83804087854E+00  0.56100547438E-01 -0.82915558128E+00  0.90007763260E+02  0.90000024935E+02 0.  0.
        -12    1    1    2    0    0 -0.83804087854E+00 -0.56100547438E-01  0.82915558128E+00  0.11802367404E+01  0.00000000000E+00 0.  1.
         11    1    3    3    0    0  0.61562502879E+01  0.28094044074E+01 -0.33840063482E+02  0.34510028505E+02  0.51100000000E-03 0. -1.
        -11    1    3    3    0    0 -0.12143313727E+02 -0.32709040328E+01 -0.73460453259E+01  0.14564452055E+02  0.51100000000E-03 0.  1.
        -12    1    3    3    0    0  0.68251043173E+01  0.51760017284E+00  0.40356953226E+02  0.40933282700E+02  0.00000000000E+00 0.  1.
</event>
<event>
 7    1  0.1910099E-015  0.9000776E+02  0.7816164E-02  0.1186339E+00
        -11   -1    0    0    0    0  0.00000000000E+00  0.00000000000E+00  0.45593999997E+02  0.45594000000E+02  0.51100000000E-03 0.  1.
         11   -1    0    0    0    0 -0.00000000000E+00 -0.00000000000E+00 -0.45593999997E+02  0.45594000000E+02  0.51100000000E-03 0. -1.
    9900012    2    1    2    0    0  0.82280373268E+00  0.84603062042E+00  0.14059802697E-01  0.90007757876E+02  0.90000019480E+02 0.  0.
        -12    1    1    2    0    0 -0.82280373268E+00 -0.84603062042E+00 -0.14059802697E-01  0.11802421240E+01  0.00000000000E+00 0.  1.
         11    1    3    3    0    0  0.18385880195E+02 -0.13253542625E+02 -0.27838479266E+02  0.35898160270E+02  0.51100000000E-03 0. -1.
        -11    1    3    3    0    0  0.89051510619E+01  0.10829263021E+02 -0.19057038693E+01  0.14149429688E+02  0.51100000000E-03 0.  1.
        -12    1    3    3    0    0 -0.26468227524E+02  0.32703102251E+01  0.29758242938E+02  0.39960167918E+02  0.00000000000E+00 0.  1.
</event>
<event>
 7    1  0.1910099E-015  0.9000691E+02  0.7816164E-02  0.1186341E+00
        -11   -1    0    0    0    0  0.00000000000E+00  0.00000000000E+00  0.45593999997E+02  0.45594000000E+02  0.51100000000E-03 0.  1.
         11   -1    0    0    0    0 -0.00000000000E+00 -0.00000000000E+00 -0.45593999997E+02  0.45594000000E+02  0.51100000000E-03 0. -1.
    9900012    2    1    2    0    0  0.87505076737E+00 -0.74711119540E+00 -0.26661401824E+00  0.90006910664E+02  0.89999161081E+02 0.  0.
        -12    1    1    2    0    0 -0.87505076737E+00  0.74711119540E+00  0.26661401824E+00  0.11810893355E+01  0.00000000000E+00 0.  1.
         11    1    3    3    0    0 -0.20303509174E+01  0.13288819900E+02 -0.72416943172E+01  0.15269485782E+02  0.51100000000E-03 0. -1.
        -11    1    3    3    0    0 -0.27760813607E+02 -0.15838345479E+02  0.23672919253E+02  0.39773396459E+02  0.51100000000E-03 0.  1.
         12    1    3    3    0    0  0.30666215291E+02  0.18024143836E+01 -0.16697838954E+02  0.34964028424E+02  0.00000000000E+00 0. -1.
</event>
<event>
 7    1  0.4178796E-015  0.9000778E+02  0.7816164E-02  0.1186339E+00
        -11   -1    0    0    0    0  0.00000000000E+00  0.00000000000E+00  0.45593999997E+02  0.45594000000E+02  0.51100000000E-03 0. -1.
         11   -1    0    0    0    0 -0.00000000000E+00 -0.00000000000E+00 -0.45593999997E+02  0.45594000000E+02  0.51100000000E-03 0.  1.
    9900012    2    1    2    0    0  0.42605755433E+00  0.74620133946E+00  0.80905749233E+00  0.90007781586E+02  0.90000043503E+02 0.  0.
        -12    1    1    2    0    0 -0.42605755433E+00 -0.74620133946E+00 -0.80905749233E+00  0.11802184139E+01  0.00000000000E+00 0.  1.
         11    1    3    3    0    0  0.96359253227E+01 -0.40763370791E+00  0.22622344203E+01  0.99063074300E+01  0.51100000000E-03 0. -1.
        -11    1    3    3    0    0  0.23410397235E+01  0.24083175890E+02 -0.32050961486E+02  0.40158983557E+02  0.51100000000E-03 0.  1.
         12    1    3    3    0    0 -0.11550907492E+02 -0.22929340842E+02  0.30597784558E+02  0.39942490599E+02  0.00000000000E+00 0. -1.
</event>
<event>
 7    1  0.1910099E-015  0.9000751E+02  0.7816164E-02  0.1186340E+00
        -11   -1    0    0    0    0  0.00000000000E+00  0.00000000000E+00  0.45593999997E+02  0.45594000000E+02  0.51100000000E-03 0.  1.
         11   -1    0    0    0    0 -0.00000000000E+00 -0.00000000000E+00 -0.45593999997E+02  0.45594000000E+02  0.51100000000E-03 0. -1.
    9900012    2    1    2    0    0  0.71114748531E+00  0.20069642552E+00  0.92062658676E+00  0.90007507258E+02  0.89999765554E+02 0.  0.
        -12    1    1    2    0    0 -0.71114748531E+00 -0.20069642552E+00 -0.92062658676E+00  0.11804927418E+01  0.00000000000E+00 0.  1.
         11    1    3    3    0    0 -0.49554353177E+01  0.33488855660E+01  0.68931512095E+01  0.91261660942E+01  0.51100000000E-03 0. -1.
        -11    1    3    3    0    0 -0.13461188311E+02  0.90207722926E+01  0.32448998261E+02  0.36270034628E+02  0.51100000000E-03 0.  1.
         12    1    3    3    0    0  0.19127771114E+02 -0.12168961433E+02 -0.38421522884E+02  0.44611306536E+02  0.00000000000E+00 0. -1.
</event>
<event>
 7    1  0.1910099E-015  0.9000787E+02  0.7816164E-02  0.1186339E+00
        -11   -1    0    0    0    0  0.00000000000E+00  0.00000000000E+00  0.45593999997E+02  0.45594000000E+02  0.51100000000E-03 0.  1.
         11   -1    0    0    0    0 -0.00000000000E+00 -0.00000000000E+00 -0.45593999997E+02  0.45594000000E+02  0.51100000000E-03 0. -1.
    9900012    2    1    2    0    0  0.10921982160E+01  0.16211488924E+00 -0.41656305461E+00  0.90007871635E+02  0.90000134740E+02 0.  0.
        -12    1    1    2    0    0 -0.10921982160E+01 -0.16211488924E+00  0.41656305461E+00  0.11801283654E+01  0.00000000000E+00 0.  1.
         11    1    3    3    0    0  0.30726079089E+01 -0.78164629232E+01  0.48326152056E+01  0.96897978296E+01  0.51100000000E-03 0. -1.
        -11    1    3    3    0    0  0.27652064043E+02 -0.20625733518E+02  0.10750423846E+02  0.36133490589E+02  0.51100000000E-03 0.  1.
         12    1    3    3    0    0 -0.29632473736E+02  0.28604311331E+02 -0.15999602106E+02  0.44184583216E+02  0.00000000000E+00 0. -1.
</event>
<event>
 7    1  0.1910099E-015  0.9000779E+02  0.7816164E-02  0.1186339E+00
        -11   -1    0    0    0    0  0.00000000000E+00  0.00000000000E+00  0.45593999997E+02  0.45594000000E+02  0.51100000000E-03 0.  1.
         11   -1    0    0    0    0 -0.00000000000E+00 -0.00000000000E+00 -0.45593999997E+02  0.45594000000E+02  0.51100000000E-03 0. -1.
    9900012    2    1    2    0    0  0.84513071493E+00 -0.63320605506E+00  0.52697495377E+00  0.90007788817E+02  0.90000050830E+02 0.  0.
        -12    1    1    2    0    0 -0.84513071493E+00  0.63320605506E+00 -0.52697495377E+00  0.11802111825E+01  0.00000000000E+00 0.  1.
         11    1    3    3    0    0 -0.98127895792E+01 -0.25407973000E+01 -0.44204409129E+01  0.11058335696E+02  0.51100000000E-03 0. -1.
        -11    1    3    3    0    0 -0.25593112387E+02 -0.34834331776E+01  0.26028634679E+02  0.36669217770E+02  0.51100000000E-03 0.  1.
         12    1    3    3    0    0  0.36251032681E+02  0.53910244225E+01 -0.21081218813E+02  0.42280235351E+02  0.00000000000E+00 0. -1.
</event>
<event>
 7    1  0.1910099E-015  0.9000763E+02  0.7816164E-02  0.1186339E+00
        -11   -1    0    0    0    0  0.00000000000E+00  0.00000000000E+00  0.45593999997E+02  0.45594000000E+02  0.51100000000E-03 0.  1.
         11   -1    0    0    0    0 -0.00000000000E+00 -0.00000000000E+00 -0.45593999997E+02  0.45594000000E+02  0.51100000000E-03 0. -1.
    9900012    2    1    2    0    0 -0.11780021873E+01  0.63154428555E-01  0.39908888067E-01  0.90007631263E+02  0.89999891196E+02 0.  0.
        -12    1    1    2    0    0  0.11780021873E+01 -0.63154428555E-01 -0.39908888067E-01  0.11803687366E+01  0.00000000000E+00 0.  1.
         11    1    3    3    0    0  0.26746504472E+01 -0.29252413861E+01 -0.87563593466E+01  0.96116919140E+01  0.51100000000E-03 0. -1.
        -11    1    3    3    0    0 -0.64315625063E+01 -0.36640910183E+02  0.15168776492E+02  0.40174781590E+02  0.51100000000E-03 0.  1.
         12    1    3    3    0    0  0.25789098718E+01  0.39629305998E+02 -0.63725082578E+01  0.40221157759E+02  0.00000000000E+00 0. -1.
</event>
<event>
 7    1  0.1910099E-015  0.9000773E+02  0.7816164E-02  0.1186339E+00
        -11   -1    0    0    0    0  0.00000000000E+00  0.00000000000E+00  0.45593999997E+02  0.45594000000E+02  0.51100000000E-03 0. -1.
         11   -1    0    0    0    0 -0.00000000000E+00 -0.00000000000E+00 -0.45593999997E+02  0.45594000000E+02  0.51100000000E-03 0.  1.
    9900012    2    1    2    0    0  0.10597156020E+01  0.17842858147E+00  0.48805795381E+00  0.90007731182E+02  0.89999992434E+02 0.  0.
        -12    1    1    2    0    0 -0.10597156020E+01 -0.17842858147E+00 -0.48805795381E+00  0.11802688177E+01  0.00000000000E+00 0.  1.
         11    1    3    3    0    0  0.31794383351E+02  0.23755009394E+02  0.14120262455E+02  0.42125587189E+02  0.51100000000E-03 0. -1.
        -11    1    3    3    0    0 -0.15998919920E+01 -0.98071977112E+01  0.44978730611E+01  0.10907412327E+02  0.51100000000E-03 0.  1.
        -12    1    3    3    0    0 -0.29134775757E+02 -0.13769383101E+02 -0.18130077562E+02  0.36974731666E+02  0.00000000000E+00 0.  1.
</event>
<event>
 7    1  0.1910099E-015  0.9000777E+02  0.7816164E-02  0.1186339E+00
        -11   -1    0    0    0    0  0.00000000000E+00  0.00000000000E+00  0.45593999997E+02  0.45594000000E+02  0.51100000000E-03 0.  1.
         11   -1    0    0    0    0 -0.00000000000E+00 -0.00000000000E+00 -0.45593999997E+02  0.45594000000E+02  0.51100000000E-03 0. -1.
    9900012    2    1    2    0    0  0.99158920626E+00 -0.54572393595E+00  0.33446820320E+00  0.90007774281E+02  0.90000036102E+02 0.  0.
        -12    1    1    2    0    0 -0.99158920626E+00  0.54572393595E+00 -0.33446820320E+00  0.11802257187E+01  0.00000000000E+00 0.  1.
         11    1    3    3    0    0  0.32528021047E+00 -0.29225436543E+02 -0.52514863428E+01  0.29695286788E+02  0.51100000000E-03 0. -1.
        -11    1    3    3    0    0 -0.13768804143E+02 -0.10471090995E+02  0.67516605445E+01  0.18569023521E+02  0.51100000000E-03 0.  1.
        -12    1    3    3    0    0  0.14435113138E+02  0.39150803602E+02 -0.11657059985E+01  0.41743463973E+02  0.00000000000E+00 0.  1.
</event>
<event>
 7    1  0.1910099E-015  0.9000775E+02  0.7816164E-02  0.1186339E+00
        -11   -1    0    0    0    0  0.00000000000E+00  0.00000000000E+00  0.45593999997E+02  0.45594000000E+02  0.51100000000E-03 0.  1.
         11   -1    0    0    0    0 -0.00000000000E+00 -0.00000000000E+00 -0.45593999997E+02  0.45594000000E+02  0.51100000000E-03 0. -1.
    9900012    2    1    2    0    0 -0.51040469554E+00 -0.10582631658E+01 -0.11210145585E+00  0.90007745528E+02  0.90000006969E+02 0.  0.
        -12    1    1    2    0    0  0.51040469554E+00  0.10582631658E+01  0.11210145585E+00  0.11802544716E+01  0.00000000000E+00 0.  1.
         11    1    3    3    0    0 -0.36444972359E+01  0.80278227682E+01 -0.13969053640E+01  0.89263454648E+01  0.51100000000E-03 0. -1.
        -11    1    3    3    0    0 -0.21484237911E+02  0.27847228574E+02  0.83171323360E+01  0.36141600800E+02  0.51100000000E-03 0.  1.
         12    1    3    3    0    0  0.24618330451E+02 -0.36933314508E+02 -0.70323284278E+01  0.44939799263E+02  0.00000000000E+00 0. -1.
</event>
<event>
 7    1  0.1910099E-015  0.9000780E+02  0.7816164E-02  0.1186339E+00
        -11   -1    0    0    0    0  0.00000000000E+00  0.00000000000E+00  0.45593999997E+02  0.45594000000E+02  0.51100000000E-03 0. -1.
         11   -1    0    0    0    0 -0.00000000000E+00 -0.00000000000E+00 -0.45593999997E+02  0.45594000000E+02  0.51100000000E-03 0.  1.
    9900012    2    1    2    0    0  0.37034758027E+00  0.10499537104E+01  0.39154497797E+00  0.90007801884E+02  0.90000064068E+02 0.  0.
        -12    1    1    2    0    0 -0.37034758027E+00 -0.10499537104E+01 -0.39154497797E+00  0.11801981164E+01  0.00000000000E+00 0.  1.
         11    1    3    3    0    0  0.36047630962E+02 -0.11842134227E+02  0.18457182763E+02  0.42194021340E+02  0.51100000000E-03 0. -1.
        -11    1    3    3    0    0 -0.12191584734E+02 -0.10649075701E+01  0.38073624226E+01  0.12816582046E+02  0.51100000000E-03 0.  1.
        -12    1    3    3    0    0 -0.23485698648E+02  0.13956995508E+02 -0.21873000207E+02  0.34997198497E+02  0.00000000000E+00 0.  1.
</event>
<event>
 7    1  0.1910099E-015  0.9000763E+02  0.7816164E-02  0.1186339E+00
        -11   -1    0    0    0    0  0.00000000000E+00  0.00000000000E+00  0.45593999997E+02  0.45594000000E+02  0.51100000000E-03 0.  1.
         11   -1    0    0    0    0 -0.00000000000E+00 -0.00000000000E+00 -0.45593999997E+02  0.45594000000E+02  0.51100000000E-03 0. -1.
    9900012    2    1    2    0    0 -0.11275904789E+01  0.33507283121E+00  0.97676687927E-01  0.90007629369E+02  0.89999889277E+02 0.  0.
        -12    1    1    2    0    0  0.11275904789E+01 -0.33507283121E+00 -0.97676687927E-01  0.11803706307E+01  0.00000000000E+00 0.  1.
         11    1    3    3    0    0 -0.29562034879E+02 -0.14636506074E+02  0.13046914200E+02  0.35473415210E+02  0.51100000000E-03 0. -1.
        -11    1    3    3    0    0 -0.10288122334E+02 -0.12775242280E+01  0.66594549877E+00  0.10388503886E+02  0.51100000000E-03 0.  1.
        -12    1    3    3    0    0  0.38722566734E+02  0.16249103134E+02 -0.13615183010E+02  0.44145710274E+02  0.00000000000E+00 0.  1.
</event>
<event>
 7    1  0.1910099E-015  0.9000776E+02  0.7816164E-02  0.1186339E+00
        -11   -1    0    0    0    0  0.00000000000E+00  0.00000000000E+00  0.45593999997E+02  0.45594000000E+02  0.51100000000E-03 0. -1.
         11   -1    0    0    0    0 -0.00000000000E+00 -0.00000000000E+00 -0.45593999997E+02  0.45594000000E+02  0.51100000000E-03 0.  1.
    9900012    2    1    2    0    0  0.43125637376E+00  0.95078166230E+00  0.55045150431E+00  0.90007760750E+02  0.90000022392E+02 0.  0.
        -12    1    1    2    0    0 -0.43125637376E+00 -0.95078166230E+00 -0.55045150431E+00  0.11802392503E+01  0.00000000000E+00 0.  1.
         11    1    3    3    0    0 -0.20180225745E+02 -0.31735058911E+02 -0.93937009669E+01  0.38763347292E+02  0.51100000000E-03 0. -1.
        -11    1    3    3    0    0  0.56468794267E+00 -0.23803457125E+01  0.10568158980E+02  0.10847621982E+02  0.51100000000E-03 0.  1.
        -12    1    3    3    0    0  0.20046794176E+02  0.35066186286E+02 -0.62400650846E+00  0.40396791475E+02  0.00000000000E+00 0.  1.
</event>
<event>
 7    1  0.1910099E-015  0.9000774E+02  0.7816164E-02  0.1186339E+00
        -11   -1    0    0    0    0  0.00000000000E+00  0.00000000000E+00  0.45593999997E+02  0.45594000000E+02  0.51100000000E-03 0. -1.
         11   -1    0    0    0    0 -0.00000000000E+00 -0.00000000000E+00 -0.45593999997E+02  0.45594000000E+02  0.51100000000E-03 0.  1.
    9900012    2    1    2    0    0 -0.47912141345E+00  0.68300857522E+00 -0.83483842790E+00  0.90007740180E+02  0.90000001550E+02 0.  0.
        -12    1    1    2    0    0  0.47912141345E+00 -0.68300857522E+00  0.83483842790E+00  0.11802598203E+01  0.00000000000E+00 0.  1.
         11    1    3    3    0    0 -0.36899183326E+01  0.14765921693E+02  0.33008544957E+02  0.36348479764E+02  0.51100000000E-03 0. -1.
        -11    1    3    3    0    0  0.57859857900E+01  0.69308115993E+01  0.43262278051E+01  0.10011494807E+02  0.51100000000E-03 0.  1.
        -12    1    3    3    0    0 -0.25751888708E+01 -0.21013724717E+02 -0.38169611190E+02  0.43647765608E+02  0.00000000000E+00 0.  1.
</event>
<event>
 7    1  0.1910099E-015  0.9000776E+02  0.7816164E-02  0.1186339E+00
        -11   -1    0    0    0    0  0.00000000000E+00  0.00000000000E+00  0.45593999997E+02  0.45594000000E+02  0.51100000000E-03 0. -1.
         11   -1    0    0    0    0 -0.00000000000E+00 -0.00000000000E+00 -0.45593999997E+02  0.45594000000E+02  0.51100000000E-03 0.  1.
    9900012    2    1    2    0    0 -0.26856148701E+00 -0.45086569776E+00  0.10571429818E+01  0.90007764247E+02  0.90000025935E+02 0.  0.
        -12    1    1    2    0    0  0.26856148701E+00  0.45086569776E+00 -0.10571429818E+01  0.11802357535E+01  0.00000000000E+00 0.  1.
         11    1    3    3    0    0  0.10490029454E+02 -0.16110964087E+02  0.35568114715E+02  0.40431357464E+02  0.51100000000E-03 0. -1.
        -11    1    3    3    0    0  0.55475541871E+01 -0.61976765323E+01 -0.77357868204E+01  0.11359091066E+02  0.51100000000E-03 0.  1.
        -12    1    3    3    0    0 -0.16306145128E+02  0.21857774922E+02 -0.26775184912E+02  0.38217315716E+02  0.00000000000E+00 0.  1.
</event>
<event>
 7    1  0.1910099E-015  0.9000775E+02  0.7816164E-02  0.1186339E+00
        -11   -1    0    0    0    0  0.00000000000E+00  0.00000000000E+00  0.45593999997E+02  0.45594000000E+02  0.51100000000E-03 0.  1.
         11   -1    0    0    0    0 -0.00000000000E+00 -0.00000000000E+00 -0.45593999997E+02  0.45594000000E+02  0.51100000000E-03 0. -1.
    9900012    2    1    2    0    0 -0.11076080903E+01 -0.19817150658E+00  0.35626455122E+00  0.90007749155E+02  0.90000010643E+02 0.  0.
        -12    1    1    2    0    0  0.11076080903E+01  0.19817150658E+00 -0.35626455122E+00  0.11802508454E+01  0.00000000000E+00 0.  1.
         11    1    3    3    0    0  0.87728523186E+00  0.78859648831E+01  0.47234310268E+01  0.92341145998E+01  0.51100000000E-03 0. -1.
        -11    1    3    3    0    0 -0.34160832419E+02 -0.10608738564E+02  0.19399604040E+02  0.40692166846E+02  0.51100000000E-03 0.  1.
         12    1    3    3    0    0  0.32175939097E+02  0.25246021746E+01 -0.23766770516E+02  0.40081467708E+02  0.00000000000E+00 0. -1.
</event>
<event>
 7    1  0.1910099E-015  0.9000783E+02  0.7816164E-02  0.1186339E+00
        -11   -1    0    0    0    0  0.00000000000E+00  0.00000000000E+00  0.45593999997E+02  0.45594000000E+02  0.51100000000E-03 0.  1.
         11   -1    0    0    0    0 -0.00000000000E+00 -0.00000000000E+00 -0.45593999997E+02  0.45594000000E+02  0.51100000000E-03 0. -1.
    9900012    2    1    2    0    0  0.14205020855E-01  0.10819751559E+01  0.47108164501E+00  0.90007834784E+02  0.90000097403E+02 0.  0.
        -12    1    1    2    0    0 -0.14205020855E-01 -0.10819751559E+01 -0.47108164501E+00  0.11801652159E+01  0.00000000000E+00 0.  1.
         11    1    3    3    0    0 -0.82061992334E+01  0.10123854471E+02 -0.15358327075E+02  0.20142302401E+02  0.51100000000E-03 0. -1.
        -11    1    3    3    0    0 -0.99961868257E+01  0.14443474896E+02 -0.17783943799E+02  0.24996127209E+02  0.51100000000E-03 0.  1.
        -12    1    3    3    0    0  0.18216591080E+02 -0.23485354212E+02  0.33613352520E+02  0.44869405174E+02  0.00000000000E+00 0.  1.
</event>
<event>
 7    1  0.1910099E-015  0.9000765E+02  0.7816164E-02  0.1186339E+00
        -11   -1    0    0    0    0  0.00000000000E+00  0.00000000000E+00  0.45593999997E+02  0.45594000000E+02  0.51100000000E-03 0. -1.
         11   -1    0    0    0    0 -0.00000000000E+00 -0.00000000000E+00 -0.45593999997E+02  0.45594000000E+02  0.51100000000E-03 0.  1.
    9900012    2    1    2    0    0 -0.17276120316E+00  0.10751163969E+01 -0.45551617835E+00  0.90007653996E+02  0.89999914229E+02 0.  0.
        -12    1    1    2    0    0  0.17276120316E+00 -0.10751163969E+01  0.45551617835E+00  0.11803460039E+01  0.00000000000E+00 0.  1.
         11    1    3    3    0    0  0.47419770259E+01  0.26055836100E+01 -0.68052039087E+01  0.86940331586E+01  0.51100000000E-03 0. -1.
        -11    1    3    3    0    0  0.22634962768E+02 -0.31411241114E+02 -0.51922166520E+01  0.39063624024E+02  0.51100000000E-03 0.  1.
         12    1    3    3    0    0 -0.27549700998E+02  0.29880773901E+02  0.11541904382E+02  0.42249996814E+02  0.00000000000E+00 0. -1.
</event>
<event>
 7    1  0.1910099E-015  0.9000773E+02  0.7816164E-02  0.1186339E+00
        -11   -1    0    0    0    0  0.00000000000E+00  0.00000000000E+00  0.45593999997E+02  0.45594000000E+02  0.51100000000E-03 0.  1.
         11   -1    0    0    0    0 -0.00000000000E+00 -0.00000000000E+00 -0.45593999997E+02  0.45594000000E+02  0.51100000000E-03 0. -1.
    9900012    2    1    2    0    0 -0.11170214529E+01  0.35461900333E+00  0.13980707896E+00  0.90007729869E+02  0.89999991103E+02 0.  0.
        -12    1    1    2    0    0  0.11170214529E+01 -0.35461900333E+00 -0.13980707896E+00  0.11802701314E+01  0.00000000000E+00 0.  1.
         11    1    3    3    0    0 -0.28147075668E+02 -0.14819358823E+02  0.14271841931E+02  0.34864835250E+02  0.51100000000E-03 0. -1.
        -11    1    3    3    0    0  0.10331026890E+02  0.91047495411E+01  0.15411926066E+02  0.20667705391E+02  0.51100000000E-03 0.  1.
        -12    1    3    3    0    0  0.16699027325E+02  0.60692282854E+01 -0.29543960918E+02  0.34475189228E+02  0.00000000000E+00 0.  1.
</event>
<event>
 7    1  0.1910099E-015  0.9000764E+02  0.7816164E-02  0.1186339E+00
        -11   -1    0    0    0    0  0.00000000000E+00  0.00000000000E+00  0.45593999997E+02  0.45594000000E+02  0.51100000000E-03 0.  1.
         11   -1    0    0    0    0 -0.00000000000E+00 -0.00000000000E+00 -0.45593999997E+02  0.45594000000E+02  0.51100000000E-03 0. -1.
    9900012    2    1    2    0    0  0.98824792834E+00  0.55085238778E+00 -0.33642620402E+00  0.90007637805E+02  0.89999897824E+02 0.  0.
        -12    1    1    2    0    0 -0.98824792834E+00 -0.55085238778E+00  0.33642620402E+00  0.11803621952E+01  0.00000000000E+00 0.  1.
         11    1    3    3    0    0  0.24449215205E+02 -0.80892151088E+00 -0.30163298667E+02  0.38836105172E+02  0.51100000000E-03 0. -1.
        -11    1    3    3    0    0 -0.53744176388E+01  0.10332895800E+01 -0.77381243729E+01  0.94779017395E+01  0.51100000000E-03 0.  1.
        -12    1    3    3    0    0 -0.18086549638E+02  0.32648431868E+00  0.37564996836E+02  0.41693630894E+02  0.00000000000E+00 0.  1.
</event>
<event>
 7    1  0.1910099E-015  0.9000780E+02  0.7816164E-02  0.1186339E+00
        -11   -1    0    0    0    0  0.00000000000E+00  0.00000000000E+00  0.45593999997E+02  0.45594000000E+02  0.51100000000E-03 0.  1.
         11   -1    0    0    0    0 -0.00000000000E+00 -0.00000000000E+00 -0.45593999997E+02  0.45594000000E+02  0.51100000000E-03 0. -1.
    9900012    2    1    2    0    0  0.64844674041E+00 -0.66485629580E+00 -0.72826093209E+00  0.90007796181E+02  0.90000058291E+02 0.  0.
        -12    1    1    2    0    0 -0.64844674041E+00  0.66485629580E+00  0.72826093209E+00  0.11802038190E+01  0.00000000000E+00 0.  1.
         11    1    3    3    0    0 -0.94581418101E+01 -0.24744176231E+01 -0.99528442378E+00  0.98269924402E+01  0.51100000000E-03 0. -1.
        -11    1    3    3    0    0  0.40298790363E+01 -0.37534982910E+02 -0.10028522711E+02  0.39060032452E+02  0.51100000000E-03 0.  1.
         12    1    3    3    0    0  0.60767095142E+01  0.39344544237E+02  0.10295546203E+02  0.41120771289E+02  0.00000000000E+00 0. -1.
</event>
<event>
 7    1  0.1910099E-015  0.9000792E+02  0.7816164E-02  0.1186339E+00
        -11   -1    0    0    0    0  0.00000000000E+00  0.00000000000E+00  0.45593999997E+02  0.45594000000E+02  0.51100000000E-03 0. -1.
         11   -1    0    0    0    0 -0.00000000000E+00 -0.00000000000E+00 -0.45593999997E+02  0.45594000000E+02  0.51100000000E-03 0.  1.
    9900012    2    1    2    0    0 -0.41025080359E+00  0.53449232667E+00  0.96881449347E+00  0.90007919794E+02  0.90000183535E+02 0.  0.
        -12    1    1    2    0    0  0.41025080359E+00 -0.53449232667E+00 -0.96881449347E+00  0.11800802057E+01  0.00000000000E+00 0.  1.
         11    1    3    3    0    0 -0.25089642073E+02 -0.22896546727E+02  0.19226250768E+02  0.39030638097E+02  0.51100000000E-03 0. -1.
        -11    1    3    3    0    0 -0.69834492304E+01 -0.47495991515E+00 -0.66135880085E+01  0.96298336789E+01  0.51100000000E-03 0.  1.
        -12    1    3    3    0    0  0.31662840499E+02  0.23905998969E+02 -0.11643848266E+02  0.41347448019E+02  0.00000000000E+00 0.  1.
</event>
<event>
 7    1  0.1910099E-015  0.9000763E+02  0.7816164E-02  0.1186339E+00
        -11   -1    0    0    0    0  0.00000000000E+00  0.00000000000E+00  0.45593999997E+02  0.45594000000E+02  0.51100000000E-03 0.  1.
         11   -1    0    0    0    0 -0.00000000000E+00 -0.00000000000E+00 -0.45593999997E+02  0.45594000000E+02  0.51100000000E-03 0. -1.
    9900012    2    1    2    0    0  0.51205432036E-01 -0.11327752273E+01 -0.32782316273E+00  0.90007631525E+02  0.89999891461E+02 0.  0.
        -12    1    1    2    0    0 -0.51205432036E-01  0.11327752273E+01  0.32782316273E+00  0.11803684754E+01  0.00000000000E+00 0.  1.
         11    1    3    3    0    0 -0.36213171421E+01  0.55515033621E+01 -0.70669864432E+01  0.96889331236E+01  0.51100000000E-03 0. -1.
        -11    1    3    3    0    0  0.17713145397E+02  0.27131381599E+02 -0.17090253258E+02  0.36632555795E+02  0.51100000000E-03 0.  1.
         12    1    3    3    0    0 -0.14040622823E+02 -0.33815660189E+02  0.23829416539E+02  0.43686142606E+02  0.00000000000E+00 0. -1.
</event>
<event>
 7    1  0.1910099E-015  0.9000779E+02  0.7816164E-02  0.1186339E+00
        -11   -1    0    0    0    0  0.00000000000E+00  0.00000000000E+00  0.45593999997E+02  0.45594000000E+02  0.51100000000E-03 0. -1.
         11   -1    0    0    0    0 -0.00000000000E+00 -0.00000000000E+00 -0.45593999997E+02  0.45594000000E+02  0.51100000000E-03 0.  1.
    9900012    2    1    2    0    0  0.92936562626E+00  0.71885446995E+00  0.11150552473E+00  0.90007785741E+02  0.90000047712E+02 0.  0.
        -12    1    1    2    0    0 -0.92936562626E+00 -0.71885446995E+00 -0.11150552473E+00  0.11802142595E+01  0.00000000000E+00 0.  1.
         11    1    3    3    0    0 -0.91540216129E+01 -0.10684015906E+01 -0.42331189320E+01  0.10141838581E+02  0.51100000000E-03 0. -1.
        -11    1    3    3    0    0 -0.22452682627E+02 -0.12689006691E+02 -0.23321300582E+02  0.34770920451E+02  0.51100000000E-03 0.  1.
         12    1    3    3    0    0  0.32536069866E+02  0.14476262751E+02  0.27665925038E+02  0.45095026708E+02  0.00000000000E+00 0. -1.
</event>
<event>
 7    1  0.1910099E-015  0.9000750E+02  0.7816164E-02  0.1186340E+00
        -11   -1    0    0    0    0  0.00000000000E+00  0.00000000000E+00  0.45593999997E+02  0.45594000000E+02  0.51100000000E-03 0. -1.
         11   -1    0    0    0    0 -0.00000000000E+00 -0.00000000000E+00 -0.45593999997E+02  0.45594000000E+02  0.51100000000E-03 0.  1.
    9900012    2    1    2    0    0 -0.51754942248E+00  0.28506386787E+00 -0.10219856828E+01  0.90007502838E+02  0.89999761075E+02 0.  0.
        -12    1    1    2    0    0  0.51754942248E+00 -0.28506386787E+00  0.10219856828E+01  0.11804971620E+01  0.00000000000E+00 0.  1.
         11    1    3    3    0    0 -0.31000026670E+02  0.16993069480E+02  0.26960355408E+02  0.44459271563E+02  0.51100000000E-03 0. -1.
        -11    1    3    3    0    0  0.66708325084E+01 -0.66255667960E+01 -0.37889136083E+01  0.10136765180E+02  0.51100000000E-03 0.  1.
        -12    1    3    3    0    0  0.23811644739E+02 -0.10082438816E+02 -0.24193427482E+02  0.35411466095E+02  0.00000000000E+00 0.  1.
</event>
<event>
 7    1  0.1910099E-015  0.9000778E+02  0.7816164E-02  0.1186339E+00
        -11   -1    0    0    0    0  0.00000000000E+00  0.00000000000E+00  0.45593999997E+02  0.45594000000E+02  0.51100000000E-03 0.  1.
         11   -1    0    0    0    0 -0.00000000000E+00 -0.00000000000E+00 -0.45593999997E+02  0.45594000000E+02  0.51100000000E-03 0. -1.
    9900012    2    1    2    0    0  0.80353098782E+00 -0.76746805352E+00  0.39781319147E+00  0.90007777734E+02  0.90000039600E+02 0.  0.
        -12    1    1    2    0    0 -0.80353098782E+00  0.76746805352E+00 -0.39781319147E+00  0.11802222659E+01  0.00000000000E+00 0.  1.
         11    1    3    3    0    0 -0.23874213938E+01 -0.46969276348E+01  0.29499527816E+01  0.60384709814E+01  0.51100000000E-03 0. -1.
        -11    1    3    3    0    0 -0.26998259070E+02  0.27343321004E+02 -0.18404668329E+02  0.42606279032E+02  0.51100000000E-03 0.  1.
         12    1    3    3    0    0  0.30189211452E+02 -0.23413861423E+02  0.15852528739E+02  0.41363027721E+02  0.00000000000E+00 0. -1.
</event>
<event>
 7    1  0.1910099E-015  0.9000774E+02  0.7816164E-02  0.1186339E+00
        -11   -1    0    0    0    0  0.00000000000E+00  0.00000000000E+00  0.45593999997E+02  0.45594000000E+02  0.51100000000E-03 0.  1.
         11   -1    0    0    0    0 -0.00000000000E+00 -0.00000000000E+00 -0.45593999997E+02  0.45594000000E+02  0.51100000000E-03 0. -1.
    9900012    2    1    2    0    0  0.17733268506E-01 -0.85584412846E-01 -0.11770184907E+01  0.90007740839E+02  0.90000002218E+02 0.  0.
        -12    1    1    2    0    0 -0.17733268506E-01  0.85584412846E-01  0.11770184907E+01  0.11802591614E+01  0.00000000000E+00 0.  1.
         11    1    3    3    0    0 -0.29367470023E+02 -0.61768503849E+00 -0.24254222946E+02  0.38093269239E+02  0.51100000000E-03 0. -1.
        -11    1    3    3    0    0  0.32447400578E+01  0.59805106682E+01 -0.82875295457E+01  0.10722779123E+02  0.51100000000E-03 0.  1.
        -12    1    3    3    0    0  0.26140463234E+02 -0.54484100425E+01  0.31364734001E+02  0.41191692476E+02  0.00000000000E+00 0.  1.
</event>
<event>
 7    1  0.1910099E-015  0.9000759E+02  0.7816164E-02  0.1186339E+00
        -11   -1    0    0    0    0  0.00000000000E+00  0.00000000000E+00  0.45593999997E+02  0.45594000000E+02  0.51100000000E-03 0. -1.
         11   -1    0    0    0    0 -0.00000000000E+00 -0.00000000000E+00 -0.45593999997E+02  0.45594000000E+02  0.51100000000E-03 0.  1.
    9900012    2    1    2    0    0 -0.66793090272E+00  0.51147806209E+00 -0.82801858343E+00  0.90007594869E+02  0.89999854321E+02 0.  0.
        -12    1    1    2    0    0  0.66793090272E+00 -0.51147806209E+00  0.82801858343E+00  0.11804051310E+01  0.00000000000E+00 0.  1.
         11    1    3    3    0    0 -0.73963233506E+01 -0.11767777862E+02  0.36588570100E+02  0.39139617489E+02  0.51100000000E-03 0. -1.
        -11    1    3    3    0    0 -0.60130949497E+01  0.81190365280E+01  0.10264942528E+01  0.10155282159E+02  0.51100000000E-03 0.  1.
        -12    1    3    3    0    0  0.12741487398E+02  0.41602193965E+01 -0.38443082936E+02  0.40712695221E+02  0.00000000000E+00 0.  1.
</event>
<event>
 7    1  0.1910099E-015  0.9000779E+02  0.7816164E-02  0.1186339E+00
        -11   -1    0    0    0    0  0.00000000000E+00  0.00000000000E+00  0.45593999997E+02  0.45594000000E+02  0.51100000000E-03 0.  1.
         11   -1    0    0    0    0 -0.00000000000E+00 -0.00000000000E+00 -0.45593999997E+02  0.45594000000E+02  0.51100000000E-03 0. -1.
    9900012    2    1    2    0    0  0.97441656291E+00  0.66448140727E+00  0.43392100011E-01  0.90007785590E+02  0.90000047560E+02 0.  0.
        -12    1    1    2    0    0 -0.97441656291E+00 -0.66448140727E+00 -0.43392100011E-01  0.11802144098E+01  0.00000000000E+00 0.  1.
         11    1    3    3    0    0 -0.68314142576E+01  0.39563408437E+02 -0.19393884556E+01  0.40195680561E+02  0.51100000000E-03 0. -1.
        -11    1    3    3    0    0 -0.67307745848E+01 -0.15565228179E+01  0.65008690932E+01  0.94861683003E+01  0.51100000000E-03 0.  1.
        -12    1    3    3    0    0  0.14536605405E+02 -0.37342404212E+02 -0.45180885376E+01  0.40325936729E+02  0.00000000000E+00 0.  1.
</event>
<event>
 7    1  0.1910099E-015  0.9000802E+02  0.7816164E-02  0.1186338E+00
        -11   -1    0    0    0    0  0.00000000000E+00  0.00000000000E+00  0.45593999997E+02  0.45594000000E+02  0.51100000000E-03 0.  1.
         11   -1    0    0    0    0 -0.00000000000E+00 -0.00000000000E+00 -0.45593999997E+02  0.45594000000E+02  0.51100000000E-03 0. -1.
    9900012    2    1    2    0    0  0.94978163987E-01  0.11643219153E+01  0.16641342565E+00  0.90008017033E+02  0.90000282057E+02 0.  0.
        -12    1    1    2    0    0 -0.94978163987E-01 -0.11643219153E+01 -0.16641342565E+00  0.11799829670E+01  0.00000000000E+00 0.  1.
         11    1    3    3    0    0  0.53799335802E+01 -0.17279389381E+02 -0.19895936131E+01  0.18206577540E+02  0.51100000000E-03 0. -1.
        -11    1    3    3    0    0  0.16733691596E+02 -0.88878068086E+01 -0.22120574414E+02  0.29126094091E+02  0.51100000000E-03 0.  1.
        -12    1    3    3    0    0 -0.22018647012E+02  0.27331518105E+02  0.24276581453E+02  0.42675345402E+02  0.00000000000E+00 0.  1.
</event>
<event>
 7    1  0.1910099E-015  0.9000753E+02  0.7816164E-02  0.1186339E+00
        -11   -1    0    0    0    0  0.00000000000E+00  0.00000000000E+00  0.45593999997E+02  0.45594000000E+02  0.51100000000E-03 0. -1.
         11   -1    0    0    0    0 -0.00000000000E+00 -0.00000000000E+00 -0.45593999997E+02  0.45594000000E+02  0.51100000000E-03 0.  1.
    9900012    2    1    2    0    0 -0.50778750425E+00  0.78601494452E+00  0.71961964553E+00  0.90007525487E+02  0.89999784023E+02 0.  0.
        -12    1    1    2    0    0  0.50778750425E+00 -0.78601494452E+00 -0.71961964553E+00  0.11804745134E+01  0.00000000000E+00 0.  1.
         11    1    3    3    0    0  0.70212747422E+01  0.37926034750E+01 -0.63602751752E+01  0.10204667593E+02  0.51100000000E-03 0. -1.
        -11    1    3    3    0    0 -0.23305667475E+02  0.21003919401E+02 -0.22468729088E+02  0.38589669003E+02  0.51100000000E-03 0.  1.
         12    1    3    3    0    0  0.15776605229E+02 -0.24010507931E+02  0.29548623908E+02  0.41213188891E+02  0.00000000000E+00 0. -1.
</event>
<event>
 7    1  0.1910099E-015  0.9000774E+02  0.7816164E-02  0.1186339E+00
        -11   -1    0    0    0    0  0.00000000000E+00  0.00000000000E+00  0.45593999997E+02  0.45594000000E+02  0.51100000000E-03 0. -1.
         11   -1    0    0    0    0 -0.00000000000E+00 -0.00000000000E+00 -0.45593999997E+02  0.45594000000E+02  0.51100000000E-03 0.  1.
    9900012    2    1    2    0    0 -0.48787697652E+00  0.32759009554E+00  0.10235569350E+01  0.90007742395E+02  0.90000003795E+02 0.  0.
        -12    1    1    2    0    0  0.48787697652E+00 -0.32759009554E+00 -0.10235569350E+01  0.11802576050E+01  0.00000000000E+00 0.  1.
         11    1    3    3    0    0 -0.27125351058E+01  0.34676915874E+02  0.26549239943E+02  0.43757382041E+02  0.51100000000E-03 0. -1.
        -11    1    3    3    0    0  0.61463343599E+01 -0.70583825365E+01 -0.11147897192E+01  0.94255475424E+01  0.51100000000E-03 0.  1.
        -12    1    3    3    0    0 -0.39216762306E+01 -0.27290943242E+02 -0.24410893288E+02  0.36824812812E+02  0.00000000000E+00 0.  1.
</event>
<event>
 7    1  0.1910099E-015  0.9000756E+02  0.7816164E-02  0.1186339E+00
        -11   -1    0    0    0    0  0.00000000000E+00  0.00000000000E+00  0.45593999997E+02  0.45594000000E+02  0.51100000000E-03 0. -1.
         11   -1    0    0    0    0 -0.00000000000E+00 -0.00000000000E+00 -0.45593999997E+02  0.45594000000E+02  0.51100000000E-03 0.  1.
    9900012    2    1    2    0    0  0.67760350079E-01 -0.11094616202E+01  0.39743261305E+00  0.90007555493E+02  0.89999814425E+02 0.  0.
        -12    1    1    2    0    0 -0.67760350079E-01  0.11094616202E+01 -0.39743261305E+00  0.11804445068E+01  0.00000000000E+00 0.  1.
         11    1    3    3    0    0  0.33526843376E+01 -0.20411529314E+02  0.39299204007E+02  0.44410566953E+02  0.51100000000E-03 0. -1.
        -11    1    3    3    0    0  0.48572776175E+01  0.41747597278E+01 -0.80771964704E+01  0.10308388221E+02  0.51100000000E-03 0.  1.
        -12    1    3    3    0    0 -0.81422016050E+01  0.15127307966E+02 -0.30824574923E+02  0.35288600319E+02  0.00000000000E+00 0.  1.
</event>
<event>
 7    1  0.1910099E-015  0.9000783E+02  0.7816164E-02  0.1186339E+00
        -11   -1    0    0    0    0  0.00000000000E+00  0.00000000000E+00  0.45593999997E+02  0.45594000000E+02  0.51100000000E-03 0.  1.
         11   -1    0    0    0    0 -0.00000000000E+00 -0.00000000000E+00 -0.45593999997E+02  0.45594000000E+02  0.51100000000E-03 0. -1.
    9900012    2    1    2    0    0  0.70399900807E+00  0.58870658930E+00 -0.74203709966E+00  0.90007826661E+02  0.90000089173E+02 0.  0.
        -12    1    1    2    0    0 -0.70399900807E+00 -0.58870658930E+00  0.74203709966E+00  0.11801733385E+01  0.00000000000E+00 0.  1.
         11    1    3    3    0    0  0.11770483832E+02 -0.18317584944E+02 -0.30621394969E+02  0.37573235659E+02  0.51100000000E-03 0. -1.
        -11    1    3    3    0    0  0.66390119729E+01  0.41753343678E+01 -0.59475227243E+01  0.98429123676E+01  0.51100000000E-03 0.  1.
        -12    1    3    3    0    0 -0.17705496797E+02  0.14730957165E+02  0.35826880594E+02  0.42591678634E+02  0.00000000000E+00 0.  1.
</event>
<event>
 7    1  0.1910099E-015  0.9000775E+02  0.7816164E-02  0.1186339E+00
        -11   -1    0    0    0    0  0.00000000000E+00  0.00000000000E+00  0.45593999997E+02  0.45594000000E+02  0.51100000000E-03 0.  1.
         11   -1    0    0    0    0 -0.00000000000E+00 -0.00000000000E+00 -0.45593999997E+02  0.45594000000E+02  0.51100000000E-03 0. -1.
    9900012    2    1    2    0    0  0.84052251384E-01 -0.43846454421E+00 -0.10925511360E+01  0.90007752601E+02  0.90000014136E+02 0.  0.
        -12    1    1    2    0    0 -0.84052251384E-01  0.43846454421E+00  0.10925511360E+01  0.11802473988E+01  0.00000000000E+00 0.  1.
         11    1    3    3    0    0 -0.10869507028E+02 -0.27720319162E+01 -0.54580595478E+01  0.12474804939E+02  0.51100000000E-03 0. -1.
        -11    1    3    3    0    0 -0.95148760584E+01 -0.33413405186E+02 -0.55034953339E+01  0.35174948098E+02  0.51100000000E-03 0.  1.
         12    1    3    3    0    0  0.20468435337E+02  0.35746972558E+02  0.98690037456E+01  0.42357999565E+02  0.00000000000E+00 0. -1.
</event>
<event>
 7    1  0.1910099E-015  0.9000811E+02  0.7816164E-02  0.1186338E+00
        -11   -1    0    0    0    0  0.00000000000E+00  0.00000000000E+00  0.45593999997E+02  0.45594000000E+02  0.51100000000E-03 0.  1.
         11   -1    0    0    0    0 -0.00000000000E+00 -0.00000000000E+00 -0.45593999997E+02  0.45594000000E+02  0.51100000000E-03 0. -1.
    9900012    2    1    2    0    0  0.49225057891E+00  0.16093458870E+00 -0.10601608697E+01  0.90008105240E+02  0.90000371429E+02 0.  0.
        -12    1    1    2    0    0 -0.49225057891E+00 -0.16093458870E+00  0.10601608697E+01  0.11798947596E+01  0.00000000000E+00 0.  1.
         11    1    3    3    0    0  0.21912791497E+01  0.88300067582E+01 -0.58039949871E+01  0.10791528239E+02  0.51100000000E-03 0. -1.
        -11    1    3    3    0    0  0.23373236946E+02 -0.33466774569E+02 -0.82293860611E+01  0.41641998038E+02  0.51100000000E-03 0.  1.
         12    1    3    3    0    0 -0.25072265517E+02  0.24797702400E+02  0.12973220178E+02  0.37574578963E+02  0.00000000000E+00 0. -1.
</event>
<event>
 7    1  0.1910099E-015  0.9000787E+02  0.7816164E-02  0.1186339E+00
        -11   -1    0    0    0    0  0.00000000000E+00  0.00000000000E+00  0.45593999997E+02  0.45594000000E+02  0.51100000000E-03 0.  1.
         11   -1    0    0    0    0 -0.00000000000E+00 -0.00000000000E+00 -0.45593999997E+02  0.45594000000E+02  0.51100000000E-03 0. -1.
    9900012    2    1    2    0    0  0.14744817821E+00  0.11154854558E+01  0.35588419597E+00  0.90007871902E+02  0.90000135011E+02 0.  0.
        -12    1    1    2    0    0 -0.14744817821E+00 -0.11154854558E+01 -0.35588419597E+00  0.11801280983E+01  0.00000000000E+00 0.  1.
         11    1    3    3    0    0 -0.30997841875E+02 -0.20962542297E+02 -0.11551580722E+02  0.39162908446E+02  0.51100000000E-03 0. -1.
        -11    1    3    3    0    0 -0.14310353129E+01  0.30431144346E+01 -0.76434229139E+01  0.83504683480E+01  0.51100000000E-03 0.  1.
        -12    1    3    3    0    0  0.32576325367E+02  0.19034913319E+02  0.19550887832E+02  0.42494495108E+02  0.00000000000E+00 0.  1.
</event>
<event>
 7    1  0.1910099E-015  0.9000778E+02  0.7816164E-02  0.1186339E+00
        -11   -1    0    0    0    0  0.00000000000E+00  0.00000000000E+00  0.45593999997E+02  0.45594000000E+02  0.51100000000E-03 0. -1.
         11   -1    0    0    0    0 -0.00000000000E+00 -0.00000000000E+00 -0.45593999997E+02  0.45594000000E+02  0.51100000000E-03 0.  1.
    9900012    2    1    2    0    0 -0.24692287841E-01 -0.11582979234E+01 -0.22507293225E+00  0.90007778998E+02  0.90000040881E+02 0.  0.
        -12    1    1    2    0    0  0.24692287841E-01  0.11582979234E+01  0.22507293225E+00  0.11802210019E+01  0.00000000000E+00 0.  1.
         11    1    3    3    0    0  0.30348163642E+01  0.14838223618E+02 -0.50875334642E+01  0.15977045644E+02  0.51100000000E-03 0. -1.
        -11    1    3    3    0    0  0.89793439638E+01  0.40187308691E+01 -0.30277949234E+02  0.31836033451E+02  0.51100000000E-03 0.  1.
         12    1    3    3    0    0 -0.12038852616E+02 -0.20015252410E+02  0.35140409766E+02  0.42194699903E+02  0.00000000000E+00 0. -1.
</event>
<event>
 7    1  0.1910099E-015  0.9000786E+02  0.7816164E-02  0.1186339E+00
        -11   -1    0    0    0    0  0.00000000000E+00  0.00000000000E+00  0.45593999997E+02  0.45594000000E+02  0.51100000000E-03 0.  1.
         11   -1    0    0    0    0 -0.00000000000E+00 -0.00000000000E+00 -0.45593999997E+02  0.45594000000E+02  0.51100000000E-03 0. -1.
    9900012    2    1    2    0    0  0.47416276334E+00 -0.60541017657E+00 -0.89519779609E+00  0.90007859796E+02  0.90000122745E+02 0.  0.
        -12    1    1    2    0    0 -0.47416276334E+00  0.60541017657E+00  0.89519779609E+00  0.11801402044E+01  0.00000000000E+00 0.  1.
         11    1    3    3    0    0  0.28821111660E+02  0.12459810270E+02 -0.15679922211E+02  0.35096485722E+02  0.51100000000E-03 0. -1.
        -11    1    3    3    0    0  0.80895515847E+01 -0.11042739178E+02 -0.34496291404E+01  0.14116758653E+02  0.51100000000E-03 0.  1.
        -12    1    3    3    0    0 -0.36436500481E+02 -0.20224812683E+01  0.18234353555E+02  0.40794615421E+02  0.00000000000E+00 0.  1.
</event>
<event>
 7    1  0.1910099E-015  0.9000763E+02  0.7816164E-02  0.1186339E+00
        -11   -1    0    0    0    0  0.00000000000E+00  0.00000000000E+00  0.45593999997E+02  0.45594000000E+02  0.51100000000E-03 0. -1.
         11   -1    0    0    0    0 -0.00000000000E+00 -0.00000000000E+00 -0.45593999997E+02  0.45594000000E+02  0.51100000000E-03 0.  1.
    9900012    2    1    2    0    0  0.11248745092E+01  0.50248503816E-01  0.35411134595E+00  0.90007634625E+02  0.89999894602E+02 0.  0.
        -12    1    1    2    0    0 -0.11248745092E+01 -0.50248503816E-01 -0.35411134595E+00  0.11803653752E+01  0.00000000000E+00 0.  1.
         11    1    3    3    0    0 -0.83199202762E+01  0.30224223477E+01  0.30801951776E+01  0.93724976844E+01  0.51100000000E-03 0. -1.
        -11    1    3    3    0    0 -0.10640304520E+01 -0.35433315625E+02 -0.21730534251E+02  0.41579660124E+02  0.51100000000E-03 0.  1.
         12    1    3    3    0    0  0.10508825237E+02  0.32461141781E+02  0.19004450419E+02  0.39055476816E+02  0.00000000000E+00 0. -1.
</event>
<event>
 7    1  0.1910099E-015  0.9000761E+02  0.7816164E-02  0.1186339E+00
        -11   -1    0    0    0    0  0.00000000000E+00  0.00000000000E+00  0.45593999997E+02  0.45594000000E+02  0.51100000000E-03 0. -1.
         11   -1    0    0    0    0 -0.00000000000E+00 -0.00000000000E+00 -0.45593999997E+02  0.45594000000E+02  0.51100000000E-03 0.  1.
    9900012    2    1    2    0    0 -0.95210836447E+00 -0.69659798402E+00  0.39394065744E-01  0.90007614054E+02  0.89999873759E+02 0.  0.
        -12    1    1    2    0    0  0.95210836447E+00  0.69659798402E+00 -0.39394065744E-01  0.11803859460E+01  0.00000000000E+00 0.  1.
         11    1    3    3    0    0 -0.23109979057E+01  0.88502613521E+01 -0.15261920990E+00  0.91482856430E+01  0.51100000000E-03 0. -1.
        -11    1    3    3    0    0  0.10520212914E+02  0.33888354044E+02 -0.61659494400E+01  0.36015473790E+02  0.51100000000E-03 0.  1.
         12    1    3    3    0    0 -0.91613233730E+01 -0.43435213380E+02  0.63579627156E+01  0.44843854621E+02  0.00000000000E+00 0. -1.
</event>
<event>
 7    1  0.1910099E-015  0.9000763E+02  0.7816164E-02  0.1186339E+00
        -11   -1    0    0    0    0  0.00000000000E+00  0.00000000000E+00  0.45593999997E+02  0.45594000000E+02  0.51100000000E-03 0.  1.
         11   -1    0    0    0    0 -0.00000000000E+00 -0.00000000000E+00 -0.45593999997E+02  0.45594000000E+02  0.51100000000E-03 0. -1.
    9900012    2    1    2    0    0  0.11606781921E+01 -0.11685735363E+00 -0.18013417923E+00  0.90007628097E+02  0.89999887988E+02 0.  0.
        -12    1    1    2    0    0 -0.11606781921E+01  0.11685735363E+00  0.18013417923E+00  0.11803719030E+01  0.00000000000E+00 0.  1.
         11    1    3    3    0    0 -0.52670062486E+01  0.37198898549E+02 -0.14552144973E+00  0.37570208740E+02  0.51100000000E-03 0. -1.
        -11    1    3    3    0    0 -0.10727091079E+01  0.71991610024E+01  0.44872123974E+00  0.72924601460E+01  0.51100000000E-03 0.  1.
        -12    1    3    3    0    0  0.75003935486E+01 -0.44514916905E+02 -0.48333396924E+00  0.45144959211E+02  0.00000000000E+00 0.  1.
</event>
<event>
 7    1  0.1910099E-015  0.9000774E+02  0.7816164E-02  0.1186339E+00
        -11   -1    0    0    0    0  0.00000000000E+00  0.00000000000E+00  0.45593999997E+02  0.45594000000E+02  0.51100000000E-03 0. -1.
         11   -1    0    0    0    0 -0.00000000000E+00 -0.00000000000E+00 -0.45593999997E+02  0.45594000000E+02  0.51100000000E-03 0.  1.
    9900012    2    1    2    0    0  0.11790620423E+01 -0.29943469099E-01 -0.43981668692E-01  0.90007738038E+02  0.89999999380E+02 0.  0.
        -12    1    1    2    0    0 -0.11790620423E+01  0.29943469099E-01  0.43981668692E-01  0.11802619616E+01  0.00000000000E+00 0.  1.
         11    1    3    3    0    0 -0.26382110586E+02  0.77448432500E+00  0.21506042335E+02  0.34045931359E+02  0.51100000000E-03 0. -1.
        -11    1    3    3    0    0 -0.21250257226E+01  0.13882099609E+02  0.34546039668E+01  0.14462458736E+02  0.51100000000E-03 0.  1.
        -12    1    3    3    0    0  0.29686198351E+02 -0.14686527403E+02 -0.25004627971E+02  0.41499347942E+02  0.00000000000E+00 0.  1.
</event>
<event>
 7    1  0.1910099E-015  0.9000774E+02  0.7816164E-02  0.1186339E+00
        -11   -1    0    0    0    0  0.00000000000E+00  0.00000000000E+00  0.45593999997E+02  0.45594000000E+02  0.51100000000E-03 0.  1.
         11   -1    0    0    0    0 -0.00000000000E+00 -0.00000000000E+00 -0.45593999997E+02  0.45594000000E+02  0.51100000000E-03 0. -1.
    9900012    2    1    2    0    0  0.44563664032E+00  0.55617938735E+00 -0.94079028504E+00  0.90007739907E+02  0.90000001274E+02 0.  0.
        -12    1    1    2    0    0 -0.44563664032E+00 -0.55617938735E+00  0.94079028504E+00  0.11802600928E+01  0.00000000000E+00 0.  1.
         11    1    3    3    0    0 -0.80182711068E+01  0.19546340915E+02  0.35922673015E+02  0.41674819154E+02  0.51100000000E-03 0. -1.
        -11    1    3    3    0    0  0.74590193228E+01  0.15831565024E+01 -0.20726586063E+01  0.79018521708E+01  0.51100000000E-03 0.  1.
        -12    1    3    3    0    0  0.10048884243E+01 -0.20573318030E+02 -0.34790804693E+02  0.40431068583E+02  0.00000000000E+00 0.  1.
</event>
<event>
 7    1  0.1910099E-015  0.9000774E+02  0.7816164E-02  0.1186339E+00
        -11   -1    0    0    0    0  0.00000000000E+00  0.00000000000E+00  0.45593999997E+02  0.45594000000E+02  0.51100000000E-03 0.  1.
         11   -1    0    0    0    0 -0.00000000000E+00 -0.00000000000E+00 -0.45593999997E+02  0.45594000000E+02  0.51100000000E-03 0. -1.
    9900012    2    1    2    0    0  0.97450561270E+00 -0.66463845484E+00  0.39981568582E-01  0.90007744099E+02  0.90000005522E+02 0.  0.
        -12    1    1    2    0    0 -0.97450561270E+00  0.66463845484E+00 -0.39981568582E-01  0.11802559005E+01  0.00000000000E+00 0.  1.
         11    1    3    3    0    0  0.32718166899E+01  0.34576752040E+02 -0.13637895509E+01  0.34757970140E+02  0.51100000000E-03 0. -1.
        -11    1    3    3    0    0 -0.97061638232E+01  0.71733253331E+01  0.17234539887E+01  0.12191657246E+02  0.51100000000E-03 0.  1.
        -12    1    3    3    0    0  0.74088527460E+01 -0.42414715828E+02 -0.31968286920E+00  0.43058116713E+02  0.00000000000E+00 0.  1.
</event>
<event>
 7    1  0.1910099E-015  0.9000772E+02  0.7816164E-02  0.1186339E+00
        -11   -1    0    0    0    0  0.00000000000E+00  0.00000000000E+00  0.45593999997E+02  0.45594000000E+02  0.51100000000E-03 0. -1.
         11   -1    0    0    0    0 -0.00000000000E+00 -0.00000000000E+00 -0.45593999997E+02  0.45594000000E+02  0.51100000000E-03 0.  1.
    9900012    2    1    2    0    0  0.82583696741E-01  0.11755339972E+01 -0.66056458489E-01  0.90007718804E+02  0.89999979892E+02 0.  0.
        -12    1    1    2    0    0 -0.82583696741E-01 -0.11755339972E+01  0.66056458489E-01  0.11802811959E+01  0.00000000000E+00 0.  1.
         11    1    3    3    0    0 -0.40505879758E+01 -0.53594019799E+01 -0.59287787627E+01  0.89599592862E+01  0.51100000000E-03 0. -1.
        -11    1    3    3    0    0 -0.13217526420E+02 -0.28781082933E+02 -0.16580986011E+02  0.35748885813E+02  0.51100000000E-03 0.  1.
         12    1    3    3    0    0  0.17350698093E+02  0.35316018910E+02  0.22443708316E+02  0.45298873705E+02  0.00000000000E+00 0. -1.
</event>
<event>
 7    1  0.1910099E-015  0.9000773E+02  0.7816164E-02  0.1186339E+00
        -11   -1    0    0    0    0  0.00000000000E+00  0.00000000000E+00  0.45593999997E+02  0.45594000000E+02  0.51100000000E-03 0. -1.
         11   -1    0    0    0    0 -0.00000000000E+00 -0.00000000000E+00 -0.45593999997E+02  0.45594000000E+02  0.51100000000E-03 0.  1.
    9900012    2    1    2    0    0 -0.91734323501E-01  0.11754580872E+01  0.54062403846E-01  0.90007728995E+02  0.89999990218E+02 0.  0.
        -12    1    1    2    0    0  0.91734323501E-01 -0.11754580872E+01 -0.54062403846E-01  0.11802710046E+01  0.00000000000E+00 0.  1.
         11    1    3    3    0    0 -0.10258294850E+02  0.33816061610E+02  0.80973064092E+01  0.36253620610E+02  0.51100000000E-03 0. -1.
        -11    1    3    3    0    0 -0.24170170625E+01  0.75908691103E+01  0.52658494378E+01  0.95494730688E+01  0.51100000000E-03 0.  1.
        -12    1    3    3    0    0  0.12583577589E+02 -0.40231472633E+02 -0.13309093443E+02  0.44204635316E+02  0.00000000000E+00 0.  1.
</event>
<event>
 7    1  0.1910099E-015  0.9000794E+02  0.7816164E-02  0.1186339E+00
        -11   -1    0    0    0    0  0.00000000000E+00  0.00000000000E+00  0.45593999997E+02  0.45594000000E+02  0.51100000000E-03 0.  1.
         11   -1    0    0    0    0 -0.00000000000E+00 -0.00000000000E+00 -0.45593999997E+02  0.45594000000E+02  0.51100000000E-03 0. -1.
    9900012    2    1    2    0    0 -0.11352894981E+01  0.33511685817E-01  0.32022538054E+00  0.90007936624E+02  0.90000200587E+02 0.  0.
        -12    1    1    2    0    0  0.11352894981E+01 -0.33511685817E-01 -0.32022538054E+00  0.11800633763E+01  0.00000000000E+00 0.  1.
         11    1    3    3    0    0  0.64573325483E+01 -0.12765743808E+02 -0.97473761666E+01  0.17311057189E+02  0.51100000000E-03 0. -1.
        -11    1    3    3    0    0  0.17810392655E+02 -0.15935232213E+02  0.22048401470E+02  0.32515745721E+02  0.51100000000E-03 0.  1.
         12    1    3    3    0    0 -0.25403014701E+02  0.28734487707E+02 -0.11980799922E+02  0.40181133713E+02  0.00000000000E+00 0. -1.
</event>
<event>
 7    1  0.1910099E-015  0.9000769E+02  0.7816164E-02  0.1186339E+00
        -11   -1    0    0    0    0  0.00000000000E+00  0.00000000000E+00  0.45593999997E+02  0.45594000000E+02  0.51100000000E-03 0.  1.
         11   -1    0    0    0    0 -0.00000000000E+00 -0.00000000000E+00 -0.45593999997E+02  0.45594000000E+02  0.51100000000E-03 0. -1.
    9900012    2    1    2    0    0  0.11031910988E+01  0.17217769209E+00 -0.38269672770E+00  0.90007689641E+02  0.89999950344E+02 0.  0.
        -12    1    1    2    0    0 -0.11031910988E+01 -0.17217769209E+00  0.38269672770E+00  0.11803103590E+01  0.00000000000E+00 0.  1.
         11    1    3    3    0    0  0.58574436253E+01 -0.30649525309E+01  0.96346849767E+01  0.11684636695E+02  0.51100000000E-03 0. -1.
        -11    1    3    3    0    0  0.30745354931E+02 -0.18302620908E+02 -0.84769618210E+01  0.36771206996E+02  0.51100000000E-03 0.  1.
         12    1    3    3    0    0 -0.35499607458E+02  0.21539751131E+02 -0.15404198834E+01  0.41551845950E+02  0.00000000000E+00 0. -1.
</event>
<event>
 7    1  0.1910099E-015  0.9000767E+02  0.7816164E-02  0.1186339E+00
        -11   -1    0    0    0    0  0.00000000000E+00  0.00000000000E+00  0.45593999997E+02  0.45594000000E+02  0.51100000000E-03 0. -1.
         11   -1    0    0    0    0 -0.00000000000E+00 -0.00000000000E+00 -0.45593999997E+02  0.45594000000E+02  0.51100000000E-03 0.  1.
    9900012    2    1    2    0    0  0.23546012664E+00 -0.36277112551E+00  0.10982377920E+01  0.90007673516E+02  0.89999934007E+02 0.  0.
        -12    1    1    2    0    0 -0.23546012664E+00  0.36277112551E+00 -0.10982377920E+01  0.11803264839E+01  0.00000000000E+00 0.  1.
         11    1    3    3    0    0  0.11505504810E+01  0.96190919855E+01 -0.50004316115E+01  0.10902064648E+02  0.51100000000E-03 0. -1.
        -11    1    3    3    0    0 -0.72550291578E+01 -0.97876077758E+01 -0.35238216767E+02  0.37284911630E+02  0.51100000000E-03 0.  1.
         12    1    3    3    0    0  0.63399388034E+01 -0.19425533520E+00  0.41336886171E+02  0.41820697238E+02  0.00000000000E+00 0. -1.
</event>
<event>
 7    1  0.1910099E-015  0.9000778E+02  0.7816164E-02  0.1186339E+00
        -11   -1    0    0    0    0  0.00000000000E+00  0.00000000000E+00  0.45593999997E+02  0.45594000000E+02  0.51100000000E-03 0.  1.
         11   -1    0    0    0    0 -0.00000000000E+00 -0.00000000000E+00 -0.45593999997E+02  0.45594000000E+02  0.51100000000E-03 0. -1.
    9900012    2    1    2    0    0  0.10683425857E+01  0.30440816998E+00  0.39861033067E+00  0.90007783744E+02  0.90000045690E+02 0.  0.
        -12    1    1    2    0    0 -0.10683425857E+01 -0.30440816998E+00 -0.39861033067E+00  0.11802162557E+01  0.00000000000E+00 0.  1.
         11    1    3    3    0    0  0.30334121605E+02  0.15495676846E+02 -0.13396010989E+02  0.36602295627E+02  0.51100000000E-03 0. -1.
        -11    1    3    3    0    0  0.46938183328E+01  0.55319172943E+01 -0.55825427853E+01  0.91541697440E+01  0.51100000000E-03 0.  1.
        -12    1    3    3    0    0 -0.33959597352E+02 -0.20723185970E+02  0.19377164105E+02  0.44251318374E+02  0.00000000000E+00 0.  1.
</event>
<event>
 7    1  0.1910099E-015  0.9000774E+02  0.7816164E-02  0.1186339E+00
        -11   -1    0    0    0    0  0.00000000000E+00  0.00000000000E+00  0.45593999997E+02  0.45594000000E+02  0.51100000000E-03 0. -1.
         11   -1    0    0    0    0 -0.00000000000E+00 -0.00000000000E+00 -0.45593999997E+02  0.45594000000E+02  0.51100000000E-03 0.  1.
    9900012    2    1    2    0    0 -0.23612311819E+00  0.10838096100E+01  0.40324330396E+00  0.90007744706E+02  0.90000006136E+02 0.  0.
        -12    1    1    2    0    0  0.23612311819E+00 -0.10838096100E+01 -0.40324330396E+00  0.11802552944E+01  0.00000000000E+00 0.  1.
         11    1    3    3    0    0  0.92618761411E+01  0.38694834491E+02 -0.13076297580E+02  0.41881524860E+02  0.51100000000E-03 0. -1.
        -11    1    3    3    0    0 -0.35061491768E+01 -0.64865230470E+01 -0.71799184672E+01  0.10291709904E+02  0.51100000000E-03 0.  1.
        -12    1    3    3    0    0 -0.59918500825E+01 -0.31124501834E+02  0.20659459351E+02  0.37834509942E+02  0.00000000000E+00 0.  1.
</event>
<event>
 7    1  0.1910099E-015  0.9000769E+02  0.7816164E-02  0.1186339E+00
        -11   -1    0    0    0    0  0.00000000000E+00  0.00000000000E+00  0.45593999997E+02  0.45594000000E+02  0.51100000000E-03 0.  1.
         11   -1    0    0    0    0 -0.00000000000E+00 -0.00000000000E+00 -0.45593999997E+02  0.45594000000E+02  0.51100000000E-03 0. -1.
    9900012    2    1    2    0    0  0.10275707325E+01  0.23832988651E+00 -0.52955162854E+00  0.90007691705E+02  0.89999952435E+02 0.  0.
        -12    1    1    2    0    0 -0.10275707325E+01 -0.23832988651E+00  0.52955162854E+00  0.11803082954E+01  0.00000000000E+00 0.  1.
         11    1    3    3    0    0  0.20703300100E+02 -0.34005702908E+02 -0.15547885617E+02  0.42740510207E+02  0.51100000000E-03 0. -1.
        -11    1    3    3    0    0 -0.17259618168E+01  0.10739804529E+00 -0.39315577002E+01  0.42950698183E+01  0.51100000000E-03 0.  1.
        -12    1    3    3    0    0 -0.17949767551E+02  0.34136634750E+02  0.18949891689E+02  0.42972111679E+02  0.00000000000E+00 0.  1.
</event>
<event>
 7    1  0.1910099E-015  0.9000764E+02  0.7816164E-02  0.1186339E+00
        -11   -1    0    0    0    0  0.00000000000E+00  0.00000000000E+00  0.45593999997E+02  0.45594000000E+02  0.51100000000E-03 0.  1.
         11   -1    0    0    0    0 -0.00000000000E+00 -0.00000000000E+00 -0.45593999997E+02  0.45594000000E+02  0.51100000000E-03 0. -1.
    9900012    2    1    2    0    0  0.12243658901E+00  0.11265824231E+01  0.33027154471E+00  0.90007636510E+02  0.89999896512E+02 0.  0.
        -12    1    1    2    0    0 -0.12243658901E+00 -0.11265824231E+01 -0.33027154471E+00  0.11803634896E+01  0.00000000000E+00 0.  1.
         11    1    3    3    0    0  0.24258077347E+01 -0.11130251096E+02 -0.29552296583E+01  0.11768619937E+02  0.51100000000E-03 0. -1.
        -11    1    3    3    0    0  0.28804938439E+02 -0.55255075192E+01  0.23062589490E+02  0.37311375558E+02  0.51100000000E-03 0.  1.
         12    1    3    3    0    0 -0.31108309585E+02  0.17782341038E+02 -0.19777088286E+02  0.40927641016E+02  0.00000000000E+00 0. -1.
</event>
<event>
 7    1  0.1910099E-015  0.9000770E+02  0.7816164E-02  0.1186339E+00
        -11   -1    0    0    0    0  0.00000000000E+00  0.00000000000E+00  0.45593999997E+02  0.45594000000E+02  0.51100000000E-03 0. -1.
         11   -1    0    0    0    0 -0.00000000000E+00 -0.00000000000E+00 -0.45593999997E+02  0.45594000000E+02  0.51100000000E-03 0.  1.
    9900012    2    1    2    0    0 -0.88640500918E+00  0.76129742871E+00 -0.16677458916E+00  0.90007702843E+02  0.89999963721E+02 0.  0.
        -12    1    1    2    0    0  0.88640500918E+00 -0.76129742871E+00  0.16677458916E+00  0.11802971570E+01  0.00000000000E+00 0.  1.
         11    1    3    3    0    0 -0.98425247268E+01  0.23732958362E+01  0.59516897151E+01  0.11744378947E+02  0.51100000000E-03 0. -1.
        -11    1    3    3    0    0  0.36444570496E+02  0.13141050499E+02 -0.20590002715E+02  0.43873022906E+02  0.51100000000E-03 0.  1.
         12    1    3    3    0    0 -0.27488450778E+02 -0.14753048906E+02  0.14471538411E+02  0.34390300990E+02  0.00000000000E+00 0. -1.
</event>
<event>
 7    1  0.1910099E-015  0.9000777E+02  0.7816164E-02  0.1186339E+00
        -11   -1    0    0    0    0  0.00000000000E+00  0.00000000000E+00  0.45593999997E+02  0.45594000000E+02  0.51100000000E-03 0.  1.
         11   -1    0    0    0    0 -0.00000000000E+00 -0.00000000000E+00 -0.45593999997E+02  0.45594000000E+02  0.51100000000E-03 0. -1.
    9900012    2    1    2    0    0  0.29052916076E+00  0.11366326870E+01  0.12881288672E+00  0.90007773827E+02  0.90000035642E+02 0.  0.
        -12    1    1    2    0    0 -0.29052916076E+00 -0.11366326870E+01 -0.12881288672E+00  0.11802261725E+01  0.00000000000E+00 0.  1.
         11    1    3    3    0    0  0.27463059978E+01 -0.18999363830E+02 -0.32336991234E+02  0.37605837644E+02  0.51100000000E-03 0. -1.
        -11    1    3    3    0    0 -0.21585485407E+01 -0.89070893554E+01  0.45192505667E+00  0.91760453958E+01  0.51100000000E-03 0.  1.
        -12    1    3    3    0    0 -0.29722829642E+00  0.29043085872E+02  0.32013879064E+02  0.43225890788E+02  0.00000000000E+00 0.  1.
</event>
<event>
 7    1  0.1910099E-015  0.9000776E+02  0.7816164E-02  0.1186339E+00
        -11   -1    0    0    0    0  0.00000000000E+00  0.00000000000E+00  0.45593999997E+02  0.45594000000E+02  0.51100000000E-03 0. -1.
         11   -1    0    0    0    0 -0.00000000000E+00 -0.00000000000E+00 -0.45593999997E+02  0.45594000000E+02  0.51100000000E-03 0.  1.
    9900012    2    1    2    0    0  0.48644213307E+00  0.40646149928E+00  0.99555983084E+00  0.90007755841E+02  0.90000017418E+02 0.  0.
        -12    1    1    2    0    0 -0.48644213307E+00 -0.40646149928E+00 -0.99555983084E+00  0.11802441595E+01  0.00000000000E+00 0.  1.
         11    1    3    3    0    0  0.60266479094E+01 -0.80150081512E+01  0.39408098887E+01  0.10774545166E+02  0.51100000000E-03 0. -1.
        -11    1    3    3    0    0  0.35261262211E+02 -0.51605408155E+01  0.32576077432E+01  0.35785469156E+02  0.51100000000E-03 0.  1.
         12    1    3    3    0    0 -0.40801467987E+02  0.13582010466E+02 -0.62028578011E+01  0.43447741519E+02  0.00000000000E+00 0. -1.
</event>
<event>
 7    1  0.1910099E-015  0.9000776E+02  0.7816164E-02  0.1186339E+00
        -11   -1    0    0    0    0  0.00000000000E+00  0.00000000000E+00  0.45593999997E+02  0.45594000000E+02  0.51100000000E-03 0.  1.
         11   -1    0    0    0    0 -0.00000000000E+00 -0.00000000000E+00 -0.45593999997E+02  0.45594000000E+02  0.51100000000E-03 0. -1.
    9900012    2    1    2    0    0  0.10165866290E+01  0.44384547760E+00 -0.40314418591E+00  0.90007757475E+02  0.90000019074E+02 0.  0.
        -12    1    1    2    0    0 -0.10165866290E+01 -0.44384547760E+00  0.40314418591E+00  0.11802425246E+01  0.00000000000E+00 0.  1.
         11    1    3    3    0    0 -0.72875407089E+01 -0.76145058852E+01  0.42973387794E+01  0.11382269998E+02  0.51100000000E-03 0. -1.
        -11    1    3    3    0    0 -0.21341363881E+02 -0.75205464410E+01 -0.29337349270E+02  0.37049864960E+02  0.51100000000E-03 0.  1.
         12    1    3    3    0    0  0.29645491219E+02  0.15578897804E+02  0.24636866305E+02  0.41575622518E+02  0.00000000000E+00 0. -1.
</event>
<event>
 7    1  0.1910099E-015  0.9000768E+02  0.7816164E-02  0.1186339E+00
        -11   -1    0    0    0    0  0.00000000000E+00  0.00000000000E+00  0.45593999997E+02  0.45594000000E+02  0.51100000000E-03 0.  1.
         11   -1    0    0    0    0 -0.00000000000E+00 -0.00000000000E+00 -0.45593999997E+02  0.45594000000E+02  0.51100000000E-03 0. -1.
    9900012    2    1    2    0    0  0.13373652681E+00 -0.86657533742E+00 -0.79013109553E+00  0.90007684185E+02  0.89999944817E+02 0.  0.
        -12    1    1    2    0    0 -0.13373652681E+00  0.86657533742E+00  0.79013109553E+00  0.11803158146E+01  0.00000000000E+00 0.  1.
         11    1    3    3    0    0  0.10187350229E+02 -0.37215615848E+02 -0.19366599946E+02  0.43172321704E+02  0.51100000000E-03 0. -1.
        -11    1    3    3    0    0  0.58809959851E+01  0.64681866447E+01  0.64560577068E+01  0.10867577174E+02  0.51100000000E-03 0.  1.
        -12    1    3    3    0    0 -0.15934609688E+02  0.29880853865E+02  0.12120411144E+02  0.35967785307E+02  0.00000000000E+00 0.  1.
</event>
<event>
 7    1  0.1910099E-015  0.9000776E+02  0.7816164E-02  0.1186339E+00
        -11   -1    0    0    0    0  0.00000000000E+00  0.00000000000E+00  0.45593999997E+02  0.45594000000E+02  0.51100000000E-03 0. -1.
         11   -1    0    0    0    0 -0.00000000000E+00 -0.00000000000E+00 -0.45593999997E+02  0.45594000000E+02  0.51100000000E-03 0.  1.
    9900012    2    1    2    0    0 -0.11189797378E+01  0.73815628632E-01 -0.36796493548E+00  0.90007761637E+02  0.90000023290E+02 0.  0.
        -12    1    1    2    0    0  0.11189797378E+01 -0.73815628632E-01  0.36796493548E+00  0.11802383634E+01  0.00000000000E+00 0.  1.
         11    1    3    3    0    0 -0.12184547055E+02 -0.36576983718E+01 -0.35712904193E+01  0.13213480231E+02  0.51100000000E-03 0. -1.
        -11    1    3    3    0    0  0.17116926430E+02 -0.26563559810E+02 -0.20662089837E+02  0.37756242357E+02  0.51100000000E-03 0.  1.
         12    1    3    3    0    0 -0.60513591135E+01  0.30295073810E+02  0.23865415321E+02  0.39038039048E+02  0.00000000000E+00 0. -1.
</event>
<event>
 7    1  0.1910099E-015  0.9000770E+02  0.7816164E-02  0.1186339E+00
        -11   -1    0    0    0    0  0.00000000000E+00  0.00000000000E+00  0.45593999997E+02  0.45594000000E+02  0.51100000000E-03 0.  1.
         11   -1    0    0    0    0 -0.00000000000E+00 -0.00000000000E+00 -0.45593999997E+02  0.45594000000E+02  0.51100000000E-03 0. -1.
    9900012    2    1    2    0    0 -0.36326223166E-01 -0.10814715662E+01 -0.47138340061E+00  0.90007702303E+02  0.89999963173E+02 0.  0.
        -12    1    1    2    0    0  0.36326223166E-01  0.10814715662E+01  0.47138340061E+00  0.11802976970E+01  0.00000000000E+00 0.  1.
         11    1    3    3    0    0 -0.82893984933E+01  0.21551344950E+01 -0.78384779494E+01  0.11610360412E+02  0.51100000000E-03 0. -1.
        -11    1    3    3    0    0 -0.18768862051E+02  0.17079878214E+02 -0.22023168371E+02  0.33600779274E+02  0.51100000000E-03 0.  1.
         12    1    3    3    0    0  0.27021934321E+02 -0.20316484275E+02  0.29390262920E+02  0.44796562617E+02  0.00000000000E+00 0. -1.
</event>
<event>
 7    1  0.1910099E-015  0.9000767E+02  0.7816164E-02  0.1186339E+00
        -11   -1    0    0    0    0  0.00000000000E+00  0.00000000000E+00  0.45593999997E+02  0.45594000000E+02  0.51100000000E-03 0.  1.
         11   -1    0    0    0    0 -0.00000000000E+00 -0.00000000000E+00 -0.45593999997E+02  0.45594000000E+02  0.51100000000E-03 0. -1.
    9900012    2    1    2    0    0  0.10937261180E+01 -0.28838911512E-01 -0.44283686271E+00  0.90007672507E+02  0.89999932984E+02 0.  0.
        -12    1    1    2    0    0 -0.10937261180E+01  0.28838911512E-01  0.44283686271E+00  0.11803274931E+01  0.00000000000E+00 0.  1.
         11    1    3    3    0    0 -0.22737536312E+02  0.26931788645E+01  0.31870214805E+02  0.39242315960E+02  0.51100000000E-03 0. -1.
        -11    1    3    3    0    0  0.58635939837E+01  0.52620478850E+01  0.44691975722E+01  0.90578479536E+01  0.51100000000E-03 0.  1.
        -12    1    3    3    0    0  0.17967668446E+02 -0.79840656610E+01 -0.36782249240E+02  0.41707508593E+02  0.00000000000E+00 0.  1.
</event>
<event>
 7    1  0.1910099E-015  0.9000767E+02  0.7816164E-02  0.1186339E+00
        -11   -1    0    0    0    0  0.00000000000E+00  0.00000000000E+00  0.45593999997E+02  0.45594000000E+02  0.51100000000E-03 0.  1.
         11   -1    0    0    0    0 -0.00000000000E+00 -0.00000000000E+00 -0.45593999997E+02  0.45594000000E+02  0.51100000000E-03 0. -1.
    9900012    2    1    2    0    0  0.92480957189E+00  0.70372222590E+00 -0.20661151554E+00  0.90007666982E+02  0.89999927386E+02 0.  0.
        -12    1    1    2    0    0 -0.92480957189E+00 -0.70372222590E+00  0.20661151554E+00  0.11803330182E+01  0.00000000000E+00 0.  1.
         11    1    3    3    0    0 -0.51166535919E+01  0.72038691850E+01  0.15426392744E+01  0.89697052017E+01  0.51100000000E-03 0. -1.
        -11    1    3    3    0    0 -0.29429993390E+02  0.19561194268E+02 -0.89084025346E+01  0.36443442046E+02  0.51100000000E-03 0.  1.
         12    1    3    3    0    0  0.35471456554E+02 -0.26061341227E+02  0.71591517446E+01  0.44594519734E+02  0.00000000000E+00 0. -1.
</event>
<event>
 7    1  0.1910099E-015  0.9000739E+02  0.7816164E-02  0.1186340E+00
        -11   -1    0    0    0    0  0.00000000000E+00  0.00000000000E+00  0.45593999997E+02  0.45594000000E+02  0.51100000000E-03 0. -1.
         11   -1    0    0    0    0 -0.00000000000E+00 -0.00000000000E+00 -0.45593999997E+02  0.45594000000E+02  0.51100000000E-03 0.  1.
    9900012    2    1    2    0    0 -0.13179258185E+00 -0.10493459793E+01  0.52472364772E+00  0.90007393725E+02  0.89999650522E+02 0.  0.
        -12    1    1    2    0    0  0.13179258185E+00  0.10493459793E+01 -0.52472364772E+00  0.11806062745E+01  0.00000000000E+00 0.  1.
         11    1    3    3    0    0  0.26458584667E+01 -0.15631939249E+02  0.16938816965E+01  0.15944507743E+02  0.51100000000E-03 0. -1.
        -11    1    3    3    0    0 -0.11842988098E+02 -0.18710035272E+02  0.23006606458E+02  0.31931578852E+02  0.51100000000E-03 0.  1.
         12    1    3    3    0    0  0.90653370493E+01  0.33292628542E+02 -0.24175764507E+02  0.42131307131E+02  0.00000000000E+00 0. -1.
</event>
<event>
 7    1  0.1910099E-015  0.9000773E+02  0.7816164E-02  0.1186339E+00
        -11   -1    0    0    0    0  0.00000000000E+00  0.00000000000E+00  0.45593999997E+02  0.45594000000E+02  0.51100000000E-03 0. -1.
         11   -1    0    0    0    0 -0.00000000000E+00 -0.00000000000E+00 -0.45593999997E+02  0.45594000000E+02  0.51100000000E-03 0.  1.
    9900012    2    1    2    0    0 -0.40961908862E+00  0.45212900615E+00 -0.10103622727E+01  0.90007728693E+02  0.89999989912E+02 0.  0.
        -12    1    1    2    0    0  0.40961908862E+00 -0.45212900615E+00  0.10103622727E+01  0.11802713070E+01  0.00000000000E+00 0.  1.
         11    1    3    3    0    0 -0.52586962196E+01 -0.42062394302E+01  0.10908381838E+02  0.12819482464E+02  0.51100000000E-03 0. -1.
        -11    1    3    3    0    0 -0.18745894724E+02  0.22422480457E+02 -0.30541727125E+02  0.42272606909E+02  0.51100000000E-03 0.  1.
         12    1    3    3    0    0  0.23594971855E+02 -0.17764112021E+02  0.18622983015E+02  0.34915639319E+02  0.00000000000E+00 0. -1.
</event>
<event>
 7    1  0.1910099E-015  0.9000754E+02  0.7816164E-02  0.1186339E+00
        -11   -1    0    0    0    0  0.00000000000E+00  0.00000000000E+00  0.45593999997E+02  0.45594000000E+02  0.51100000000E-03 0.  1.
         11   -1    0    0    0    0 -0.00000000000E+00 -0.00000000000E+00 -0.45593999997E+02  0.45594000000E+02  0.51100000000E-03 0. -1.
    9900012    2    1    2    0    0 -0.95316478621E+00  0.34617454794E-01 -0.69553102650E+00  0.90007540392E+02  0.89999799125E+02 0.  0.
        -12    1    1    2    0    0  0.95316478621E+00 -0.34617454794E-01  0.69553102650E+00  0.11804596082E+01  0.00000000000E+00 0.  1.
         11    1    3    3    0    0  0.17870061980E+02  0.21068669616E+02  0.11996286126E+02  0.30118745586E+02  0.51100000000E-03 0.  1.
        -11    1    3    3    0    0  0.16892152300E+02 -0.10619483297E+02 -0.10680446517E+02  0.22631618875E+02  0.51100000000E-03 0. -1.
        -12    1    3    3    0    0 -0.35715379067E+02 -0.10414568864E+02 -0.20113706363E+01  0.37257175931E+02  0.00000000000E+00 0.  1.
</event>
<event>
 7    1  0.1910099E-015  0.9000769E+02  0.7816164E-02  0.1186339E+00
        -11   -1    0    0    0    0  0.00000000000E+00  0.00000000000E+00  0.45593999997E+02  0.45594000000E+02  0.51100000000E-03 0. -1.
         11   -1    0    0    0    0 -0.00000000000E+00 -0.00000000000E+00 -0.45593999997E+02  0.45594000000E+02  0.51100000000E-03 0.  1.
    9900012    2    1    2    0    0 -0.17952889615E+00  0.95073977448E+00  0.67600662886E+00  0.90007694232E+02  0.89999954996E+02 0.  0.
        -12    1    1    2    0    0  0.17952889615E+00 -0.95073977448E+00 -0.67600662886E+00  0.11803057678E+01  0.00000000000E+00 0.  1.
         11    1    3    3    0    0  0.87325070905E+01  0.48683688701E+01 -0.19245369989E+01  0.10181431062E+02  0.51100000000E-03 0. -1.
        -11    1    3    3    0    0  0.29536503542E+02  0.17708557066E+02 -0.57912724426E+01  0.34921868100E+02  0.51100000000E-03 0.  1.
         12    1    3    3    0    0 -0.38448539528E+02 -0.21626186161E+02  0.83918160704E+01  0.44904395071E+02  0.00000000000E+00 0. -1.
</event>
<event>
 7    1  0.1910099E-015  0.9000759E+02  0.7816164E-02  0.1186339E+00
        -11   -1    0    0    0    0  0.00000000000E+00  0.00000000000E+00  0.45593999997E+02  0.45594000000E+02  0.51100000000E-03 0. -1.
         11   -1    0    0    0    0 -0.00000000000E+00 -0.00000000000E+00 -0.45593999997E+02  0.45594000000E+02  0.51100000000E-03 0.  1.
    9900012    2    1    2    0    0 -0.34345917429E-01  0.11762333226E+01  0.93027418029E-01  0.90007593895E+02  0.89999853335E+02 0.  0.
        -12    1    1    2    0    0  0.34345917429E-01 -0.11762333226E+01 -0.93027418029E-01  0.11804061046E+01  0.00000000000E+00 0.  1.
         11    1    3    3    0    0  0.26266318139E+02 -0.12046437412E+02  0.20041504487E+02  0.35166717579E+02  0.51100000000E-03 0. -1.
        -11    1    3    3    0    0  0.40888903071E+01 -0.71375488808E+01  0.58371392135E+01  0.10086417720E+02  0.51100000000E-03 0.  1.
        -12    1    3    3    0    0 -0.30389554363E+02  0.20360219615E+02 -0.25785616283E+02  0.44754458596E+02  0.00000000000E+00 0.  1.
</event>
<event>
 7    1  0.1910099E-015  0.9000775E+02  0.7816164E-02  0.1186339E+00
        -11   -1    0    0    0    0  0.00000000000E+00  0.00000000000E+00  0.45593999997E+02  0.45594000000E+02  0.51100000000E-03 0.  1.
         11   -1    0    0    0    0 -0.00000000000E+00 -0.00000000000E+00 -0.45593999997E+02  0.45594000000E+02  0.51100000000E-03 0. -1.
    9900012    2    1    2    0    0  0.17862859325E+00  0.82709938257E+00  0.82279659918E+00  0.90007747567E+02  0.90000009034E+02 0.  0.
        -12    1    1    2    0    0 -0.17862859325E+00 -0.82709938257E+00 -0.82279659918E+00  0.11802524334E+01  0.00000000000E+00 0.  1.
         11    1    3    3    0    0 -0.35428478361E+02  0.11428198880E+02 -0.11799586393E+02  0.39051389834E+02  0.51100000000E-03 0. -1.
        -11    1    3    3    0    0  0.14533102051E+02  0.11278691388E+02  0.86198293954E+01  0.20315545617E+02  0.51100000000E-03 0.  1.
        -12    1    3    3    0    0  0.21074004904E+02 -0.21879790885E+02  0.40025535971E+01  0.30640812116E+02  0.00000000000E+00 0.  1.
</event>
<event>
 7    1  0.1910099E-015  0.9000783E+02  0.7816164E-02  0.1186339E+00
        -11   -1    0    0    0    0  0.00000000000E+00  0.00000000000E+00  0.45593999997E+02  0.45594000000E+02  0.51100000000E-03 0.  1.
         11   -1    0    0    0    0 -0.00000000000E+00 -0.00000000000E+00 -0.45593999997E+02  0.45594000000E+02  0.51100000000E-03 0. -1.
    9900012    2    1    2    0    0 -0.21368238101E+00 -0.65020550027E+00 -0.96144450667E+00  0.90007829295E+02  0.90000091842E+02 0.  0.
        -12    1    1    2    0    0  0.21368238101E+00  0.65020550027E+00  0.96144450667E+00  0.11801707046E+01  0.00000000000E+00 0.  1.
         11    1    3    3    0    0 -0.74291672623E+01  0.45267808583E+01  0.65090037815E+01  0.10865146186E+02  0.51100000000E-03 0. -1.
        -11    1    3    3    0    0  0.67727748003E+01 -0.26176564158E+02  0.27361831851E+02  0.38467555578E+02  0.51100000000E-03 0.  1.
         12    1    3    3    0    0  0.44271008099E+00  0.20999577800E+02 -0.34832280140E+02  0.40675127532E+02  0.00000000000E+00 0. -1.
</event>
<event>
 7    1  0.1910099E-015  0.9000782E+02  0.7816164E-02  0.1186339E+00
        -11   -1    0    0    0    0  0.00000000000E+00  0.00000000000E+00  0.45593999997E+02  0.45594000000E+02  0.51100000000E-03 0.  1.
         11   -1    0    0    0    0 -0.00000000000E+00 -0.00000000000E+00 -0.45593999997E+02  0.45594000000E+02  0.51100000000E-03 0. -1.
    9900012    2    1    2    0    0 -0.46221238646E+00 -0.80915990216E+00 -0.72418548544E+00  0.90007820075E+02  0.90000082500E+02 0.  0.
        -12    1    1    2    0    0  0.46221238646E+00  0.80915990216E+00  0.72418548544E+00  0.11801799247E+01  0.00000000000E+00 0.  1.
         11    1    3    3    0    0 -0.11238009637E+01  0.11386930317E+02  0.36989252603E+01  0.12025271680E+02  0.51100000000E-03 0. -1.
        -11    1    3    3    0    0 -0.24237788096E+02 -0.11795642426E+02  0.26822642545E+02  0.38027118027E+02  0.51100000000E-03 0.  1.
         12    1    3    3    0    0  0.24899376674E+02 -0.40044779287E+00 -0.31245753291E+02  0.39955430368E+02  0.00000000000E+00 0. -1.
</event>
<event>
 7    1  0.1910099E-015  0.9000739E+02  0.7816164E-02  0.1186340E+00
        -11   -1    0    0    0    0  0.00000000000E+00  0.00000000000E+00  0.45593999997E+02  0.45594000000E+02  0.51100000000E-03 0.  1.
         11   -1    0    0    0    0 -0.00000000000E+00 -0.00000000000E+00 -0.45593999997E+02  0.45594000000E+02  0.51100000000E-03 0. -1.
    9900012    2    1    2    0    0 -0.60210085115E+00 -0.90339264101E+00 -0.46388897213E+00  0.90007391395E+02  0.89999648161E+02 0.  0.
        -12    1    1    2    0    0  0.60210085115E+00  0.90339264101E+00  0.46388897213E+00  0.11806086046E+01  0.00000000000E+00 0.  1.
         11    1    3    3    0    0 -0.18265005247E+02 -0.11928634033E+02  0.58159877339E+01  0.22577166345E+02  0.51100000000E-03 0. -1.
        -11    1    3    3    0    0 -0.19852975459E+02  0.28251506421E+01 -0.18344564727E+02  0.27178027264E+02  0.51100000000E-03 0.  1.
        -12    1    3    3    0    0  0.37515879855E+02  0.82000907496E+01  0.12064688021E+02  0.40252197786E+02  0.00000000000E+00 0.  1.
</event>
<event>
 7    1  0.1910099E-015  0.9000764E+02  0.7816164E-02  0.1186339E+00
        -11   -1    0    0    0    0  0.00000000000E+00  0.00000000000E+00  0.45593999997E+02  0.45594000000E+02  0.51100000000E-03 0.  1.
         11   -1    0    0    0    0 -0.00000000000E+00 -0.00000000000E+00 -0.45593999997E+02  0.45594000000E+02  0.51100000000E-03 0. -1.
    9900012    2    1    2    0    0 -0.85440036123E+00  0.74642822548E+00 -0.32572913064E+00  0.90007637962E+02  0.89999897984E+02 0.  0.
        -12    1    1    2    0    0  0.85440036123E+00 -0.74642822548E+00  0.32572913064E+00  0.11803620375E+01  0.00000000000E+00 0.  1.
         11    1    3    3    0    0  0.15967666711E+02  0.32610289187E+02 -0.21177722750E+02  0.42034429723E+02  0.51100000000E-03 0. -1.
        -11    1    3    3    0    0  0.57577045160E+01 -0.38776686408E+01  0.55750546184E+01  0.89032976835E+01  0.51100000000E-03 0.  1.
        -12    1    3    3    0    0 -0.22579771588E+02 -0.27986192321E+02  0.15276939001E+02  0.39069910556E+02  0.00000000000E+00 0.  1.
</event>
<event>
 7    1  0.1910099E-015  0.9000777E+02  0.7816164E-02  0.1186339E+00
        -11   -1    0    0    0    0  0.00000000000E+00  0.00000000000E+00  0.45593999997E+02  0.45594000000E+02  0.51100000000E-03 0. -1.
         11   -1    0    0    0    0 -0.00000000000E+00 -0.00000000000E+00 -0.45593999997E+02  0.45594000000E+02  0.51100000000E-03 0.  1.
    9900012    2    1    2    0    0 -0.99510013152E+00 -0.50631533385E+00  0.38257668633E+00  0.90007769340E+02  0.90000031096E+02 0.  0.
        -12    1    1    2    0    0  0.99510013152E+00  0.50631533385E+00 -0.38257668633E+00  0.11802306596E+01  0.00000000000E+00 0.  1.
         11    1    3    3    0    0 -0.48629057346E+01  0.62147343892E+01 -0.63369763374E+01  0.10120674141E+02  0.51100000000E-03 0. -1.
        -11    1    3    3    0    0 -0.32086076821E+02  0.15298600371E+02 -0.55495187897E+01  0.35977224158E+02  0.51100000000E-03 0.  1.
         12    1    3    3    0    0  0.35953882424E+02 -0.22019650094E+02  0.12269071813E+02  0.43909871041E+02  0.00000000000E+00 0. -1.
</event>
<event>
 7    1  0.1910099E-015  0.9000775E+02  0.7816164E-02  0.1186339E+00
        -11   -1    0    0    0    0  0.00000000000E+00  0.00000000000E+00  0.45593999997E+02  0.45594000000E+02  0.51100000000E-03 0. -1.
         11   -1    0    0    0    0 -0.00000000000E+00 -0.00000000000E+00 -0.45593999997E+02  0.45594000000E+02  0.51100000000E-03 0.  1.
    9900012    2    1    2    0    0  0.15666740451E+00  0.15746157389E+00  0.11591592517E+01  0.90007750453E+02  0.90000011959E+02 0.  0.
        -12    1    1    2    0    0 -0.15666740451E+00 -0.15746157389E+00 -0.11591592517E+01  0.11802495472E+01  0.00000000000E+00 0.  1.
         11    1    3    3    0    0 -0.14197623240E+02 -0.36146624794E+01 -0.49167518192E+01  0.15453567200E+02  0.51100000000E-03 0. -1.
        -11    1    3    3    0    0 -0.64448324044E+01 -0.21389928216E+02  0.27557364154E+02  0.35474966007E+02  0.51100000000E-03 0.  1.
         12    1    3    3    0    0  0.20799123049E+02  0.25162052269E+02 -0.21481453083E+02  0.39079217246E+02  0.00000000000E+00 0. -1.
</event>
<event>
 7    1  0.1910099E-015  0.9000772E+02  0.7816164E-02  0.1186339E+00
        -11   -1    0    0    0    0  0.00000000000E+00  0.00000000000E+00  0.45593999997E+02  0.45594000000E+02  0.51100000000E-03 0. -1.
         11   -1    0    0    0    0 -0.00000000000E+00 -0.00000000000E+00 -0.45593999997E+02  0.45594000000E+02  0.51100000000E-03 0.  1.
    9900012    2    1    2    0    0 -0.11648641585E+01  0.54452867338E-01  0.18219231399E+00  0.90007717126E+02  0.89999978192E+02 0.  0.
        -12    1    1    2    0    0  0.11648641585E+01 -0.54452867338E-01 -0.18219231399E+00  0.11802828736E+01  0.00000000000E+00 0.  1.
         11    1    3    3    0    0  0.22323127126E+02 -0.19625491993E+02  0.24001828918E+02  0.38204315625E+02  0.51100000000E-03 0. -1.
        -11    1    3    3    0    0  0.47667627061E+01  0.92001027000E+01  0.36906478548E+01  0.10999308989E+02  0.51100000000E-03 0.  1.
        -12    1    3    3    0    0 -0.28254753991E+02  0.10479842160E+02 -0.27510284459E+02  0.40804092513E+02  0.00000000000E+00 0.  1.
</event>
<event>
 7    1  0.1910099E-015  0.9000773E+02  0.7816164E-02  0.1186339E+00
        -11   -1    0    0    0    0  0.00000000000E+00  0.00000000000E+00  0.45593999997E+02  0.45594000000E+02  0.51100000000E-03 0.  1.
         11   -1    0    0    0    0 -0.00000000000E+00 -0.00000000000E+00 -0.45593999997E+02  0.45594000000E+02  0.51100000000E-03 0. -1.
    9900012    2    1    2    0    0 -0.65036766640E+00  0.21293600520E+00 -0.96162008935E+00  0.90007731793E+02  0.89999993053E+02 0.  0.
        -12    1    1    2    0    0  0.65036766640E+00 -0.21293600520E+00  0.96162008935E+00  0.11802682068E+01  0.00000000000E+00 0.  1.
         11    1    3    3    0    0  0.35797450546E+01 -0.35202289870E+02  0.12224373040E+01  0.35404945135E+02  0.51100000000E-03 0. -1.
        -11    1    3    3    0    0  0.53089885408E+01 -0.82565694523E+01  0.42435427890E+00  0.98252926299E+01  0.51100000000E-03 0.  1.
        -12    1    3    3    0    0 -0.95391012618E+01  0.43671795328E+02 -0.26084116722E+01  0.44777494029E+02  0.00000000000E+00 0.  1.
</event>
<event>
 7    1  0.1910099E-015  0.9000775E+02  0.7816164E-02  0.1186339E+00
        -11   -1    0    0    0    0  0.00000000000E+00  0.00000000000E+00  0.45593999997E+02  0.45594000000E+02  0.51100000000E-03 0. -1.
         11   -1    0    0    0    0 -0.00000000000E+00 -0.00000000000E+00 -0.45593999997E+02  0.45594000000E+02  0.51100000000E-03 0.  1.
    9900012    2    1    2    0    0 -0.34984508546E-01 -0.73760213933E+00 -0.92071260063E+00  0.90007748957E+02  0.90000010443E+02 0.  0.
        -12    1    1    2    0    0  0.34984508546E-01  0.73760213933E+00  0.92071260063E+00  0.11802510431E+01  0.00000000000E+00 0.  1.
         11    1    3    3    0    0  0.52934096596E+01 -0.73391526948E+01  0.23029489365E+01  0.93373937567E+01  0.51100000000E-03 0. -1.
        -11    1    3    3    0    0  0.31468535163E+02 -0.23772309142E+01 -0.21926613314E+02  0.38427806389E+02  0.51100000000E-03 0.  1.
         12    1    3    3    0    0 -0.36796929332E+02  0.89787814697E+01  0.18702951777E+02  0.42242548812E+02  0.00000000000E+00 0. -1.
</event>
<event>
 7    1  0.1910099E-015  0.9000773E+02  0.7816164E-02  0.1186339E+00
        -11   -1    0    0    0    0  0.00000000000E+00  0.00000000000E+00  0.45593999997E+02  0.45594000000E+02  0.51100000000E-03 0. -1.
         11   -1    0    0    0    0 -0.00000000000E+00 -0.00000000000E+00 -0.45593999997E+02  0.45594000000E+02  0.51100000000E-03 0.  1.
    9900012    2    1    2    0    0  0.28604335078E+00  0.11352960361E+01 -0.14936697647E+00  0.90007733767E+02  0.89999995052E+02 0.  0.
        -12    1    1    2    0    0 -0.28604335078E+00 -0.11352960361E+01  0.14936697647E+00  0.11802662334E+01  0.00000000000E+00 0.  1.
         11    1    3    3    0    0 -0.47038249262E+01 -0.26854163072E+01  0.90033334518E+01  0.10507018758E+02  0.51100000000E-03 0. -1.
        -11    1    3    3    0    0 -0.10284574710E+02 -0.34064627567E+02 -0.14259540350E+02  0.38334133869E+02  0.51100000000E-03 0.  1.
         12    1    3    3    0    0  0.15274442987E+02  0.37885339910E+02  0.51068399214E+01  0.41166581139E+02  0.00000000000E+00 0. -1.
</event>
<event>
 7    1  0.1910099E-015  0.9000767E+02  0.7816164E-02  0.1186339E+00
        -11   -1    0    0    0    0  0.00000000000E+00  0.00000000000E+00  0.45593999997E+02  0.45594000000E+02  0.51100000000E-03 0. -1.
         11   -1    0    0    0    0 -0.00000000000E+00 -0.00000000000E+00 -0.45593999997E+02  0.45594000000E+02  0.51100000000E-03 0.  1.
    9900012    2    1    2    0    0  0.91601883453E+00 -0.23310653440E+00  0.70692483908E+00  0.90007672973E+02  0.89999933457E+02 0.  0.
        -12    1    1    2    0    0 -0.91601883453E+00  0.23310653440E+00 -0.70692483908E+00  0.11803270266E+01  0.00000000000E+00 0.  1.
         11    1    3    3    0    0 -0.35684256337E+02 -0.15719572540E+02 -0.16137102960E+01  0.39026595705E+02  0.51100000000E-03 0. -1.
        -11    1    3    3    0    0  0.25405318194E+01 -0.77862334218E+01  0.50794369448E+01  0.96374484571E+01  0.51100000000E-03 0.  1.
        -12    1    3    3    0    0  0.34059743352E+02  0.23272699428E+02 -0.27588018098E+01  0.41343628811E+02  0.00000000000E+00 0.  1.
</event>
<event>
 7    1  0.1910099E-015  0.9000746E+02  0.7816164E-02  0.1186340E+00
        -11   -1    0    0    0    0  0.00000000000E+00  0.00000000000E+00  0.45593999997E+02  0.45594000000E+02  0.51100000000E-03 0.  1.
         11   -1    0    0    0    0 -0.00000000000E+00 -0.00000000000E+00 -0.45593999997E+02  0.45594000000E+02  0.51100000000E-03 0. -1.
    9900012    2    1    2    0    0 -0.74649009623E+00  0.93444699406E-02 -0.91451609384E+00  0.90007460094E+02  0.89999717767E+02 0.  0.
        -12    1    1    2    0    0  0.74649009623E+00 -0.93444699406E-02  0.91451609384E+00  0.11805399056E+01  0.00000000000E+00 0.  1.
         11    1    3    3    0    0 -0.29671255005E+02  0.15398125905E+02  0.12224928269E+02  0.35594023745E+02  0.51100000000E-03 0. -1.
        -11    1    3    3    0    0 -0.89584233541E+01 -0.35265867091E+01  0.49081896520E+01  0.10806502151E+02  0.51100000000E-03 0.  1.
        -12    1    3    3    0    0  0.37883188262E+02 -0.11862194726E+02 -0.18047634015E+02  0.43606934198E+02  0.00000000000E+00 0.  1.
</event>
<event>
 7    1  0.1910099E-015  0.9000770E+02  0.7816164E-02  0.1186339E+00
        -11   -1    0    0    0    0  0.00000000000E+00  0.00000000000E+00  0.45593999997E+02  0.45594000000E+02  0.51100000000E-03 0.  1.
         11   -1    0    0    0    0 -0.00000000000E+00 -0.00000000000E+00 -0.45593999997E+02  0.45594000000E+02  0.51100000000E-03 0. -1.
    9900012    2    1    2    0    0 -0.85352028296E+00 -0.55476488874E+00 -0.59736548749E+00  0.90007700682E+02  0.89999961531E+02 0.  0.
        -12    1    1    2    0    0  0.85352028296E+00  0.55476488874E+00  0.59736548749E+00  0.11802993183E+01  0.00000000000E+00 0.  1.
         11    1    3    3    0    0  0.14090641230E+01 -0.36025900857E+01 -0.12381903317E+02  0.12972110354E+02  0.51100000000E-03 0. -1.
        -11    1    3    3    0    0  0.25299462813E+02 -0.25719288093E+02  0.27320442000E+01  0.36180224770E+02  0.51100000000E-03 0.  1.
         12    1    3    3    0    0 -0.27562047219E+02  0.28767113290E+02  0.90524936291E+01  0.40855365558E+02  0.00000000000E+00 0. -1.
</event>
<event>
 7    1  0.1910099E-015  0.9000767E+02  0.7816164E-02  0.1186339E+00
        -11   -1    0    0    0    0  0.00000000000E+00  0.00000000000E+00  0.45593999997E+02  0.45594000000E+02  0.51100000000E-03 0.  1.
         11   -1    0    0    0    0 -0.00000000000E+00 -0.00000000000E+00 -0.45593999997E+02  0.45594000000E+02  0.51100000000E-03 0. -1.
    9900012    2    1    2    0    0  0.39009188234E+00 -0.11125540036E+01  0.56930168863E-01  0.90007665669E+02  0.89999926056E+02 0.  0.
        -12    1    1    2    0    0 -0.39009188234E+00  0.11125540036E+01 -0.56930168863E-01  0.11803343305E+01  0.00000000000E+00 0.  1.
         11    1    3    3    0    0  0.40930511644E+01  0.51740130677E+01  0.93082948273E+01  0.11409111793E+02  0.51100000000E-03 0. -1.
        -11    1    3    3    0    0 -0.27407453551E+02  0.88929082111E+01  0.22212027902E+02  0.36381678224E+02  0.51100000000E-03 0.  1.
         12    1    3    3    0    0  0.23704494269E+02 -0.15179475282E+02 -0.31463392561E+02  0.42216875652E+02  0.00000000000E+00 0. -1.
</event>
<event>
 7    1  0.1910099E-015  0.9000776E+02  0.7816164E-02  0.1186339E+00
        -11   -1    0    0    0    0  0.00000000000E+00  0.00000000000E+00  0.45593999997E+02  0.45594000000E+02  0.51100000000E-03 0.  1.
         11   -1    0    0    0    0 -0.00000000000E+00 -0.00000000000E+00 -0.45593999997E+02  0.45594000000E+02  0.51100000000E-03 0. -1.
    9900012    2    1    2    0    0 -0.41592139892E+00 -0.66668456386E+00 -0.88063095737E+00  0.90007758584E+02  0.90000020197E+02 0.  0.
        -12    1    1    2    0    0  0.41592139892E+00  0.66668456386E+00  0.88063095737E+00  0.11802414163E+01  0.00000000000E+00 0.  1.
         11    1    3    3    0    0 -0.10682388554E+02  0.15843310094E+02 -0.19890979824E+02  0.27582149637E+02  0.51100000000E-03 0. -1.
        -11    1    3    3    0    0 -0.16962164828E+01  0.84259750497E+01 -0.15787578753E+02  0.17975590367E+02  0.51100000000E-03 0.  1.
        -12    1    3    3    0    0  0.11962683638E+02 -0.24935969707E+02  0.34797927620E+02  0.44450018580E+02  0.00000000000E+00 0.  1.
</event>
<event>
 7    1  0.1910099E-015  0.9000870E+02  0.7816164E-02  0.1186337E+00
        -11   -1    0    0    0    0  0.00000000000E+00  0.00000000000E+00  0.45593999997E+02  0.45594000000E+02  0.51100000000E-03 0.  1.
         11   -1    0    0    0    0 -0.00000000000E+00 -0.00000000000E+00 -0.45593999997E+02  0.45594000000E+02  0.51100000000E-03 0. -1.
    9900012    2    1    2    0    0 -0.58648588792E+00  0.92543383703E+00  0.43629259313E+00  0.90008701603E+02  0.90000975658E+02 0.  0.
        -12    1    1    2    0    0  0.58648588792E+00 -0.92543383703E+00 -0.43629259313E+00  0.11792983975E+01  0.00000000000E+00 0.  1.
         11    1    3    3    0    0 -0.24068407243E+02 -0.20723730551E+02 -0.14203939182E+02  0.34792429115E+02  0.51100000000E-03 0. -1.
        -11    1    3    3    0    0 -0.11339008766E+02  0.16583850800E+00  0.77242481634E+01  0.13720955949E+02  0.51100000000E-03 0.  1.
        -12    1    3    3    0    0  0.34820930121E+02  0.21483325880E+02  0.69159836119E+01  0.41495316539E+02  0.00000000000E+00 0.  1.
</event>
<event>
 7    1  0.1910099E-015  0.9000784E+02  0.7816164E-02  0.1186339E+00
        -11   -1    0    0    0    0  0.00000000000E+00  0.00000000000E+00  0.45593999997E+02  0.45594000000E+02  0.51100000000E-03 0. -1.
         11   -1    0    0    0    0 -0.00000000000E+00 -0.00000000000E+00 -0.45593999997E+02  0.45594000000E+02  0.51100000000E-03 0.  1.
    9900012    2    1    2    0    0  0.59720713534E+00 -0.10125523715E+01 -0.10425873036E+00  0.90007835371E+02  0.90000097998E+02 0.  0.
        -12    1    1    2    0    0 -0.59720713534E+00  0.10125523715E+01  0.10425873036E+00  0.11801646285E+01  0.00000000000E+00 0.  1.
         11    1    3    3    0    0  0.19901973219E+01 -0.77625681670E+01  0.36255983764E+02  0.37131047775E+02  0.51100000000E-03 0. -1.
        -11    1    3    3    0    0 -0.80382440953E+01  0.72071467894E+01  0.43394706451E+01  0.11635606504E+02  0.51100000000E-03 0.  1.
        -12    1    3    3    0    0  0.66452539088E+01 -0.45713099392E+00 -0.40699713139E+02  0.41241181092E+02  0.00000000000E+00 0.  1.
</event>
<event>
 7    1  0.1910099E-015  0.9000805E+02  0.7816164E-02  0.1186338E+00
        -11   -1    0    0    0    0  0.00000000000E+00  0.00000000000E+00  0.45593999997E+02  0.45594000000E+02  0.51100000000E-03 0. -1.
         11   -1    0    0    0    0 -0.00000000000E+00 -0.00000000000E+00 -0.45593999997E+02  0.45594000000E+02  0.51100000000E-03 0.  1.
    9900012    2    1    2    0    0  0.78197378338E+00  0.88248508557E+00  0.44830586854E-01  0.90008053940E+02  0.90000319451E+02 0.  0.
        -12    1    1    2    0    0 -0.78197378338E+00 -0.88248508557E+00 -0.44830586854E-01  0.11799460605E+01  0.00000000000E+00 0.  1.
         11    1    3    3    0    0 -0.46997927739E+00  0.81623791638E+01 -0.60337911438E+01  0.10161296667E+02  0.51100000000E-03 0. -1.
        -11    1    3    3    0    0  0.27942005268E+02  0.19948352730E+01 -0.25211027835E+02  0.37687278370E+02  0.51100000000E-03 0.  1.
         12    1    3    3    0    0 -0.26690052208E+02 -0.92747293513E+01  0.31289649565E+02  0.42159478902E+02  0.00000000000E+00 0. -1.
</event>
<event>
 7    1  0.1910099E-015  0.9000802E+02  0.7816164E-02  0.1186338E+00
        -11   -1    0    0    0    0  0.00000000000E+00  0.00000000000E+00  0.45593999997E+02  0.45594000000E+02  0.51100000000E-03 0.  1.
         11   -1    0    0    0    0 -0.00000000000E+00 -0.00000000000E+00 -0.45593999997E+02  0.45594000000E+02  0.51100000000E-03 0. -1.
    9900012    2    1    2    0    0  0.10241706473E+01 -0.57814945328E-01 -0.58317733644E+00  0.90008015302E+02  0.90000280303E+02 0.  0.
        -12    1    1    2    0    0 -0.10241706473E+01  0.57814945328E-01  0.58317733644E+00  0.11799846984E+01  0.00000000000E+00 0.  1.
         11    1    3    3    0    0  0.58678483497E+01  0.45100786972E+01 -0.26949801602E+01  0.78762537056E+01  0.51100000000E-03 0. -1.
        -11    1    3    3    0    0 -0.56684656557E+00  0.11215527832E+02  0.39637639185E+02  0.41197716199E+02  0.51100000000E-03 0.  1.
         12    1    3    3    0    0 -0.42768311368E+01 -0.15783421474E+02 -0.37525836361E+02  0.40934045397E+02  0.00000000000E+00 0. -1.
</event>
<event>
 7    1  0.1910099E-015  0.9000778E+02  0.7816164E-02  0.1186339E+00
        -11   -1    0    0    0    0  0.00000000000E+00  0.00000000000E+00  0.45593999997E+02  0.45594000000E+02  0.51100000000E-03 0.  1.
         11   -1    0    0    0    0 -0.00000000000E+00 -0.00000000000E+00 -0.45593999997E+02  0.45594000000E+02  0.51100000000E-03 0. -1.
    9900012    2    1    2    0    0 -0.18425102821E-01  0.96046104693E+00  0.68562738724E+00  0.90007783994E+02  0.90000045943E+02 0.  0.
        -12    1    1    2    0    0  0.18425102821E-01 -0.96046104693E+00 -0.68562738724E+00  0.11802160062E+01  0.00000000000E+00 0.  1.
         11    1    3    3    0    0  0.25955798624E+02  0.10792658961E+02 -0.24900347500E+02  0.37552793179E+02  0.51100000000E-03 0. -1.
        -11    1    3    3    0    0  0.81322196572E+01  0.37367059795E+01  0.34570359633E+01  0.95941162200E+01  0.51100000000E-03 0.  1.
        -12    1    3    3    0    0 -0.34106443384E+02 -0.13568903893E+02  0.22128938924E+02  0.42860874595E+02  0.00000000000E+00 0.  1.
</event>
<event>
 7    1  0.1910099E-015  0.9000772E+02  0.7816164E-02  0.1186339E+00
        -11   -1    0    0    0    0  0.00000000000E+00  0.00000000000E+00  0.45593999997E+02  0.45594000000E+02  0.51100000000E-03 0.  1.
         11   -1    0    0    0    0 -0.00000000000E+00 -0.00000000000E+00 -0.45593999997E+02  0.45594000000E+02  0.51100000000E-03 0. -1.
    9900012    2    1    2    0    0 -0.60900246014E+00  0.92673215615E+00 -0.40415503521E+00  0.90007721313E+02  0.89999982435E+02 0.  0.
        -12    1    1    2    0    0  0.60900246014E+00 -0.92673215615E+00  0.40415503521E+00  0.11802786867E+01  0.00000000000E+00 0.  1.
         11    1    3    3    0    0 -0.38322712471E+02  0.62272015398E+00  0.44146864514E+01  0.38581181011E+02  0.51100000000E-03 0. -1.
        -11    1    3    3    0    0 -0.53581875876E+01  0.42723642927E+01 -0.44492826478E+01  0.81706417872E+01  0.51100000000E-03 0.  1.
        -12    1    3    3    0    0  0.43071897598E+02 -0.39683522906E+01 -0.36955883881E+00  0.43255898515E+02  0.00000000000E+00 0.  1.
</event>
<event>
 7    1  0.1910099E-015  0.9000780E+02  0.7816164E-02  0.1186339E+00
        -11   -1    0    0    0    0  0.00000000000E+00  0.00000000000E+00  0.45593999997E+02  0.45594000000E+02  0.51100000000E-03 0.  1.
         11   -1    0    0    0    0 -0.00000000000E+00 -0.00000000000E+00 -0.45593999997E+02  0.45594000000E+02  0.51100000000E-03 0. -1.
    9900012    2    1    2    0    0 -0.10497762419E+01  0.25232740889E+00  0.47662251686E+00  0.90007801583E+02  0.90000063764E+02 0.  0.
        -12    1    1    2    0    0  0.10497762419E+01 -0.25232740889E+00 -0.47662251686E+00  0.11801984167E+01  0.00000000000E+00 0.  1.
         11    1    3    3    0    0  0.81201515776E+01  0.60988065021E+01 -0.27709678544E+01  0.10526659751E+02  0.51100000000E-03 0. -1.
        -11    1    3    3    0    0 -0.32348367084E+02  0.15322745715E+02  0.22856589326E+02  0.42469130732E+02  0.51100000000E-03 0.  1.
         12    1    3    3    0    0  0.23178439265E+02 -0.21169224808E+02 -0.19608998955E+02  0.37012011101E+02  0.00000000000E+00 0. -1.
</event>
<event>
 7    1  0.1910099E-015  0.9000784E+02  0.7816164E-02  0.1186339E+00
        -11   -1    0    0    0    0  0.00000000000E+00  0.00000000000E+00  0.45593999997E+02  0.45594000000E+02  0.51100000000E-03 0. -1.
         11   -1    0    0    0    0 -0.00000000000E+00 -0.00000000000E+00 -0.45593999997E+02  0.45594000000E+02  0.51100000000E-03 0.  1.
    9900012    2    1    2    0    0 -0.21560961623E-01  0.11094468425E+01  0.40179412092E+00  0.90007840821E+02  0.90000103520E+02 0.  0.
        -12    1    1    2    0    0  0.21560961623E-01 -0.11094468425E+01 -0.40179412092E+00  0.11801591787E+01  0.00000000000E+00 0.  1.
         11    1    3    3    0    0  0.33536249002E+02 -0.39270293119E+01  0.91104706335E+01  0.34972878517E+02  0.51100000000E-03 0. -1.
        -11    1    3    3    0    0  0.70064004236E+01  0.11045898123E+02 -0.44070521780E+01  0.13803029428E+02  0.51100000000E-03 0.  1.
        -12    1    3    3    0    0 -0.40564210388E+02 -0.60094219683E+01 -0.43016243346E+01  0.41231932876E+02  0.00000000000E+00 0.  1.
</event>
<event>
 7    1  0.1910099E-015  0.9000769E+02  0.7816164E-02  0.1186339E+00
        -11   -1    0    0    0    0  0.00000000000E+00  0.00000000000E+00  0.45593999997E+02  0.45594000000E+02  0.51100000000E-03 0.  1.
         11   -1    0    0    0    0 -0.00000000000E+00 -0.00000000000E+00 -0.45593999997E+02  0.45594000000E+02  0.51100000000E-03 0. -1.
    9900012    2    1    2    0    0  0.41478472252E+00 -0.47057705441E+00 -0.99981709994E+00  0.90007693530E+02  0.89999954284E+02 0.  0.
        -12    1    1    2    0    0 -0.41478472252E+00  0.47057705441E+00  0.99981709994E+00  0.11803064702E+01  0.00000000000E+00 0.  1.
         11    1    3    3    0    0  0.18316820654E+02  0.27577698634E+02  0.17127816730E+02  0.37274622560E+02  0.51100000000E-03 0. -1.
        -11    1    3    3    0    0 -0.13960762053E+01  0.32667045911E+01  0.79886278575E+01  0.87429150152E+01  0.51100000000E-03 0.  1.
        -12    1    3    3    0    0 -0.16505959726E+02 -0.31314980279E+02 -0.26116261688E+02  0.43990155954E+02  0.00000000000E+00 0.  1.
</event>
<event>
 7    1  0.1910099E-015  0.9000775E+02  0.7816164E-02  0.1186339E+00
        -11   -1    0    0    0    0  0.00000000000E+00  0.00000000000E+00  0.45593999997E+02  0.45594000000E+02  0.51100000000E-03 0. -1.
         11   -1    0    0    0    0 -0.00000000000E+00 -0.00000000000E+00 -0.45593999997E+02  0.45594000000E+02  0.51100000000E-03 0.  1.
    9900012    2    1    2    0    0 -0.54063030040E+00  0.73320632181E+00  0.75041732073E+00  0.90007746304E+02  0.90000007755E+02 0.  0.
        -12    1    1    2    0    0  0.54063030040E+00 -0.73320632181E+00 -0.75041732073E+00  0.11802536962E+01  0.00000000000E+00 0.  1.
         11    1    3    3    0    0 -0.19348542775E+01 -0.42512115592E+02  0.28538833227E+01  0.42651709033E+02  0.51100000000E-03 0. -1.
        -11    1    3    3    0    0  0.16164109993E+01  0.66139421527E+01  0.68368274469E+01  0.96487939722E+01  0.51100000000E-03 0.  1.
        -12    1    3    3    0    0 -0.22218702221E+00  0.36631379761E+02 -0.89402934489E+01  0.37707243299E+02  0.00000000000E+00 0.  1.
</event>
<event>
 7    1  0.1910099E-015  0.9000776E+02  0.7816164E-02  0.1186339E+00
        -11   -1    0    0    0    0  0.00000000000E+00  0.00000000000E+00  0.45593999997E+02  0.45594000000E+02  0.51100000000E-03 0.  1.
         11   -1    0    0    0    0 -0.00000000000E+00 -0.00000000000E+00 -0.45593999997E+02  0.45594000000E+02  0.51100000000E-03 0. -1.
    9900012    2    1    2    0    0 -0.73463612513E-01 -0.11747880121E+01 -0.86223745541E-01  0.90007763452E+02  0.90000025129E+02 0.  0.
        -12    1    1    2    0    0  0.73463612513E-01  0.11747880121E+01  0.86223745541E-01  0.11802365484E+01  0.00000000000E+00 0.  1.
         11    1    3    3    0    0  0.27167768832E+02  0.17502390271E+00 -0.23123978637E+02  0.35676836812E+02  0.51100000000E-03 0. -1.
        -11    1    3    3    0    0 -0.14642898341E+02 -0.12125339617E+01 -0.10792452421E+02  0.18230790986E+02  0.51100000000E-03 0.  1.
        -12    1    3    3    0    0 -0.12598334103E+02 -0.13727795316E+00  0.33830207313E+02  0.36100135654E+02  0.00000000000E+00 0.  1.
</event>
<event>
 7    1  0.1910099E-015  0.9000770E+02  0.7816164E-02  0.1186339E+00
        -11   -1    0    0    0    0  0.00000000000E+00  0.00000000000E+00  0.45593999997E+02  0.45594000000E+02  0.51100000000E-03 0.  1.
         11   -1    0    0    0    0 -0.00000000000E+00 -0.00000000000E+00 -0.45593999997E+02  0.45594000000E+02  0.51100000000E-03 0. -1.
    9900012    2    1    2    0    0  0.11134088364E+01 -0.33725442072E+00  0.19924256368E+00  0.90007696064E+02  0.89999956852E+02 0.  0.
        -12    1    1    2    0    0 -0.11134088364E+01  0.33725442072E+00 -0.19924256368E+00  0.11803039357E+01  0.00000000000E+00 0.  1.
         11    1    3    3    0    0  0.43082725971E+01 -0.51083666374E+01  0.57930195132E+01  0.88439639198E+01  0.51100000000E-03 0. -1.
        -11    1    3    3    0    0  0.36948831829E+02 -0.41398380942E+00 -0.14541329678E+02  0.39709417336E+02  0.51100000000E-03 0.  1.
         12    1    3    3    0    0 -0.40143695590E+02  0.51850960261E+01  0.89475527284E+01  0.41454314808E+02  0.00000000000E+00 0. -1.
</event>
<event>
 7    1  0.1910099E-015  0.9000769E+02  0.7816164E-02  0.1186339E+00
        -11   -1    0    0    0    0  0.00000000000E+00  0.00000000000E+00  0.45593999997E+02  0.45594000000E+02  0.51100000000E-03 0. -1.
         11   -1    0    0    0    0 -0.00000000000E+00 -0.00000000000E+00 -0.45593999997E+02  0.45594000000E+02  0.51100000000E-03 0.  1.
    9900012    2    1    2    0    0 -0.19499440481E-01 -0.10042099732E+01  0.61992097353E+00  0.90007694992E+02  0.89999955766E+02 0.  0.
        -12    1    1    2    0    0  0.19499440481E-01  0.10042099732E+01 -0.61992097353E+00  0.11803050080E+01  0.00000000000E+00 0.  1.
         11    1    3    3    0    0 -0.21360908479E+02  0.10248461853E+01  0.31005011097E+02  0.37664962951E+02  0.51100000000E-03 0. -1.
        -11    1    3    3    0    0 -0.78891278715E+01  0.47965098325E+01  0.53597826325E+00  0.92483575896E+01  0.51100000000E-03 0.  1.
        -12    1    3    3    0    0  0.29230536910E+02 -0.68255659910E+01 -0.30921068386E+02  0.43094374451E+02  0.00000000000E+00 0.  1.
</event>
<event>
 7    1  0.1910099E-015  0.9000765E+02  0.7816164E-02  0.1186339E+00
        -11   -1    0    0    0    0  0.00000000000E+00  0.00000000000E+00  0.45593999997E+02  0.45594000000E+02  0.51100000000E-03 0. -1.
         11   -1    0    0    0    0 -0.00000000000E+00 -0.00000000000E+00 -0.45593999997E+02  0.45594000000E+02  0.51100000000E-03 0.  1.
    9900012    2    1    2    0    0  0.96113203605E+00  0.65026715038E-01  0.68207005289E+00  0.90007651398E+02  0.89999911597E+02 0.  0.
        -12    1    1    2    0    0 -0.96113203605E+00 -0.65026715038E-01 -0.68207005289E+00  0.11803486017E+01  0.00000000000E+00 0.  1.
         11    1    3    3    0    0 -0.26260477432E+02 -0.28348431880E+02  0.13586664146E+02  0.40961490548E+02  0.51100000000E-03 0. -1.
        -11    1    3    3    0    0 -0.48674105431E+01  0.77492945282E+01 -0.25020241627E+01  0.94870109229E+01  0.51100000000E-03 0.  1.
        -12    1    3    3    0    0  0.32089020011E+02  0.20664164067E+02 -0.10402569930E+02  0.39559149928E+02  0.00000000000E+00 0.  1.
</event>
<event>
 7    1  0.1973691E-015  0.9000776E+02  0.7816164E-02  0.1186339E+00
        -11   -1    0    0    0    0  0.00000000000E+00  0.00000000000E+00  0.45593999997E+02  0.45594000000E+02  0.51100000000E-03 0.  1.
         11   -1    0    0    0    0 -0.00000000000E+00 -0.00000000000E+00 -0.45593999997E+02  0.45594000000E+02  0.51100000000E-03 0. -1.
    9900012    2    1    2    0    0 -0.41435497574E+00 -0.99786150910E+00 -0.47492336719E+00  0.90007758566E+02  0.90000020179E+02 0.  0.
        -12    1    1    2    0    0  0.41435497574E+00  0.99786150910E+00  0.47492336719E+00  0.11802414338E+01  0.00000000000E+00 0.  1.
         11    1    3    3    0    0  0.44918396333E+01 -0.11083242246E-01  0.80064613796E+01  0.91804232045E+01  0.51100000000E-03 0. -1.
        -11    1    3    3    0    0  0.72139716947E+01 -0.39109019595E+02 -0.91969616225E+01  0.40818389295E+02  0.51100000000E-03 0.  1.
         12    1    3    3    0    0 -0.12120166304E+02  0.38122241328E+02  0.71557687575E+00  0.40008946067E+02  0.00000000000E+00 0. -1.
</event>
<event>
 7    1  0.1910099E-015  0.9000773E+02  0.7816164E-02  0.1186339E+00
        -11   -1    0    0    0    0  0.00000000000E+00  0.00000000000E+00  0.45593999997E+02  0.45594000000E+02  0.51100000000E-03 0.  1.
         11   -1    0    0    0    0 -0.00000000000E+00 -0.00000000000E+00 -0.45593999997E+02  0.45594000000E+02  0.51100000000E-03 0. -1.
    9900012    2    1    2    0    0 -0.45425592987E+00  0.10765293686E+01 -0.16665093516E+00  0.90007730342E+02  0.89999991583E+02 0.  0.
        -12    1    1    2    0    0  0.45425592987E+00 -0.10765293686E+01  0.16665093516E+00  0.11802696580E+01  0.00000000000E+00 0.  1.
         11    1    3    3    0    0 -0.35500514788E+02  0.49229430967E+01 -0.25686509167E+02  0.44094429040E+02  0.51100000000E-03 0. -1.
        -11    1    3    3    0    0  0.78013642204E+01 -0.44832256192E+01  0.65398175062E+00  0.90215457679E+01  0.51100000000E-03 0.  1.
        -12    1    3    3    0    0  0.27244894638E+02  0.63681189106E+00  0.24865876481E+02  0.36891755534E+02  0.00000000000E+00 0.  1.
</event>
<event>
 7    1  0.1910099E-015  0.9000777E+02  0.7816164E-02  0.1186339E+00
        -11   -1    0    0    0    0  0.00000000000E+00  0.00000000000E+00  0.45593999997E+02  0.45594000000E+02  0.51100000000E-03 0. -1.
         11   -1    0    0    0    0 -0.00000000000E+00 -0.00000000000E+00 -0.45593999997E+02  0.45594000000E+02  0.51100000000E-03 0.  1.
    9900012    2    1    2    0    0 -0.61894866554E+00  0.32772272559E+00  0.94996746210E+00  0.90007772135E+02  0.90000033927E+02 0.  0.
        -12    1    1    2    0    0  0.61894866554E+00 -0.32772272559E+00 -0.94996746210E+00  0.11802278655E+01  0.00000000000E+00 0.  1.
         11    1    3    3    0    0  0.60273127763E+01 -0.39864999574E+02 -0.26788093280E+01  0.40406963633E+02  0.51100000000E-03 0. -1.
        -11    1    3    3    0    0  0.71044015864E+01  0.14390996902E+01 -0.31880025763E+01  0.79187682442E+01  0.51100000000E-03 0.  1.
        -12    1    3    3    0    0 -0.13750663028E+02  0.38753622610E+02  0.68167793664E+01  0.41682040257E+02  0.00000000000E+00 0.  1.
</event>
<event>
 7    1  0.1910099E-015  0.9000825E+02  0.7816164E-02  0.1186338E+00
        -11   -1    0    0    0    0  0.00000000000E+00  0.00000000000E+00  0.45593999997E+02  0.45594000000E+02  0.51100000000E-03 0.  1.
         11   -1    0    0    0    0 -0.00000000000E+00 -0.00000000000E+00 -0.45593999997E+02  0.45594000000E+02  0.51100000000E-03 0. -1.
    9900012    2    1    2    0    0 -0.27525584414E+00 -0.12059199264E+00 -0.11408313408E+01  0.90008252418E+02  0.90000520549E+02 0.  0.
        -12    1    1    2    0    0  0.27525584414E+00  0.12059199264E+00  0.11408313408E+01  0.11797475817E+01  0.00000000000E+00 0.  1.
         11    1    3    3    0    0  0.27321892874E+02 -0.20661449466E+02 -0.17027950844E+02  0.38253528392E+02  0.51100000000E-03 0. -1.
        -11    1    3    3    0    0  0.47319553015E+01 -0.56789060236E+01  0.61918421428E+00  0.74178678845E+01  0.51100000000E-03 0.  1.
        -12    1    3    3    0    0 -0.32329104019E+02  0.26219763497E+02  0.15267935289E+02  0.44336856142E+02  0.00000000000E+00 0.  1.
</event>
<event>
 7    1  0.1910099E-015  0.9000778E+02  0.7816164E-02  0.1186339E+00
        -11   -1    0    0    0    0  0.00000000000E+00  0.00000000000E+00  0.45593999997E+02  0.45594000000E+02  0.51100000000E-03 0. -1.
         11   -1    0    0    0    0 -0.00000000000E+00 -0.00000000000E+00 -0.45593999997E+02  0.45594000000E+02  0.51100000000E-03 0.  1.
    9900012    2    1    2    0    0  0.46299250055E+00  0.98729672939E+00  0.45145025586E+00  0.90007777893E+02  0.90000039762E+02 0.  0.
        -12    1    1    2    0    0 -0.46299250055E+00 -0.98729672939E+00 -0.45145025586E+00  0.11802221066E+01  0.00000000000E+00 0.  1.
         11    1    3    3    0    0 -0.14324462558E+02 -0.10874267191E+02 -0.24371389306E+01  0.18148817067E+02  0.51100000000E-03 0. -1.
        -11    1    3    3    0    0  0.23718415582E+02 -0.12493076520E+02 -0.22917627768E+02  0.35268369135E+02  0.51100000000E-03 0.  1.
         12    1    3    3    0    0 -0.89309605231E+01  0.24354640440E+02  0.25806216955E+02  0.36590591691E+02  0.00000000000E+00 0. -1.
</event>
<event>
 7    1  0.1910099E-015  0.9000775E+02  0.7816164E-02  0.1186339E+00
        -11   -1    0    0    0    0  0.00000000000E+00  0.00000000000E+00  0.45593999997E+02  0.45594000000E+02  0.51100000000E-03 0. -1.
         11   -1    0    0    0    0 -0.00000000000E+00 -0.00000000000E+00 -0.45593999997E+02  0.45594000000E+02  0.51100000000E-03 0.  1.
    9900012    2    1    2    0    0 -0.87589491418E+00 -0.53970439481E+00  0.57838426333E+00  0.90007745328E+02  0.90000006766E+02 0.  0.
        -12    1    1    2    0    0  0.87589491418E+00  0.53970439481E+00 -0.57838426333E+00  0.11802546719E+01  0.00000000000E+00 0.  1.
         11    1    3    3    0    0  0.51311587680E+01 -0.35599573988E+02  0.48557522613E+01  0.36293756884E+02  0.51100000000E-03 0. -1.
        -11    1    3    3    0    0  0.75177481718E+01 -0.55990762866E+01  0.37915722710E+01  0.10111489177E+02  0.51100000000E-03 0.  1.
        -12    1    3    3    0    0 -0.13524801854E+02  0.40658945880E+02 -0.80689402690E+01  0.43602499267E+02  0.00000000000E+00 0.  1.
</event>
<event>
 7    1  0.1910099E-015  0.9000777E+02  0.7816164E-02  0.1186339E+00
        -11   -1    0    0    0    0  0.00000000000E+00  0.00000000000E+00  0.45593999997E+02  0.45594000000E+02  0.51100000000E-03 0. -1.
         11   -1    0    0    0    0 -0.00000000000E+00 -0.00000000000E+00 -0.45593999997E+02  0.45594000000E+02  0.51100000000E-03 0.  1.
    9900012    2    1    2    0    0  0.77001735468E+00 -0.68388824292E+00 -0.57647465523E+00  0.90007765751E+02  0.90000027459E+02 0.  0.
        -12    1    1    2    0    0 -0.77001735468E+00  0.68388824292E+00  0.57647465523E+00  0.11802342494E+01  0.00000000000E+00 0.  1.
         11    1    3    3    0    0 -0.26895752898E+01  0.93912350071E+01 -0.39922448709E+00  0.97769366701E+01  0.51100000000E-03 0. -1.
        -11    1    3    3    0    0  0.35412591450E+02 -0.79146683676E+01 -0.21101028302E+02  0.41975552459E+02  0.51100000000E-03 0.  1.
         12    1    3    3    0    0 -0.31952998806E+02 -0.21604548825E+01  0.20923778134E+02  0.38255276621E+02  0.00000000000E+00 0. -1.
</event>
<event>
 7    1  0.1910099E-015  0.9000768E+02  0.7816164E-02  0.1186339E+00
        -11   -1    0    0    0    0  0.00000000000E+00  0.00000000000E+00  0.45593999997E+02  0.45594000000E+02  0.51100000000E-03 0. -1.
         11   -1    0    0    0    0 -0.00000000000E+00 -0.00000000000E+00 -0.45593999997E+02  0.45594000000E+02  0.51100000000E-03 0.  1.
    9900012    2    1    2    0    0 -0.80509382464E-01 -0.58479798840E-01  0.11761188962E+01  0.90007679151E+02  0.89999939716E+02 0.  0.
        -12    1    1    2    0    0  0.80509382464E-01  0.58479798840E-01 -0.11761188962E+01  0.11803208486E+01  0.00000000000E+00 0.  1.
         11    1    3    3    0    0 -0.36463579378E+01  0.69596947577E+01  0.36730852962E+02  0.37561800235E+02  0.51100000000E-03 0. -1.
        -11    1    3    3    0    0 -0.79138170801E+01 -0.65587001091E+01  0.41708089981E+01  0.11092371066E+02  0.51100000000E-03 0.  1.
        -12    1    3    3    0    0  0.11479665635E+02 -0.45947444744E+00 -0.39725543064E+02  0.41353507851E+02  0.00000000000E+00 0.  1.
</event>
<event>
 7    1  0.1910099E-015  0.9000761E+02  0.7816164E-02  0.1186339E+00
        -11   -1    0    0    0    0  0.00000000000E+00  0.00000000000E+00  0.45593999997E+02  0.45594000000E+02  0.51100000000E-03 0. -1.
         11   -1    0    0    0    0 -0.00000000000E+00 -0.00000000000E+00 -0.45593999997E+02  0.45594000000E+02  0.51100000000E-03 0.  1.
    9900012    2    1    2    0    0  0.10049465172E+00  0.10765771171E+01  0.47348902253E+00  0.90007614758E+02  0.89999874473E+02 0.  0.
        -12    1    1    2    0    0 -0.10049465172E+00 -0.10765771171E+01 -0.47348902253E+00  0.11803852416E+01  0.00000000000E+00 0.  1.
         11    1    3    3    0    0 -0.61963377219E+00  0.98656326596E+01 -0.29867683164E+01  0.10326443677E+02  0.51100000000E-03 0. -1.
        -11    1    3    3    0    0 -0.30832399695E+02 -0.18928816983E+02 -0.17785160213E+02  0.40314375939E+02  0.51100000000E-03 0.  1.
         12    1    3    3    0    0  0.31552528119E+02  0.10139761440E+02  0.21245417551E+02  0.39366795142E+02  0.00000000000E+00 0. -1.
</event>
<event>
 7    1  0.1910099E-015  0.9000778E+02  0.7816164E-02  0.1186339E+00
        -11   -1    0    0    0    0  0.00000000000E+00  0.00000000000E+00  0.45593999997E+02  0.45594000000E+02  0.51100000000E-03 0.  1.
         11   -1    0    0    0    0 -0.00000000000E+00 -0.00000000000E+00 -0.45593999997E+02  0.45594000000E+02  0.51100000000E-03 0. -1.
    9900012    2    1    2    0    0  0.42428318790E+00 -0.92397993374E+00 -0.59930288670E+00  0.90007780066E+02  0.90000041963E+02 0.  0.
        -12    1    1    2    0    0 -0.42428318790E+00  0.92397993374E+00  0.59930288670E+00  0.11802199335E+01  0.00000000000E+00 0.  1.
         11    1    3    3    0    0  0.82583726087E+01  0.10835870821E+02  0.80536472600E+00  0.13647909261E+02  0.51100000000E-03 0. -1.
        -11    1    3    3    0    0 -0.71576646535E+01 -0.18766019937E+02  0.34419402582E+02  0.39850858735E+02  0.51100000000E-03 0.  1.
         12    1    3    3    0    0 -0.67642476738E+00  0.70061691824E+01 -0.35824070195E+02  0.36509012071E+02  0.00000000000E+00 0. -1.
</event>
<event>
 7    1  0.1910099E-015  0.9000774E+02  0.7816164E-02  0.1186339E+00
        -11   -1    0    0    0    0  0.00000000000E+00  0.00000000000E+00  0.45593999997E+02  0.45594000000E+02  0.51100000000E-03 0.  1.
         11   -1    0    0    0    0 -0.00000000000E+00 -0.00000000000E+00 -0.45593999997E+02  0.45594000000E+02  0.51100000000E-03 0. -1.
    9900012    2    1    2    0    0 -0.22834203858E+00 -0.89334223320E+00 -0.73675756772E+00  0.90007740645E+02  0.90000002021E+02 0.  0.
        -12    1    1    2    0    0  0.22834203858E+00  0.89334223320E+00  0.73675756772E+00  0.11802593553E+01  0.00000000000E+00 0.  1.
         11    1    3    3    0    0  0.98162343622E+00  0.25302681374E+01 -0.89521056612E+01  0.93544661765E+01  0.51100000000E-03 0. -1.
        -11    1    3    3    0    0 -0.33016873263E+02 -0.23238068653E+02  0.14004991640E+02  0.42734781454E+02  0.51100000000E-03 0.  1.
         12    1    3    3    0    0  0.31806907788E+02  0.19814458282E+02 -0.57896435465E+01  0.37918493014E+02  0.00000000000E+00 0. -1.
</event>
<event>
 7    1  0.1910099E-015  0.9000769E+02  0.7816164E-02  0.1186339E+00
        -11   -1    0    0    0    0  0.00000000000E+00  0.00000000000E+00  0.45593999997E+02  0.45594000000E+02  0.51100000000E-03 0. -1.
         11   -1    0    0    0    0 -0.00000000000E+00 -0.00000000000E+00 -0.45593999997E+02  0.45594000000E+02  0.51100000000E-03 0.  1.
    9900012    2    1    2    0    0  0.96698352161E-01 -0.90968192833E+00  0.74583196384E+00  0.90007687711E+02  0.89999948388E+02 0.  0.
        -12    1    1    2    0    0 -0.96698352161E-01  0.90968192833E+00 -0.74583196384E+00  0.11803122893E+01  0.00000000000E+00 0.  1.
         11    1    3    3    0    0  0.43195926540E+01 -0.90564385190E+00 -0.75438792750E+01  0.87400907466E+01  0.51100000000E-03 0. -1.
        -11    1    3    3    0    0  0.19142306897E+02  0.52391738927E+01 -0.30080826365E+02  0.36037937947E+02  0.51100000000E-03 0.  1.
         12    1    3    3    0    0 -0.23365201198E+02 -0.52432119692E+01  0.38370537604E+02  0.45229659017E+02  0.00000000000E+00 0. -1.
</event>
<event>
 7    1  0.1910099E-015  0.9000771E+02  0.7816164E-02  0.1186339E+00
        -11   -1    0    0    0    0  0.00000000000E+00  0.00000000000E+00  0.45593999997E+02  0.45594000000E+02  0.51100000000E-03 0. -1.
         11   -1    0    0    0    0 -0.00000000000E+00 -0.00000000000E+00 -0.45593999997E+02  0.45594000000E+02  0.51100000000E-03 0.  1.
    9900012    2    1    2    0    0 -0.95077677047E+00  0.65014681942E+00 -0.25769854694E+00  0.90007713638E+02  0.89999974659E+02 0.  0.
        -12    1    1    2    0    0  0.95077677047E+00 -0.65014681942E+00  0.25769854694E+00  0.11802863615E+01  0.00000000000E+00 0.  1.
         11    1    3    3    0    0 -0.12967128220E+02 -0.27772777923E+02  0.19463111195E+02  0.36308212645E+02  0.51100000000E-03 0. -1.
        -11    1    3    3    0    0  0.49832255009E+00 -0.88023899957E+01  0.20667679686E+01  0.90554914332E+01  0.51100000000E-03 0.  1.
        -12    1    3    3    0    0  0.11518028899E+02  0.37225314738E+02 -0.21787577711E+02  0.44644009560E+02  0.00000000000E+00 0.  1.
</event>
<event>
 7    1  0.1910099E-015  0.9000787E+02  0.7816164E-02  0.1186339E+00
        -11   -1    0    0    0    0  0.00000000000E+00  0.00000000000E+00  0.45593999997E+02  0.45594000000E+02  0.51100000000E-03 0. -1.
         11   -1    0    0    0    0 -0.00000000000E+00 -0.00000000000E+00 -0.45593999997E+02  0.45594000000E+02  0.51100000000E-03 0.  1.
    9900012    2    1    2    0    0  0.10065677225E+01  0.46647713661E+00  0.40239667826E+00  0.90007871793E+02  0.90000134900E+02 0.  0.
        -12    1    1    2    0    0 -0.10065677225E+01 -0.46647713661E+00 -0.40239667826E+00  0.11801282073E+01  0.00000000000E+00 0.  1.
         11    1    3    3    0    0  0.34453024347E+02  0.76624948606E+01  0.11970607227E+02  0.37269560660E+02  0.51100000000E-03 0. -1.
        -11    1    3    3    0    0  0.63348596400E+01  0.44193385248E+01  0.37107037113E+01  0.85691494297E+01  0.51100000000E-03 0.  1.
        -12    1    3    3    0    0 -0.39781316265E+02 -0.11615356249E+02 -0.15278914260E+02  0.44169161703E+02  0.00000000000E+00 0.  1.
</event>
<event>
 7    1  0.1910099E-015  0.9000780E+02  0.7816164E-02  0.1186339E+00
        -11   -1    0    0    0    0  0.00000000000E+00  0.00000000000E+00  0.45593999997E+02  0.45594000000E+02  0.51100000000E-03 0. -1.
         11   -1    0    0    0    0 -0.00000000000E+00 -0.00000000000E+00 -0.45593999997E+02  0.45594000000E+02  0.51100000000E-03 0.  1.
    9900012    2    1    2    0    0  0.10976409681E+01 -0.39072980371E+00  0.18808809475E+00  0.90007803997E+02  0.90000066210E+02 0.  0.
        -12    1    1    2    0    0 -0.10976409681E+01  0.39072980371E+00 -0.18808809475E+00  0.11801960031E+01  0.00000000000E+00 0.  1.
         11    1    3    3    0    0  0.99924678508E+01  0.38431989250E+01 -0.38367891287E+02  0.39833587257E+02  0.51100000000E-03 0. -1.
        -11    1    3    3    0    0 -0.25551684468E+00  0.94621464400E+01  0.13041404603E+01  0.95550136950E+01  0.51100000000E-03 0.  1.
        -12    1    3    3    0    0 -0.86393100381E+01 -0.13696075169E+02  0.37251838921E+02  0.40619203045E+02  0.00000000000E+00 0.  1.
</event>
<event>
 7    1  0.1910099E-015  0.9000784E+02  0.7816164E-02  0.1186339E+00
        -11   -1    0    0    0    0  0.00000000000E+00  0.00000000000E+00  0.45593999997E+02  0.45594000000E+02  0.51100000000E-03 0. -1.
         11   -1    0    0    0    0 -0.00000000000E+00 -0.00000000000E+00 -0.45593999997E+02  0.45594000000E+02  0.51100000000E-03 0.  1.
    9900012    2    1    2    0    0 -0.15148945817E+00  0.75089546969E+00  0.89776274099E+00  0.90007842806E+02  0.90000105531E+02 0.  0.
        -12    1    1    2    0    0  0.15148945817E+00 -0.75089546969E+00 -0.89776274099E+00  0.11801571935E+01  0.00000000000E+00 0.  1.
         11    1    3    3    0    0 -0.16043407410E+01  0.93726543393E+01  0.60691595218E+00  0.95283212483E+01  0.51100000000E-03 0. -1.
        -11    1    3    3    0    0  0.35134128278E+01 -0.26684947688E+01  0.40015731134E+02  0.40258212485E+02  0.51100000000E-03 0.  1.
         12    1    3    3    0    0 -0.20605615450E+01 -0.59532641008E+01 -0.39724884345E+02  0.40221309073E+02  0.00000000000E+00 0. -1.
</event>
<event>
 7    1  0.1910099E-015  0.9000790E+02  0.7816164E-02  0.1186339E+00
        -11   -1    0    0    0    0  0.00000000000E+00  0.00000000000E+00  0.45593999997E+02  0.45594000000E+02  0.51100000000E-03 0.  1.
         11   -1    0    0    0    0 -0.00000000000E+00 -0.00000000000E+00 -0.45593999997E+02  0.45594000000E+02  0.51100000000E-03 0. -1.
    9900012    2    1    2    0    0  0.21256377174E+00 -0.11606504420E+01  0.18385759567E-01  0.90007902190E+02  0.90000165699E+02 0.  0.
        -12    1    1    2    0    0 -0.21256377174E+00  0.11606504420E+01 -0.18385759567E-01  0.11800978102E+01  0.00000000000E+00 0.  1.
         11    1    3    3    0    0 -0.23975304636E+02  0.25312597241E+01 -0.26887232275E+02  0.36112958447E+02  0.51100000000E-03 0. -1.
        -11    1    3    3    0    0 -0.96481521442E+01  0.17356730410E+01 -0.78860910158E+00  0.98346990436E+01  0.51100000000E-03 0.  1.
        -12    1    3    3    0    0  0.33836020552E+02 -0.54275832070E+01  0.27694227136E+02  0.44060244699E+02  0.00000000000E+00 0.  1.
</event>
<event>
 7    1  0.1910099E-015  0.9000773E+02  0.7816164E-02  0.1186339E+00
        -11   -1    0    0    0    0  0.00000000000E+00  0.00000000000E+00  0.45593999997E+02  0.45594000000E+02  0.51100000000E-03 0. -1.
         11   -1    0    0    0    0 -0.00000000000E+00 -0.00000000000E+00 -0.45593999997E+02  0.45594000000E+02  0.51100000000E-03 0.  1.
    9900012    2    1    2    0    0  0.42625965456E+00 -0.98949526629E+00  0.48192270606E+00  0.90007725596E+02  0.89999986773E+02 0.  0.
        -12    1    1    2    0    0 -0.42625965456E+00  0.98949526629E+00 -0.48192270606E+00  0.11802744044E+01  0.00000000000E+00 0.  1.
         11    1    3    3    0    0  0.39919109090E+02  0.15364972801E+01 -0.16011667876E+02  0.43038001845E+02  0.51100000000E-03 0. -1.
        -11    1    3    3    0    0 -0.62581539549E+01  0.67434735456E+01  0.13850705022E+01  0.93036200987E+01  0.51100000000E-03 0.  1.
        -12    1    3    3    0    0 -0.33234695480E+02 -0.92694660919E+01  0.15108520080E+02  0.37666103652E+02  0.00000000000E+00 0.  1.
</event>
<event>
 7    1  0.1910099E-015  0.9000902E+02  0.7816164E-02  0.1186336E+00
        -11   -1    0    0    0    0  0.00000000000E+00  0.00000000000E+00  0.45593999997E+02  0.45594000000E+02  0.51100000000E-03 0.  1.
         11   -1    0    0    0    0 -0.00000000000E+00 -0.00000000000E+00 -0.45593999997E+02  0.45594000000E+02  0.51100000000E-03 0. -1.
    9900012    2    1    2    0    0  0.55957997118E+00 -0.40769819447E+00 -0.95428283860E+00  0.90009015989E+02  0.90001294191E+02 0.  0.
        -12    1    1    2    0    0 -0.55957997118E+00  0.40769819447E+00  0.95428283860E+00  0.11789840109E+01  0.00000000000E+00 0.  1.
         11    1    3    3    0    0  0.30013491766E+02  0.14315014379E+02  0.25339178892E+02  0.41806737637E+02  0.51100000000E-03 0. -1.
        -11    1    3    3    0    0  0.15915550748E+01  0.38884682228E+01 -0.26215829759E+01  0.49523661250E+01  0.51100000000E-03 0.  1.
        -12    1    3    3    0    0 -0.31045466870E+02 -0.18611180796E+02 -0.23671878755E+02  0.43249912227E+02  0.00000000000E+00 0.  1.
</event>
<event>
 7    1  0.1910099E-015  0.9000779E+02  0.7816164E-02  0.1186339E+00
        -11   -1    0    0    0    0  0.00000000000E+00  0.00000000000E+00  0.45593999997E+02  0.45594000000E+02  0.51100000000E-03 0. -1.
         11   -1    0    0    0    0 -0.00000000000E+00 -0.00000000000E+00 -0.45593999997E+02  0.45594000000E+02  0.51100000000E-03 0.  1.
    9900012    2    1    2    0    0  0.82774404025E+00  0.63902116567E+00  0.54715361352E+00  0.90007794373E+02  0.90000056458E+02 0.  0.
        -12    1    1    2    0    0 -0.82774404025E+00 -0.63902116567E+00 -0.54715361352E+00  0.11802056275E+01  0.00000000000E+00 0.  1.
         11    1    3    3    0    0 -0.51471581567E+01 -0.19144174619E+02  0.27530808996E+02  0.33925478673E+02  0.51100000000E-03 0. -1.
        -11    1    3    3    0    0  0.89321356538E+01 -0.12841896247E+02 -0.13479155512E+02  0.20649091509E+02  0.51100000000E-03 0.  1.
         12    1    3    3    0    0 -0.29572334569E+01  0.32625092032E+02 -0.13504499870E+02  0.35433224191E+02  0.00000000000E+00 0. -1.
</event>
<event>
 7    1  0.1910099E-015  0.9000773E+02  0.7816164E-02  0.1186339E+00
        -11   -1    0    0    0    0  0.00000000000E+00  0.00000000000E+00  0.45593999997E+02  0.45594000000E+02  0.51100000000E-03 0.  1.
         11   -1    0    0    0    0 -0.00000000000E+00 -0.00000000000E+00 -0.45593999997E+02  0.45594000000E+02  0.51100000000E-03 0. -1.
    9900012    2    1    2    0    0 -0.38689305501E+00 -0.10489880102E+00 -0.11101156076E+01  0.90007726025E+02  0.89999987208E+02 0.  0.
        -12    1    1    2    0    0  0.38689305501E+00  0.10489880102E+00  0.11101156076E+01  0.11802739752E+01  0.00000000000E+00 0.  1.
         11    1    3    3    0    0 -0.11082071569E+02  0.52692242367E+00 -0.48647199258E+01  0.12114266702E+02  0.51100000000E-03 0. -1.
        -11    1    3    3    0    0  0.15572845202E+02 -0.35547564919E+02 -0.99571610393E+01  0.40066044671E+02  0.51100000000E-03 0.  1.
         12    1    3    3    0    0 -0.48776666884E+01  0.34915743694E+02  0.13711765358E+02  0.37827414652E+02  0.00000000000E+00 0. -1.
</event>
<event>
 7    1  0.1910099E-015  0.9000777E+02  0.7816164E-02  0.1186339E+00
        -11   -1    0    0    0    0  0.00000000000E+00  0.00000000000E+00  0.45593999997E+02  0.45594000000E+02  0.51100000000E-03 0.  1.
         11   -1    0    0    0    0 -0.00000000000E+00 -0.00000000000E+00 -0.45593999997E+02  0.45594000000E+02  0.51100000000E-03 0. -1.
    9900012    2    1    2    0    0 -0.11202801609E+01  0.28860641867E+00 -0.23371660887E+00  0.90007769193E+02  0.90000030947E+02 0.  0.
        -12    1    1    2    0    0  0.11202801609E+01 -0.28860641867E+00  0.23371660887E+00  0.11802308067E+01  0.00000000000E+00 0.  1.
         11    1    3    3    0    0  0.34957312634E+02 -0.11564264571E+02 -0.77928159482E+01  0.37636071824E+02  0.51100000000E-03 0. -1.
        -11    1    3    3    0    0  0.10198416007E+00 -0.96063235967E+01  0.29790329072E+01  0.10058155454E+02  0.51100000000E-03 0.  1.
        -12    1    3    3    0    0 -0.36179576955E+02  0.21459194586E+02  0.45800664322E+01  0.42313541916E+02  0.00000000000E+00 0.  1.
</event>
<event>
 7    1  0.1910099E-015  0.9000762E+02  0.7816164E-02  0.1186339E+00
        -11   -1    0    0    0    0  0.00000000000E+00  0.00000000000E+00  0.45593999997E+02  0.45594000000E+02  0.51100000000E-03 0.  1.
         11   -1    0    0    0    0 -0.00000000000E+00 -0.00000000000E+00 -0.45593999997E+02  0.45594000000E+02  0.51100000000E-03 0. -1.
    9900012    2    1    2    0    0 -0.91209013334E+00 -0.64893332463E+00  0.37453834173E+00  0.90007617926E+02  0.89999877683E+02 0.  0.
        -12    1    1    2    0    0  0.91209013334E+00  0.64893332463E+00 -0.37453834173E+00  0.11803820740E+01  0.00000000000E+00 0.  1.
         11    1    3    3    0    0  0.63573198200E+01  0.52897275730E+00  0.11119930145E+02  0.12819835184E+02  0.51100000000E-03 0. -1.
        -11    1    3    3    0    0  0.24832818943E+01 -0.19447702086E+02  0.27453889631E+02  0.33735676390E+02  0.51100000000E-03 0.  1.
         12    1    3    3    0    0 -0.97526918476E+01  0.18269796004E+02 -0.38199281434E+02  0.43452106351E+02  0.00000000000E+00 0. -1.
</event>
<event>
 7    1  0.1910099E-015  0.9000774E+02  0.7816164E-02  0.1186339E+00
        -11   -1    0    0    0    0  0.00000000000E+00  0.00000000000E+00  0.45593999997E+02  0.45594000000E+02  0.51100000000E-03 0.  1.
         11   -1    0    0    0    0 -0.00000000000E+00 -0.00000000000E+00 -0.45593999997E+02  0.45594000000E+02  0.51100000000E-03 0. -1.
    9900012    2    1    2    0    0 -0.29885236657E+00  0.10963754174E+01 -0.31882865877E+00  0.90007744305E+02  0.90000005729E+02 0.  0.
        -12    1    1    2    0    0  0.29885236657E+00 -0.10963754174E+01  0.31882865877E+00  0.11802556954E+01  0.00000000000E+00 0.  1.
         11    1    3    3    0    0  0.18295422283E+01 -0.81797715262E+01  0.70703547092E+00  0.84116458797E+01  0.51100000000E-03 0. -1.
        -11    1    3    3    0    0  0.14761672027E+02 -0.26311613990E+02  0.20720471263E+02  0.36599807669E+02  0.51100000000E-03 0.  1.
         12    1    3    3    0    0 -0.16890066622E+02  0.35587760934E+02 -0.21746335393E+02  0.44996290756E+02  0.00000000000E+00 0. -1.
</event>
<event>
 7    1  0.2907484E-015  0.9000737E+02  0.7816164E-02  0.1186340E+00
        -11   -1    0    0    0    0  0.00000000000E+00  0.00000000000E+00  0.45593999997E+02  0.45594000000E+02  0.51100000000E-03 0.  1.
         11   -1    0    0    0    0 -0.00000000000E+00 -0.00000000000E+00 -0.45593999997E+02  0.45594000000E+02  0.51100000000E-03 0. -1.
    9900012    2    1    2    0    0  0.27424979229E+00  0.55365669218E+00 -0.10060516036E+01  0.90007369444E+02  0.89999625920E+02 0.  0.
        -12    1    1    2    0    0 -0.27424979229E+00 -0.55365669218E+00  0.10060516036E+01  0.11806305563E+01  0.00000000000E+00 0.  1.
         11    1    3    3    0    0 -0.30227038219E+01  0.85792816213E+01 -0.30374078225E+01  0.95899248211E+01  0.51100000000E-03 0. -1.
        -11    1    3    3    0    0 -0.24337222926E+02  0.44245740480E+01  0.30201510724E+02  0.39038551785E+02  0.51100000000E-03 0.  1.
         12    1    3    3    0    0  0.27634176540E+02 -0.12450198977E+02 -0.28170154505E+02  0.41378892837E+02  0.00000000000E+00 0. -1.
</event>
<event>
 7    1  0.1910099E-015  0.9000668E+02  0.7816164E-02  0.1186341E+00
        -11   -1    0    0    0    0  0.00000000000E+00  0.00000000000E+00  0.45593999997E+02  0.45594000000E+02  0.51100000000E-03 0.  1.
         11   -1    0    0    0    0 -0.00000000000E+00 -0.00000000000E+00 -0.45593999997E+02  0.45594000000E+02  0.51100000000E-03 0. -1.
    9900012    2    1    2    0    0  0.91167583300E+00 -0.35891553747E+00 -0.65995822812E+00  0.90006679531E+02  0.89998926894E+02 0.  0.
        -12    1    1    2    0    0 -0.91167583300E+00  0.35891553747E+00  0.65995822812E+00  0.11813204690E+01  0.00000000000E+00 0.  1.
         11    1    3    3    0    0  0.38369806401E+01 -0.37397339586E+02  0.12230657306E+02  0.39533181088E+02  0.51100000000E-03 0. -1.
        -11    1    3    3    0    0 -0.49437619520E+01  0.41089064430E+01 -0.16090761358E+02  0.17327333774E+02  0.51100000000E-03 0.  1.
        -12    1    3    3    0    0  0.20184571449E+01  0.32929517605E+02  0.32001458235E+01  0.33146164669E+02  0.00000000000E+00 0.  1.
</event>
<event>
 7    1  0.1910099E-015  0.9000774E+02  0.7816164E-02  0.1186339E+00
        -11   -1    0    0    0    0  0.00000000000E+00  0.00000000000E+00  0.45593999997E+02  0.45594000000E+02  0.51100000000E-03 0.  1.
         11   -1    0    0    0    0 -0.00000000000E+00 -0.00000000000E+00 -0.45593999997E+02  0.45594000000E+02  0.51100000000E-03 0. -1.
    9900012    2    1    2    0    0  0.12583509431E+00  0.83644726149E+00 -0.82312475159E+00  0.90007740347E+02  0.90000001719E+02 0.  0.
        -12    1    1    2    0    0 -0.12583509431E+00 -0.83644726149E+00  0.82312475159E+00  0.11802596532E+01  0.00000000000E+00 0.  1.
         11    1    3    3    0    0  0.94248597594E+01  0.37720755039E+02  0.54713515271E+01  0.39263456674E+02  0.51100000000E-03 0. -1.
        -11    1    3    3    0    0  0.57983338634E+00  0.61082427492E+01  0.29045819982E+00  0.61425729516E+01  0.51100000000E-03 0.  1.
        -12    1    3    3    0    0 -0.98788580515E+01 -0.42992550527E+02 -0.65849344785E+01  0.44601710721E+02  0.00000000000E+00 0.  1.
</event>
<event>
 7    1  0.1910099E-015  0.9000777E+02  0.7816164E-02  0.1186339E+00
        -11   -1    0    0    0    0  0.00000000000E+00  0.00000000000E+00  0.45593999997E+02  0.45594000000E+02  0.51100000000E-03 0. -1.
         11   -1    0    0    0    0 -0.00000000000E+00 -0.00000000000E+00 -0.45593999997E+02  0.45594000000E+02  0.51100000000E-03 0.  1.
    9900012    2    1    2    0    0 -0.19370329252E+00 -0.40762065099E+00  0.10905355553E+01  0.90007769786E+02  0.90000031547E+02 0.  0.
        -12    1    1    2    0    0  0.19370329252E+00  0.40762065099E+00 -0.10905355553E+01  0.11802302139E+01  0.00000000000E+00 0.  1.
         11    1    3    3    0    0  0.32220573167E+01  0.70981231594E+01  0.56731069864E+01  0.96410138927E+01  0.51100000000E-03 0. -1.
        -11    1    3    3    0    0 -0.97185653867E+00  0.31925826465E+02  0.16104663999E+02  0.35770981304E+02  0.51100000000E-03 0.  1.
         12    1    3    3    0    0 -0.24439040705E+01 -0.39431570276E+02 -0.20687235430E+02  0.44595774590E+02  0.00000000000E+00 0. -1.
</event>
<event>
 7    1  0.1910099E-015  0.9000777E+02  0.7816164E-02  0.1186339E+00
        -11   -1    0    0    0    0  0.00000000000E+00  0.00000000000E+00  0.45593999997E+02  0.45594000000E+02  0.51100000000E-03 0.  1.
         11   -1    0    0    0    0 -0.00000000000E+00 -0.00000000000E+00 -0.45593999997E+02  0.45594000000E+02  0.51100000000E-03 0. -1.
    9900012    2    1    2    0    0  0.52578508589E+00  0.74878674359E+00 -0.74553397341E+00  0.90007765934E+02  0.90000027645E+02 0.  0.
        -12    1    1    2    0    0 -0.52578508589E+00 -0.74878674359E+00  0.74553397341E+00  0.11802340655E+01  0.00000000000E+00 0.  1.
         11    1    3    3    0    0 -0.64984788762E+01  0.31706440321E+02 -0.13729303137E+02  0.35157109529E+02  0.51100000000E-03 0. -1.
        -11    1    3    3    0    0 -0.58369954702E+01  0.73107040655E+01 -0.50535444561E+01  0.10632742914E+02  0.51100000000E-03 0.  1.
        -12    1    3    3    0    0  0.12861259432E+02 -0.38268357643E+02  0.18037313620E+02  0.44217913491E+02  0.00000000000E+00 0.  1.
</event>
<event>
 7    1  0.1910099E-015  0.9000755E+02  0.7816164E-02  0.1186339E+00
        -11   -1    0    0    0    0  0.00000000000E+00  0.00000000000E+00  0.45593999997E+02  0.45594000000E+02  0.51100000000E-03 0. -1.
         11   -1    0    0    0    0 -0.00000000000E+00 -0.00000000000E+00 -0.45593999997E+02  0.45594000000E+02  0.51100000000E-03 0.  1.
    9900012    2    1    2    0    0  0.11130654973E+00 -0.88749611855E+00 -0.77033265039E+00  0.90007554787E+02  0.89999813710E+02 0.  0.
        -12    1    1    2    0    0 -0.11130654973E+00  0.88749611855E+00  0.77033265039E+00  0.11804452129E+01  0.00000000000E+00 0.  1.
         11    1    3    3    0    0  0.24787753727E+02  0.22834189046E+02  0.14845481980E+02  0.36826909450E+02  0.51100000000E-03 0. -1.
        -11    1    3    3    0    0 -0.16891422329E+01  0.92808289754E+01  0.13502184850E+01  0.95294322062E+01  0.51100000000E-03 0.  1.
        -12    1    3    3    0    0 -0.22987304944E+02 -0.33002514140E+02 -0.16966033115E+02  0.43651213131E+02  0.00000000000E+00 0.  1.
</event>
<event>
 8    1  0.1910099E-015  0.9000778E+02  0.7816164E-02  0.1186339E+00
        -11   -1    0    0    0    0  0.00000000000E+00  0.00000000000E+00  0.45593999997E+02  0.45594000000E+02  0.51100000000E-03 0.  1.
         11   -1    0    0    0    0 -0.00000000000E+00 -0.00000000000E+00 -0.45593999997E+02  0.45594000000E+02  0.51100000000E-03 0. -1.
    9900012    2    1    2    0    0 -0.98671463111E+00  0.64402738227E+00 -0.67396485131E-01  0.90007779970E+02  0.90000041866E+02 0.  0.
         23    2    3    3    0    0 -0.68196943341E+01 -0.24817715458E+02  0.64196245498E+01  0.63092998854E+02  0.57245853069E+02 0.  0.
        -12    1    1    2    0    0  0.98671463111E+00 -0.64402738227E+00  0.67396485131E-01  0.11802200297E+01  0.00000000000E+00 0.  1.
         11    1    4    4    0    0  0.69156834237E+01 -0.29942095987E+02 -0.17257646779E+02  0.35244604720E+02  0.51100000000E-03 0. -1.
        -11    1    4    4    0    0 -0.13735377758E+02  0.51243805290E+01  0.23677271329E+02  0.27848394133E+02  0.51100000000E-03 0.  1.
        -12    1    3    3    0    0  0.58329797030E+01  0.25461742840E+02 -0.64870210350E+01  0.26914781117E+02  0.00000000000E+00 0.  1.
</event>
<event>
 7    1  0.1910099E-015  0.9000774E+02  0.7816164E-02  0.1186339E+00
        -11   -1    0    0    0    0  0.00000000000E+00  0.00000000000E+00  0.45593999997E+02  0.45594000000E+02  0.51100000000E-03 0.  1.
         11   -1    0    0    0    0 -0.00000000000E+00 -0.00000000000E+00 -0.45593999997E+02  0.45594000000E+02  0.51100000000E-03 0. -1.
    9900012    2    1    2    0    0 -0.59672769590E+00 -0.54058869456E+00 -0.86296296007E+00  0.90007735136E+02  0.89999996439E+02 0.  0.
        -12    1    1    2    0    0  0.59672769590E+00  0.54058869456E+00  0.86296296007E+00  0.11802648644E+01  0.00000000000E+00 0.  1.
         11    1    3    3    0    0  0.16610513387E+02  0.16448051195E+02 -0.34756049335E+02  0.41885922560E+02  0.51100000000E-03 0. -1.
        -11    1    3    3    0    0  0.37029004956E+01 -0.80944637113E+01  0.22784497193E+01  0.91882070198E+01  0.51100000000E-03 0.  1.
        -12    1    3    3    0    0 -0.20910141578E+02 -0.88941761778E+01  0.31614636656E+02  0.38933605556E+02  0.00000000000E+00 0.  1.
</event>
<event>
 7    1  0.1910099E-015  0.9000819E+02  0.7816164E-02  0.1186338E+00
        -11   -1    0    0    0    0  0.00000000000E+00  0.00000000000E+00  0.45593999997E+02  0.45594000000E+02  0.51100000000E-03 0. -1.
         11   -1    0    0    0    0 -0.00000000000E+00 -0.00000000000E+00 -0.45593999997E+02  0.45594000000E+02  0.51100000000E-03 0.  1.
    9900012    2    1    2    0    0 -0.35373235808E+00  0.20531693992E+00  0.11066494273E+01  0.90008188752E+02  0.90000456042E+02 0.  0.
        -12    1    1    2    0    0  0.35373235808E+00 -0.20531693992E+00 -0.11066494273E+01  0.11798112484E+01  0.00000000000E+00 0.  1.
         11    1    3    3    0    0 -0.31339935986E+02  0.20798125139E+02 -0.76299899826E+01  0.38379295777E+02  0.51100000000E-03 0. -1.
        -11    1    3    3    0    0 -0.11687193961E+01  0.77001635494E+01  0.32860688224E+01  0.84532048527E+01  0.51100000000E-03 0.  1.
        -12    1    3    3    0    0  0.32154923024E+02 -0.28292971749E+02  0.54505705875E+01  0.43175688122E+02  0.00000000000E+00 0.  1.
</event>
<event>
 7    1  0.2370789E-015  0.9000775E+02  0.7816164E-02  0.1186339E+00
        -11   -1    0    0    0    0  0.00000000000E+00  0.00000000000E+00  0.45593999997E+02  0.45594000000E+02  0.51100000000E-03 0.  1.
         11   -1    0    0    0    0 -0.00000000000E+00 -0.00000000000E+00 -0.45593999997E+02  0.45594000000E+02  0.51100000000E-03 0. -1.
    9900012    2    1    2    0    0 -0.11111224526E+01 -0.48756337313E-01 -0.39499846083E+00  0.90007748303E+02  0.90000009780E+02 0.  0.
        -12    1    1    2    0    0  0.11111224526E+01  0.48756337313E-01  0.39499846083E+00  0.11802516974E+01  0.00000000000E+00 0.  1.
         11    1    3    3    0    0 -0.38628522560E+01  0.72546733778E+01  0.46824674974E+01  0.94592502608E+01  0.51100000000E-03 0. -1.
        -11    1    3    3    0    0  0.15114236349E+02 -0.78895266595E+01  0.34822941283E+02  0.38772696724E+02  0.51100000000E-03 0.  1.
         12    1    3    3    0    0 -0.12362506546E+02  0.58609694438E+00 -0.39900407242E+02  0.41775801318E+02  0.00000000000E+00 0. -1.
</event>
<event>
 7    1  0.1910099E-015  0.9000772E+02  0.7816164E-02  0.1186339E+00
        -11   -1    0    0    0    0  0.00000000000E+00  0.00000000000E+00  0.45593999997E+02  0.45594000000E+02  0.51100000000E-03 0.  1.
         11   -1    0    0    0    0 -0.00000000000E+00 -0.00000000000E+00 -0.45593999997E+02  0.45594000000E+02  0.51100000000E-03 0. -1.
    9900012    2    1    2    0    0 -0.57247075271E+00 -0.79732716540E+00 -0.65545001057E+00  0.90007716946E+02  0.89999978010E+02 0.  0.
        -12    1    1    2    0    0  0.57247075271E+00  0.79732716540E+00  0.65545001057E+00  0.11802830541E+01  0.00000000000E+00 0.  1.
         11    1    3    3    0    0 -0.87007067708E+01  0.27076649835E+01  0.92175261482E+00  0.91587868257E+01  0.51100000000E-03 0. -1.
        -11    1    3    3    0    0 -0.23897755812E+02 -0.29937340235E+02 -0.70993117936E+01  0.38958276417E+02  0.51100000000E-03 0.  1.
         12    1    3    3    0    0  0.32025991830E+02  0.26432348086E+02  0.55221091682E+01  0.41890653703E+02  0.00000000000E+00 0. -1.
</event>
<event>
 7    1  0.1910099E-015  0.9000775E+02  0.7816164E-02  0.1186339E+00
        -11   -1    0    0    0    0  0.00000000000E+00  0.00000000000E+00  0.45593999997E+02  0.45594000000E+02  0.51100000000E-03 0.  1.
         11   -1    0    0    0    0 -0.00000000000E+00 -0.00000000000E+00 -0.45593999997E+02  0.45594000000E+02  0.51100000000E-03 0. -1.
    9900012    2    1    2    0    0  0.10485911342E+01  0.45183794698E+00  0.29880955762E+00  0.90007750853E+02  0.90000012364E+02 0.  0.
        -12    1    1    2    0    0 -0.10485911342E+01 -0.45183794698E+00 -0.29880955762E+00  0.11802491469E+01  0.00000000000E+00 0.  1.
         11    1    3    3    0    0  0.10479313203E+01 -0.32301421406E+02 -0.19336609722E+02  0.37661445282E+02  0.51100000000E-03 0. -1.
        -11    1    3    3    0    0  0.12670015503E+02 -0.18397392739E+00  0.88111870171E+01  0.15433734355E+02  0.51100000000E-03 0.  1.
        -12    1    3    3    0    0 -0.12669355689E+02  0.32937233280E+02  0.10824232263E+02  0.36912571216E+02  0.00000000000E+00 0.  1.
</event>
<event>
 7    1  0.1910099E-015  0.9000772E+02  0.7816164E-02  0.1186339E+00
        -11   -1    0    0    0    0  0.00000000000E+00  0.00000000000E+00  0.45593999997E+02  0.45594000000E+02  0.51100000000E-03 0.  1.
         11   -1    0    0    0    0 -0.00000000000E+00 -0.00000000000E+00 -0.45593999997E+02  0.45594000000E+02  0.51100000000E-03 0. -1.
    9900012    2    1    2    0    0 -0.27327331057E-01  0.93155178848E+00 -0.72424319811E+00  0.90007718793E+02  0.89999979881E+02 0.  0.
        -12    1    1    2    0    0  0.27327331057E-01 -0.93155178848E+00  0.72424319811E+00  0.11802812070E+01  0.00000000000E+00 0.  1.
         11    1    3    3    0    0  0.21010608202E+02  0.24046717159E+02 -0.19817050652E+02  0.37581987174E+02  0.51100000000E-03 0. -1.
        -11    1    3    3    0    0  0.40809481492E+01 -0.22316227520E+01 -0.84842577961E+01  0.96755831098E+01  0.51100000000E-03 0.  1.
        -12    1    3    3    0    0 -0.25118883682E+02 -0.20883542619E+02  0.27577065250E+02  0.42750148509E+02  0.00000000000E+00 0.  1.
</event>
<event>
 7    1  0.1910099E-015  0.9000788E+02  0.7816164E-02  0.1186339E+00
        -11   -1    0    0    0    0  0.00000000000E+00  0.00000000000E+00  0.45593999997E+02  0.45594000000E+02  0.51100000000E-03 0.  1.
         11   -1    0    0    0    0 -0.00000000000E+00 -0.00000000000E+00 -0.45593999997E+02  0.45594000000E+02  0.51100000000E-03 0. -1.
    9900012    2    1    2    0    0 -0.87451199594E-01  0.23290996988E+00 -0.11535930294E+01  0.90007884902E+02  0.90000148183E+02 0.  0.
        -12    1    1    2    0    0  0.87451199594E-01 -0.23290996988E+00  0.11535930294E+01  0.11801150977E+01  0.00000000000E+00 0.  1.
         11    1    3    3    0    0  0.72158014028E+01 -0.46434076251E+01 -0.95844746195E+00  0.86340978716E+01  0.51100000000E-03 0. -1.
        -11    1    3    3    0    0  0.10558974744E+02  0.40318793361E+02 -0.59023372179E+00  0.41682675320E+02  0.51100000000E-03 0.  1.
         12    1    3    3    0    0 -0.17862227346E+02 -0.35442475766E+02  0.39508815434E+00  0.39691111711E+02  0.00000000000E+00 0. -1.
</event>
<event>
 7    1  0.1910099E-015  0.9000778E+02  0.7816164E-02  0.1186339E+00
        -11   -1    0    0    0    0  0.00000000000E+00  0.00000000000E+00  0.45593999997E+02  0.45594000000E+02  0.51100000000E-03 0.  1.
         11   -1    0    0    0    0 -0.00000000000E+00 -0.00000000000E+00 -0.45593999997E+02  0.45594000000E+02  0.51100000000E-03 0. -1.
    9900012    2    1    2    0    0  0.19348806233E+00  0.11282698905E+01 -0.28722639726E+00  0.90007775623E+02  0.90000037462E+02 0.  0.
        -12    1    1    2    0    0 -0.19348806233E+00 -0.11282698905E+01  0.28722639726E+00  0.11802243767E+01  0.00000000000E+00 0.  1.
         11    1    3    3    0    0 -0.19888129120E+02  0.10967556981E+02 -0.29172029683E+02  0.36970695181E+02  0.51100000000E-03 0. -1.
        -11    1    3    3    0    0 -0.23555697867E+01  0.64451141880E+01 -0.55523520593E+01  0.88270504455E+01  0.51100000000E-03 0.  1.
        -12    1    3    3    0    0  0.22437186969E+02 -0.16284401278E+02  0.34437155345E+02  0.44210029997E+02  0.00000000000E+00 0.  1.
</event>
<event>
 7    1  0.1910099E-015  0.9000766E+02  0.7816164E-02  0.1186339E+00
        -11   -1    0    0    0    0  0.00000000000E+00  0.00000000000E+00  0.45593999997E+02  0.45594000000E+02  0.51100000000E-03 0.  1.
         11   -1    0    0    0    0 -0.00000000000E+00 -0.00000000000E+00 -0.45593999997E+02  0.45594000000E+02  0.51100000000E-03 0. -1.
    9900012    2    1    2    0    0  0.11205456902E+01  0.33564464627E+00  0.15784015277E+00  0.90007663825E+02  0.89999924187E+02 0.  0.
        -12    1    1    2    0    0 -0.11205456902E+01 -0.33564464627E+00 -0.15784015277E+00  0.11803361751E+01  0.00000000000E+00 0.  1.
         11    1    3    3    0    0  0.32790457988E+02 -0.17572742370E+01 -0.28293480113E+02  0.43345393815E+02  0.51100000000E-03 0. -1.
        -11    1    3    3    0    0 -0.44226244567E+01 -0.68400076857E+01  0.45310035950E+01  0.93206923597E+01  0.51100000000E-03 0.  1.
        -12    1    3    3    0    0 -0.27247287841E+02  0.89329265690E+01  0.23920316671E+02  0.37341577650E+02  0.00000000000E+00 0.  1.
</event>
<event>
 7    1  0.1910099E-015  0.9000684E+02  0.7816164E-02  0.1186341E+00
        -11   -1    0    0    0    0  0.00000000000E+00  0.00000000000E+00  0.45593999997E+02  0.45594000000E+02  0.51100000000E-03 0. -1.
         11   -1    0    0    0    0 -0.00000000000E+00 -0.00000000000E+00 -0.45593999997E+02  0.45594000000E+02  0.51100000000E-03 0.  1.
    9900012    2    1    2    0    0  0.46708848155E+00  0.17399470815E+00  0.10708401543E+01  0.90006837672E+02  0.89999087125E+02 0.  0.
        -12    1    1    2    0    0 -0.46708848155E+00 -0.17399470815E+00 -0.10708401543E+01  0.11811623276E+01  0.00000000000E+00 0.  1.
         11    1    3    3    0    0 -0.57967894869E+01  0.13853972747E+01 -0.24776859332E+01  0.64545349800E+01  0.51100000000E-03 0. -1.
        -11    1    3    3    0    0 -0.21673448749E+02  0.29548905416E+02 -0.12917452956E+02  0.38855331462E+02  0.51100000000E-03 0.  1.
         12    1    3    3    0    0  0.27937326718E+02 -0.30760307982E+02  0.16465979043E+02  0.44696971230E+02  0.00000000000E+00 0. -1.
</event>
<event>
 7    1  0.1910099E-015  0.9000780E+02  0.7816164E-02  0.1186339E+00
        -11   -1    0    0    0    0  0.00000000000E+00  0.00000000000E+00  0.45593999997E+02  0.45594000000E+02  0.51100000000E-03 0.  1.
         11   -1    0    0    0    0 -0.00000000000E+00 -0.00000000000E+00 -0.45593999997E+02  0.45594000000E+02  0.51100000000E-03 0. -1.
    9900012    2    1    2    0    0 -0.36056385794E+00 -0.10283477918E+01 -0.45318354791E+00  0.90007796287E+02  0.90000058398E+02 0.  0.
        -12    1    1    2    0    0  0.36056385794E+00  0.10283477918E+01  0.45318354791E+00  0.11802037132E+01  0.00000000000E+00 0.  1.
         11    1    3    3    0    0 -0.91291064206E+01 -0.25512789006E+01  0.37154551142E+01  0.10181071409E+02  0.51100000000E-03 0. -1.
        -11    1    3    3    0    0 -0.93882466509E+01 -0.32569176425E+02  0.14571850104E+02  0.36894840342E+02  0.51100000000E-03 0.  1.
         12    1    3    3    0    0  0.18156789214E+02  0.34092107533E+02 -0.18740488766E+02  0.42931884536E+02  0.00000000000E+00 0. -1.
</event>
<event>
 7    1  0.1910099E-015  0.9000771E+02  0.7816164E-02  0.1186339E+00
        -11   -1    0    0    0    0  0.00000000000E+00  0.00000000000E+00  0.45593999997E+02  0.45594000000E+02  0.51100000000E-03 0. -1.
         11   -1    0    0    0    0 -0.00000000000E+00 -0.00000000000E+00 -0.45593999997E+02  0.45594000000E+02  0.51100000000E-03 0.  1.
    9900012    2    1    2    0    0  0.65690026757E+00 -0.17066631067E+00  0.96562657152E+00  0.90007712058E+02  0.89999973057E+02 0.  0.
        -12    1    1    2    0    0 -0.65690026757E+00  0.17066631067E+00 -0.96562657152E+00  0.11802879423E+01  0.00000000000E+00 0.  1.
         11    1    3    3    0    0 -0.21915126414E+01 -0.30858585033E+01  0.54194028556E+01  0.66102328198E+01  0.51100000000E-03 0. -1.
        -11    1    3    3    0    0 -0.12086520933E+02 -0.25501503611E+02 -0.30868744093E+02  0.41824514783E+02  0.51100000000E-03 0.  1.
         12    1    3    3    0    0  0.14934933842E+02  0.28416695804E+02  0.26414967808E+02  0.41572964455E+02  0.00000000000E+00 0. -1.
</event>
<event>
 7    1  0.1910099E-015  0.9000781E+02  0.7816164E-02  0.1186339E+00
        -11   -1    0    0    0    0  0.00000000000E+00  0.00000000000E+00  0.45593999997E+02  0.45594000000E+02  0.51100000000E-03 0.  1.
         11   -1    0    0    0    0 -0.00000000000E+00 -0.00000000000E+00 -0.45593999997E+02  0.45594000000E+02  0.51100000000E-03 0. -1.
    9900012    2    1    2    0    0  0.58737919961E+00  0.85848581532E+00 -0.55752873175E+00  0.90007809123E+02  0.90000071403E+02 0.  0.
        -12    1    1    2    0    0 -0.58737919961E+00 -0.85848581532E+00  0.55752873175E+00  0.11801908769E+01  0.00000000000E+00 0.  1.
         11    1    3    3    0    0  0.69420179568E+01  0.16101708119E+02  0.17080602259E+01  0.17617437035E+02  0.51100000000E-03 0. -1.
        -11    1    3    3    0    0 -0.32749486264E+01  0.88699145632E+01  0.30306491004E+02  0.31747189956E+02  0.51100000000E-03 0.  1.
         12    1    3    3    0    0 -0.30796901308E+01 -0.24113136867E+02 -0.32572079961E+02  0.40643182133E+02  0.00000000000E+00 0. -1.
</event>
<event>
 7    1  0.1910099E-015  0.9000771E+02  0.7816164E-02  0.1186339E+00
        -11   -1    0    0    0    0  0.00000000000E+00  0.00000000000E+00  0.45593999997E+02  0.45594000000E+02  0.51100000000E-03 0. -1.
         11   -1    0    0    0    0 -0.00000000000E+00 -0.00000000000E+00 -0.45593999997E+02  0.45594000000E+02  0.51100000000E-03 0.  1.
    9900012    2    1    2    0    0 -0.57216821949E+00  0.31249878427E-01  0.10318566731E+01  0.90007711383E+02  0.89999972373E+02 0.  0.
        -12    1    1    2    0    0  0.57216821949E+00 -0.31249878427E-01 -0.10318566731E+01  0.11802886173E+01  0.00000000000E+00 0.  1.
         11    1    3    3    0    0  0.36398599080E+01  0.34051990795E+00 -0.55783036702E+01  0.66694831926E+01  0.51100000000E-03 0. -1.
        -11    1    3    3    0    0  0.10007746297E+02  0.97144820461E+01 -0.35302719209E+02  0.37957978492E+02  0.51100000000E-03 0.  1.
         12    1    3    3    0    0 -0.14219774424E+02 -0.10023752076E+02  0.41912879552E+02  0.45380249699E+02  0.00000000000E+00 0. -1.
</event>
<event>
 7    1  0.1910099E-015  0.9000798E+02  0.7816164E-02  0.1186339E+00
        -11   -1    0    0    0    0  0.00000000000E+00  0.00000000000E+00  0.45593999997E+02  0.45594000000E+02  0.51100000000E-03 0. -1.
         11   -1    0    0    0    0 -0.00000000000E+00 -0.00000000000E+00 -0.45593999997E+02  0.45594000000E+02  0.51100000000E-03 0.  1.
    9900012    2    1    2    0    0  0.66742644843E+00  0.90725022914E+00 -0.35197927037E+00  0.90007978623E+02  0.90000243141E+02 0.  0.
        -12    1    1    2    0    0 -0.66742644843E+00 -0.90725022914E+00  0.35197927037E+00  0.11800213766E+01  0.00000000000E+00 0.  1.
         11    1    3    3    0    0  0.85413695813E+01  0.40122425767E+02  0.16490607705E+02  0.44212036670E+02  0.51100000000E-03 0. -1.
        -11    1    3    3    0    0 -0.60664036847E+01 -0.97701480928E+01  0.61550768266E+00  0.11516765926E+02  0.51100000000E-03 0.  1.
        -12    1    3    3    0    0 -0.18075394482E+01 -0.29445027445E+02 -0.17458094658E+02  0.34279176028E+02  0.00000000000E+00 0.  1.
</event>
<event>
 7    1  0.1910099E-015  0.9000775E+02  0.7816164E-02  0.1186339E+00
        -11   -1    0    0    0    0  0.00000000000E+00  0.00000000000E+00  0.45593999997E+02  0.45594000000E+02  0.51100000000E-03 0.  1.
         11   -1    0    0    0    0 -0.00000000000E+00 -0.00000000000E+00 -0.45593999997E+02  0.45594000000E+02  0.51100000000E-03 0. -1.
    9900012    2    1    2    0    0  0.92100196816E+00 -0.43921258058E+00 -0.59315508447E+00  0.90007752030E+02  0.90000013557E+02 0.  0.
        -12    1    1    2    0    0 -0.92100196816E+00  0.43921258058E+00  0.59315508447E+00  0.11802479699E+01  0.00000000000E+00 0.  1.
         11    1    3    3    0    0 -0.10242236582E+02 -0.27411550291E+02 -0.29558166729E+02  0.41593048941E+02  0.51100000000E-03 0. -1.
        -11    1    3    3    0    0 -0.19574255781E+01 -0.43812892658E+01  0.39023630060E+01  0.61851150204E+01  0.51100000000E-03 0.  1.
        -12    1    3    3    0    0  0.13120664128E+02  0.31353626976E+02  0.25062648638E+02  0.42229588069E+02  0.00000000000E+00 0.  1.
</event>
<event>
 7    1  0.1910099E-015  0.9000773E+02  0.7816164E-02  0.1186339E+00
        -11   -1    0    0    0    0  0.00000000000E+00  0.00000000000E+00  0.45593999997E+02  0.45594000000E+02  0.51100000000E-03 0.  1.
         11   -1    0    0    0    0 -0.00000000000E+00 -0.00000000000E+00 -0.45593999997E+02  0.45594000000E+02  0.51100000000E-03 0. -1.
    9900012    2    1    2    0    0 -0.10030894418E+01  0.19248188666E+00 -0.59144116404E+00  0.90007728694E+02  0.89999989913E+02 0.  0.
        -12    1    1    2    0    0  0.10030894418E+01 -0.19248188666E+00  0.59144116404E+00  0.11802713058E+01  0.00000000000E+00 0.  1.
         11    1    3    3    0    0 -0.16392031356E+02  0.55133015530E+00 -0.29858252860E+02  0.34066375226E+02  0.51100000000E-03 0. -1.
        -11    1    3    3    0    0 -0.12517325114E+02  0.11597085140E+02  0.78192132678E+01  0.18770080131E+02  0.51100000000E-03 0.  1.
        -12    1    3    3    0    0  0.27906267028E+02 -0.11955933409E+02  0.21447598429E+02  0.37171273337E+02  0.00000000000E+00 0.  1.
</event>
<event>
 7    1  0.1910099E-015  0.9000775E+02  0.7816164E-02  0.1186339E+00
        -11   -1    0    0    0    0  0.00000000000E+00  0.00000000000E+00  0.45593999997E+02  0.45594000000E+02  0.51100000000E-03 0.  1.
         11   -1    0    0    0    0 -0.00000000000E+00 -0.00000000000E+00 -0.45593999997E+02  0.45594000000E+02  0.51100000000E-03 0. -1.
    9900012    2    1    2    0    0 -0.66756725547E+00 -0.91870888921E+00 -0.32144527019E+00  0.90007746161E+02  0.90000007610E+02 0.  0.
        -12    1    1    2    0    0  0.66756725547E+00  0.91870888921E+00  0.32144527019E+00  0.11802538394E+01  0.00000000000E+00 0.  1.
         11    1    3    3    0    0 -0.46549858141E+01  0.44870897356E+01 -0.78872926186E+01  0.10198639730E+02  0.51100000000E-03 0. -1.
        -11    1    3    3    0    0  0.19153091279E+02  0.21517916197E+02 -0.22608020146E+02  0.36619451090E+02  0.51100000000E-03 0.  1.
         12    1    3    3    0    0 -0.15165672720E+02 -0.26923714821E+02  0.30173867495E+02  0.43189655340E+02  0.00000000000E+00 0. -1.
</event>
<event>
 7    1  0.1910099E-015  0.9000790E+02  0.7816164E-02  0.1186339E+00
        -11   -1    0    0    0    0  0.00000000000E+00  0.00000000000E+00  0.45593999997E+02  0.45594000000E+02  0.51100000000E-03 0.  1.
         11   -1    0    0    0    0 -0.00000000000E+00 -0.00000000000E+00 -0.45593999997E+02  0.45594000000E+02  0.51100000000E-03 0. -1.
    9900012    2    1    2    0    0 -0.97331005316E+00  0.44361878617E+00 -0.49850782596E+00  0.90007898250E+02  0.90000161707E+02 0.  0.
        -12    1    1    2    0    0  0.97331005316E+00 -0.44361878617E+00  0.49850782596E+00  0.11801017497E+01  0.00000000000E+00 0.  1.
         11    1    3    3    0    0  0.18285699567E+02 -0.29306085593E+02 -0.19976190549E+02  0.39903153391E+02  0.51100000000E-03 0. -1.
        -11    1    3    3    0    0 -0.85479944063E+01 -0.47731585582E+01  0.21677886932E+01  0.10027490168E+02  0.51100000000E-03 0.  1.
        -12    1    3    3    0    0 -0.10711015214E+02  0.34522862937E+02  0.17309894030E+02  0.40077254691E+02  0.00000000000E+00 0.  1.
</event>
<event>
 7    1  0.1910099E-015  0.9000791E+02  0.7816164E-02  0.1186339E+00
        -11   -1    0    0    0    0  0.00000000000E+00  0.00000000000E+00  0.45593999997E+02  0.45594000000E+02  0.51100000000E-03 0.  1.
         11   -1    0    0    0    0 -0.00000000000E+00 -0.00000000000E+00 -0.45593999997E+02  0.45594000000E+02  0.51100000000E-03 0. -1.
    9900012    2    1    2    0    0 -0.10284437790E+01 -0.36626123818E+00 -0.44807848503E+00  0.90007907533E+02  0.90000171113E+02 0.  0.
        -12    1    1    2    0    0  0.10284437790E+01  0.36626123818E+00  0.44807848503E+00  0.11800924667E+01  0.00000000000E+00 0.  1.
         11    1    3    3    0    0  0.25349451310E+01  0.36565641515E+02 -0.16416094248E+02  0.40161676221E+02  0.51100000000E-03 0. -1.
        -11    1    3    3    0    0 -0.81103233437E+01  0.14095748535E+01  0.52959156743E+01  0.97883077750E+01  0.51100000000E-03 0.  1.
        -12    1    3    3    0    0  0.45469344337E+01 -0.38341477607E+02  0.10672100089E+02  0.40057923537E+02  0.00000000000E+00 0.  1.
</event>
<event>
 7    1  0.1910099E-015  0.9000774E+02  0.7816164E-02  0.1186339E+00
        -11   -1    0    0    0    0  0.00000000000E+00  0.00000000000E+00  0.45593999997E+02  0.45594000000E+02  0.51100000000E-03 0.  1.
         11   -1    0    0    0    0 -0.00000000000E+00 -0.00000000000E+00 -0.45593999997E+02  0.45594000000E+02  0.51100000000E-03 0. -1.
    9900012    2    1    2    0    0  0.50916046944E+00 -0.77005916233E+00  0.73536881502E+00  0.90007744608E+02  0.90000006036E+02 0.  0.
        -12    1    1    2    0    0 -0.50916046944E+00  0.77005916233E+00 -0.73536881502E+00  0.11802553924E+01  0.00000000000E+00 0.  1.
         11    1    3    3    0    0  0.26965196514E+01  0.33147262908E+02 -0.18975206193E+02  0.38289302773E+02  0.51100000000E-03 0. -1.
        -11    1    3    3    0    0 -0.94146919253E+01 -0.29173308517E+01 -0.53419537145E+01  0.11210874769E+02  0.51100000000E-03 0.  1.
        -12    1    3    3    0    0  0.72273327434E+01 -0.30999991218E+02  0.25052528723E+02  0.40507567065E+02  0.00000000000E+00 0.  1.
</event>
<event>
 7    1  0.1910099E-015  0.9000769E+02  0.7816164E-02  0.1186339E+00
        -11   -1    0    0    0    0  0.00000000000E+00  0.00000000000E+00  0.45593999997E+02  0.45594000000E+02  0.51100000000E-03 0. -1.
         11   -1    0    0    0    0 -0.00000000000E+00 -0.00000000000E+00 -0.45593999997E+02  0.45594000000E+02  0.51100000000E-03 0.  1.
    9900012    2    1    2    0    0  0.20039313300E+00  0.96958690364E+00  0.64255218515E+00  0.90007690938E+02  0.89999951658E+02 0.  0.
        -12    1    1    2    0    0 -0.20039313300E+00 -0.96958690364E+00 -0.64255218515E+00  0.11803090621E+01  0.00000000000E+00 0.  1.
         11    1    3    3    0    0  0.84132521560E+01 -0.95385179446E+00 -0.30587656019E+01  0.90027047244E+01  0.51100000000E-03 0. -1.
        -11    1    3    3    0    0  0.30340675245E+02 -0.85995003933E+01 -0.17183002962E+02  0.35913278497E+02  0.51100000000E-03 0.  1.
         12    1    3    3    0    0 -0.38553534268E+02  0.10522939091E+02  0.20884320749E+02  0.45091707717E+02  0.00000000000E+00 0. -1.
</event>
<event>
 7    1  0.1910099E-015  0.9000775E+02  0.7816164E-02  0.1186339E+00
        -11   -1    0    0    0    0  0.00000000000E+00  0.00000000000E+00  0.45593999997E+02  0.45594000000E+02  0.51100000000E-03 0.  1.
         11   -1    0    0    0    0 -0.00000000000E+00 -0.00000000000E+00 -0.45593999997E+02  0.45594000000E+02  0.51100000000E-03 0. -1.
    9900012    2    1    2    0    0 -0.82449101134E-01 -0.95509428705E+00 -0.68846298081E+00  0.90007752472E+02  0.90000014005E+02 0.  0.
        -12    1    1    2    0    0  0.82449101134E-01  0.95509428705E+00  0.68846298081E+00  0.11802475280E+01  0.00000000000E+00 0.  1.
         11    1    3    3    0    0 -0.58326633290E+01  0.19905059929E+01  0.69335886412E+01  0.92766765236E+01  0.51100000000E-03 0. -1.
        -11    1    3    3    0    0  0.41916423295E+02  0.17134077911E+01 -0.12890897555E+02  0.43887327877E+02  0.51100000000E-03 0.  1.
         12    1    3    3    0    0 -0.36166209067E+02 -0.46590080711E+01  0.52688459328E+01  0.36843748072E+02  0.00000000000E+00 0. -1.
</event>
<event>
 7    1  0.1910099E-015  0.9000771E+02  0.7816164E-02  0.1186339E+00
        -11   -1    0    0    0    0  0.00000000000E+00  0.00000000000E+00  0.45593999997E+02  0.45594000000E+02  0.51100000000E-03 0.  1.
         11   -1    0    0    0    0 -0.00000000000E+00 -0.00000000000E+00 -0.45593999997E+02  0.45594000000E+02  0.51100000000E-03 0. -1.
    9900012    2    1    2    0    0 -0.32619230858E+00 -0.33843791181E-02 -0.11343193477E+01  0.90007706283E+02  0.89999967206E+02 0.  0.
        -12    1    1    2    0    0  0.32619230858E+00  0.33843791181E-02  0.11343193477E+01  0.11802937171E+01  0.00000000000E+00 0.  1.
         11    1    3    3    0    0 -0.68567038942E+01  0.41591040960E+02  0.19325796351E+01  0.42196729029E+02  0.51100000000E-03 0. -1.
        -11    1    3    3    0    0 -0.23773369792E+01 -0.47440529919E+01  0.68104603558E+01  0.86336632099E+01  0.51100000000E-03 0.  1.
        -12    1    3    3    0    0  0.89078485647E+01 -0.36850372347E+02 -0.98773593385E+01  0.39177314044E+02  0.00000000000E+00 0.  1.
</event>
<event>
 7    1  0.1910099E-015  0.9000737E+02  0.7816164E-02  0.1186340E+00
        -11   -1    0    0    0    0  0.00000000000E+00  0.00000000000E+00  0.45593999997E+02  0.45594000000E+02  0.51100000000E-03 0. -1.
         11   -1    0    0    0    0 -0.00000000000E+00 -0.00000000000E+00 -0.45593999997E+02  0.45594000000E+02  0.51100000000E-03 0.  1.
    9900012    2    1    2    0    0 -0.13754000354E+00 -0.74590964871E+00  0.90475744475E+00  0.90007371146E+02  0.89999627645E+02 0.  0.
        -12    1    1    2    0    0  0.13754000354E+00  0.74590964871E+00 -0.90475744475E+00  0.11806288538E+01  0.00000000000E+00 0.  1.
         11    1    3    3    0    0  0.20009000027E+02 -0.37105780854E+02  0.80814315851E+01  0.42924452141E+02  0.51100000000E-03 0. -1.
        -11    1    3    3    0    0  0.39574232607E+01  0.65513242546E+01  0.14489408847E+01  0.77897675383E+01  0.51100000000E-03 0.  1.
        -12    1    3    3    0    0 -0.24103963291E+02  0.29808546951E+02 -0.86256150250E+01  0.39293151467E+02  0.00000000000E+00 0.  1.
</event>
<event>
 7    1  0.1910099E-015  0.9000752E+02  0.7816164E-02  0.1186339E+00
        -11   -1    0    0    0    0  0.00000000000E+00  0.00000000000E+00  0.45593999997E+02  0.45594000000E+02  0.51100000000E-03 0.  1.
         11   -1    0    0    0    0 -0.00000000000E+00 -0.00000000000E+00 -0.45593999997E+02  0.45594000000E+02  0.51100000000E-03 0. -1.
    9900012    2    1    2    0    0 -0.10316365368E+01  0.36900033580E+00  0.43942388375E+00  0.90007521901E+02  0.89999780390E+02 0.  0.
        -12    1    1    2    0    0  0.10316365368E+01 -0.36900033580E+00 -0.43942388375E+00  0.11804780987E+01  0.00000000000E+00 0.  1.
         11    1    3    3    0    0 -0.35349656817E+01  0.28708223388E+02 -0.32009218354E+02  0.43142185067E+02  0.51100000000E-03 0. -1.
        -11    1    3    3    0    0  0.27549642793E+00  0.88901911362E+00  0.97421983754E+01  0.97865562234E+01  0.51100000000E-03 0.  1.
        -12    1    3    3    0    0  0.22278327170E+01 -0.29228242166E+02  0.22706443862E+02  0.37078780611E+02  0.00000000000E+00 0.  1.
</event>
<event>
 7    1  0.1910099E-015  0.9000777E+02  0.7816164E-02  0.1186339E+00
        -11   -1    0    0    0    0  0.00000000000E+00  0.00000000000E+00  0.45593999997E+02  0.45594000000E+02  0.51100000000E-03 0. -1.
         11   -1    0    0    0    0 -0.00000000000E+00 -0.00000000000E+00 -0.45593999997E+02  0.45594000000E+02  0.51100000000E-03 0.  1.
    9900012    2    1    2    0    0  0.91818756746E+00  0.73279650767E+00  0.11351989579E+00  0.90007768710E+02  0.90000030457E+02 0.  0.
        -12    1    1    2    0    0 -0.91818756746E+00 -0.73279650767E+00 -0.11351989579E+00  0.11802312898E+01  0.00000000000E+00 0.  1.
         11    1    3    3    0    0 -0.49287806620E+01 -0.55434236171E+01 -0.55878814584E+01  0.92869178777E+01  0.51100000000E-03 0. -1.
        -11    1    3    3    0    0  0.15469480206E+02 -0.33063018470E+02 -0.90686021504E+01  0.37612598334E+02  0.51100000000E-03 0.  1.
         12    1    3    3    0    0 -0.96225119768E+01  0.39339238595E+02  0.14770003505E+02  0.43108252499E+02  0.00000000000E+00 0. -1.
</event>
<event>
 7    1  0.1910099E-015  0.9000775E+02  0.7816164E-02  0.1186339E+00
        -11   -1    0    0    0    0  0.00000000000E+00  0.00000000000E+00  0.45593999997E+02  0.45594000000E+02  0.51100000000E-03 0. -1.
         11   -1    0    0    0    0 -0.00000000000E+00 -0.00000000000E+00 -0.45593999997E+02  0.45594000000E+02  0.51100000000E-03 0.  1.
    9900012    2    1    2    0    0  0.68357617785E+00 -0.77492620972E+00  0.57025778563E+00  0.90007753855E+02  0.90000015406E+02 0.  0.
        -12    1    1    2    0    0 -0.68357617785E+00  0.77492620972E+00 -0.57025778563E+00  0.11802461453E+01  0.00000000000E+00 0.  1.
         11    1    3    3    0    0  0.29651939847E+02 -0.50073806496E+01  0.20471039920E+02  0.36378219766E+02  0.51100000000E-03 0. -1.
        -11    1    3    3    0    0  0.57758333300E+01  0.26755061700E+01  0.71471293983E+01  0.95707911281E+01  0.51100000000E-03 0.  1.
        -12    1    3    3    0    0 -0.34744196999E+02  0.15569482699E+01 -0.27047911532E+02  0.44058742961E+02  0.00000000000E+00 0.  1.
</event>
<event>
 7    1  0.1910099E-015  0.9000777E+02  0.7816164E-02  0.1186339E+00
        -11   -1    0    0    0    0  0.00000000000E+00  0.00000000000E+00  0.45593999997E+02  0.45594000000E+02  0.51100000000E-03 0.  1.
         11   -1    0    0    0    0 -0.00000000000E+00 -0.00000000000E+00 -0.45593999997E+02  0.45594000000E+02  0.51100000000E-03 0. -1.
    9900012    2    1    2    0    0  0.46693658248E+00  0.12339535844E-01 -0.10838593987E+01  0.90007774076E+02  0.90000035893E+02 0.  0.
        -12    1    1    2    0    0 -0.46693658248E+00 -0.12339535844E-01  0.10838593987E+01  0.11802259243E+01  0.00000000000E+00 0.  1.
         11    1    3    3    0    0 -0.18844132165E+02  0.28970686444E+02 -0.15853105309E+02  0.38022663482E+02  0.51100000000E-03 0. -1.
        -11    1    3    3    0    0  0.79173152126E+00  0.97645384184E+00 -0.92729849751E+01  0.93578069822E+01  0.51100000000E-03 0.  1.
        -12    1    3    3    0    0  0.18519337226E+02 -0.29934800750E+02  0.24042230885E+02  0.42627303611E+02  0.00000000000E+00 0.  1.
</event>
<event>
 7    1  0.1910099E-015  0.9000782E+02  0.7816164E-02  0.1186339E+00
        -11   -1    0    0    0    0  0.00000000000E+00  0.00000000000E+00  0.45593999997E+02  0.45594000000E+02  0.51100000000E-03 0. -1.
         11   -1    0    0    0    0 -0.00000000000E+00 -0.00000000000E+00 -0.45593999997E+02  0.45594000000E+02  0.51100000000E-03 0.  1.
    9900012    2    1    2    0    0 -0.94047981009E+00  0.71293571039E+00  0.71788034279E-02  0.90007817330E+02  0.90000079718E+02 0.  0.
        -12    1    1    2    0    0  0.94047981009E+00 -0.71293571039E+00 -0.71788034279E-02  0.11801826704E+01  0.00000000000E+00 0.  1.
         11    1    3    3    0    0 -0.18499887701E+02  0.24404680946E+02  0.91591357922E+01  0.31964418745E+02  0.51100000000E-03 0. -1.
        -11    1    3    3    0    0 -0.51849900140E+01  0.95565201051E+01  0.87549614391E+01  0.13959245969E+02  0.51100000000E-03 0.  1.
        -12    1    3    3    0    0  0.22744397904E+02 -0.33248265341E+02 -0.17906918428E+02  0.44084152615E+02  0.00000000000E+00 0.  1.
</event>
<event>
 7    1  0.3100568E-015  0.9000773E+02  0.7816164E-02  0.1186339E+00
        -11   -1    0    0    0    0  0.00000000000E+00  0.00000000000E+00  0.45593999997E+02  0.45594000000E+02  0.51100000000E-03 0. -1.
         11   -1    0    0    0    0 -0.00000000000E+00 -0.00000000000E+00 -0.45593999997E+02  0.45594000000E+02  0.51100000000E-03 0.  1.
    9900012    2    1    2    0    0 -0.79686574785E+00  0.34754012609E+00  0.79828815212E+00  0.90007727517E+02  0.89999988721E+02 0.  0.
        -12    1    1    2    0    0  0.79686574785E+00 -0.34754012609E+00 -0.79828815212E+00  0.11802724826E+01  0.00000000000E+00 0.  1.
         11    1    3    3    0    0 -0.26379483177E+01  0.64285852246E+01 -0.56712454854E+01  0.89693090555E+01  0.51100000000E-03 0. -1.
        -11    1    3    3    0    0 -0.27747860064E+01 -0.41657975584E+01 -0.36972556736E+02  0.37309827908E+02  0.51100000000E-03 0.  1.
         12    1    3    3    0    0  0.46158685763E+01 -0.19152475401E+01  0.43442090373E+02  0.43728590554E+02  0.00000000000E+00 0. -1.
</event>
<event>
 7    1  0.1910099E-015  0.9000764E+02  0.7816164E-02  0.1186339E+00
        -11   -1    0    0    0    0  0.00000000000E+00  0.00000000000E+00  0.45593999997E+02  0.45594000000E+02  0.51100000000E-03 0. -1.
         11   -1    0    0    0    0 -0.00000000000E+00 -0.00000000000E+00 -0.45593999997E+02  0.45594000000E+02  0.51100000000E-03 0.  1.
    9900012    2    1    2    0    0 -0.13620661638E+00 -0.38962468760E+00  0.11058477362E+01  0.90007636134E+02  0.89999896131E+02 0.  0.
        -12    1    1    2    0    0  0.13620661638E+00  0.38962468760E+00 -0.11058477362E+01  0.11803638655E+01  0.00000000000E+00 0.  1.
         11    1    3    3    0    0 -0.19448450642E+02  0.28893180996E+02 -0.74352173155E+01  0.35613769770E+02  0.51100000000E-03 0. -1.
        -11    1    3    3    0    0 -0.58523559286E+01  0.56695409348E+01 -0.46100074209E+01  0.93619406646E+01  0.51100000000E-03 0.  1.
        -12    1    3    3    0    0  0.25164599955E+02 -0.34952346619E+02  0.13151072473E+02  0.45031925699E+02  0.00000000000E+00 0.  1.
</event>
<event>
 7    1  0.1910099E-015  0.9000780E+02  0.7816164E-02  0.1186339E+00
        -11   -1    0    0    0    0  0.00000000000E+00  0.00000000000E+00  0.45593999997E+02  0.45594000000E+02  0.51100000000E-03 0.  1.
         11   -1    0    0    0    0 -0.00000000000E+00 -0.00000000000E+00 -0.45593999997E+02  0.45594000000E+02  0.51100000000E-03 0. -1.
    9900012    2    1    2    0    0 -0.68942269991E+00  0.94295070523E+00  0.16855478875E+00  0.90007800691E+02  0.90000062860E+02 0.  0.
        -12    1    1    2    0    0  0.68942269991E+00 -0.94295070523E+00 -0.16855478875E+00  0.11801993088E+01  0.00000000000E+00 0.  1.
         11    1    3    3    0    0  0.76524515050E+01 -0.33991228721E+01  0.44700797597E+01  0.94918735588E+01  0.51100000000E-03 0. -1.
        -11    1    3    3    0    0 -0.22910176118E+02  0.16979380297E+02  0.29858338037E+02  0.41287962841E+02  0.51100000000E-03 0.  1.
         12    1    3    3    0    0  0.14568301913E+02 -0.12637306719E+02 -0.34159863008E+02  0.39227964291E+02  0.00000000000E+00 0. -1.
</event>
<event>
 7    1  0.1910099E-015  0.9000773E+02  0.7816164E-02  0.1186339E+00
        -11   -1    0    0    0    0  0.00000000000E+00  0.00000000000E+00  0.45593999997E+02  0.45594000000E+02  0.51100000000E-03 0.  1.
         11   -1    0    0    0    0 -0.00000000000E+00 -0.00000000000E+00 -0.45593999997E+02  0.45594000000E+02  0.51100000000E-03 0. -1.
    9900012    2    1    2    0    0 -0.75888313339E+00  0.12361127928E+00 -0.89546823354E+00  0.90007726000E+02  0.89999987183E+02 0.  0.
        -12    1    1    2    0    0  0.75888313339E+00 -0.12361127928E+00  0.89546823354E+00  0.11802740003E+01  0.00000000000E+00 0.  1.
         11    1    3    3    0    0  0.40643585615E+02 -0.13839313475E+01  0.45137743206E+01  0.40916872761E+02  0.51100000000E-03 0. -1.
        -11    1    3    3    0    0 -0.26860558325E+01 -0.39924159461E+01 -0.86011744205E+01  0.98556827614E+01  0.51100000000E-03 0.  1.
        -12    1    3    3    0    0 -0.38716412916E+02  0.54999585729E+01  0.31919318664E+01  0.39235170478E+02  0.00000000000E+00 0.  1.
</event>
<event>
 7    1  0.1910099E-015  0.9000794E+02  0.7816164E-02  0.1186339E+00
        -11   -1    0    0    0    0  0.00000000000E+00  0.00000000000E+00  0.45593999997E+02  0.45594000000E+02  0.51100000000E-03 0. -1.
         11   -1    0    0    0    0 -0.00000000000E+00 -0.00000000000E+00 -0.45593999997E+02  0.45594000000E+02  0.51100000000E-03 0.  1.
    9900012    2    1    2    0    0 -0.26449606477E+00 -0.56878456406E+00  0.99953869303E+00  0.90007935744E+02  0.90000199696E+02 0.  0.
        -12    1    1    2    0    0  0.26449606477E+00  0.56878456406E+00 -0.99953869303E+00  0.11800642557E+01  0.00000000000E+00 0.  1.
         11    1    3    3    0    0 -0.19172000573E+02 -0.35720249851E+02  0.23645758724E+01  0.40609027011E+02  0.51100000000E-03 0. -1.
        -11    1    3    3    0    0 -0.63261871109E+01  0.43069673249E+01 -0.53666174092E+01  0.93472559383E+01  0.51100000000E-03 0.  1.
        -12    1    3    3    0    0  0.25233691620E+02  0.30844497962E+02  0.40015802298E+01  0.40051652795E+02  0.00000000000E+00 0.  1.
</event>
<event>
 7    1  0.1910099E-015  0.9000770E+02  0.7816164E-02  0.1186339E+00
        -11   -1    0    0    0    0  0.00000000000E+00  0.00000000000E+00  0.45593999997E+02  0.45594000000E+02  0.51100000000E-03 0.  1.
         11   -1    0    0    0    0 -0.00000000000E+00 -0.00000000000E+00 -0.45593999997E+02  0.45594000000E+02  0.51100000000E-03 0. -1.
    9900012    2    1    2    0    0 -0.52366820372E+00 -0.19894938035E+00 -0.10388921392E+01  0.90007700834E+02  0.89999961685E+02 0.  0.
        -12    1    1    2    0    0  0.52366820372E+00  0.19894938035E+00  0.10388921392E+01  0.11802991656E+01  0.00000000000E+00 0.  1.
         11    1    3    3    0    0 -0.38369306601E+01  0.10515485681E+01  0.73442582480E+01  0.83525996406E+01  0.51100000000E-03 0. -1.
        -11    1    3    3    0    0 -0.21326363564E+01  0.13039740673E+01  0.36391977432E+02  0.36477726188E+02  0.51100000000E-03 0.  1.
         12    1    3    3    0    0  0.54458988127E+01 -0.25544720158E+01 -0.44775127819E+02  0.45177375005E+02  0.00000000000E+00 0. -1.
</event>
<event>
 7    1  0.1910099E-015  0.9000771E+02  0.7816164E-02  0.1186339E+00
        -11   -1    0    0    0    0  0.00000000000E+00  0.00000000000E+00  0.45593999997E+02  0.45594000000E+02  0.51100000000E-03 0. -1.
         11   -1    0    0    0    0 -0.00000000000E+00 -0.00000000000E+00 -0.45593999997E+02  0.45594000000E+02  0.51100000000E-03 0.  1.
    9900012    2    1    2    0    0  0.16597927272E-01  0.27532167790E+00  0.11476066071E+01  0.90007712559E+02  0.89999973565E+02 0.  0.
        -12    1    1    2    0    0 -0.16597927272E-01 -0.27532167790E+00 -0.11476066071E+01  0.11802874405E+01  0.00000000000E+00 0.  1.
         11    1    3    3    0    0  0.18717936510E+02  0.28708679400E+02  0.51807027404E+01  0.34661060301E+02  0.51100000000E-03 0. -1.
        -11    1    3    3    0    0  0.60894161992E+01  0.66358113404E+01  0.65243321821E+01  0.11121236104E+02  0.51100000000E-03 0.  1.
        -12    1    3    3    0    0 -0.24790754782E+02 -0.35069169062E+02 -0.10557428315E+02  0.44225416154E+02  0.00000000000E+00 0.  1.
</event>
<event>
 7    1  0.1910099E-015  0.9000778E+02  0.7816164E-02  0.1186339E+00
        -11   -1    0    0    0    0  0.00000000000E+00  0.00000000000E+00  0.45593999997E+02  0.45594000000E+02  0.51100000000E-03 0.  1.
         11   -1    0    0    0    0 -0.00000000000E+00 -0.00000000000E+00 -0.45593999997E+02  0.45594000000E+02  0.51100000000E-03 0. -1.
    9900012    2    1    2    0    0  0.27712211815E+00 -0.91608009394E-01 -0.11435578117E+01  0.90007782578E+02  0.90000044508E+02 0.  0.
        -12    1    1    2    0    0 -0.27712211815E+00  0.91608009394E-01  0.11435578117E+01  0.11802174225E+01  0.00000000000E+00 0.  1.
         11    1    3    3    0    0  0.73422454062E+01  0.26524446550E+02 -0.91190047002E+01  0.28993293697E+02  0.51100000000E-03 0. -1.
        -11    1    3    3    0    0  0.17758382926E+02  0.16700555245E+01 -0.87074024846E+01  0.19848629875E+02  0.51100000000E-03 0.  1.
        -12    1    3    3    0    0 -0.24823506214E+02 -0.28286110084E+02  0.16682849373E+02  0.41165859006E+02  0.00000000000E+00 0.  1.
</event>
<event>
 7    1  0.1910099E-015  0.9000782E+02  0.7816164E-02  0.1186339E+00
        -11   -1    0    0    0    0  0.00000000000E+00  0.00000000000E+00  0.45593999997E+02  0.45594000000E+02  0.51100000000E-03 0. -1.
         11   -1    0    0    0    0 -0.00000000000E+00 -0.00000000000E+00 -0.45593999997E+02  0.45594000000E+02  0.51100000000E-03 0.  1.
    9900012    2    1    2    0    0 -0.24539287601E+00 -0.16541667897E+00  0.11424713529E+01  0.90007821567E+02  0.90000084012E+02 0.  0.
        -12    1    1    2    0    0  0.24539287601E+00  0.16541667897E+00 -0.11424713529E+01  0.11801784329E+01  0.00000000000E+00 0.  1.
         11    1    3    3    0    0 -0.40481051428E+01 -0.52996039241E+00 -0.77289756462E+01  0.87409998322E+01  0.51100000000E-03 0. -1.
        -11    1    3    3    0    0 -0.34629949243E+02 -0.59692490836E+01 -0.11928470482E+02  0.37110021928E+02  0.51100000000E-03 0.  1.
         12    1    3    3    0    0  0.38432661510E+02  0.63337927970E+01  0.20799917481E+02  0.44156799807E+02  0.00000000000E+00 0. -1.
</event>
<event>
 7    1  0.1910099E-015  0.9000774E+02  0.7816164E-02  0.1186339E+00
        -11   -1    0    0    0    0  0.00000000000E+00  0.00000000000E+00  0.45593999997E+02  0.45594000000E+02  0.51100000000E-03 0.  1.
         11   -1    0    0    0    0 -0.00000000000E+00 -0.00000000000E+00 -0.45593999997E+02  0.45594000000E+02  0.51100000000E-03 0. -1.
    9900012    2    1    2    0    0 -0.10521952259E+01  0.43477516485E+00 -0.31124245079E+00  0.90007738969E+02  0.90000000324E+02 0.  0.
        -12    1    1    2    0    0  0.10521952259E+01 -0.43477516485E+00  0.31124245079E+00  0.11802610307E+01  0.00000000000E+00 0.  1.
         11    1    3    3    0    0 -0.16799484975E+02 -0.41002426848E+01 -0.16080467740E+02  0.23613896936E+02  0.51100000000E-03 0. -1.
        -11    1    3    3    0    0 -0.11175695003E+02 -0.55412732958E+01 -0.18092201053E+02  0.21975659438E+02  0.51100000000E-03 0.  1.
        -12    1    3    3    0    0  0.26922984751E+02  0.10076291146E+02  0.33861426342E+02  0.44418182596E+02  0.00000000000E+00 0.  1.
</event>
<event>
 7    1  0.1910099E-015  0.9000771E+02  0.7816164E-02  0.1186339E+00
        -11   -1    0    0    0    0  0.00000000000E+00  0.00000000000E+00  0.45593999997E+02  0.45594000000E+02  0.51100000000E-03 0. -1.
         11   -1    0    0    0    0 -0.00000000000E+00 -0.00000000000E+00 -0.45593999997E+02  0.45594000000E+02  0.51100000000E-03 0.  1.
    9900012    2    1    2    0    0 -0.95378744739E+00  0.50432261828E+00  0.47857789396E+00  0.90007708257E+02  0.89999969206E+02 0.  0.
        -12    1    1    2    0    0  0.95378744739E+00 -0.50432261828E+00 -0.47857789396E+00  0.11802917430E+01  0.00000000000E+00 0.  1.
         11    1    3    3    0    0 -0.50549682890E+00  0.66230133344E+01 -0.23633292901E+01  0.70501885270E+01  0.51100000000E-03 0. -1.
        -11    1    3    3    0    0  0.59189216321E+00  0.31616258543E+02 -0.21320145892E+02  0.38137734092E+02  0.51100000000E-03 0.  1.
         12    1    3    3    0    0 -0.10401827817E+01 -0.37734949259E+02  0.24162053076E+02  0.44819785638E+02  0.00000000000E+00 0. -1.
</event>
<event>
 7    1  0.1910099E-015  0.9000783E+02  0.7816164E-02  0.1186339E+00
        -11   -1    0    0    0    0  0.00000000000E+00  0.00000000000E+00  0.45593999997E+02  0.45594000000E+02  0.51100000000E-03 0. -1.
         11   -1    0    0    0    0 -0.00000000000E+00 -0.00000000000E+00 -0.45593999997E+02  0.45594000000E+02  0.51100000000E-03 0.  1.
    9900012    2    1    2    0    0 -0.10816425133E+00  0.30124852303E+00  0.11359311735E+01  0.90007834838E+02  0.90000097458E+02 0.  0.
        -12    1    1    2    0    0  0.10816425133E+00 -0.30124852303E+00 -0.11359311735E+01  0.11801651617E+01  0.00000000000E+00 0.  1.
         11    1    3    3    0    0 -0.35705600356E+02  0.16712695180E+02  0.97433666328E+01  0.40609571169E+02  0.51100000000E-03 0. -1.
        -11    1    3    3    0    0  0.43914025658E+01  0.41230856563E+00  0.88445674783E+01  0.98833591955E+01  0.51100000000E-03 0.  1.
        -12    1    3    3    0    0  0.31206033539E+02 -0.16823755222E+02 -0.17452002938E+02  0.39514904473E+02  0.00000000000E+00 0.  1.
</event>
<event>
 7    1  0.1910099E-015  0.9000772E+02  0.7816164E-02  0.1186339E+00
        -11   -1    0    0    0    0  0.00000000000E+00  0.00000000000E+00  0.45593999997E+02  0.45594000000E+02  0.51100000000E-03 0.  1.
         11   -1    0    0    0    0 -0.00000000000E+00 -0.00000000000E+00 -0.45593999997E+02  0.45594000000E+02  0.51100000000E-03 0. -1.
    9900012    2    1    2    0    0  0.20580908484E+00  0.11619219235E+01 -0.25363589614E-01  0.90007718996E+02  0.89999980087E+02 0.  0.
        -12    1    1    2    0    0 -0.20580908484E+00 -0.11619219235E+01  0.25363589614E-01  0.11802810036E+01  0.00000000000E+00 0.  1.
         11    1    3    3    0    0  0.60389969112E+01 -0.88852823854E+00  0.70892192707E+01  0.93549984636E+01  0.51100000000E-03 0. -1.
        -11    1    3    3    0    0  0.30851133488E+02  0.79494846954E+00  0.18418456983E+02  0.35939726466E+02  0.51100000000E-03 0.  1.
         12    1    3    3    0    0 -0.36684321314E+02  0.12555016925E+01 -0.25533039844E+02  0.44712994067E+02  0.00000000000E+00 0. -1.
</event>
<event>
 7    1  0.1910099E-015  0.9000774E+02  0.7816164E-02  0.1186339E+00
        -11   -1    0    0    0    0  0.00000000000E+00  0.00000000000E+00  0.45593999997E+02  0.45594000000E+02  0.51100000000E-03 0. -1.
         11   -1    0    0    0    0 -0.00000000000E+00 -0.00000000000E+00 -0.45593999997E+02  0.45594000000E+02  0.51100000000E-03 0.  1.
    9900012    2    1    2    0    0 -0.21088329047E+00  0.41361711931E+00 -0.10851138729E+01  0.90007736046E+02  0.89999997362E+02 0.  0.
        -12    1    1    2    0    0  0.21088329047E+00 -0.41361711931E+00  0.10851138729E+01  0.11802639539E+01  0.00000000000E+00 0.  1.
         11    1    3    3    0    0 -0.22762134008E+02  0.20847040494E+01  0.29507468928E+02  0.37324944184E+02  0.51100000000E-03 0. -1.
        -11    1    3    3    0    0 -0.33797633344E+01  0.30786448028E+01  0.60246956369E+01  0.75629234954E+01  0.51100000000E-03 0.  1.
        -12    1    3    3    0    0  0.25931014052E+02 -0.47497317329E+01 -0.36617278437E+02  0.45119868367E+02  0.00000000000E+00 0.  1.
</event>
<event>
 7    1  0.1910099E-015  0.9000779E+02  0.7816164E-02  0.1186339E+00
        -11   -1    0    0    0    0  0.00000000000E+00  0.00000000000E+00  0.45593999997E+02  0.45594000000E+02  0.51100000000E-03 0.  1.
         11   -1    0    0    0    0 -0.00000000000E+00 -0.00000000000E+00 -0.45593999997E+02  0.45594000000E+02  0.51100000000E-03 0. -1.
    9900012    2    1    2    0    0 -0.46159648728E+00  0.61277257481E+00 -0.89684062137E+00  0.90007794660E+02  0.90000056749E+02 0.  0.
        -12    1    1    2    0    0  0.46159648728E+00 -0.61277257481E+00  0.89684062137E+00  0.11802053405E+01  0.00000000000E+00 0.  1.
         11    1    3    3    0    0 -0.88148485840E+01 -0.32652700553E+01  0.84440061136E+01  0.12635853101E+02  0.51100000000E-03 0. -1.
        -11    1    3    3    0    0 -0.27915751994E+02  0.20949844149E+02  0.39844009080E+01  0.35129199110E+02  0.51100000000E-03 0.  1.
         12    1    3    3    0    0  0.36269004090E+02 -0.17071801519E+02 -0.13325247643E+02  0.42242742448E+02  0.00000000000E+00 0. -1.
</event>
<event>
 7    1  0.1910099E-015  0.9000769E+02  0.7816164E-02  0.1186339E+00
        -11   -1    0    0    0    0  0.00000000000E+00  0.00000000000E+00  0.45593999997E+02  0.45594000000E+02  0.51100000000E-03 0.  1.
         11   -1    0    0    0    0 -0.00000000000E+00 -0.00000000000E+00 -0.45593999997E+02  0.45594000000E+02  0.51100000000E-03 0. -1.
    9900012    2    1    2    0    0  0.84042980530E+00  0.75287275978E+00  0.34638649850E+00  0.90007693575E+02  0.89999954330E+02 0.  0.
        -12    1    1    2    0    0 -0.84042980530E+00 -0.75287275978E+00 -0.34638649850E+00  0.11803064248E+01  0.00000000000E+00 0.  1.
         11    1    3    3    0    0 -0.37534310111E+02  0.95466012634E+01 -0.42518038445E+01  0.38962031100E+02  0.51100000000E-03 0. -1.
        -11    1    3    3    0    0  0.60788122587E+00  0.39693511471E+01 -0.82382347943E+01  0.91648121039E+01  0.51100000000E-03 0.  1.
        -12    1    3    3    0    0  0.37766858691E+02 -0.12763079651E+02  0.12836425137E+02  0.41880850372E+02  0.00000000000E+00 0.  1.
</event>
<event>
 7    1  0.1910099E-015  0.9000762E+02  0.7816164E-02  0.1186339E+00
        -11   -1    0    0    0    0  0.00000000000E+00  0.00000000000E+00  0.45593999997E+02  0.45594000000E+02  0.51100000000E-03 0.  1.
         11   -1    0    0    0    0 -0.00000000000E+00 -0.00000000000E+00 -0.45593999997E+02  0.45594000000E+02  0.51100000000E-03 0. -1.
    9900012    2    1    2    0    0  0.68959244854E+00 -0.75719550064E+00 -0.58686129971E+00  0.90007623384E+02  0.89999883212E+02 0.  0.
        -12    1    1    2    0    0 -0.68959244854E+00  0.75719550064E+00  0.58686129971E+00  0.11803766163E+01  0.00000000000E+00 0.  1.
         11    1    3    3    0    0  0.22734924753E+02 -0.18531526760E+02 -0.30169842163E+01  0.29485530038E+02  0.51100000000E-03 0. -1.
        -11    1    3    3    0    0  0.48022515459E+01  0.21182279534E+02 -0.16685359573E+02  0.27388899403E+02  0.51100000000E-03 0.  1.
         12    1    3    3    0    0 -0.26847583851E+02 -0.34079482752E+01  0.19115482489E+02  0.33133193943E+02  0.00000000000E+00 0. -1.
</event>
<event>
 7    1  0.1910099E-015  0.9000782E+02  0.7816164E-02  0.1186339E+00
        -11   -1    0    0    0    0  0.00000000000E+00  0.00000000000E+00  0.45593999997E+02  0.45594000000E+02  0.51100000000E-03 0. -1.
         11   -1    0    0    0    0 -0.00000000000E+00 -0.00000000000E+00 -0.45593999997E+02  0.45594000000E+02  0.51100000000E-03 0.  1.
    9900012    2    1    2    0    0 -0.74638783887E+00  0.91147706828E+00 -0.70251487014E-01  0.90007821826E+02  0.90000084274E+02 0.  0.
        -12    1    1    2    0    0  0.74638783887E+00 -0.91147706828E+00  0.70251487014E-01  0.11801781744E+01  0.00000000000E+00 0.  1.
         11    1    3    3    0    0 -0.10138390691E+02  0.26377621049E+02 -0.28072271449E+02  0.39832377316E+02  0.51100000000E-03 0. -1.
        -11    1    3    3    0    0 -0.79550525021E+01  0.62472221032E+00 -0.25563130801E+00  0.79836386302E+01  0.51100000000E-03 0.  1.
        -12    1    3    3    0    0  0.17347055354E+02 -0.26090866191E+02  0.28257651270E+02  0.42191805880E+02  0.00000000000E+00 0.  1.
</event>
<event>
 7    1  0.1910099E-015  0.9000767E+02  0.7816164E-02  0.1186339E+00
        -11   -1    0    0    0    0  0.00000000000E+00  0.00000000000E+00  0.45593999997E+02  0.45594000000E+02  0.51100000000E-03 0. -1.
         11   -1    0    0    0    0 -0.00000000000E+00 -0.00000000000E+00 -0.45593999997E+02  0.45594000000E+02  0.51100000000E-03 0.  1.
    9900012    2    1    2    0    0  0.30198671437E+00  0.24918690360E+00  0.11135019496E+01  0.90007670944E+02  0.89999931401E+02 0.  0.
        -12    1    1    2    0    0 -0.30198671437E+00 -0.24918690360E+00 -0.11135019496E+01  0.11803290559E+01  0.00000000000E+00 0.  1.
         11    1    3    3    0    0 -0.69435666822E+01 -0.25461945137E+01 -0.69770225473E+01  0.10167353080E+02  0.51100000000E-03 0. -1.
        -11    1    3    3    0    0 -0.28253121674E+02 -0.11306640503E+02 -0.16298128400E+02  0.34521123872E+02  0.51100000000E-03 0.  1.
         12    1    3    3    0    0  0.35498675070E+02  0.14102021920E+02  0.24388652897E+02  0.45319193992E+02  0.00000000000E+00 0. -1.
</event>
<event>
 7    1  0.1910099E-015  0.9000780E+02  0.7816164E-02  0.1186339E+00
        -11   -1    0    0    0    0  0.00000000000E+00  0.00000000000E+00  0.45593999997E+02  0.45594000000E+02  0.51100000000E-03 0. -1.
         11   -1    0    0    0    0 -0.00000000000E+00 -0.00000000000E+00 -0.45593999997E+02  0.45594000000E+02  0.51100000000E-03 0.  1.
    9900012    2    1    2    0    0  0.11350586947E+01 -0.19516487386E+00  0.25774937951E+00  0.90007795649E+02  0.90000057751E+02 0.  0.
        -12    1    1    2    0    0 -0.11350586947E+01  0.19516487386E+00 -0.25774937951E+00  0.11802043514E+01  0.00000000000E+00 0.  1.
         11    1    3    3    0    0 -0.77607060656E+00 -0.73644677937E+01 -0.13617867416E+02  0.15501096241E+02  0.51100000000E-03 0. -1.
        -11    1    3    3    0    0  0.25479946605E+01  0.18511195095E+02 -0.26577551326E+02  0.32488811233E+02  0.51100000000E-03 0.  1.
         12    1    3    3    0    0 -0.63686535924E+00 -0.11341892175E+02  0.40453168121E+02  0.42017888174E+02  0.00000000000E+00 0. -1.
</event>
<event>
 7    1  0.1910099E-015  0.9000779E+02  0.7816164E-02  0.1186339E+00
        -11   -1    0    0    0    0  0.00000000000E+00  0.00000000000E+00  0.45593999997E+02  0.45594000000E+02  0.51100000000E-03 0. -1.
         11   -1    0    0    0    0 -0.00000000000E+00 -0.00000000000E+00 -0.45593999997E+02  0.45594000000E+02  0.51100000000E-03 0.  1.
    9900012    2    1    2    0    0  0.67715832077E+00  0.65711880391E+00  0.70891380389E+00  0.90007785064E+02  0.90000047027E+02 0.  0.
        -12    1    1    2    0    0 -0.67715832077E+00 -0.65711880391E+00 -0.70891380389E+00  0.11802149360E+01  0.00000000000E+00 0.  1.
         11    1    3    3    0    0 -0.13347762307E+02  0.36034850041E+02  0.26542465581E+01  0.38519062828E+02  0.51100000000E-03 0. -1.
        -11    1    3    3    0    0 -0.92960491472E+01 -0.55769554001E+00  0.15259010011E+01  0.94369448546E+01  0.51100000000E-03 0.  1.
        -12    1    3    3    0    0  0.23320969775E+02 -0.34820035697E+02 -0.34712337553E+01  0.42051777382E+02  0.00000000000E+00 0.  1.
</event>
<event>
 7    1  0.1910099E-015  0.9000724E+02  0.7816164E-02  0.1186340E+00
        -11   -1    0    0    0    0  0.00000000000E+00  0.00000000000E+00  0.45593999997E+02  0.45594000000E+02  0.51100000000E-03 0.  1.
         11   -1    0    0    0    0 -0.00000000000E+00 -0.00000000000E+00 -0.45593999997E+02  0.45594000000E+02  0.51100000000E-03 0. -1.
    9900012    2    1    2    0    0 -0.18011056875E+00 -0.41701131965E+00 -0.10898894314E+01  0.90007238707E+02  0.89999493457E+02 0.  0.
        -12    1    1    2    0    0  0.18011056875E+00  0.41701131965E+00  0.10898894314E+01  0.11807612927E+01  0.00000000000E+00 0.  1.
         11    1    3    3    0    0  0.66655819261E+01  0.29471687896E+01  0.47186392204E+01  0.86822429499E+01  0.51100000000E-03 0. -1.
        -11    1    3    3    0    0  0.28159965696E+02 -0.25210435972E+02  0.63094632106E+01  0.38319173740E+02  0.51100000000E-03 0.  1.
         12    1    3    3    0    0 -0.35005658190E+02  0.21846255863E+02 -0.12117991862E+02  0.43005822017E+02  0.00000000000E+00 0. -1.
</event>
<event>
 7    1  0.1910099E-015  0.9000756E+02  0.7816164E-02  0.1186339E+00
        -11   -1    0    0    0    0  0.00000000000E+00  0.00000000000E+00  0.45593999997E+02  0.45594000000E+02  0.51100000000E-03 0.  1.
         11   -1    0    0    0    0 -0.00000000000E+00 -0.00000000000E+00 -0.45593999997E+02  0.45594000000E+02  0.51100000000E-03 0. -1.
    9900012    2    1    2    0    0  0.43597747463E+00  0.10940754949E+01 -0.79719139829E-01  0.90007562501E+02  0.89999821526E+02 0.  0.
        -12    1    1    2    0    0 -0.43597747463E+00 -0.10940754949E+01  0.79719139829E-01  0.11804374986E+01  0.00000000000E+00 0.  1.
         11    1    3    3    0    0 -0.21507821558E+02 -0.15991951192E+02 -0.24154390489E+02  0.36079959413E+02  0.51100000000E-03 0. -1.
        -11    1    3    3    0    0 -0.52842365429E+01 -0.67084732639E+01 -0.26749596814E+01  0.89488646728E+01  0.51100000000E-03 0.  1.
        -12    1    3    3    0    0  0.27228035575E+02  0.23794499951E+02  0.26749631030E+02  0.44978738416E+02  0.00000000000E+00 0.  1.
</event>
<event>
 7    1  0.1910099E-015  0.9000774E+02  0.7816164E-02  0.1186339E+00
        -11   -1    0    0    0    0  0.00000000000E+00  0.00000000000E+00  0.45593999997E+02  0.45594000000E+02  0.51100000000E-03 0. -1.
         11   -1    0    0    0    0 -0.00000000000E+00 -0.00000000000E+00 -0.45593999997E+02  0.45594000000E+02  0.51100000000E-03 0.  1.
    9900012    2    1    2    0    0 -0.11162937120E+01 -0.26180414696E+00  0.27993465254E+00  0.90007738812E+02  0.90000000164E+02 0.  0.
        -12    1    1    2    0    0  0.11162937120E+01  0.26180414696E+00 -0.27993465254E+00  0.11802611882E+01  0.00000000000E+00 0.  1.
         11    1    3    3    0    0 -0.99049891561E+01  0.23860853436E+02  0.25290624934E+02  0.36153351804E+02  0.51100000000E-03 0. -1.
        -11    1    3    3    0    0 -0.83482909219E+01  0.23589859179E+01  0.52526209038E+01  0.10141439863E+02  0.51100000000E-03 0.  1.
        -12    1    3    3    0    0  0.17136986366E+02 -0.26481643501E+02 -0.30263311185E+02  0.43712947145E+02  0.00000000000E+00 0.  1.
</event>
<event>
 7    1  0.1910099E-015  0.9000680E+02  0.7816164E-02  0.1186341E+00
        -11   -1    0    0    0    0  0.00000000000E+00  0.00000000000E+00  0.45593999997E+02  0.45594000000E+02  0.51100000000E-03 0.  1.
         11   -1    0    0    0    0 -0.00000000000E+00 -0.00000000000E+00 -0.45593999997E+02  0.45594000000E+02  0.51100000000E-03 0. -1.
    9900012    2    1    2    0    0 -0.91755407971E+00  0.32893151546E+00 -0.66717614735E+00  0.90006803385E+02  0.89999052385E+02 0.  0.
        -12    1    1    2    0    0  0.91755407971E+00 -0.32893151546E+00  0.66717614735E+00  0.11811966147E+01  0.00000000000E+00 0.  1.
         11    1    3    3    0    0 -0.20421163221E+01 -0.10080659543E+01 -0.10644229653E+02  0.10885130280E+02  0.51100000000E-03 0. -1.
        -11    1    3    3    0    0  0.32199582672E+01 -0.29262731068E+02  0.30364350891E+02  0.42292663266E+02  0.51100000000E-03 0.  1.
         12    1    3    3    0    0 -0.20953960248E+01  0.30599728538E+02 -0.20387297385E+02  0.36829009839E+02  0.00000000000E+00 0. -1.
</event>
<event>
 7    1  0.1910099E-015  0.9000772E+02  0.7816164E-02  0.1186339E+00
        -11   -1    0    0    0    0  0.00000000000E+00  0.00000000000E+00  0.45593999997E+02  0.45594000000E+02  0.51100000000E-03 0. -1.
         11   -1    0    0    0    0 -0.00000000000E+00 -0.00000000000E+00 -0.45593999997E+02  0.45594000000E+02  0.51100000000E-03 0.  1.
    9900012    2    1    2    0    0 -0.79465090359E+00 -0.47884164227E+00 -0.72959526121E+00  0.90007716720E+02  0.89999977780E+02 0.  0.
        -12    1    1    2    0    0  0.79465090359E+00  0.47884164227E+00  0.72959526121E+00  0.11802832805E+01  0.00000000000E+00 0.  1.
         11    1    3    3    0    0 -0.78727906463E+01 -0.53557663994E+01 -0.13853862719E+01  0.96220767856E+01  0.51100000000E-03 0. -1.
        -11    1    3    3    0    0  0.13882755281E+02 -0.17379757506E+02 -0.32799828967E+02  0.39630993499E+02  0.51100000000E-03 0.  1.
         12    1    3    3    0    0 -0.68046155382E+01  0.22256682263E+02  0.33455619978E+02  0.40754646435E+02  0.00000000000E+00 0. -1.
</event>
<event>
 7    1  0.1910099E-015  0.9000772E+02  0.7816164E-02  0.1186339E+00
        -11   -1    0    0    0    0  0.00000000000E+00  0.00000000000E+00  0.45593999997E+02  0.45594000000E+02  0.51100000000E-03 0. -1.
         11   -1    0    0    0    0 -0.00000000000E+00 -0.00000000000E+00 -0.45593999997E+02  0.45594000000E+02  0.51100000000E-03 0.  1.
    9900012    2    1    2    0    0 -0.90100163417E+00 -0.30618916977E+00 -0.69821644371E+00  0.90007719544E+02  0.89999980642E+02 0.  0.
        -12    1    1    2    0    0  0.90100163417E+00  0.30618916977E+00  0.69821644371E+00  0.11802804560E+01  0.00000000000E+00 0.  1.
         11    1    3    3    0    0 -0.58055205851E+01  0.10659900469E+01 -0.12238742398E+02  0.13587759926E+02  0.51100000000E-03 0. -1.
        -11    1    3    3    0    0 -0.11871602126E+02  0.26645297875E+02 -0.16380488632E+02  0.33454853817E+02  0.51100000000E-03 0.  1.
         12    1    3    3    0    0  0.16776121077E+02 -0.28017477091E+02  0.27921014587E+02  0.42965105801E+02  0.00000000000E+00 0. -1.
</event>
<event>
 7    1  0.1910099E-015  0.9000779E+02  0.7816164E-02  0.1186339E+00
        -11   -1    0    0    0    0  0.00000000000E+00  0.00000000000E+00  0.45593999997E+02  0.45594000000E+02  0.51100000000E-03 0.  1.
         11   -1    0    0    0    0 -0.00000000000E+00 -0.00000000000E+00 -0.45593999997E+02  0.45594000000E+02  0.51100000000E-03 0. -1.
    9900012    2    1    2    0    0 -0.17084398723E+00  0.11419364421E+01 -0.24430513779E+00  0.90007791753E+02  0.90000053804E+02 0.  0.
        -12    1    1    2    0    0  0.17084398723E+00 -0.11419364421E+01  0.24430513779E+00  0.11802082469E+01  0.00000000000E+00 0.  1.
         11    1    3    3    0    0 -0.29877978779E+01  0.11015242247E+02 -0.16241012650E+01  0.11528235038E+02  0.51100000000E-03 0. -1.
        -11    1    3    3    0    0 -0.31813366052E+02 -0.12802916842E+02  0.19327937778E+02  0.39364630295E+02  0.51100000000E-03 0.  1.
         12    1    3    3    0    0  0.34630319943E+02  0.29296110372E+01 -0.17948141650E+02  0.39114926421E+02  0.00000000000E+00 0. -1.
</event>
<event>
 7    1  0.1910099E-015  0.9000771E+02  0.7816164E-02  0.1186339E+00
        -11   -1    0    0    0    0  0.00000000000E+00  0.00000000000E+00  0.45593999997E+02  0.45594000000E+02  0.51100000000E-03 0. -1.
         11   -1    0    0    0    0 -0.00000000000E+00 -0.00000000000E+00 -0.45593999997E+02  0.45594000000E+02  0.51100000000E-03 0.  1.
    9900012    2    1    2    0    0  0.51368942193E+00  0.96402509261E+00 -0.44706240159E+00  0.90007709361E+02  0.89999970325E+02 0.  0.
        -12    1    1    2    0    0 -0.51368942193E+00 -0.96402509261E+00  0.44706240159E+00  0.11802906389E+01  0.00000000000E+00 0.  1.
         11    1    3    3    0    0  0.65677144204E+01  0.12545622432E+02  0.34476829321E+02  0.37271695363E+02  0.51100000000E-03 0. -1.
        -11    1    3    3    0    0 -0.27872256122E+01 -0.43487107020E+01  0.77592736203E+01  0.93212788156E+01  0.51100000000E-03 0.  1.
        -12    1    3    3    0    0 -0.32667993863E+01 -0.72328866377E+01 -0.42683165343E+02  0.43414735183E+02  0.00000000000E+00 0.  1.
</event>
<event>
 7    1  0.1910099E-015  0.9000795E+02  0.7816164E-02  0.1186339E+00
        -11   -1    0    0    0    0  0.00000000000E+00  0.00000000000E+00  0.45593999997E+02  0.45594000000E+02  0.51100000000E-03 0.  1.
         11   -1    0    0    0    0 -0.00000000000E+00 -0.00000000000E+00 -0.45593999997E+02  0.45594000000E+02  0.51100000000E-03 0. -1.
    9900012    2    1    2    0    0  0.68210401465E+00 -0.94862418790E+00  0.16540139427E+00  0.90007952815E+02  0.90000216992E+02 0.  0.
        -12    1    1    2    0    0 -0.68210401465E+00  0.94862418790E+00 -0.16540139427E+00  0.11800471846E+01  0.00000000000E+00 0.  1.
         11    1    3    3    0    0 -0.70649147511E+01 -0.37038785035E+02 -0.93184031397E+01  0.38840922422E+02  0.51100000000E-03 0. -1.
        -11    1    3    3    0    0  0.12907514313E+02  0.11551998058E+02 -0.94634527534E+01  0.19738528900E+02  0.51100000000E-03 0.  1.
        -12    1    3    3    0    0 -0.51604955474E+01  0.24538162789E+02  0.18947257287E+02  0.31428501493E+02  0.00000000000E+00 0.  1.
</event>
<event>
 7    1  0.1910099E-015  0.9000784E+02  0.7816164E-02  0.1186339E+00
        -11   -1    0    0    0    0  0.00000000000E+00  0.00000000000E+00  0.45593999997E+02  0.45594000000E+02  0.51100000000E-03 0.  1.
         11   -1    0    0    0    0 -0.00000000000E+00 -0.00000000000E+00 -0.45593999997E+02  0.45594000000E+02  0.51100000000E-03 0. -1.
    9900012    2    1    2    0    0  0.72540391875E-01 -0.11616167970E+01  0.19536640871E+00  0.90007837416E+02  0.90000100070E+02 0.  0.
        -12    1    1    2    0    0 -0.72540391875E-01  0.11616167970E+01 -0.19536640871E+00  0.11801625842E+01  0.00000000000E+00 0.  1.
         11    1    3    3    0    0 -0.20195857497E+02 -0.27218636308E+02  0.22280284079E+02  0.40560299326E+02  0.51100000000E-03 0. -1.
        -11    1    3    3    0    0  0.40602061542E+01 -0.65456796785E+01 -0.24599267759E+01  0.80859406671E+01  0.51100000000E-03 0.  1.
        -12    1    3    3    0    0  0.16208191734E+02  0.32602699190E+02 -0.19624990894E+02  0.41361597423E+02  0.00000000000E+00 0.  1.
</event>
<event>
 7    1  0.1910099E-015  0.9000777E+02  0.7816164E-02  0.1186339E+00
        -11   -1    0    0    0    0  0.00000000000E+00  0.00000000000E+00  0.45593999997E+02  0.45594000000E+02  0.51100000000E-03 0. -1.
         11   -1    0    0    0    0 -0.00000000000E+00 -0.00000000000E+00 -0.45593999997E+02  0.45594000000E+02  0.51100000000E-03 0.  1.
    9900012    2    1    2    0    0  0.60632688678E+00 -0.79643005878E+00 -0.62531581615E+00  0.90007765700E+02  0.90000027408E+02 0.  0.
        -12    1    1    2    0    0 -0.60632688678E+00  0.79643005878E+00  0.62531581615E+00  0.11802342997E+01  0.00000000000E+00 0.  1.
         11    1    3    3    0    0 -0.16023923815E+01 -0.75553222050E+01 -0.18308732490E+01  0.79374209968E+01  0.51100000000E-03 0. -1.
        -11    1    3    3    0    0 -0.60634011422E+01 -0.26370022219E+02 -0.26668764967E+02  0.37991656062E+02  0.51100000000E-03 0.  1.
         12    1    3    3    0    0  0.82721204105E+01  0.33128914365E+02  0.27874322400E+02  0.44078688641E+02  0.00000000000E+00 0. -1.
</event>
<event>
 7    1  0.1910099E-015  0.9000730E+02  0.7816164E-02  0.1186340E+00
        -11   -1    0    0    0    0  0.00000000000E+00  0.00000000000E+00  0.45593999997E+02  0.45594000000E+02  0.51100000000E-03 0. -1.
         11   -1    0    0    0    0 -0.00000000000E+00 -0.00000000000E+00 -0.45593999997E+02  0.45594000000E+02  0.51100000000E-03 0.  1.
    9900012    2    1    2    0    0 -0.28217767317E+00 -0.11282158222E+01 -0.20387161050E+00  0.90007297322E+02  0.89999552845E+02 0.  0.
        -12    1    1    2    0    0  0.28217767317E+00  0.11282158222E+01  0.20387161050E+00  0.11807026782E+01  0.00000000000E+00 0.  1.
         11    1    3    3    0    0  0.79204977830E+01  0.34237741527E+01 -0.56389134850E+01  0.10307951306E+02  0.51100000000E-03 0. -1.
        -11    1    3    3    0    0  0.27300784575E+02 -0.91458612264E+01  0.25672813138E+02  0.38575548611E+02  0.51100000000E-03 0.  1.
         12    1    3    3    0    0 -0.35503460031E+02  0.45938712515E+01 -0.20237771264E+02  0.41123797404E+02  0.00000000000E+00 0. -1.
</event>
<event>
 7    1  0.1910099E-015  0.9000765E+02  0.7816164E-02  0.1186339E+00
        -11   -1    0    0    0    0  0.00000000000E+00  0.00000000000E+00  0.45593999997E+02  0.45594000000E+02  0.51100000000E-03 0.  1.
         11   -1    0    0    0    0 -0.00000000000E+00 -0.00000000000E+00 -0.45593999997E+02  0.45594000000E+02  0.51100000000E-03 0. -1.
    9900012    2    1    2    0    0  0.86479410823E+00  0.15424537093E+00  0.78839852069E+00  0.90007647209E+02  0.89999907352E+02 0.  0.
        -12    1    1    2    0    0 -0.86479410823E+00 -0.15424537093E+00 -0.78839852069E+00  0.11803527911E+01  0.00000000000E+00 0.  1.
         11    1    3    3    0    0 -0.27601299927E+02 -0.18627046344E+02  0.13137667702E+02  0.35796604952E+02  0.51100000000E-03 0. -1.
        -11    1    3    3    0    0 -0.31916342044E+01 -0.87110941311E+01 -0.76401832739E+01  0.12018406324E+02  0.51100000000E-03 0.  1.
        -12    1    3    3    0    0  0.31657728240E+02  0.27492385846E+02 -0.47090859078E+01  0.42192635932E+02  0.00000000000E+00 0.  1.
</event>
<event>
 7    1  0.2268715E-015  0.9000769E+02  0.7816164E-02  0.1186339E+00
        -11   -1    0    0    0    0  0.00000000000E+00  0.00000000000E+00  0.45593999997E+02  0.45594000000E+02  0.51100000000E-03 0. -1.
         11   -1    0    0    0    0 -0.00000000000E+00 -0.00000000000E+00 -0.45593999997E+02  0.45594000000E+02  0.51100000000E-03 0.  1.
    9900012    2    1    2    0    0  0.13821592333E+00  0.30710589339E+00  0.11312473682E+01  0.90007687211E+02  0.89999947882E+02 0.  0.
        -12    1    1    2    0    0 -0.13821592333E+00 -0.30710589339E+00 -0.11312473682E+01  0.11803127888E+01  0.00000000000E+00 0.  1.
         11    1    3    3    0    0  0.59435690892E+01 -0.72207300484E+01  0.71137256396E-02  0.93522728155E+01  0.51100000000E-03 0. -1.
        -11    1    3    3    0    0  0.26195610311E+02  0.30832188740E+02 -0.43517877539E+01  0.40691177409E+02  0.51100000000E-03 0.  1.
         12    1    3    3    0    0 -0.32000963477E+02 -0.23304352798E+02  0.54759213965E+01  0.39964236986E+02  0.00000000000E+00 0. -1.
</event>
<event>
 7    1  0.1910099E-015  0.9000778E+02  0.7816164E-02  0.1186339E+00
        -11   -1    0    0    0    0  0.00000000000E+00  0.00000000000E+00  0.45593999997E+02  0.45594000000E+02  0.51100000000E-03 0. -1.
         11   -1    0    0    0    0 -0.00000000000E+00 -0.00000000000E+00 -0.45593999997E+02  0.45594000000E+02  0.51100000000E-03 0.  1.
    9900012    2    1    2    0    0  0.32369360043E+00  0.80253105565E-01  0.11321245745E+01  0.90007777919E+02  0.90000039788E+02 0.  0.
        -12    1    1    2    0    0 -0.32369360043E+00 -0.80253105565E-01 -0.11321245745E+01  0.11802220809E+01  0.00000000000E+00 0.  1.
         11    1    3    3    0    0 -0.98992400704E+01 -0.20964526742E+01  0.12428588685E+00  0.10119561010E+02  0.51100000000E-03 0. -1.
        -11    1    3    3    0    0 -0.28296973819E+02 -0.18834947942E+02 -0.83961848501E+01  0.35013853138E+02  0.51100000000E-03 0.  1.
         12    1    3    3    0    0  0.38519907490E+02  0.21011653722E+02  0.94040235377E+01  0.44874363771E+02  0.00000000000E+00 0. -1.
</event>
<event>
 7    1  0.1910099E-015  0.9000867E+02  0.7816164E-02  0.1186337E+00
        -11   -1    0    0    0    0  0.00000000000E+00  0.00000000000E+00  0.45593999997E+02  0.45594000000E+02  0.51100000000E-03 0. -1.
         11   -1    0    0    0    0 -0.00000000000E+00 -0.00000000000E+00 -0.45593999997E+02  0.45594000000E+02  0.51100000000E-03 0.  1.
    9900012    2    1    2    0    0 -0.52452416161E+00  0.75878013194E-01  0.10535390480E+01  0.90008666462E+02  0.90000940054E+02 0.  0.
        -12    1    1    2    0    0  0.52452416161E+00 -0.75878013194E-01 -0.10535390480E+01  0.11793335383E+01  0.00000000000E+00 0.  1.
         11    1    3    3    0    0 -0.34378709713E+01 -0.36772590395E+02  0.15128097999E+02  0.39911172753E+02  0.51100000000E-03 0. -1.
        -11    1    3    3    0    0 -0.83590428062E+01 -0.26940252152E+00 -0.64543896372E+01  0.10564341920E+02  0.51100000000E-03 0.  1.
        -12    1    3    3    0    0  0.11272389616E+02  0.37117870930E+02 -0.76201693135E+01  0.39533151789E+02  0.00000000000E+00 0.  1.
</event>
<event>
 7    1  0.1910099E-015  0.9000774E+02  0.7816164E-02  0.1186339E+00
        -11   -1    0    0    0    0  0.00000000000E+00  0.00000000000E+00  0.45593999997E+02  0.45594000000E+02  0.51100000000E-03 0.  1.
         11   -1    0    0    0    0 -0.00000000000E+00 -0.00000000000E+00 -0.45593999997E+02  0.45594000000E+02  0.51100000000E-03 0. -1.
    9900012    2    1    2    0    0 -0.70810149655E+00  0.91003889604E+00 -0.25184479628E+00  0.90007743959E+02  0.90000005379E+02 0.  0.
        -12    1    1    2    0    0  0.70810149655E+00 -0.91003889604E+00  0.25184479628E+00  0.11802560413E+01  0.00000000000E+00 0.  1.
         11    1    3    3    0    0  0.15414975170E+02  0.26099215907E+02 -0.20230853453E+02  0.36442803983E+02  0.51100000000E-03 0. -1.
        -11    1    3    3    0    0  0.23017533564E+01  0.50055438624E+01 -0.71219628337E+01  0.90042152761E+01  0.51100000000E-03 0.  1.
        -12    1    3    3    0    0 -0.18424830023E+02 -0.30194720873E+02  0.27100971491E+02  0.44560724699E+02  0.00000000000E+00 0.  1.
</event>
<event>
 7    1  0.1910099E-015  0.9000777E+02  0.7816164E-02  0.1186339E+00
        -11   -1    0    0    0    0  0.00000000000E+00  0.00000000000E+00  0.45593999997E+02  0.45594000000E+02  0.51100000000E-03 0.  1.
         11   -1    0    0    0    0 -0.00000000000E+00 -0.00000000000E+00 -0.45593999997E+02  0.45594000000E+02  0.51100000000E-03 0. -1.
    9900012    2    1    2    0    0 -0.32910304114E+00 -0.52872695950E+00 -0.10025351727E+01  0.90007772148E+02  0.90000033941E+02 0.  0.
        -12    1    1    2    0    0  0.32910304114E+00  0.52872695950E+00  0.10025351727E+01  0.11802278517E+01  0.00000000000E+00 0.  1.
         11    1    3    3    0    0 -0.39567032880E+02 -0.29103801816E+01 -0.16383583835E+02  0.42923679051E+02  0.51100000000E-03 0. -1.
        -11    1    3    3    0    0  0.73426527514E+01 -0.80946870684E+01  0.38649067742E+01  0.11592066804E+02  0.51100000000E-03 0.  1.
        -12    1    3    3    0    0  0.31895277088E+02  0.10476340291E+02  0.11516141888E+02  0.35492026293E+02  0.00000000000E+00 0.  1.
</event>
<event>
 7    1  0.1910099E-015  0.9000775E+02  0.7816164E-02  0.1186339E+00
        -11   -1    0    0    0    0  0.00000000000E+00  0.00000000000E+00  0.45593999997E+02  0.45594000000E+02  0.51100000000E-03 0.  1.
         11   -1    0    0    0    0 -0.00000000000E+00 -0.00000000000E+00 -0.45593999997E+02  0.45594000000E+02  0.51100000000E-03 0. -1.
    9900012    2    1    2    0    0  0.40426248154E+00 -0.26052634056E+00 -0.10778133626E+01  0.90007752665E+02  0.90000014200E+02 0.  0.
        -12    1    1    2    0    0 -0.40426248154E+00  0.26052634056E+00  0.10778133626E+01  0.11802473354E+01  0.00000000000E+00 0.  1.
         11    1    3    3    0    0  0.28227480214E+02 -0.85363656131E+01 -0.31510004401E+02  0.43157161106E+02  0.51100000000E-03 0. -1.
        -11    1    3    3    0    0 -0.78194439717E+00  0.80323486691E+01  0.38899267981E+01  0.89588834649E+01  0.51100000000E-03 0.  1.
        -12    1    3    3    0    0 -0.27041273335E+02  0.24349060338E+00  0.26542264241E+02  0.37891708094E+02  0.00000000000E+00 0.  1.
</event>
<event>
 7    1  0.1910099E-015  0.9000820E+02  0.7816164E-02  0.1186338E+00
        -11   -1    0    0    0    0  0.00000000000E+00  0.00000000000E+00  0.45593999997E+02  0.45594000000E+02  0.51100000000E-03 0.  1.
         11   -1    0    0    0    0 -0.00000000000E+00 -0.00000000000E+00 -0.45593999997E+02  0.45594000000E+02  0.51100000000E-03 0. -1.
    9900012    2    1    2    0    0  0.22403652455E+00 -0.39074313848E+00 -0.10904350570E+01  0.90008202908E+02  0.90000470385E+02 0.  0.
        -12    1    1    2    0    0 -0.22403652455E+00  0.39074313848E+00  0.10904350570E+01  0.11797970919E+01  0.00000000000E+00 0.  1.
         11    1    3    3    0    0  0.20841015465E+02  0.23112855281E+02  0.14649839798E+02  0.34397235517E+02  0.51100000000E-03 0. -1.
        -11    1    3    3    0    0  0.60935848957E+01  0.51408044379E+01  0.67508883208E+01  0.10446728700E+02  0.51100000000E-03 0.  1.
        -12    1    3    3    0    0 -0.26710563836E+02 -0.28644402857E+02 -0.22491163176E+02  0.45164238691E+02  0.00000000000E+00 0.  1.
</event>
<event>
 7    1  0.1910099E-015  0.9000761E+02  0.7816164E-02  0.1186339E+00
        -11   -1    0    0    0    0  0.00000000000E+00  0.00000000000E+00  0.45593999997E+02  0.45594000000E+02  0.51100000000E-03 0.  1.
         11   -1    0    0    0    0 -0.00000000000E+00 -0.00000000000E+00 -0.45593999997E+02  0.45594000000E+02  0.51100000000E-03 0. -1.
    9900012    2    1    2    0    0  0.35866214057E+00  0.10831997610E+01 -0.30225421812E+00  0.90007611138E+02  0.89999870805E+02 0.  0.
        -12    1    1    2    0    0 -0.35866214057E+00 -0.10831997610E+01  0.30225421812E+00  0.11803888621E+01  0.00000000000E+00 0.  1.
         11    1    3    3    0    0 -0.56073626966E+01 -0.32725070139E+01 -0.15103320107E+01  0.66658023981E+01  0.51100000000E-03 0. -1.
        -11    1    3    3    0    0 -0.20266966158E+02 -0.32338167655E+02 -0.10502187338E+01  0.38178658491E+02  0.51100000000E-03 0.  1.
         12    1    3    3    0    0  0.26232990995E+02  0.36693874430E+02  0.22582965264E+01  0.45163150249E+02  0.00000000000E+00 0. -1.
</event>
<event>
 7    1  0.1910099E-015  0.9000758E+02  0.7816164E-02  0.1186339E+00
        -11   -1    0    0    0    0  0.00000000000E+00  0.00000000000E+00  0.45593999997E+02  0.45594000000E+02  0.51100000000E-03 0. -1.
         11   -1    0    0    0    0 -0.00000000000E+00 -0.00000000000E+00 -0.45593999997E+02  0.45594000000E+02  0.51100000000E-03 0.  1.
    9900012    2    1    2    0    0 -0.42800896277E+00  0.10362128265E+00  0.10952043355E+01  0.90007575678E+02  0.89999834877E+02 0.  0.
        -12    1    1    2    0    0  0.42800896277E+00 -0.10362128265E+00 -0.10952043355E+01  0.11804243216E+01  0.00000000000E+00 0.  1.
         11    1    3    3    0    0  0.14910986801E+02 -0.13510380344E+02 -0.10642367197E+02  0.22762422636E+02  0.51100000000E-03 0. -1.
        -11    1    3    3    0    0 -0.73400602341E+00 -0.24385667236E+02  0.10379225932E+02  0.26512786775E+02  0.51100000000E-03 0.  1.
         12    1    3    3    0    0 -0.14604989740E+02  0.37999668863E+02  0.13583456006E+01  0.40732366268E+02  0.00000000000E+00 0. -1.
</event>
<event>
 7    1  0.1910099E-015  0.9000825E+02  0.7816164E-02  0.1186338E+00
        -11   -1    0    0    0    0  0.00000000000E+00  0.00000000000E+00  0.45593999997E+02  0.45594000000E+02  0.51100000000E-03 0.  1.
         11   -1    0    0    0    0 -0.00000000000E+00 -0.00000000000E+00 -0.45593999997E+02  0.45594000000E+02  0.51100000000E-03 0. -1.
    9900012    2    1    2    0    0 -0.15008948520E+00  0.10473072093E+01 -0.52195145390E+00  0.90008248940E+02  0.90000517024E+02 0.  0.
        -12    1    1    2    0    0  0.15008948520E+00 -0.10473072093E+01  0.52195145390E+00  0.11797510604E+01  0.00000000000E+00 0.  1.
         11    1    3    3    0    0  0.25982100748E+02  0.12472676228E+01 -0.30593784918E+02  0.40157252293E+02  0.51100000000E-03 0. -1.
        -11    1    3    3    0    0 -0.56253758119E+01 -0.65068224763E+01 -0.40793909159E+01  0.95197175520E+01  0.51100000000E-03 0.  1.
        -12    1    3    3    0    0 -0.20506814422E+02  0.63068620628E+01  0.34151224380E+02  0.40331279095E+02  0.00000000000E+00 0.  1.
</event>
<event>
 7    1  0.1910099E-015  0.9000773E+02  0.7816164E-02  0.1186339E+00
        -11   -1    0    0    0    0  0.00000000000E+00  0.00000000000E+00  0.45593999997E+02  0.45594000000E+02  0.51100000000E-03 0. -1.
         11   -1    0    0    0    0 -0.00000000000E+00 -0.00000000000E+00 -0.45593999997E+02  0.45594000000E+02  0.51100000000E-03 0.  1.
    9900012    2    1    2    0    0  0.54770707114E+00 -0.10444359247E+01 -0.46981612036E-01  0.90007730239E+02  0.89999991478E+02 0.  0.
        -12    1    1    2    0    0 -0.54770707114E+00  0.10444359247E+01  0.46981612036E-01  0.11802697609E+01  0.00000000000E+00 0.  1.
         11    1    3    3    0    0  0.21272852034E+02  0.78728787303E+01 -0.11950762441E+02  0.25638587643E+02  0.51100000000E-03 0. -1.
        -11    1    3    3    0    0  0.14156527304E+02 -0.77806136607E+01 -0.13621804869E+02  0.21130517797E+02  0.51100000000E-03 0.  1.
         12    1    3    3    0    0 -0.34881672267E+02 -0.11367009944E+01  0.25525585698E+02  0.43238624799E+02  0.00000000000E+00 0. -1.
</event>
<event>
 7    1  0.1910099E-015  0.9000796E+02  0.7816164E-02  0.1186339E+00
        -11   -1    0    0    0    0  0.00000000000E+00  0.00000000000E+00  0.45593999997E+02  0.45594000000E+02  0.51100000000E-03 0. -1.
         11   -1    0    0    0    0 -0.00000000000E+00 -0.00000000000E+00 -0.45593999997E+02  0.45594000000E+02  0.51100000000E-03 0.  1.
    9900012    2    1    2    0    0 -0.81298977500E+00  0.29221772779E+00  0.80383166826E+00  0.90007962320E+02  0.90000226623E+02 0.  0.
        -12    1    1    2    0    0  0.81298977500E+00 -0.29221772779E+00 -0.80383166826E+00  0.11800376797E+01  0.00000000000E+00 0.  1.
         11    1    3    3    0    0 -0.54823194058E+01  0.45182022275E+01  0.62232340786E+01  0.94445021094E+01  0.51100000000E-03 0. -1.
        -11    1    3    3    0    0 -0.28865255368E+02 -0.95306121407E+01 -0.26729327294E+02  0.40478296322E+02  0.51100000000E-03 0.  1.
         12    1    3    3    0    0  0.33534584999E+02  0.53046276410E+01  0.21309924884E+02  0.40085163889E+02  0.00000000000E+00 0. -1.
</event>
<event>
 7    1  0.1959171E-015  0.9000742E+02  0.7816164E-02  0.1186340E+00
        -11   -1    0    0    0    0  0.00000000000E+00  0.00000000000E+00  0.45593999997E+02  0.45594000000E+02  0.51100000000E-03 0. -1.
         11   -1    0    0    0    0 -0.00000000000E+00 -0.00000000000E+00 -0.45593999997E+02  0.45594000000E+02  0.51100000000E-03 0.  1.
    9900012    2    1    2    0    0 -0.10322846836E+01 -0.53843665029E+00  0.19557339962E+00  0.90007417665E+02  0.89999674778E+02 0.  0.
        -12    1    1    2    0    0  0.10322846836E+01  0.53843665029E+00 -0.19557339962E+00  0.11805823347E+01  0.00000000000E+00 0.  1.
         11    1    3    3    0    0  0.87028885840E+01  0.36278506207E+01 -0.16645312405E+01  0.95745618355E+01  0.51100000000E-03 0. -1.
        -11    1    3    3    0    0 -0.52907193031E+01  0.37023309363E+01 -0.38518138680E+02  0.39055677855E+02  0.51100000000E-03 0.  1.
         12    1    3    3    0    0 -0.44444539644E+01 -0.78686182073E+01  0.40378243320E+02  0.41377177975E+02  0.00000000000E+00 0. -1.
</event>
<event>
 7    1  0.1910099E-015  0.9000775E+02  0.7816164E-02  0.1186339E+00
        -11   -1    0    0    0    0  0.00000000000E+00  0.00000000000E+00  0.45593999997E+02  0.45594000000E+02  0.51100000000E-03 0.  1.
         11   -1    0    0    0    0 -0.00000000000E+00 -0.00000000000E+00 -0.45593999997E+02  0.45594000000E+02  0.51100000000E-03 0. -1.
    9900012    2    1    2    0    0 -0.10475368022E+01  0.42537686595E+00 -0.33869993970E+00  0.90007747282E+02  0.90000008746E+02 0.  0.
        -12    1    1    2    0    0  0.10475368022E+01 -0.42537686595E+00  0.33869993970E+00  0.11802527183E+01  0.00000000000E+00 0.  1.
         11    1    3    3    0    0 -0.28079270272E+00 -0.99844170227E+01 -0.48930555821E+01  0.11122473691E+02  0.51100000000E-03 0. -1.
        -11    1    3    3    0    0 -0.24215538898E+02 -0.21175916535E+02  0.18547271815E+02  0.37132372093E+02  0.51100000000E-03 0.  1.
         12    1    3    3    0    0  0.23448794798E+02  0.31585710423E+02 -0.13992916173E+02  0.41752901497E+02  0.00000000000E+00 0. -1.
</event>
<event>
 7    1  0.1910099E-015  0.9000770E+02  0.7816164E-02  0.1186339E+00
        -11   -1    0    0    0    0  0.00000000000E+00  0.00000000000E+00  0.45593999997E+02  0.45594000000E+02  0.51100000000E-03 0.  1.
         11   -1    0    0    0    0 -0.00000000000E+00 -0.00000000000E+00 -0.45593999997E+02  0.45594000000E+02  0.51100000000E-03 0. -1.
    9900012    2    1    2    0    0 -0.57865734608E+00 -0.55513213080E+00 -0.86607285333E+00  0.90007704192E+02  0.89999965087E+02 0.  0.
        -12    1    1    2    0    0  0.57865734608E+00  0.55513213080E+00  0.86607285333E+00  0.11802958079E+01  0.00000000000E+00 0.  1.
         11    1    3    3    0    0  0.26563382688E+01  0.94038186460E+01  0.20903084201E+01  0.99928638377E+01  0.51100000000E-03 0. -1.
        -11    1    3    3    0    0  0.33703922974E+02  0.13373976617E+02 -0.75237935740E+00  0.36268219551E+02  0.51100000000E-03 0.  1.
         12    1    3    3    0    0 -0.36938918589E+02 -0.23332927394E+02 -0.22040019160E+01  0.43746620804E+02  0.00000000000E+00 0. -1.
</event>
<event>
 7    1  0.1910099E-015  0.9000771E+02  0.7816164E-02  0.1186339E+00
        -11   -1    0    0    0    0  0.00000000000E+00  0.00000000000E+00  0.45593999997E+02  0.45594000000E+02  0.51100000000E-03 0.  1.
         11   -1    0    0    0    0 -0.00000000000E+00 -0.00000000000E+00 -0.45593999997E+02  0.45594000000E+02  0.51100000000E-03 0. -1.
    9900012    2    1    2    0    0  0.15700723786E+00 -0.48608365318E+00 -0.10640299884E+01  0.90007708338E+02  0.89999969288E+02 0.  0.
        -12    1    1    2    0    0 -0.15700723786E+00  0.48608365318E+00  0.10640299884E+01  0.11802916617E+01  0.00000000000E+00 0.  1.
         11    1    3    3    0    0 -0.42895451706E+01  0.56461002831E+01 -0.82696859159E+01  0.10893408630E+02  0.51100000000E-03 0. -1.
        -11    1    3    3    0    0 -0.11102384969E+02  0.33389741169E+02 -0.33657839292E+01  0.35347790158E+02  0.51100000000E-03 0.  1.
        -12    1    3    3    0    0  0.15548937377E+02 -0.39521925105E+02  0.10571439857E+02  0.43766509550E+02  0.00000000000E+00 0.  1.
</event>
<event>
 7    1  0.1910099E-015  0.9000780E+02  0.7816164E-02  0.1186339E+00
        -11   -1    0    0    0    0  0.00000000000E+00  0.00000000000E+00  0.45593999997E+02  0.45594000000E+02  0.51100000000E-03 0.  1.
         11   -1    0    0    0    0 -0.00000000000E+00 -0.00000000000E+00 -0.45593999997E+02  0.45594000000E+02  0.51100000000E-03 0. -1.
    9900012    2    1    2    0    0 -0.39412253527E+00 -0.70625336688E+00 -0.85950597086E+00  0.90007797939E+02  0.90000060072E+02 0.  0.
        -12    1    1    2    0    0  0.39412253527E+00  0.70625336688E+00  0.85950597086E+00  0.11802020611E+01  0.00000000000E+00 0.  1.
         11    1    3    3    0    0  0.82350504951E+01  0.20262857974E+01 -0.42240712585E+01  0.94744218318E+01  0.51100000000E-03 0. -1.
        -11    1    3    3    0    0 -0.22748989910E+02  0.30194858921E+02  0.17950991598E+02  0.41850736514E+02  0.51100000000E-03 0.  1.
         12    1    3    3    0    0  0.14119816879E+02 -0.32927398086E+02 -0.14586426310E+02  0.38682639593E+02  0.00000000000E+00 0. -1.
</event>
<event>
 7    1  0.1910099E-015  0.9000765E+02  0.7816164E-02  0.1186339E+00
        -11   -1    0    0    0    0  0.00000000000E+00  0.00000000000E+00  0.45593999997E+02  0.45594000000E+02  0.51100000000E-03 0. -1.
         11   -1    0    0    0    0 -0.00000000000E+00 -0.00000000000E+00 -0.45593999997E+02  0.45594000000E+02  0.51100000000E-03 0.  1.
    9900012    2    1    2    0    0 -0.71631490418E+00  0.93717541397E+00  0.42638043522E-01  0.90007651407E+02  0.89999911605E+02 0.  0.
        -12    1    1    2    0    0  0.71631490418E+00 -0.93717541397E+00 -0.42638043522E-01  0.11803485931E+01  0.00000000000E+00 0.  1.
         11    1    3    3    0    0 -0.38670489479E+01  0.22008805017E+01 -0.84224335531E+01  0.95255094229E+01  0.51100000000E-03 0. -1.
        -11    1    3    3    0    0 -0.29277040115E+02  0.15048302665E+00 -0.21486576369E+02  0.36315846229E+02  0.51100000000E-03 0.  1.
         12    1    3    3    0    0  0.32427774158E+02 -0.14141881144E+01  0.29951647965E+02  0.44166295755E+02  0.00000000000E+00 0. -1.
</event>
<event>
 7    1  0.1910099E-015  0.9000769E+02  0.7816164E-02  0.1186339E+00
        -11   -1    0    0    0    0  0.00000000000E+00  0.00000000000E+00  0.45593999997E+02  0.45594000000E+02  0.51100000000E-03 0. -1.
         11   -1    0    0    0    0 -0.00000000000E+00 -0.00000000000E+00 -0.45593999997E+02  0.45594000000E+02  0.51100000000E-03 0.  1.
    9900012    2    1    2    0    0  0.14912544435E+00 -0.84814210689E+00 -0.80718893043E+00  0.90007687583E+02  0.89999948259E+02 0.  0.
        -12    1    1    2    0    0 -0.14912544435E+00  0.84814210689E+00  0.80718893043E+00  0.11803124167E+01  0.00000000000E+00 0.  1.
         11    1    3    3    0    0 -0.28653093531E+02  0.32690889440E+01  0.18010078759E+02  0.34000730119E+02  0.51100000000E-03 0. -1.
        -11    1    3    3    0    0 -0.10772951067E+02  0.15074319210E+01  0.18071412049E+01  0.11026993484E+02  0.51100000000E-03 0.  1.
        -12    1    3    3    0    0  0.39575170043E+02 -0.56246629719E+01 -0.20624408894E+02  0.44979963981E+02  0.00000000000E+00 0.  1.
</event>
<event>
 7    1  0.1910099E-015  0.9000771E+02  0.7816164E-02  0.1186339E+00
        -11   -1    0    0    0    0  0.00000000000E+00  0.00000000000E+00  0.45593999997E+02  0.45594000000E+02  0.51100000000E-03 0. -1.
         11   -1    0    0    0    0 -0.00000000000E+00 -0.00000000000E+00 -0.45593999997E+02  0.45594000000E+02  0.51100000000E-03 0.  1.
    9900012    2    1    2    0    0 -0.10950774162E+01  0.42455638758E+00  0.11674877697E+00  0.90007714886E+02  0.89999975922E+02 0.  0.
        -12    1    1    2    0    0  0.10950774162E+01 -0.42455638758E+00 -0.11674877697E+00  0.11802851141E+01  0.00000000000E+00 0.  1.
         11    1    3    3    0    0 -0.17063911678E+01  0.80147959651E+01 -0.58687860198E+01  0.10079254674E+02  0.51100000000E-03 0. -1.
        -11    1    3    3    0    0  0.23725806952E+02  0.12413599496E+02 -0.24833862564E+02  0.36520297070E+02  0.51100000000E-03 0.  1.
         12    1    3    3    0    0 -0.23114493201E+02 -0.20003839074E+02  0.30819397361E+02  0.43408163141E+02  0.00000000000E+00 0. -1.
</event>
<event>
 7    1  0.2117182E-015  0.9000771E+02  0.7816164E-02  0.1186339E+00
        -11   -1    0    0    0    0  0.00000000000E+00  0.00000000000E+00  0.45593999997E+02  0.45594000000E+02  0.51100000000E-03 0.  1.
         11   -1    0    0    0    0 -0.00000000000E+00 -0.00000000000E+00 -0.45593999997E+02  0.45594000000E+02  0.51100000000E-03 0. -1.
    9900012    2    1    2    0    0 -0.35497799168E+00  0.43288839126E+00 -0.10390736743E+01  0.90007713664E+02  0.89999974685E+02 0.  0.
        -12    1    1    2    0    0  0.35497799168E+00 -0.43288839126E+00  0.10390736743E+01  0.11802863358E+01  0.00000000000E+00 0.  1.
         11    1    3    3    0    0  0.93460531902E+01  0.98077344212E+00  0.36922185386E+01  0.10096687812E+02  0.51100000000E-03 0. -1.
        -11    1    3    3    0    0 -0.28958138831E+02 -0.25016076643E+02  0.17068317545E+02  0.41901137923E+02  0.51100000000E-03 0.  1.
         12    1    3    3    0    0  0.19257107649E+02  0.24468191592E+02 -0.21799609758E+02  0.38009887929E+02  0.00000000000E+00 0. -1.
</event>
<event>
 7    1  0.1910099E-015  0.9000778E+02  0.7816164E-02  0.1186339E+00
        -11   -1    0    0    0    0  0.00000000000E+00  0.00000000000E+00  0.45593999997E+02  0.45594000000E+02  0.51100000000E-03 0.  1.
         11   -1    0    0    0    0 -0.00000000000E+00 -0.00000000000E+00 -0.45593999997E+02  0.45594000000E+02  0.51100000000E-03 0. -1.
    9900012    2    1    2    0    0  0.63959653460E+00 -0.68695846987E+00 -0.71549026497E+00  0.90007778840E+02  0.90000040721E+02 0.  0.
        -12    1    1    2    0    0 -0.63959653460E+00  0.68695846987E+00  0.71549026497E+00  0.11802211596E+01  0.00000000000E+00 0.  1.
         11    1    3    3    0    0 -0.33488430970E+01  0.36206164729E+02 -0.85239323681E+01  0.37346466202E+02  0.51100000000E-03 0. -1.
        -11    1    3    3    0    0 -0.53893800880E+01  0.54855895704E+01  0.49875315424E+01  0.91658377585E+01  0.51100000000E-03 0.  1.
        -12    1    3    3    0    0  0.93778197196E+01 -0.42378712769E+02  0.28209105607E+01  0.43495474880E+02  0.00000000000E+00 0.  1.
</event>
<event>
 7    1  0.1910099E-015  0.9000776E+02  0.7816164E-02  0.1186339E+00
        -11   -1    0    0    0    0  0.00000000000E+00  0.00000000000E+00  0.45593999997E+02  0.45594000000E+02  0.51100000000E-03 0. -1.
         11   -1    0    0    0    0 -0.00000000000E+00 -0.00000000000E+00 -0.45593999997E+02  0.45594000000E+02  0.51100000000E-03 0.  1.
    9900012    2    1    2    0    0 -0.50898559626E+00  0.46400281012E+00  0.95844184084E+00  0.90007756081E+02  0.90000017662E+02 0.  0.
        -12    1    1    2    0    0  0.50898559626E+00 -0.46400281012E+00 -0.95844184084E+00  0.11802439186E+01  0.00000000000E+00 0.  1.
         11    1    3    3    0    0  0.33225976998E+02 -0.97254614367E+01  0.13280660318E+02  0.37079995771E+02  0.51100000000E-03 0. -1.
        -11    1    3    3    0    0  0.68306229291E+01  0.81456188111E+01 -0.57506165058E+00  0.10646089027E+02  0.51100000000E-03 0.  1.
        -12    1    3    3    0    0 -0.40565585523E+02  0.20438454357E+01 -0.11747156827E+02  0.42281671283E+02  0.00000000000E+00 0.  1.
</event>
<event>
 7    1  0.1910099E-015  0.9000772E+02  0.7816164E-02  0.1186339E+00
        -11   -1    0    0    0    0  0.00000000000E+00  0.00000000000E+00  0.45593999997E+02  0.45594000000E+02  0.51100000000E-03 0. -1.
         11   -1    0    0    0    0 -0.00000000000E+00 -0.00000000000E+00 -0.45593999997E+02  0.45594000000E+02  0.51100000000E-03 0.  1.
    9900012    2    1    2    0    0 -0.81035383806E+00  0.83801640240E+00  0.18470812716E+00  0.90007719556E+02  0.89999980654E+02 0.  0.
        -12    1    1    2    0    0  0.81035383806E+00 -0.83801640240E+00 -0.18470812716E+00  0.11802804437E+01  0.00000000000E+00 0.  1.
         11    1    3    3    0    0 -0.19485257248E+02  0.19246352823E+02  0.31023668386E+02  0.41383152942E+02  0.51100000000E-03 0. -1.
        -11    1    3    3    0    0 -0.54768084727E+01  0.16450550447E+01 -0.78645752930E+01  0.97238460471E+01  0.51100000000E-03 0.  1.
        -12    1    3    3    0    0  0.24151711882E+02 -0.20053391465E+02 -0.22974384966E+02  0.38900720568E+02  0.00000000000E+00 0.  1.
</event>
<event>
 7    1  0.1911519E-015  0.9000772E+02  0.7816164E-02  0.1186339E+00
        -11   -1    0    0    0    0  0.00000000000E+00  0.00000000000E+00  0.45593999997E+02  0.45594000000E+02  0.51100000000E-03 0.  1.
         11   -1    0    0    0    0 -0.00000000000E+00 -0.00000000000E+00 -0.45593999997E+02  0.45594000000E+02  0.51100000000E-03 0. -1.
    9900012    2    1    2    0    0  0.60139933478E+00  0.10060045158E+01  0.13906633858E+00  0.90007717961E+02  0.89999979038E+02 0.  0.
        -12    1    1    2    0    0 -0.60139933478E+00 -0.10060045158E+01 -0.13906633858E+00  0.11802820393E+01  0.00000000000E+00 0.  1.
         11    1    3    3    0    0 -0.35954551349E+01 -0.37577513309E+01  0.78929679268E+01  0.94523508000E+01  0.51100000000E-03 0. -1.
        -11    1    3    3    0    0 -0.25799413083E+02 -0.88070315634E+01  0.22875640902E+02  0.35587476270E+02  0.51100000000E-03 0.  1.
         12    1    3    3    0    0  0.29996267552E+02  0.13570787410E+02 -0.30629542490E+02  0.44967890890E+02  0.00000000000E+00 0. -1.
</event>
<event>
 7    1  0.1910099E-015  0.9000785E+02  0.7816164E-02  0.1186339E+00
        -11   -1    0    0    0    0  0.00000000000E+00  0.00000000000E+00  0.45593999997E+02  0.45594000000E+02  0.51100000000E-03 0.  1.
         11   -1    0    0    0    0 -0.00000000000E+00 -0.00000000000E+00 -0.45593999997E+02  0.45594000000E+02  0.51100000000E-03 0. -1.
    9900012    2    1    2    0    0 -0.74069950604E+00 -0.47096224437E+00 -0.78886478381E+00  0.90007852195E+02  0.90000115044E+02 0.  0.
        -12    1    1    2    0    0  0.74069950604E+00  0.47096224437E+00  0.78886478381E+00  0.11801478047E+01  0.00000000000E+00 0.  1.
         11    1    3    3    0    0  0.83174453648E+01  0.17644989865E+02 -0.32472670585E+02  0.37881392529E+02  0.51100000000E-03 0. -1.
        -11    1    3    3    0    0 -0.29433994467E+01  0.89225100264E+01 -0.79123221776E+00  0.94287238880E+01  0.51100000000E-03 0.  1.
        -12    1    3    3    0    0 -0.61147454242E+01 -0.27038462136E+02  0.32475038019E+02  0.42697735778E+02  0.00000000000E+00 0.  1.
</event>
<event>
 7    1  0.1910099E-015  0.9000776E+02  0.7816164E-02  0.1186339E+00
        -11   -1    0    0    0    0  0.00000000000E+00  0.00000000000E+00  0.45593999997E+02  0.45594000000E+02  0.51100000000E-03 0. -1.
         11   -1    0    0    0    0 -0.00000000000E+00 -0.00000000000E+00 -0.45593999997E+02  0.45594000000E+02  0.51100000000E-03 0.  1.
    9900012    2    1    2    0    0  0.10211507138E+01 -0.57980219907E+00 -0.11853152851E+00  0.90007758883E+02  0.90000020500E+02 0.  0.
        -12    1    1    2    0    0 -0.10211507138E+01  0.57980219907E+00  0.11853152851E+00  0.11802411168E+01  0.00000000000E+00 0.  1.
         11    1    3    3    0    0 -0.50881018745E+01  0.51878309515E+01 -0.55518053904E+01  0.91446658780E+01  0.51100000000E-03 0. -1.
        -11    1    3    3    0    0  0.62243995283E+01  0.32061012182E+02 -0.17065326408E+02  0.36849382862E+02  0.51100000000E-03 0.  1.
         12    1    3    3    0    0 -0.11514693997E+00 -0.37828645332E+02  0.22498600270E+02  0.44013710144E+02  0.00000000000E+00 0. -1.
</event>
<event>
 7    1  0.1910099E-015  0.9000772E+02  0.7816164E-02  0.1186339E+00
        -11   -1    0    0    0    0  0.00000000000E+00  0.00000000000E+00  0.45593999997E+02  0.45594000000E+02  0.51100000000E-03 0.  1.
         11   -1    0    0    0    0 -0.00000000000E+00 -0.00000000000E+00 -0.45593999997E+02  0.45594000000E+02  0.51100000000E-03 0. -1.
    9900012    2    1    2    0    0  0.95195931917E+00 -0.45082116416E+00 -0.53253147666E+00  0.90007722049E+02  0.89999983180E+02 0.  0.
        -12    1    1    2    0    0 -0.95195931917E+00  0.45082116416E+00  0.53253147666E+00  0.11802779508E+01  0.00000000000E+00 0.  1.
         11    1    3    3    0    0  0.10808455998E+02 -0.17197950235E+02 -0.26394676325E+02  0.33305722510E+02  0.51100000000E-03 0. -1.
        -11    1    3    3    0    0  0.19722985653E+01 -0.61681599211E+01 -0.10372181552E+02  0.12227767942E+02  0.51100000000E-03 0.  1.
        -12    1    3    3    0    0 -0.11828795244E+02  0.22915288992E+02  0.36234326400E+02  0.44474231597E+02  0.00000000000E+00 0.  1.
</event>
<event>
 7    1  0.1910099E-015  0.9000758E+02  0.7816164E-02  0.1186339E+00
        -11   -1    0    0    0    0  0.00000000000E+00  0.00000000000E+00  0.45593999997E+02  0.45594000000E+02  0.51100000000E-03 0. -1.
         11   -1    0    0    0    0 -0.00000000000E+00 -0.00000000000E+00 -0.45593999997E+02  0.45594000000E+02  0.51100000000E-03 0.  1.
    9900012    2    1    2    0    0  0.75336945674E-01  0.96005318407E+00 -0.68265322948E+00  0.90007579226E+02  0.89999838472E+02 0.  0.
        -12    1    1    2    0    0 -0.75336945674E-01 -0.96005318407E+00  0.68265322948E+00  0.11804207739E+01  0.00000000000E+00 0.  1.
         11    1    3    3    0    0 -0.33640995456E+02  0.23216475597E+02 -0.12084131971E+02  0.42623321787E+02  0.51100000000E-03 0. -1.
        -11    1    3    3    0    0  0.22424910981E+01 -0.66732964117E+01 -0.49879821889E+01  0.86279556038E+01  0.51100000000E-03 0.  1.
        -12    1    3    3    0    0  0.31473841304E+02 -0.15583126001E+02  0.16389460931E+02  0.38756301835E+02  0.00000000000E+00 0.  1.
</event>
<event>
 7    1  0.1910099E-015  0.9000776E+02  0.7816164E-02  0.1186339E+00
        -11   -1    0    0    0    0  0.00000000000E+00  0.00000000000E+00  0.45593999997E+02  0.45594000000E+02  0.51100000000E-03 0. -1.
         11   -1    0    0    0    0 -0.00000000000E+00 -0.00000000000E+00 -0.45593999997E+02  0.45594000000E+02  0.51100000000E-03 0.  1.
    9900012    2    1    2    0    0 -0.83831896766E+00 -0.71455432771E+00 -0.42380267445E+00  0.90007756260E+02  0.90000017843E+02 0.  0.
        -12    1    1    2    0    0  0.83831896766E+00  0.71455432771E+00  0.42380267445E+00  0.11802437399E+01  0.00000000000E+00 0.  1.
         11    1    3    3    0    0  0.24634087828E+02  0.16629825512E+02  0.60904352465E+01  0.30339459148E+02  0.51100000000E-03 0. -1.
        -11    1    3    3    0    0  0.84553888514E+01 -0.50490676091E+01  0.14784891427E+02  0.17764563015E+02  0.51100000000E-03 0.  1.
        -12    1    3    3    0    0 -0.33927795647E+02 -0.12295312230E+02 -0.21299129348E+02  0.41903734097E+02  0.00000000000E+00 0.  1.
</event>
<event>
 7    1  0.1910099E-015  0.9000779E+02  0.7816164E-02  0.1186339E+00
        -11   -1    0    0    0    0  0.00000000000E+00  0.00000000000E+00  0.45593999997E+02  0.45594000000E+02  0.51100000000E-03 0. -1.
         11   -1    0    0    0    0 -0.00000000000E+00 -0.00000000000E+00 -0.45593999997E+02  0.45594000000E+02  0.51100000000E-03 0.  1.
    9900012    2    1    2    0    0  0.11468340078E+01 -0.14012097984E+00  0.24087902751E+00  0.90007794579E+02  0.90000056667E+02 0.  0.
        -12    1    1    2    0    0 -0.11468340078E+01  0.14012097984E+00 -0.24087902751E+00  0.11802054212E+01  0.00000000000E+00 0.  1.
         11    1    3    3    0    0 -0.16611423324E+01  0.93613698492E+01  0.21991895206E+00  0.95101526754E+01  0.51100000000E-03 0. -1.
        -11    1    3    3    0    0  0.15559559903E+02 -0.24017366752E+01 -0.37266475745E+02  0.40455635679E+02  0.51100000000E-03 0.  1.
         12    1    3    3    0    0 -0.12751583563E+02 -0.70997541539E+01  0.37287435821E+02  0.40042006225E+02  0.00000000000E+00 0. -1.
</event>
<event>
 7    1  0.1910099E-015  0.9000774E+02  0.7816164E-02  0.1186339E+00
        -11   -1    0    0    0    0  0.00000000000E+00  0.00000000000E+00  0.45593999997E+02  0.45594000000E+02  0.51100000000E-03 0.  1.
         11   -1    0    0    0    0 -0.00000000000E+00 -0.00000000000E+00 -0.45593999997E+02  0.45594000000E+02  0.51100000000E-03 0. -1.
    9900012    2    1    2    0    0 -0.57415845474E+00 -0.10268731629E+01  0.94259787930E-01  0.90007740990E+02  0.90000002371E+02 0.  0.
        -12    1    1    2    0    0  0.57415845474E+00  0.10268731629E+01 -0.94259787930E-01  0.11802590103E+01  0.00000000000E+00 0.  1.
         11    1    3    3    0    0 -0.13560043832E+01 -0.40382537998E+02 -0.44133926522E+01  0.40645616713E+02  0.51100000000E-03 0. -1.
        -11    1    3    3    0    0  0.91128040305E+01  0.34692546667E+00  0.23400281847E+01  0.94148439575E+01  0.51100000000E-03 0.  1.
        -12    1    3    3    0    0 -0.83309581020E+01  0.39008739368E+02  0.21676242554E+01  0.39947280319E+02  0.00000000000E+00 0.  1.
</event>
<event>
 7    1  0.1910099E-015  0.9000787E+02  0.7816164E-02  0.1186339E+00
        -11   -1    0    0    0    0  0.00000000000E+00  0.00000000000E+00  0.45593999997E+02  0.45594000000E+02  0.51100000000E-03 0. -1.
         11   -1    0    0    0    0 -0.00000000000E+00 -0.00000000000E+00 -0.45593999997E+02  0.45594000000E+02  0.51100000000E-03 0.  1.
    9900012    2    1    2    0    0 -0.82458698954E+00  0.78794855105E+00  0.30314478908E+00  0.90007871454E+02  0.90000134557E+02 0.  0.
        -12    1    1    2    0    0  0.82458698954E+00 -0.78794855105E+00 -0.30314478908E+00  0.11801285462E+01  0.00000000000E+00 0.  1.
         11    1    3    3    0    0 -0.70345289936E+01 -0.40661389810E+01 -0.16499464555E+01  0.82909835328E+01  0.51100000000E-03 0. -1.
        -11    1    3    3    0    0 -0.17330126074E+02 -0.27476553333E+02 -0.17875407415E+02  0.37078625153E+02  0.51100000000E-03 0.  1.
         12    1    3    3    0    0  0.23540068078E+02  0.32330640865E+02  0.19828498659E+02  0.44638262768E+02  0.00000000000E+00 0. -1.
</event>
<event>
 7    1  0.1910099E-015  0.9000757E+02  0.7816164E-02  0.1186339E+00
        -11   -1    0    0    0    0  0.00000000000E+00  0.00000000000E+00  0.45593999997E+02  0.45594000000E+02  0.51100000000E-03 0.  1.
         11   -1    0    0    0    0 -0.00000000000E+00 -0.00000000000E+00 -0.45593999997E+02  0.45594000000E+02  0.51100000000E-03 0. -1.
    9900012    2    1    2    0    0  0.15531995802E+00 -0.62999931008E+00 -0.98609653079E+00  0.90007572201E+02  0.89999831354E+02 0.  0.
        -12    1    1    2    0    0 -0.15531995802E+00  0.62999931008E+00  0.98609653079E+00  0.11804277988E+01  0.00000000000E+00 0.  1.
         11    1    3    3    0    0  0.54527352947E+01  0.33963609322E+02  0.21300306924E+02  0.40459388968E+02  0.51100000000E-03 0. -1.
        -11    1    3    3    0    0  0.64112018657E+01  0.38461311100E+00 -0.73289698781E+01  0.97450108437E+01  0.51100000000E-03 0.  1.
        -12    1    3    3    0    0 -0.11708617202E+02 -0.34978221743E+02 -0.14957433576E+02  0.39803172390E+02  0.00000000000E+00 0.  1.
</event>
<event>
 7    1  0.1910099E-015  0.9000791E+02  0.7816164E-02  0.1186339E+00
        -11   -1    0    0    0    0  0.00000000000E+00  0.00000000000E+00  0.45593999997E+02  0.45594000000E+02  0.51100000000E-03 0.  1.
         11   -1    0    0    0    0 -0.00000000000E+00 -0.00000000000E+00 -0.45593999997E+02  0.45594000000E+02  0.51100000000E-03 0. -1.
    9900012    2    1    2    0    0  0.93357254766E+00 -0.48264421486E+00 -0.53675692991E+00  0.90007910537E+02  0.90000174155E+02 0.  0.
        -12    1    1    2    0    0 -0.93357254766E+00  0.48264421486E+00  0.53675692991E+00  0.11800894634E+01  0.00000000000E+00 0.  1.
         11    1    3    3    0    0 -0.23557224711E+01  0.96470883580E+01 -0.71717748523E+01  0.12249493742E+02  0.51100000000E-03 0. -1.
        -11    1    3    3    0    0  0.15199279503E+02  0.13401094623E+02  0.34109421103E+02  0.39674425550E+02  0.51100000000E-03 0.  1.
         12    1    3    3    0    0 -0.11909984484E+02 -0.23530827196E+02 -0.27474403181E+02  0.38083991244E+02  0.00000000000E+00 0. -1.
</event>
<event>
 7    1  0.1910099E-015  0.9000791E+02  0.7816164E-02  0.1186339E+00
        -11   -1    0    0    0    0  0.00000000000E+00  0.00000000000E+00  0.45593999997E+02  0.45594000000E+02  0.51100000000E-03 0.  1.
         11   -1    0    0    0    0 -0.00000000000E+00 -0.00000000000E+00 -0.45593999997E+02  0.45594000000E+02  0.51100000000E-03 0. -1.
    9900012    2    1    2    0    0 -0.14965210953E+00  0.10529977673E+01 -0.51127491167E+00  0.90007914373E+02  0.90000178042E+02 0.  0.
        -12    1    1    2    0    0  0.14965210953E+00 -0.10529977673E+01  0.51127491167E+00  0.11800856271E+01  0.00000000000E+00 0.  1.
         11    1    3    3    0    0 -0.13509453725E+01 -0.45817219242E+01  0.72672356919E+01  0.86965478239E+01  0.51100000000E-03 0. -1.
        -11    1    3    3    0    0 -0.25080426334E+02  0.13059039147E+02  0.25627985723E+02  0.38162284274E+02  0.51100000000E-03 0.  1.
         12    1    3    3    0    0  0.26281719596E+02 -0.74243194558E+01 -0.33406496327E+02  0.43149082275E+02  0.00000000000E+00 0. -1.
</event>
<event>
 7    1  0.1910099E-015  0.9000771E+02  0.7816164E-02  0.1186339E+00
        -11   -1    0    0    0    0  0.00000000000E+00  0.00000000000E+00  0.45593999997E+02  0.45594000000E+02  0.51100000000E-03 0. -1.
         11   -1    0    0    0    0 -0.00000000000E+00 -0.00000000000E+00 -0.45593999997E+02  0.45594000000E+02  0.51100000000E-03 0.  1.
    9900012    2    1    2    0    0  0.49319323015E+00  0.94162531863E+00  0.51302671724E+00  0.90007705878E+02  0.89999966795E+02 0.  0.
        -12    1    1    2    0    0 -0.49319323015E+00 -0.94162531863E+00 -0.51302671724E+00  0.11802941225E+01  0.00000000000E+00 0.  1.
         11    1    3    3    0    0  0.12314326583E+02 -0.17173897476E+02  0.37156833000E+02  0.42745942878E+02  0.51100000000E-03 0. -1.
        -11    1    3    3    0    0 -0.72626037999E+01  0.19382716579E+01 -0.65929255943E+00  0.75456595414E+01  0.51100000000E-03 0.  1.
        -12    1    3    3    0    0 -0.45585295526E+01  0.16177251136E+02 -0.35984513723E+02  0.39716103458E+02  0.00000000000E+00 0.  1.
</event>
<event>
 7    1  0.1910099E-015  0.9000761E+02  0.7816164E-02  0.1186339E+00
        -11   -1    0    0    0    0  0.00000000000E+00  0.00000000000E+00  0.45593999997E+02  0.45594000000E+02  0.51100000000E-03 0.  1.
         11   -1    0    0    0    0 -0.00000000000E+00 -0.00000000000E+00 -0.45593999997E+02  0.45594000000E+02  0.51100000000E-03 0. -1.
    9900012    2    1    2    0    0  0.94663703280E+00  0.31255851056E+00 -0.63206831186E+00  0.90007608181E+02  0.89999867809E+02 0.  0.
        -12    1    1    2    0    0 -0.94663703280E+00 -0.31255851056E+00  0.63206831186E+00  0.11803918185E+01  0.00000000000E+00 0.  1.
         11    1    3    3    0    0 -0.55565152457E+01 -0.37739249839E+01 -0.71204482931E+01  0.97886748652E+01  0.51100000000E-03 0. -1.
        -11    1    3    3    0    0  0.42913146084E+02 -0.16854030690E+01  0.10811706399E+01  0.42959837296E+02  0.51100000000E-03 0.  1.
         12    1    3    3    0    0 -0.36409993805E+02  0.57718865635E+01  0.54072093414E+01  0.37259096020E+02  0.00000000000E+00 0. -1.
</event>
<event>
 7    1  0.1910099E-015  0.9000769E+02  0.7816164E-02  0.1186339E+00
        -11   -1    0    0    0    0  0.00000000000E+00  0.00000000000E+00  0.45593999997E+02  0.45594000000E+02  0.51100000000E-03 0.  1.
         11   -1    0    0    0    0 -0.00000000000E+00 -0.00000000000E+00 -0.45593999997E+02  0.45594000000E+02  0.51100000000E-03 0. -1.
    9900012    2    1    2    0    0  0.24071027334E+00 -0.81592419118E+00 -0.81820767461E+00  0.90007687533E+02  0.89999948208E+02 0.  0.
        -12    1    1    2    0    0 -0.24071027334E+00  0.81592419118E+00  0.81820767461E+00  0.11803124672E+01  0.00000000000E+00 0.  1.
         11    1    3    3    0    0  0.13152052666E+01 -0.18469534629E+02 -0.29397507482E+02  0.34742868632E+02  0.51100000000E-03 0. -1.
        -11    1    3    3    0    0  0.17178293112E+02 -0.38868438563E+01  0.45526088558E+01  0.18191414378E+02  0.51100000000E-03 0.  1.
        -12    1    3    3    0    0 -0.18252788106E+02  0.21540454294E+02  0.24026690952E+02  0.37073404523E+02  0.00000000000E+00 0.  1.
</event>
<event>
 7    1  0.1910099E-015  0.9000795E+02  0.7816164E-02  0.1186339E+00
        -11   -1    0    0    0    0  0.00000000000E+00  0.00000000000E+00  0.45593999997E+02  0.45594000000E+02  0.51100000000E-03 0.  1.
         11   -1    0    0    0    0 -0.00000000000E+00 -0.00000000000E+00 -0.45593999997E+02  0.45594000000E+02  0.51100000000E-03 0. -1.
    9900012    2    1    2    0    0 -0.21473960522E+00 -0.10641815230E+01 -0.46251485453E+00  0.90007951102E+02  0.90000215256E+02 0.  0.
        -12    1    1    2    0    0  0.21473960522E+00  0.10641815230E+01  0.46251485453E+00  0.11800488984E+01  0.00000000000E+00 0.  1.
         11    1    3    3    0    0  0.95961441324E+01 -0.15541435026E+02 -0.35667663936E+02  0.40072489763E+02  0.51100000000E-03 0. -1.
        -11    1    3    3    0    0 -0.38888304514E+01  0.11563117400E+01 -0.54220843202E+01  0.67719316119E+01  0.51100000000E-03 0.  1.
        -12    1    3    3    0    0 -0.59220532862E+01  0.13320941763E+02  0.40627233402E+02  0.43163529727E+02  0.00000000000E+00 0.  1.
</event>
<event>
 7    1  0.1910099E-015  0.9000778E+02  0.7816164E-02  0.1186339E+00
        -11   -1    0    0    0    0  0.00000000000E+00  0.00000000000E+00  0.45593999997E+02  0.45594000000E+02  0.51100000000E-03 0.  1.
         11   -1    0    0    0    0 -0.00000000000E+00 -0.00000000000E+00 -0.45593999997E+02  0.45594000000E+02  0.51100000000E-03 0. -1.
    9900012    2    1    2    0    0 -0.49700435554E+00  0.68735593582E+00 -0.82063340599E+00  0.90007783622E+02  0.90000045566E+02 0.  0.
        -12    1    1    2    0    0  0.49700435554E+00 -0.68735593582E+00  0.82063340599E+00  0.11802163780E+01  0.00000000000E+00 0.  1.
         11    1    3    3    0    0 -0.18598026837E+02  0.13489695990E+02  0.28050661013E+02  0.36258765611E+02  0.51100000000E-03 0. -1.
        -11    1    3    3    0    0 -0.54060004622E+01 -0.59477992036E+01  0.67688432750E+01  0.10508015793E+02  0.51100000000E-03 0.  1.
        -12    1    3    3    0    0  0.23507022944E+02 -0.68545408510E+01 -0.35640137694E+02  0.43241002218E+02  0.00000000000E+00 0.  1.
</event>
<event>
 7    1  0.1910099E-015  0.9000768E+02  0.7816164E-02  0.1186339E+00
        -11   -1    0    0    0    0  0.00000000000E+00  0.00000000000E+00  0.45593999997E+02  0.45594000000E+02  0.51100000000E-03 0.  1.
         11   -1    0    0    0    0 -0.00000000000E+00 -0.00000000000E+00 -0.45593999997E+02  0.45594000000E+02  0.51100000000E-03 0. -1.
    9900012    2    1    2    0    0 -0.38174580550E+00 -0.23280416952E+00 -0.10923469788E+01  0.90007682431E+02  0.89999943039E+02 0.  0.
        -12    1    1    2    0    0  0.38174580550E+00  0.23280416952E+00  0.10923469788E+01  0.11803175689E+01  0.00000000000E+00 0.  1.
         11    1    3    3    0    0  0.14559239320E+01 -0.80016966469E+00 -0.40168499405E+02  0.40202839834E+02  0.51100000000E-03 0. -1.
        -11    1    3    3    0    0  0.10700131766E+01 -0.87538834146E+01 -0.70093924844E+00  0.88468479769E+01  0.51100000000E-03 0.  1.
        -12    1    3    3    0    0 -0.29076829141E+01  0.93212489098E+01  0.39777091675E+02  0.40957994620E+02  0.00000000000E+00 0.  1.
</event>
<event>
 7    1  0.1910099E-015  0.9000724E+02  0.7816164E-02  0.1186340E+00
        -11   -1    0    0    0    0  0.00000000000E+00  0.00000000000E+00  0.45593999997E+02  0.45594000000E+02  0.51100000000E-03 0. -1.
         11   -1    0    0    0    0 -0.00000000000E+00 -0.00000000000E+00 -0.45593999997E+02  0.45594000000E+02  0.51100000000E-03 0.  1.
    9900012    2    1    2    0    0 -0.10576248534E+01 -0.87896751211E-01  0.51759635045E+00  0.90007236623E+02  0.89999491345E+02 0.  0.
        -12    1    1    2    0    0  0.10576248534E+01  0.87896751211E-01 -0.51759635045E+00  0.11807633766E+01  0.00000000000E+00 0.  1.
         11    1    3    3    0    0 -0.44715966102E+01  0.26929908364E+01 -0.85326756639E+01  0.10002696143E+02  0.51100000000E-03 0. -1.
        -11    1    3    3    0    0  0.18242681875E+02  0.29452265321E+02 -0.14353849240E+02  0.37500191504E+02  0.51100000000E-03 0.  1.
         12    1    3    3    0    0 -0.14828710118E+02 -0.32233152909E+02  0.23404121255E+02  0.42504348976E+02  0.00000000000E+00 0. -1.
</event>
<event>
 7    1  0.1910099E-015  0.9000756E+02  0.7816164E-02  0.1186339E+00
        -11   -1    0    0    0    0  0.00000000000E+00  0.00000000000E+00  0.45593999997E+02  0.45594000000E+02  0.51100000000E-03 0. -1.
         11   -1    0    0    0    0 -0.00000000000E+00 -0.00000000000E+00 -0.45593999997E+02  0.45594000000E+02  0.51100000000E-03 0.  1.
    9900012    2    1    2    0    0  0.11411996191E+01  0.74757953731E-01  0.29241458003E+00  0.90007562959E+02  0.89999821989E+02 0.  0.
        -12    1    1    2    0    0 -0.11411996191E+01 -0.74757953731E-01 -0.29241458003E+00  0.11804370414E+01  0.00000000000E+00 0.  1.
         11    1    3    3    0    0  0.46974785147E+01  0.66083819420E+01 -0.38987455389E+00  0.81172051050E+01  0.51100000000E-03 0. -1.
        -11    1    3    3    0    0  0.83517301993E+01  0.35188566136E+02 -0.93545759480E+01  0.37356320421E+02  0.51100000000E-03 0.  1.
         12    1    3    3    0    0 -0.11908009095E+02 -0.41722190124E+02  0.10036865082E+02  0.44534037432E+02  0.00000000000E+00 0. -1.
</event>
<event>
 7    1  0.1910099E-015  0.9000787E+02  0.7816164E-02  0.1186339E+00
        -11   -1    0    0    0    0  0.00000000000E+00  0.00000000000E+00  0.45593999997E+02  0.45594000000E+02  0.51100000000E-03 0.  1.
         11   -1    0    0    0    0 -0.00000000000E+00 -0.00000000000E+00 -0.45593999997E+02  0.45594000000E+02  0.51100000000E-03 0. -1.
    9900012    2    1    2    0    0 -0.80435313302E+00  0.84288110813E+00  0.18779641263E+00  0.90007872881E+02  0.90000136003E+02 0.  0.
        -12    1    1    2    0    0  0.80435313302E+00 -0.84288110813E+00 -0.18779641263E+00  0.11801271193E+01  0.00000000000E+00 0.  1.
         11    1    3    3    0    0  0.14496546016E+01 -0.59163415679E+01 -0.87840597457E+01  0.10689448156E+02  0.51100000000E-03 0. -1.
        -11    1    3    3    0    0 -0.31332014030E+02 -0.19016185390E+02 -0.69873446947E+01  0.37311303865E+02  0.51100000000E-03 0.  1.
         12    1    3    3    0    0  0.29078006295E+02  0.25775408066E+02  0.15959200853E+02  0.42007120860E+02  0.00000000000E+00 0. -1.
</event>
<event>
 7    1  0.1910099E-015  0.9000768E+02  0.7816164E-02  0.1186339E+00
        -11   -1    0    0    0    0  0.00000000000E+00  0.00000000000E+00  0.45593999997E+02  0.45594000000E+02  0.51100000000E-03 0.  1.
         11   -1    0    0    0    0 -0.00000000000E+00 -0.00000000000E+00 -0.45593999997E+02  0.45594000000E+02  0.51100000000E-03 0. -1.
    9900012    2    1    2    0    0  0.10986211953E+01 -0.98461654761E-01  0.42011551863E+00  0.90007677893E+02  0.89999938441E+02 0.  0.
        -12    1    1    2    0    0 -0.10986211953E+01  0.98461654761E-01 -0.42011551863E+00  0.11803221074E+01  0.00000000000E+00 0.  1.
         11    1    3    3    0    0 -0.30524931182E+01 -0.87098328517E+01 -0.29645028051E+01  0.96936669885E+01  0.51100000000E-03 0. -1.
        -11    1    3    3    0    0 -0.17905448627E+02 -0.71783158694E+01  0.34196941272E+02  0.39262757186E+02  0.51100000000E-03 0.  1.
         12    1    3    3    0    0  0.22056562940E+02  0.15789687066E+02 -0.30812322948E+02  0.41051253718E+02  0.00000000000E+00 0. -1.
</event>
<event>
 7    1  0.1910099E-015  0.9000771E+02  0.7816164E-02  0.1186339E+00
        -11   -1    0    0    0    0  0.00000000000E+00  0.00000000000E+00  0.45593999997E+02  0.45594000000E+02  0.51100000000E-03 0.  1.
         11   -1    0    0    0    0 -0.00000000000E+00 -0.00000000000E+00 -0.45593999997E+02  0.45594000000E+02  0.51100000000E-03 0. -1.
    9900012    2    1    2    0    0 -0.29808527705E-02 -0.97744462266E+00 -0.66156445323E+00  0.90007714271E+02  0.89999975300E+02 0.  0.
        -12    1    1    2    0    0  0.29808527705E-02  0.97744462266E+00  0.66156445323E+00  0.11802857288E+01  0.00000000000E+00 0.  1.
         11    1    3    3    0    0  0.37576891864E+02  0.26006548982E+01 -0.13598661791E+02  0.40046345786E+02  0.51100000000E-03 0. -1.
        -11    1    3    3    0    0 -0.36002586574E+01 -0.73152086948E+01 -0.66868946687E+01  0.10544605314E+02  0.51100000000E-03 0.  1.
        -12    1    3    3    0    0 -0.33979614060E+02  0.37371091740E+01  0.19623992006E+02  0.39416763171E+02  0.00000000000E+00 0.  1.
</event>
<event>
 7    1  0.1910099E-015  0.9000777E+02  0.7816164E-02  0.1186339E+00
        -11   -1    0    0    0    0  0.00000000000E+00  0.00000000000E+00  0.45593999997E+02  0.45594000000E+02  0.51100000000E-03 0.  1.
         11   -1    0    0    0    0 -0.00000000000E+00 -0.00000000000E+00 -0.45593999997E+02  0.45594000000E+02  0.51100000000E-03 0. -1.
    9900012    2    1    2    0    0  0.11005475433E+01  0.42254258211E+00 -0.56605249936E-01  0.90007766429E+02  0.90000028145E+02 0.  0.
        -12    1    1    2    0    0 -0.11005475433E+01 -0.42254258211E+00  0.56605249936E-01  0.11802335714E+01  0.00000000000E+00 0.  1.
         11    1    3    3    0    0 -0.41154318809E+01 -0.22439827519E+01  0.89914090032E+01  0.10139905043E+02  0.51100000000E-03 0. -1.
        -11    1    3    3    0    0  0.26423388049E+02 -0.29939531098E+02  0.50276376631E-02  0.39932079634E+02  0.51100000000E-03 0.  1.
         12    1    3    3    0    0 -0.21207408625E+02  0.32606056432E+02 -0.90530418908E+01  0.39935781752E+02  0.00000000000E+00 0. -1.
</event>
<event>
 7    1  0.1910099E-015  0.9000766E+02  0.7816164E-02  0.1186339E+00
        -11   -1    0    0    0    0  0.00000000000E+00  0.00000000000E+00  0.45593999997E+02  0.45594000000E+02  0.51100000000E-03 0. -1.
         11   -1    0    0    0    0 -0.00000000000E+00 -0.00000000000E+00 -0.45593999997E+02  0.45594000000E+02  0.51100000000E-03 0.  1.
    9900012    2    1    2    0    0 -0.22109770731E+00  0.11124375484E+01  0.32680556486E+00  0.90007659637E+02  0.89999919944E+02 0.  0.
        -12    1    1    2    0    0  0.22109770731E+00 -0.11124375484E+01 -0.32680556486E+00  0.11803403630E+01  0.00000000000E+00 0.  1.
         11    1    3    3    0    0 -0.44989112024E+01  0.42683201514E+02  0.38301421138E+01  0.43090206339E+02  0.51100000000E-03 0. -1.
        -11    1    3    3    0    0 -0.23682975933E+01 -0.32141351991E+01 -0.67625156501E+01  0.78530959976E+01  0.51100000000E-03 0.  1.
        -12    1    3    3    0    0  0.66461110883E+01 -0.38356628766E+02  0.32591791012E+01  0.39064357301E+02  0.00000000000E+00 0.  1.
</event>
<event>
 7    1  0.1910099E-015  0.9000780E+02  0.7816164E-02  0.1186339E+00
        -11   -1    0    0    0    0  0.00000000000E+00  0.00000000000E+00  0.45593999997E+02  0.45594000000E+02  0.51100000000E-03 0.  1.
         11   -1    0    0    0    0 -0.00000000000E+00 -0.00000000000E+00 -0.45593999997E+02  0.45594000000E+02  0.51100000000E-03 0. -1.
    9900012    2    1    2    0    0 -0.10058895465E+01  0.61690697469E+00 -0.21926785060E-01  0.90007801382E+02  0.90000063560E+02 0.  0.
        -12    1    1    2    0    0  0.10058895465E+01 -0.61690697469E+00  0.21926785060E-01  0.11801986185E+01  0.00000000000E+00 0.  1.
         11    1    3    3    0    0 -0.34514066176E+01  0.28228258654E+01  0.77239346899E+01  0.89185044072E+01  0.51100000000E-03 0. -1.
        -11    1    3    3    0    0 -0.20363946373E+02  0.17603988646E+02  0.24857986686E+02  0.36640281528E+02  0.51100000000E-03 0.  1.
         12    1    3    3    0    0  0.22809463444E+02 -0.19809907537E+02 -0.32603848161E+02  0.44449015446E+02  0.00000000000E+00 0. -1.
</event>
<event>
 7    1  0.1910099E-015  0.9000776E+02  0.7816164E-02  0.1186339E+00
        -11   -1    0    0    0    0  0.00000000000E+00  0.00000000000E+00  0.45593999997E+02  0.45594000000E+02  0.51100000000E-03 0. -1.
         11   -1    0    0    0    0 -0.00000000000E+00 -0.00000000000E+00 -0.45593999997E+02  0.45594000000E+02  0.51100000000E-03 0.  1.
    9900012    2    1    2    0    0 -0.57149452028E+00 -0.64226438354E+00  0.80861677739E+00  0.90007758238E+02  0.90000019846E+02 0.  0.
        -12    1    1    2    0    0  0.57149452028E+00  0.64226438354E+00 -0.80861677739E+00  0.11802417624E+01  0.00000000000E+00 0.  1.
         11    1    3    3    0    0  0.40601894815E+01 -0.99862475834E+01  0.80334712517E-01  0.10780386512E+02  0.51100000000E-03 0. -1.
        -11    1    3    3    0    0 -0.44031724675E-01 -0.27796900485E+02 -0.21994310664E+02  0.35446005659E+02  0.51100000000E-03 0.  1.
         12    1    3    3    0    0 -0.45876522771E+01  0.37140883685E+02  0.22722592729E+02  0.43781366066E+02  0.00000000000E+00 0. -1.
</event>
<event>
 7    1  0.1910099E-015  0.9000771E+02  0.7816164E-02  0.1186339E+00
        -11   -1    0    0    0    0  0.00000000000E+00  0.00000000000E+00  0.45593999997E+02  0.45594000000E+02  0.51100000000E-03 0.  1.
         11   -1    0    0    0    0 -0.00000000000E+00 -0.00000000000E+00 -0.45593999997E+02  0.45594000000E+02  0.51100000000E-03 0. -1.
    9900012    2    1    2    0    0 -0.42255971140E+00 -0.42782541161E+00 -0.10156282808E+01  0.90007706775E+02  0.89999967704E+02 0.  0.
        -12    1    1    2    0    0  0.42255971140E+00  0.42782541161E+00  0.10156282808E+01  0.11802932251E+01  0.00000000000E+00 0.  1.
         11    1    3    3    0    0  0.72881911498E+01 -0.43376646215E+01 -0.30281709463E+01  0.90057139721E+01  0.51100000000E-03 0. -1.
        -11    1    3    3    0    0  0.31950797504E+02 -0.15743182264E+02 -0.56979302717E+01  0.36071701632E+02  0.51100000000E-03 0.  1.
         12    1    3    3    0    0 -0.39661548366E+02  0.19653021474E+02  0.77104729373E+01  0.44930291171E+02  0.00000000000E+00 0. -1.
</event>
<event>
 7    1  0.1910099E-015  0.9000780E+02  0.7816164E-02  0.1186339E+00
        -11   -1    0    0    0    0  0.00000000000E+00  0.00000000000E+00  0.45593999997E+02  0.45594000000E+02  0.51100000000E-03 0.  1.
         11   -1    0    0    0    0 -0.00000000000E+00 -0.00000000000E+00 -0.45593999997E+02  0.45594000000E+02  0.51100000000E-03 0. -1.
    9900012    2    1    2    0    0  0.52643101384E+00  0.12180606082E+00 -0.10492382365E+01  0.90007802048E+02  0.90000064235E+02 0.  0.
        -12    1    1    2    0    0 -0.52643101384E+00 -0.12180606082E+00  0.10492382365E+01  0.11801979519E+01  0.00000000000E+00 0.  1.
         11    1    3    3    0    0 -0.30557577711E+02 -0.54833422206E+01 -0.16499660627E+02  0.35157807078E+02  0.51100000000E-03 0. -1.
        -11    1    3    3    0    0 -0.64847243288E+01 -0.52224619873E+01 -0.59920792046E+01  0.10258205120E+02  0.51100000000E-03 0.  1.
        -12    1    3    3    0    0  0.37568733054E+02  0.10827610269E+02  0.21442501595E+02  0.44591789850E+02  0.00000000000E+00 0.  1.
</event>
<event>
 7    1  0.1910099E-015  0.9000772E+02  0.7816164E-02  0.1186339E+00
        -11   -1    0    0    0    0  0.00000000000E+00  0.00000000000E+00  0.45593999997E+02  0.45594000000E+02  0.51100000000E-03 0.  1.
         11   -1    0    0    0    0 -0.00000000000E+00 -0.00000000000E+00 -0.45593999997E+02  0.45594000000E+02  0.51100000000E-03 0. -1.
    9900012    2    1    2    0    0 -0.72890629324E+00  0.28600115645E+00 -0.88315934573E+00  0.90007715511E+02  0.89999976555E+02 0.  0.
        -12    1    1    2    0    0  0.72890629324E+00 -0.28600115645E+00  0.88315934573E+00  0.11802844893E+01  0.00000000000E+00 0.  1.
         11    1    3    3    0    0 -0.24466906948E+00  0.35797675727E+01  0.76492813238E+01  0.84490297584E+01  0.51100000000E-03 0. -1.
        -11    1    3    3    0    0 -0.21347707857E+02 -0.23399959372E+02  0.22690039784E+02  0.38963067577E+02  0.51100000000E-03 0.  1.
         12    1    3    3    0    0  0.20863470633E+02  0.20106192955E+02 -0.31222480454E+02  0.42595618175E+02  0.00000000000E+00 0. -1.
</event>
<event>
 7    1  0.1910099E-015  0.9000765E+02  0.7816164E-02  0.1186339E+00
        -11   -1    0    0    0    0  0.00000000000E+00  0.00000000000E+00  0.45593999997E+02  0.45594000000E+02  0.51100000000E-03 0.  1.
         11   -1    0    0    0    0 -0.00000000000E+00 -0.00000000000E+00 -0.45593999997E+02  0.45594000000E+02  0.51100000000E-03 0. -1.
    9900012    2    1    2    0    0  0.39141560802E+00 -0.11061128839E+01  0.12858568136E+00  0.90007649981E+02  0.89999910161E+02 0.  0.
        -12    1    1    2    0    0 -0.39141560802E+00  0.11061128839E+01 -0.12858568136E+00  0.11803500191E+01  0.00000000000E+00 0.  1.
         11    1    3    3    0    0 -0.22263397872E+02 -0.73517900255E+01 -0.26404930173E+02  0.35311868247E+02  0.51100000000E-03 0. -1.
        -11    1    3    3    0    0 -0.93687226154E+01  0.73795010834E+00 -0.39007654973E+01  0.10175141549E+02  0.51100000000E-03 0.  1.
        -12    1    3    3    0    0  0.32023536095E+02  0.55077270333E+01  0.30434281352E+02  0.44520640185E+02  0.00000000000E+00 0.  1.
</event>
<event>
 7    1  0.1910099E-015  0.9000758E+02  0.7816164E-02  0.1186339E+00
        -11   -1    0    0    0    0  0.00000000000E+00  0.00000000000E+00  0.45593999997E+02  0.45594000000E+02  0.51100000000E-03 0.  1.
         11   -1    0    0    0    0 -0.00000000000E+00 -0.00000000000E+00 -0.45593999997E+02  0.45594000000E+02  0.51100000000E-03 0. -1.
    9900012    2    1    2    0    0 -0.11124912502E+01 -0.27139228365E+00 -0.28652684544E+00  0.90007581351E+02  0.89999840625E+02 0.  0.
        -12    1    1    2    0    0  0.11124912502E+01  0.27139228365E+00  0.28652684544E+00  0.11804186488E+01  0.00000000000E+00 0.  1.
         11    1    3    3    0    0 -0.67233937869E+00 -0.23931590635E+01  0.13113107809E+02  0.13346641795E+02  0.51100000000E-03 0. -1.
        -11    1    3    3    0    0 -0.96025117153E+01  0.31076204933E+02  0.14323949396E+02  0.35540318947E+02  0.51100000000E-03 0.  1.
         12    1    3    3    0    0  0.91623598438E+01 -0.28954438153E+02 -0.27723584050E+02  0.41120620609E+02  0.00000000000E+00 0. -1.
</event>
<event>
 7    1  0.1910099E-015  0.9000778E+02  0.7816164E-02  0.1186339E+00
        -11   -1    0    0    0    0  0.00000000000E+00  0.00000000000E+00  0.45593999997E+02  0.45594000000E+02  0.51100000000E-03 0.  1.
         11   -1    0    0    0    0 -0.00000000000E+00 -0.00000000000E+00 -0.45593999997E+02  0.45594000000E+02  0.51100000000E-03 0. -1.
    9900012    2    1    2    0    0  0.44759010772E+00  0.61356450550E-01 -0.10903240941E+01  0.90007784702E+02  0.90000046660E+02 0.  0.
        -12    1    1    2    0    0 -0.44759010772E+00 -0.61356450550E-01  0.10903240941E+01  0.11802152977E+01  0.00000000000E+00 0.  1.
         11    1    3    3    0    0  0.25351362622E+02  0.16280264809E+02 -0.19749217195E+02  0.36024577570E+02  0.51100000000E-03 0. -1.
        -11    1    3    3    0    0  0.46509580804E+01  0.54812946759E+01 -0.63572641013E+01  0.95963956517E+01  0.51100000000E-03 0.  1.
        -12    1    3    3    0    0 -0.29554730595E+02 -0.21700203034E+02  0.25016157202E+02  0.44386811480E+02  0.00000000000E+00 0.  1.
</event>
<event>
 7    1  0.1910099E-015  0.9000769E+02  0.7816164E-02  0.1186339E+00
        -11   -1    0    0    0    0  0.00000000000E+00  0.00000000000E+00  0.45593999997E+02  0.45594000000E+02  0.51100000000E-03 0. -1.
         11   -1    0    0    0    0 -0.00000000000E+00 -0.00000000000E+00 -0.45593999997E+02  0.45594000000E+02  0.51100000000E-03 0.  1.
    9900012    2    1    2    0    0  0.48555618752E+00 -0.18891436170E+00  0.10590942573E+01  0.90007688985E+02  0.89999949679E+02 0.  0.
        -12    1    1    2    0    0 -0.48555618752E+00  0.18891436170E+00 -0.10590942573E+01  0.11803110154E+01  0.00000000000E+00 0.  1.
         11    1    3    3    0    0  0.25035115920E+02  0.14224058752E+02  0.26757324019E+02  0.39306936607E+02  0.51100000000E-03 0. -1.
        -11    1    3    3    0    0 -0.70447786945E+01  0.24342874216E-01  0.76279556120E+01  0.10383410158E+02  0.51100000000E-03 0.  1.
        -12    1    3    3    0    0 -0.17504781038E+02 -0.14437315988E+02 -0.33326185374E+02  0.40317342220E+02  0.00000000000E+00 0.  1.
</event>
<event>
 7    1  0.1910099E-015  0.9000774E+02  0.7816164E-02  0.1186339E+00
        -11   -1    0    0    0    0  0.00000000000E+00  0.00000000000E+00  0.45593999997E+02  0.45594000000E+02  0.51100000000E-03 0. -1.
         11   -1    0    0    0    0 -0.00000000000E+00 -0.00000000000E+00 -0.45593999997E+02  0.45594000000E+02  0.51100000000E-03 0.  1.
    9900012    2    1    2    0    0 -0.39796167214E+00  0.38233574582E+00  0.10432955427E+01  0.90007737443E+02  0.89999998777E+02 0.  0.
        -12    1    1    2    0    0  0.39796167214E+00 -0.38233574582E+00 -0.10432955427E+01  0.11802625574E+01  0.00000000000E+00 0.  1.
         11    1    3    3    0    0 -0.69625400869E+01 -0.50063719036E+01  0.57421648386E+01  0.10320522341E+02  0.51100000000E-03 0. -1.
        -11    1    3    3    0    0 -0.22676707508E+02  0.32514809634E+02 -0.32636480103E+01  0.39775586828E+02  0.51100000000E-03 0.  1.
         12    1    3    3    0    0  0.29241285922E+02 -0.27126101985E+02 -0.14352212856E+01  0.39911628273E+02  0.00000000000E+00 0. -1.
</event>
<event>
 7    1  0.1910099E-015  0.9000771E+02  0.7816164E-02  0.1186339E+00
        -11   -1    0    0    0    0  0.00000000000E+00  0.00000000000E+00  0.45593999997E+02  0.45594000000E+02  0.51100000000E-03 0.  1.
         11   -1    0    0    0    0 -0.00000000000E+00 -0.00000000000E+00 -0.45593999997E+02  0.45594000000E+02  0.51100000000E-03 0. -1.
    9900012    2    1    2    0    0 -0.30599757997E+00  0.10850664736E-01 -0.11398825816E+01  0.90007709970E+02  0.89999970941E+02 0.  0.
        -12    1    1    2    0    0  0.30599757997E+00 -0.10850664736E-01  0.11398825816E+01  0.11802900303E+01  0.00000000000E+00 0.  1.
         11    1    3    3    0    0 -0.30517743181E+02 -0.22432937097E+01 -0.21897104907E+02  0.37627758624E+02  0.51100000000E-03 0. -1.
        -11    1    3    3    0    0 -0.23032331856E+00 -0.44344614590E+01 -0.85263437498E+01  0.96133259210E+01  0.51100000000E-03 0.  1.
        -12    1    3    3    0    0  0.30442068919E+02  0.66886058334E+01  0.29283566075E+02  0.42766625424E+02  0.00000000000E+00 0.  1.
</event>
<event>
 7    1  0.1910099E-015  0.9000773E+02  0.7816164E-02  0.1186339E+00
        -11   -1    0    0    0    0  0.00000000000E+00  0.00000000000E+00  0.45593999997E+02  0.45594000000E+02  0.51100000000E-03 0.  1.
         11   -1    0    0    0    0 -0.00000000000E+00 -0.00000000000E+00 -0.45593999997E+02  0.45594000000E+02  0.51100000000E-03 0. -1.
    9900012    2    1    2    0    0 -0.77052410047E+00 -0.78613886599E+00 -0.42579975278E+00  0.90007734295E+02  0.89999995587E+02 0.  0.
        -12    1    1    2    0    0  0.77052410047E+00  0.78613886599E+00  0.42579975278E+00  0.11802657055E+01  0.00000000000E+00 0.  1.
         11    1    3    3    0    0 -0.76579533635E+01  0.34898637422E+01  0.20912051827E+01  0.86715937424E+01  0.51100000000E-03 0. -1.
        -11    1    3    3    0    0  0.12976460514E+02  0.34211506626E+02  0.13780784277E+02  0.39098922346E+02  0.51100000000E-03 0.  1.
         12    1    3    3    0    0 -0.60890312506E+01 -0.38487509234E+02 -0.16297789212E+02  0.42237218206E+02  0.00000000000E+00 0. -1.
</event>
<event>
 7    1  0.1910099E-015  0.9000778E+02  0.7816164E-02  0.1186339E+00
        -11   -1    0    0    0    0  0.00000000000E+00  0.00000000000E+00  0.45593999997E+02  0.45594000000E+02  0.51100000000E-03 0.  1.
         11   -1    0    0    0    0 -0.00000000000E+00 -0.00000000000E+00 -0.45593999997E+02  0.45594000000E+02  0.51100000000E-03 0. -1.
    9900012    2    1    2    0    0  0.11205641071E+01  0.36817076076E+00 -0.41156901202E-01  0.90007784970E+02  0.90000046931E+02 0.  0.
        -12    1    1    2    0    0 -0.11205641071E+01 -0.36817076076E+00  0.41156901202E-01  0.11802150303E+01  0.00000000000E+00 0.  1.
         11    1    3    3    0    0 -0.96522912056E+01 -0.31559198831E+02 -0.18735076679E+02  0.37949345908E+02  0.51100000000E-03 0. -1.
        -11    1    3    3    0    0  0.93385004573E-01 -0.70404823399E+01  0.71546057047E+01  0.10038201800E+02  0.51100000000E-03 0.  1.
        -12    1    3    3    0    0  0.10679470308E+02  0.38967851932E+02  0.11539314073E+02  0.42020237262E+02  0.00000000000E+00 0.  1.
</event>
<event>
 7    1  0.1910099E-015  0.9000713E+02  0.7816164E-02  0.1186340E+00
        -11   -1    0    0    0    0  0.00000000000E+00  0.00000000000E+00  0.45593999997E+02  0.45594000000E+02  0.51100000000E-03 0.  1.
         11   -1    0    0    0    0 -0.00000000000E+00 -0.00000000000E+00 -0.45593999997E+02  0.45594000000E+02  0.51100000000E-03 0. -1.
    9900012    2    1    2    0    0  0.11503777850E+01 -0.16608816089E+00  0.20855853913E+00  0.90007131256E+02  0.89999384587E+02 0.  0.
        -12    1    1    2    0    0 -0.11503777850E+01  0.16608816089E+00 -0.20855853913E+00  0.11808687436E+01  0.00000000000E+00 0.  1.
         11    1    3    3    0    0  0.30283211461E+01  0.26711352486E+02 -0.17519818448E+02  0.32087553963E+02  0.51100000000E-03 0. -1.
        -11    1    3    3    0    0 -0.40646219974E+01  0.10101034568E+02 -0.73936873460E+01  0.13161256177E+02  0.51100000000E-03 0.  1.
        -12    1    3    3    0    0  0.21866786363E+01 -0.36978475216E+02  0.25122064334E+02  0.44758321116E+02  0.00000000000E+00 0.  1.
</event>
<event>
 7    1  0.1910099E-015  0.9000792E+02  0.7816164E-02  0.1186339E+00
        -11   -1    0    0    0    0  0.00000000000E+00  0.00000000000E+00  0.45593999997E+02  0.45594000000E+02  0.51100000000E-03 0. -1.
         11   -1    0    0    0    0 -0.00000000000E+00 -0.00000000000E+00 -0.45593999997E+02  0.45594000000E+02  0.51100000000E-03 0.  1.
    9900012    2    1    2    0    0  0.41497422482E+00  0.35249668371E-01  0.11041455715E+01  0.90007922210E+02  0.90000185983E+02 0.  0.
        -12    1    1    2    0    0 -0.41497422482E+00 -0.35249668371E-01 -0.11041455715E+01  0.11800777896E+01  0.00000000000E+00 0.  1.
         11    1    3    3    0    0 -0.28434223056E+02  0.27233403320E+02  0.48885171734E+01  0.39674436324E+02  0.51100000000E-03 0. -1.
        -11    1    3    3    0    0  0.32482717804E+01  0.47660794614E+01 -0.72154027745E+01  0.92373600368E+01  0.51100000000E-03 0.  1.
        -12    1    3    3    0    0  0.25600925500E+02 -0.31964233113E+02  0.34310311726E+01  0.41096125850E+02  0.00000000000E+00 0.  1.
</event>
<event>
 7    1  0.1910099E-015  0.9000771E+02  0.7816164E-02  0.1186339E+00
        -11   -1    0    0    0    0  0.00000000000E+00  0.00000000000E+00  0.45593999997E+02  0.45594000000E+02  0.51100000000E-03 0.  1.
         11   -1    0    0    0    0 -0.00000000000E+00 -0.00000000000E+00 -0.45593999997E+02  0.45594000000E+02  0.51100000000E-03 0. -1.
    9900012    2    1    2    0    0 -0.74405186675E-01  0.10340028412E+01 -0.56426791167E+00  0.90007705001E+02  0.89999965907E+02 0.  0.
        -12    1    1    2    0    0  0.74405186675E-01 -0.10340028412E+01  0.56426791167E+00  0.11802949986E+01  0.00000000000E+00 0.  1.
         11    1    3    3    0    0  0.43940976489E+01 -0.85836609961E+01  0.11275242904E+02  0.14836388814E+02  0.51100000000E-03 0. -1.
        -11    1    3    3    0    0  0.28428976960E+02  0.23810922696E+02 -0.13076632576E+02  0.39321305808E+02  0.51100000000E-03 0.  1.
         12    1    3    3    0    0 -0.32897479796E+02 -0.14193258859E+02  0.12371217612E+01  0.35850010379E+02  0.00000000000E+00 0. -1.
</event>
<event>
 7    1  0.1910099E-015  0.9000771E+02  0.7816164E-02  0.1186339E+00
        -11   -1    0    0    0    0  0.00000000000E+00  0.00000000000E+00  0.45593999997E+02  0.45594000000E+02  0.51100000000E-03 0.  1.
         11   -1    0    0    0    0 -0.00000000000E+00 -0.00000000000E+00 -0.45593999997E+02  0.45594000000E+02  0.51100000000E-03 0. -1.
    9900012    2    1    2    0    0  0.99104110643E+00  0.87514762147E-01  0.63503622800E+00  0.90007706681E+02  0.89999967609E+02 0.  0.
        -12    1    1    2    0    0 -0.99104110643E+00 -0.87514762147E-01 -0.63503622800E+00  0.11802933191E+01  0.00000000000E+00 0.  1.
         11    1    3    3    0    0 -0.36488140086E+02 -0.15433159111E+02 -0.17379251732E+01  0.39655858978E+02  0.51100000000E-03 0. -1.
        -11    1    3    3    0    0 -0.20042803094E+01  0.80872707863E+01 -0.46861121414E+01  0.95593271517E+01  0.51100000000E-03 0.  1.
        -12    1    3    3    0    0  0.39483461502E+02  0.74334030872E+01  0.70590735427E+01  0.40792520551E+02  0.00000000000E+00 0.  1.
</event>
<event>
 7    1  0.1910099E-015  0.9000787E+02  0.7816164E-02  0.1186339E+00
        -11   -1    0    0    0    0  0.00000000000E+00  0.00000000000E+00  0.45593999997E+02  0.45594000000E+02  0.51100000000E-03 0. -1.
         11   -1    0    0    0    0 -0.00000000000E+00 -0.00000000000E+00 -0.45593999997E+02  0.45594000000E+02  0.51100000000E-03 0.  1.
    9900012    2    1    2    0    0 -0.94861147911E+00  0.55361037771E+00  0.43169615525E+00  0.90007868753E+02  0.90000131821E+02 0.  0.
        -12    1    1    2    0    0  0.94861147911E+00 -0.55361037771E+00 -0.43169615525E+00  0.11801312465E+01  0.00000000000E+00 0.  1.
         11    1    3    3    0    0 -0.24372890673E+02 -0.18937539464E+02 -0.10228239100E+02  0.32515920348E+02  0.51100000000E-03 0. -1.
        -11    1    3    3    0    0  0.91547108857E+01 -0.15672119637E+02  0.66600325834E+01  0.19333393381E+02  0.51100000000E-03 0.  1.
        -12    1    3    3    0    0  0.14269568308E+02  0.35163269480E+02  0.39999026716E+01  0.38158555025E+02  0.00000000000E+00 0.  1.
</event>
<event>
 7    1  0.1910099E-015  0.9000771E+02  0.7816164E-02  0.1186339E+00
        -11   -1    0    0    0    0  0.00000000000E+00  0.00000000000E+00  0.45593999997E+02  0.45594000000E+02  0.51100000000E-03 0. -1.
         11   -1    0    0    0    0 -0.00000000000E+00 -0.00000000000E+00 -0.45593999997E+02  0.45594000000E+02  0.51100000000E-03 0.  1.
    9900012    2    1    2    0    0 -0.11148930074E+01  0.12664475220E+00 -0.36614274047E+00  0.90007709435E+02  0.89999970400E+02 0.  0.
        -12    1    1    2    0    0  0.11148930074E+01 -0.12664475220E+00  0.36614274047E+00  0.11802905649E+01  0.00000000000E+00 0.  1.
         11    1    3    3    0    0  0.23139192119E+02 -0.29143167638E+01  0.25954770407E+02  0.34893632101E+02  0.51100000000E-03 0. -1.
        -11    1    3    3    0    0  0.56128289966E+01 -0.17989465942E+00  0.78271803960E+01  0.96333257313E+01  0.51100000000E-03 0.  1.
        -12    1    3    3    0    0 -0.29866914123E+02  0.32208561755E+01 -0.34148093543E+02  0.45480751603E+02  0.00000000000E+00 0.  1.
</event>
<event>
 7    1  0.2728323E-015  0.9000778E+02  0.7816164E-02  0.1186339E+00
        -11   -1    0    0    0    0  0.00000000000E+00  0.00000000000E+00  0.45593999997E+02  0.45594000000E+02  0.51100000000E-03 0.  1.
         11   -1    0    0    0    0 -0.00000000000E+00 -0.00000000000E+00 -0.45593999997E+02  0.45594000000E+02  0.51100000000E-03 0. -1.
    9900012    2    1    2    0    0 -0.19294225860E+00  0.57660805820E+00 -0.10115454075E+01  0.90007776428E+02  0.90000038277E+02 0.  0.
        -12    1    1    2    0    0  0.19294225860E+00 -0.57660805820E+00  0.10115454075E+01  0.11802235718E+01  0.00000000000E+00 0.  1.
         11    1    3    3    0    0  0.94130773523E+01  0.95870628665E+00  0.36232802752E+01  0.10131796642E+02  0.51100000000E-03 0. -1.
        -11    1    3    3    0    0 -0.17287329126E+02 -0.26178575219E+02  0.24800113116E+02  0.39990188292E+02  0.51100000000E-03 0.  1.
         12    1    3    3    0    0  0.76813095148E+01  0.25796476991E+02 -0.29434938799E+02  0.39885791494E+02  0.00000000000E+00 0. -1.
</event>
<event>
 7    1  0.1910099E-015  0.9000766E+02  0.7816164E-02  0.1186339E+00
        -11   -1    0    0    0    0  0.00000000000E+00  0.00000000000E+00  0.45593999997E+02  0.45594000000E+02  0.51100000000E-03 0. -1.
         11   -1    0    0    0    0 -0.00000000000E+00 -0.00000000000E+00 -0.45593999997E+02  0.45594000000E+02  0.51100000000E-03 0.  1.
    9900012    2    1    2    0    0  0.33663340463E+00 -0.91187303997E+00  0.66959920370E+00  0.90007662089E+02  0.89999922429E+02 0.  0.
        -12    1    1    2    0    0 -0.33663340463E+00  0.91187303997E+00 -0.66959920370E+00  0.11803379108E+01  0.00000000000E+00 0.  1.
         11    1    3    3    0    0  0.11430417217E+02  0.96248351931E+01  0.24827806311E+02  0.28977782122E+02  0.51100000000E-03 0. -1.
        -11    1    3    3    0    0 -0.84530271271E+01  0.99614455480E+01  0.13050746694E+02  0.18466349248E+02  0.51100000000E-03 0.  1.
         12    1    3    3    0    0 -0.26407566855E+01 -0.20498153781E+02 -0.37208953801E+02  0.42563530719E+02  0.00000000000E+00 0. -1.
</event>
<event>
 7    1  0.1910099E-015  0.9000773E+02  0.7816164E-02  0.1186339E+00
        -11   -1    0    0    0    0  0.00000000000E+00  0.00000000000E+00  0.45593999997E+02  0.45594000000E+02  0.51100000000E-03 0. -1.
         11   -1    0    0    0    0 -0.00000000000E+00 -0.00000000000E+00 -0.45593999997E+02  0.45594000000E+02  0.51100000000E-03 0.  1.
    9900012    2    1    2    0    0 -0.70452041475E+00 -0.36506181989E+00 -0.87373675735E+00  0.90007730934E+02  0.89999992182E+02 0.  0.
        -12    1    1    2    0    0  0.70452041475E+00  0.36506181989E+00  0.87373675735E+00  0.11802690661E+01  0.00000000000E+00 0.  1.
         11    1    3    3    0    0 -0.60512301231E+01 -0.55530485532E+01 -0.44513190384E+01  0.93417330127E+01  0.51100000000E-03 0. -1.
        -11    1    3    3    0    0 -0.28627515963E+02  0.20982451916E+02 -0.15373041153E+02  0.38679818422E+02  0.51100000000E-03 0.  1.
         12    1    3    3    0    0  0.33974225671E+02 -0.15794465183E+02  0.18950623434E+02  0.41986179499E+02  0.00000000000E+00 0. -1.
</event>
<event>
 7    1  0.1910099E-015  0.9000768E+02  0.7816164E-02  0.1186339E+00
        -11   -1    0    0    0    0  0.00000000000E+00  0.00000000000E+00  0.45593999997E+02  0.45594000000E+02  0.51100000000E-03 0. -1.
         11   -1    0    0    0    0 -0.00000000000E+00 -0.00000000000E+00 -0.45593999997E+02  0.45594000000E+02  0.51100000000E-03 0.  1.
    9900012    2    1    2    0    0  0.57138631759E+00 -0.72881965087E+00  0.73177341898E+00  0.90007681084E+02  0.89999941674E+02 0.  0.
        -12    1    1    2    0    0 -0.57138631759E+00  0.72881965087E+00 -0.73177341898E+00  0.11803189163E+01  0.00000000000E+00 0.  1.
         11    1    3    3    0    0 -0.82965390937E+01 -0.97953527588E+00  0.18811784462E+01  0.85633453100E+01  0.51100000000E-03 0. -1.
        -11    1    3    3    0    0 -0.30866359627E+02 -0.14922446458E+02  0.12930500678E+02  0.36641634965E+02  0.51100000000E-03 0.  1.
         12    1    3    3    0    0  0.39734285038E+02  0.15173162083E+02 -0.14079905705E+02  0.44802700808E+02  0.00000000000E+00 0. -1.
</event>
<event>
 7    1  0.1910099E-015  0.9000795E+02  0.7816164E-02  0.1186339E+00
        -11   -1    0    0    0    0  0.00000000000E+00  0.00000000000E+00  0.45593999997E+02  0.45594000000E+02  0.51100000000E-03 0. -1.
         11   -1    0    0    0    0 -0.00000000000E+00 -0.00000000000E+00 -0.45593999997E+02  0.45594000000E+02  0.51100000000E-03 0.  1.
    9900012    2    1    2    0    0  0.10709776721E+01 -0.30037259361E+00  0.39407472294E+00  0.90007952647E+02  0.90000216821E+02 0.  0.
        -12    1    1    2    0    0 -0.10709776721E+01  0.30037259361E+00 -0.39407472294E+00  0.11800473534E+01  0.00000000000E+00 0.  1.
         11    1    3    3    0    0 -0.46902980110E+01  0.75849256256E+01  0.13221295023E+02  0.15947809709E+02  0.51100000000E-03 0. -1.
        -11    1    3    3    0    0 -0.23552699603E+02  0.20876383862E+02 -0.94148703353E+01  0.32851070690E+02  0.51100000000E-03 0.  1.
         12    1    3    3    0    0  0.29313975286E+02 -0.28761682081E+02 -0.34123499644E+01  0.41209072248E+02  0.00000000000E+00 0. -1.
</event>
<event>
 7    1  0.1910099E-015  0.9000772E+02  0.7816164E-02  0.1186339E+00
        -11   -1    0    0    0    0  0.00000000000E+00  0.00000000000E+00  0.45593999997E+02  0.45594000000E+02  0.51100000000E-03 0.  1.
         11   -1    0    0    0    0 -0.00000000000E+00 -0.00000000000E+00 -0.45593999997E+02  0.45594000000E+02  0.51100000000E-03 0. -1.
    9900012    2    1    2    0    0 -0.11691315011E+01 -0.14040407880E+00 -0.80562931183E-01  0.90007715222E+02  0.89999976263E+02 0.  0.
        -12    1    1    2    0    0  0.11691315011E+01  0.14040407880E+00  0.80562931183E-01  0.11802847783E+01  0.00000000000E+00 0.  1.
         11    1    3    3    0    0  0.37370954034E+02  0.79882150556E+01 -0.55562379334E+01  0.38616985452E+02  0.51100000000E-03 0. -1.
        -11    1    3    3    0    0  0.45620518921E+00 -0.10431021026E+01  0.11276397445E+02  0.11333725105E+02  0.51100000000E-03 0.  1.
        -12    1    3    3    0    0 -0.38996290724E+02 -0.70855170318E+01 -0.58007224426E+01  0.40057004664E+02  0.00000000000E+00 0.  1.
</event>
<event>
 7    1  0.1910099E-015  0.9000770E+02  0.7816164E-02  0.1186339E+00
        -11   -1    0    0    0    0  0.00000000000E+00  0.00000000000E+00  0.45593999997E+02  0.45594000000E+02  0.51100000000E-03 0.  1.
         11   -1    0    0    0    0 -0.00000000000E+00 -0.00000000000E+00 -0.45593999997E+02  0.45594000000E+02  0.51100000000E-03 0. -1.
    9900012    2    1    2    0    0  0.80823508772E+00 -0.11838313513E+00 -0.85196767864E+00  0.90007700271E+02  0.89999961115E+02 0.  0.
        -12    1    1    2    0    0 -0.80823508772E+00  0.11838313513E+00  0.85196767864E+00  0.11802997285E+01  0.00000000000E+00 0.  1.
         11    1    3    3    0    0 -0.28131204753E+00  0.94190411762E+01 -0.29432686437E+01  0.98721985250E+01  0.51100000000E-03 0. -1.
        -11    1    3    3    0    0  0.11664362800E+02  0.11991069944E+01  0.38757909214E+02  0.40492848060E+02  0.51100000000E-03 0.  1.
         12    1    3    3    0    0 -0.10574815665E+02 -0.10736531306E+02 -0.36666608249E+02  0.39642653686E+02  0.00000000000E+00 0. -1.
</event>
<event>
 7    1  0.1910099E-015  0.9000768E+02  0.7816164E-02  0.1186339E+00
        -11   -1    0    0    0    0  0.00000000000E+00  0.00000000000E+00  0.45593999997E+02  0.45594000000E+02  0.51100000000E-03 0. -1.
         11   -1    0    0    0    0 -0.00000000000E+00 -0.00000000000E+00 -0.45593999997E+02  0.45594000000E+02  0.51100000000E-03 0.  1.
    9900012    2    1    2    0    0 -0.59994399989E+00 -0.81249579946E+00  0.61079642697E+00  0.90007680339E+02  0.89999940919E+02 0.  0.
        -12    1    1    2    0    0  0.59994399989E+00  0.81249579946E+00 -0.61079642697E+00  0.11803196611E+01  0.00000000000E+00 0.  1.
         11    1    3    3    0    0 -0.15644118211E+02 -0.25399496684E+02  0.30812621236E+02  0.42886950161E+02  0.51100000000E-03 0. -1.
        -11    1    3    3    0    0  0.45710429087E+01  0.84128102691E+01  0.18224497203E+01  0.97463394739E+01  0.51100000000E-03 0.  1.
        -12    1    3    3    0    0  0.10473131303E+02  0.16174190615E+02 -0.32024274529E+02  0.37374390704E+02  0.00000000000E+00 0.  1.
</event>
<event>
 7    1  0.1910099E-015  0.9000769E+02  0.7816164E-02  0.1186339E+00
        -11   -1    0    0    0    0  0.00000000000E+00  0.00000000000E+00  0.45593999997E+02  0.45594000000E+02  0.51100000000E-03 0. -1.
         11   -1    0    0    0    0 -0.00000000000E+00 -0.00000000000E+00 -0.45593999997E+02  0.45594000000E+02  0.51100000000E-03 0.  1.
    9900012    2    1    2    0    0  0.59738246988E+00 -0.12320578875E-01  0.10178968654E+01  0.90007690024E+02  0.89999950732E+02 0.  0.
        -12    1    1    2    0    0 -0.59738246988E+00  0.12320578875E-01 -0.10178968654E+01  0.11803099764E+01  0.00000000000E+00 0.  1.
         11    1    3    3    0    0  0.22529945604E+02 -0.83305665098E+01  0.10045022539E+02  0.26036498716E+02  0.51100000000E-03 0. -1.
        -11    1    3    3    0    0  0.17502595062E+02  0.48866403201E+01  0.92275655035E+01  0.20380580289E+02  0.51100000000E-03 0.  1.
         12    1    3    3    0    0 -0.39435158197E+02  0.34316056108E+01 -0.18254691177E+02  0.43590611019E+02  0.00000000000E+00 0. -1.
</event>
<event>
 7    1  0.1910099E-015  0.9000842E+02  0.7816164E-02  0.1186338E+00
        -11   -1    0    0    0    0  0.00000000000E+00  0.00000000000E+00  0.45593999997E+02  0.45594000000E+02  0.51100000000E-03 0.  1.
         11   -1    0    0    0    0 -0.00000000000E+00 -0.00000000000E+00 -0.45593999997E+02  0.45594000000E+02  0.51100000000E-03 0. -1.
    9900012    2    1    2    0    0 -0.10750089036E+01 -0.16210334956E+00  0.45769340776E+00  0.90008421730E+02  0.90000692094E+02 0.  0.
        -12    1    1    2    0    0  0.10750089036E+01  0.16210334956E+00 -0.45769340776E+00  0.11795782697E+01  0.00000000000E+00 0.  1.
         11    1    3    3    0    0 -0.10844606654E+02  0.37812285881E+02  0.84640169277E+01  0.40236973543E+02  0.51100000000E-03 0. -1.
        -11    1    3    3    0    0 -0.50513619646E+01 -0.39547044893E+01 -0.10796578893E+02  0.12558744418E+02  0.51100000000E-03 0.  1.
        -12    1    3    3    0    0  0.14820959715E+02 -0.34019684742E+02  0.27902553735E+01  0.37212703770E+02  0.00000000000E+00 0.  1.
</event>
<event>
 7    1  0.1910099E-015  0.9000864E+02  0.7816164E-02  0.1186337E+00
        -11   -1    0    0    0    0  0.00000000000E+00  0.00000000000E+00  0.45593999997E+02  0.45594000000E+02  0.51100000000E-03 0.  1.
         11   -1    0    0    0    0 -0.00000000000E+00 -0.00000000000E+00 -0.45593999997E+02  0.45594000000E+02  0.51100000000E-03 0. -1.
    9900012    2    1    2    0    0 -0.91871848182E+00 -0.23091188284E+00  0.70250992571E+00  0.90008642488E+02  0.90000915764E+02 0.  0.
        -12    1    1    2    0    0  0.91871848182E+00  0.23091188284E+00 -0.70250992571E+00  0.11793575125E+01  0.00000000000E+00 0.  1.
         11    1    3    3    0    0 -0.35404485174E+02 -0.16062833883E+02 -0.69544322365E+01  0.39495016531E+02  0.51100000000E-03 0. -1.
        -11    1    3    3    0    0  0.17664830128E+01 -0.82391212971E+01  0.50199540816E+01  0.98083393714E+01  0.51100000000E-03 0.  1.
        -12    1    3    3    0    0  0.32719283679E+02  0.24071043297E+02  0.26369880805E+01  0.40705286586E+02  0.00000000000E+00 0.  1.
</event>
<event>
 7    1  0.1910099E-015  0.9000768E+02  0.7816164E-02  0.1186339E+00
        -11   -1    0    0    0    0  0.00000000000E+00  0.00000000000E+00  0.45593999997E+02  0.45594000000E+02  0.51100000000E-03 0.  1.
         11   -1    0    0    0    0 -0.00000000000E+00 -0.00000000000E+00 -0.45593999997E+02  0.45594000000E+02  0.51100000000E-03 0. -1.
    9900012    2    1    2    0    0  0.63471206603E+00 -0.86450131223E+00 -0.49287321540E+00  0.90007683969E+02  0.89999944598E+02 0.  0.
        -12    1    1    2    0    0 -0.63471206603E+00  0.86450131223E+00  0.49287321540E+00  0.11803160306E+01  0.00000000000E+00 0.  1.
         11    1    3    3    0    0 -0.29044815072E+01 -0.10449765227E+01  0.81688601641E+01  0.87325978609E+01  0.51100000000E-03 0. -1.
        -11    1    3    3    0    0  0.17543653138E+02  0.71795007590E+01  0.32284328733E+02  0.37437987107E+02  0.51100000000E-03 0.  1.
         12    1    3    3    0    0 -0.14004459565E+02 -0.69990255485E+01 -0.40946062113E+02  0.43837099002E+02  0.00000000000E+00 0. -1.
</event>
<event>
 7    1  0.1910099E-015  0.9000770E+02  0.7816164E-02  0.1186339E+00
        -11   -1    0    0    0    0  0.00000000000E+00  0.00000000000E+00  0.45593999997E+02  0.45594000000E+02  0.51100000000E-03 0.  1.
         11   -1    0    0    0    0 -0.00000000000E+00 -0.00000000000E+00 -0.45593999997E+02  0.45594000000E+02  0.51100000000E-03 0. -1.
    9900012    2    1    2    0    0 -0.64202573589E+00 -0.94192817294E+00 -0.30606923668E+00  0.90007701688E+02  0.89999962550E+02 0.  0.
        -12    1    1    2    0    0  0.64202573589E+00  0.94192817294E+00  0.30606923668E+00  0.11802983124E+01  0.00000000000E+00 0.  1.
         11    1    3    3    0    0  0.34858515789E+01 -0.86772845124E+00 -0.10225180369E+02  0.10837823939E+02  0.51100000000E-03 0. -1.
        -11    1    3    3    0    0  0.18004572068E+01  0.38083546721E+02  0.13365355936E+02  0.40400877671E+02  0.51100000000E-03 0.  1.
         12    1    3    3    0    0 -0.59283345216E+01 -0.38157746443E+02 -0.34462448036E+01  0.38769000078E+02  0.00000000000E+00 0. -1.
</event>
<event>
 7    1  0.1910099E-015  0.9000753E+02  0.7816164E-02  0.1186339E+00
        -11   -1    0    0    0    0  0.00000000000E+00  0.00000000000E+00  0.45593999997E+02  0.45594000000E+02  0.51100000000E-03 0.  1.
         11   -1    0    0    0    0 -0.00000000000E+00 -0.00000000000E+00 -0.45593999997E+02  0.45594000000E+02  0.51100000000E-03 0. -1.
    9900012    2    1    2    0    0  0.26462206952E+00 -0.76706203239E+00 -0.85738099863E+00  0.90007529256E+02  0.89999787842E+02 0.  0.
        -12    1    1    2    0    0 -0.26462206952E+00  0.76706203239E+00  0.85738099863E+00  0.11804707443E+01  0.00000000000E+00 0.  1.
         11    1    3    3    0    0  0.40199424747E+02  0.11248412046E+02 -0.14270756216E+02  0.44115473553E+02  0.51100000000E-03 0. -1.
        -11    1    3    3    0    0 -0.89595704284E+01  0.29904365194E+01  0.35161447138E+01  0.10078684773E+02  0.51100000000E-03 0.  1.
        -12    1    3    3    0    0 -0.30975232249E+02 -0.15005910598E+02  0.98972305037E+01  0.35813370930E+02  0.00000000000E+00 0.  1.
</event>
<event>
 7    1  0.1910099E-015  0.9000772E+02  0.7816164E-02  0.1186339E+00
        -11   -1    0    0    0    0  0.00000000000E+00  0.00000000000E+00  0.45593999997E+02  0.45594000000E+02  0.51100000000E-03 0. -1.
         11   -1    0    0    0    0 -0.00000000000E+00 -0.00000000000E+00 -0.45593999997E+02  0.45594000000E+02  0.51100000000E-03 0.  1.
    9900012    2    1    2    0    0 -0.79720996589E+00 -0.80939746222E+00 -0.31999804241E+00  0.90007717522E+02  0.89999978593E+02 0.  0.
        -12    1    1    2    0    0  0.79720996589E+00  0.80939746222E+00  0.31999804241E+00  0.11802824784E+01  0.00000000000E+00 0.  1.
         11    1    3    3    0    0 -0.79737212191E+01 -0.12212121060E+01 -0.79370844238E+01  0.11316753002E+02  0.51100000000E-03 0. -1.
        -11    1    3    3    0    0 -0.12549819132E+02  0.31031857342E+02 -0.14057854363E+02  0.36305611135E+02  0.51100000000E-03 0.  1.
         12    1    3    3    0    0  0.19726330385E+02 -0.30620042698E+02  0.21674940744E+02  0.42385353385E+02  0.00000000000E+00 0. -1.
</event>
<event>
 7    1  0.1910099E-015  0.9000763E+02  0.7816164E-02  0.1186339E+00
        -11   -1    0    0    0    0  0.00000000000E+00  0.00000000000E+00  0.45593999997E+02  0.45594000000E+02  0.51100000000E-03 0.  1.
         11   -1    0    0    0    0 -0.00000000000E+00 -0.00000000000E+00 -0.45593999997E+02  0.45594000000E+02  0.51100000000E-03 0. -1.
    9900012    2    1    2    0    0  0.77748959584E-01  0.63813339235E+00 -0.98996153643E+00  0.90007625919E+02  0.89999885781E+02 0.  0.
        -12    1    1    2    0    0 -0.77748959584E-01 -0.63813339235E+00  0.98996153643E+00  0.11803740809E+01  0.00000000000E+00 0.  1.
         11    1    3    3    0    0  0.58144776913E+01  0.67925395147E+01 -0.35284490808E+01  0.96123200663E+01  0.51100000000E-03 0. -1.
        -11    1    3    3    0    0  0.32746310695E+01  0.35249004198E+02  0.11232106463E+02  0.37139947785E+02  0.51100000000E-03 0.  1.
         12    1    3    3    0    0 -0.90113598012E+01 -0.41403410321E+02 -0.86936189191E+01  0.43255358068E+02  0.00000000000E+00 0. -1.
</event>
<event>
 7    1  0.1910099E-015  0.9000822E+02  0.7816164E-02  0.1186338E+00
        -11   -1    0    0    0    0  0.00000000000E+00  0.00000000000E+00  0.45593999997E+02  0.45594000000E+02  0.51100000000E-03 0. -1.
         11   -1    0    0    0    0 -0.00000000000E+00 -0.00000000000E+00 -0.45593999997E+02  0.45594000000E+02  0.51100000000E-03 0.  1.
    9900012    2    1    2    0    0 -0.31044466167E+00  0.78507907293E+00 -0.82410646468E+00  0.90008221841E+02  0.90000489568E+02 0.  0.
        -12    1    1    2    0    0  0.31044466167E+00 -0.78507907293E+00  0.82410646468E+00  0.11797781587E+01  0.00000000000E+00 0.  1.
         11    1    3    3    0    0  0.25406019176E+02 -0.24641304578E+02 -0.19211756218E+02  0.40270973156E+02  0.51100000000E-03 0. -1.
        -11    1    3    3    0    0 -0.11954022045E+02  0.66775734627E+01 -0.69400457834E+01  0.15350989093E+02  0.51100000000E-03 0.  1.
        -12    1    3    3    0    0 -0.13762441793E+02  0.18748810188E+02  0.25327695536E+02  0.34386259593E+02  0.00000000000E+00 0.  1.
</event>
<event>
 7    1  0.1910099E-015  0.9000780E+02  0.7816164E-02  0.1186339E+00
        -11   -1    0    0    0    0  0.00000000000E+00  0.00000000000E+00  0.45593999997E+02  0.45594000000E+02  0.51100000000E-03 0.  1.
         11   -1    0    0    0    0 -0.00000000000E+00 -0.00000000000E+00 -0.45593999997E+02  0.45594000000E+02  0.51100000000E-03 0. -1.
    9900012    2    1    2    0    0 -0.10854416795E+01 -0.16938612000E+00 -0.43127856720E+00  0.90007798111E+02  0.90000060246E+02 0.  0.
        -12    1    1    2    0    0  0.10854416795E+01  0.16938612000E+00  0.43127856720E+00  0.11802018894E+01  0.00000000000E+00 0.  1.
         11    1    3    3    0    0  0.34975279794E+02  0.25827674013E+01 -0.19081083150E+02  0.39925287958E+02  0.51100000000E-03 0. -1.
        -11    1    3    3    0    0 -0.20013966504E+00  0.87860023394E+01  0.29406086334E+01  0.92672041301E+01  0.51100000000E-03 0.  1.
        -12    1    3    3    0    0 -0.35860581808E+02 -0.11538155861E+02  0.15709195950E+02  0.40815306022E+02  0.00000000000E+00 0.  1.
</event>
<event>
 7    1  0.1910099E-015  0.9000769E+02  0.7816164E-02  0.1186339E+00
        -11   -1    0    0    0    0  0.00000000000E+00  0.00000000000E+00  0.45593999997E+02  0.45594000000E+02  0.51100000000E-03 0.  1.
         11   -1    0    0    0    0 -0.00000000000E+00 -0.00000000000E+00 -0.45593999997E+02  0.45594000000E+02  0.51100000000E-03 0. -1.
    9900012    2    1    2    0    0 -0.13477169660E-01  0.73724317988E+00 -0.92164695788E+00  0.90007685527E+02  0.89999946176E+02 0.  0.
        -12    1    1    2    0    0  0.13477169660E-01 -0.73724317988E+00  0.92164695788E+00  0.11803144731E+01  0.00000000000E+00 0.  1.
         11    1    3    3    0    0  0.57543306268E+01 -0.31789986495E+02 -0.25672727154E+02  0.41265051583E+02  0.51100000000E-03 0. -1.
        -11    1    3    3    0    0 -0.49296582818E+01 -0.33044610076E+01  0.53338003576E+01  0.79793746523E+01  0.51100000000E-03 0.  1.
        -12    1    3    3    0    0 -0.83814951468E+00  0.35831690683E+02  0.19417279838E+02  0.40763259292E+02  0.00000000000E+00 0.  1.
</event>
<event>
 7    1  0.1910099E-015  0.9000778E+02  0.7816164E-02  0.1186339E+00
        -11   -1    0    0    0    0  0.00000000000E+00  0.00000000000E+00  0.45593999997E+02  0.45594000000E+02  0.51100000000E-03 0. -1.
         11   -1    0    0    0    0 -0.00000000000E+00 -0.00000000000E+00 -0.45593999997E+02  0.45594000000E+02  0.51100000000E-03 0.  1.
    9900012    2    1    2    0    0 -0.32058260747E-01  0.92634093229E+00  0.73060226600E+00  0.90007781831E+02  0.90000043751E+02 0.  0.
        -12    1    1    2    0    0  0.32058260747E-01 -0.92634093229E+00 -0.73060226600E+00  0.11802181688E+01  0.00000000000E+00 0.  1.
         11    1    3    3    0    0 -0.23028855846E+02 -0.23507122025E+02 -0.19174485992E+02  0.38086400470E+02  0.51100000000E-03 0. -1.
        -11    1    3    3    0    0 -0.86569629027E+01  0.13290891749E+01  0.32951612072E+01  0.93577546653E+01  0.51100000000E-03 0.  1.
        -12    1    3    3    0    0  0.31653760488E+02  0.23104373782E+02  0.16609927051E+02  0.42563626696E+02  0.00000000000E+00 0.  1.
</event>
<event>
 7    1  0.1910099E-015  0.9000771E+02  0.7816164E-02  0.1186339E+00
        -11   -1    0    0    0    0  0.00000000000E+00  0.00000000000E+00  0.45593999997E+02  0.45594000000E+02  0.51100000000E-03 0. -1.
         11   -1    0    0    0    0 -0.00000000000E+00 -0.00000000000E+00 -0.45593999997E+02  0.45594000000E+02  0.51100000000E-03 0.  1.
    9900012    2    1    2    0    0  0.46462341991E+00 -0.86964320540E+00 -0.64878840867E+00  0.90007711634E+02  0.89999972628E+02 0.  0.
        -12    1    1    2    0    0 -0.46462341991E+00  0.86964320540E+00  0.64878840867E+00  0.11802883657E+01  0.00000000000E+00 0.  1.
         11    1    3    3    0    0 -0.32860485111E+02  0.10590711831E+02  0.24476159912E+02  0.42320882116E+02  0.51100000000E-03 0. -1.
        -11    1    3    3    0    0  0.25490754289E+01 -0.47010290134E+01 -0.12764840230E+02  0.13839747313E+02  0.51100000000E-03 0.  1.
        -12    1    3    3    0    0  0.30776033102E+02 -0.67593260226E+01 -0.12360108091E+02  0.33847082205E+02  0.00000000000E+00 0.  1.
</event>
<event>
 7    1  0.1910099E-015  0.9000785E+02  0.7816164E-02  0.1186339E+00
        -11   -1    0    0    0    0  0.00000000000E+00  0.00000000000E+00  0.45593999997E+02  0.45594000000E+02  0.51100000000E-03 0.  1.
         11   -1    0    0    0    0 -0.00000000000E+00 -0.00000000000E+00 -0.45593999997E+02  0.45594000000E+02  0.51100000000E-03 0. -1.
    9900012    2    1    2    0    0 -0.37875172982E-01  0.11793441991E+01 -0.21405467812E-01  0.90007853627E+02  0.90000116494E+02 0.  0.
        -12    1    1    2    0    0  0.37875172982E-01 -0.11793441991E+01  0.21405467812E-01  0.11801463735E+01  0.00000000000E+00 0.  1.
         11    1    3    3    0    0  0.70568088470E+01 -0.22160370376E+02 -0.32118929498E+02  0.39654838275E+02  0.51100000000E-03 0. -1.
        -11    1    3    3    0    0  0.49709863943E+01  0.82004288946E+01 -0.31881677309E+01  0.10105550630E+02  0.51100000000E-03 0.  1.
        -12    1    3    3    0    0 -0.12065670414E+02  0.15139285680E+02  0.35285691761E+02  0.40247464722E+02  0.00000000000E+00 0.  1.
</event>
<event>
 7    1  0.1910099E-015  0.9000774E+02  0.7816164E-02  0.1186339E+00
        -11   -1    0    0    0    0  0.00000000000E+00  0.00000000000E+00  0.45593999997E+02  0.45594000000E+02  0.51100000000E-03 0.  1.
         11   -1    0    0    0    0 -0.00000000000E+00 -0.00000000000E+00 -0.45593999997E+02  0.45594000000E+02  0.51100000000E-03 0. -1.
    9900012    2    1    2    0    0 -0.61818677007E+00  0.87093155730E+00  0.50233208633E+00  0.90007739781E+02  0.90000001146E+02 0.  0.
        -12    1    1    2    0    0  0.61818677007E+00 -0.87093155730E+00 -0.50233208633E+00  0.11802602193E+01  0.00000000000E+00 0.  1.
         11    1    3    3    0    0 -0.63224449104E+01 -0.12906401479E+02 -0.36070474606E+02  0.38828181098E+02  0.51100000000E-03 0. -1.
        -11    1    3    3    0    0  0.22625270028E+00  0.48119591106E+01 -0.57907906811E+01  0.75325558571E+01  0.51100000000E-03 0.  1.
        -12    1    3    3    0    0  0.54780054400E+01  0.89653739258E+01  0.42363597374E+02  0.43647002826E+02  0.00000000000E+00 0.  1.
</event>
<event>
 7    1  0.1910099E-015  0.9000775E+02  0.7816164E-02  0.1186339E+00
        -11   -1    0    0    0    0  0.00000000000E+00  0.00000000000E+00  0.45593999997E+02  0.45594000000E+02  0.51100000000E-03 0.  1.
         11   -1    0    0    0    0 -0.00000000000E+00 -0.00000000000E+00 -0.45593999997E+02  0.45594000000E+02  0.51100000000E-03 0. -1.
    9900012    2    1    2    0    0  0.11679358202E+00 -0.10021721823E+01 -0.61236314554E+00  0.90007754921E+02  0.90000016486E+02 0.  0.
        -12    1    1    2    0    0 -0.11679358202E+00  0.10021721823E+01  0.61236314554E+00  0.11802450787E+01  0.00000000000E+00 0.  1.
         11    1    3    3    0    0 -0.22559234230E+01 -0.80850812382E+01 -0.36225849596E+01  0.91422563500E+01  0.51100000000E-03 0. -1.
        -11    1    3    3    0    0 -0.36844546269E+02 -0.34495765057E+00 -0.11177845126E+02  0.38504334918E+02  0.51100000000E-03 0.  1.
         12    1    3    3    0    0  0.39217263274E+02  0.74278667065E+01  0.14188066940E+02  0.42361163653E+02  0.00000000000E+00 0. -1.
</event>
<event>
 7    1  0.1910099E-015  0.9000764E+02  0.7816164E-02  0.1186339E+00
        -11   -1    0    0    0    0  0.00000000000E+00  0.00000000000E+00  0.45593999997E+02  0.45594000000E+02  0.51100000000E-03 0. -1.
         11   -1    0    0    0    0 -0.00000000000E+00 -0.00000000000E+00 -0.45593999997E+02  0.45594000000E+02  0.51100000000E-03 0.  1.
    9900012    2    1    2    0    0  0.75085719488E+00 -0.90863442556E+00  0.62048561547E-01  0.90007638585E+02  0.89999898614E+02 0.  0.
        -12    1    1    2    0    0 -0.75085719488E+00  0.90863442556E+00 -0.62048561547E-01  0.11803614152E+01  0.00000000000E+00 0.  1.
         11    1    3    3    0    0 -0.48285836768E+01  0.15734202438E+02 -0.31569168670E+02  0.35601864522E+02  0.51100000000E-03 0. -1.
        -11    1    3    3    0    0  0.33851445906E+01  0.12238887069E+02  0.17987214523E+01  0.12825168993E+02  0.51100000000E-03 0.  1.
        -12    1    3    3    0    0  0.21942962811E+01 -0.28881723932E+02  0.29832495780E+02  0.41580605069E+02  0.00000000000E+00 0.  1.
</event>
<event>
 7    1  0.1910099E-015  0.9000769E+02  0.7816164E-02  0.1186339E+00
        -11   -1    0    0    0    0  0.00000000000E+00  0.00000000000E+00  0.45593999997E+02  0.45594000000E+02  0.51100000000E-03 0. -1.
         11   -1    0    0    0    0 -0.00000000000E+00 -0.00000000000E+00 -0.45593999997E+02  0.45594000000E+02  0.51100000000E-03 0.  1.
    9900012    2    1    2    0    0  0.10466098754E+01 -0.21755069824E+00  0.50040952892E+00  0.90007690619E+02  0.89999951335E+02 0.  0.
        -12    1    1    2    0    0 -0.10466098754E+01  0.21755069824E+00 -0.50040952892E+00  0.11803093807E+01  0.00000000000E+00 0.  1.
         11    1    3    3    0    0 -0.86146573206E+01 -0.25922508926E+01 -0.72327117618E+01  0.11543145374E+02  0.51100000000E-03 0. -1.
        -11    1    3    3    0    0 -0.26629672416E+02 -0.80959905011E+01 -0.17649060982E+02  0.32957152016E+02  0.51100000000E-03 0.  1.
         12    1    3    3    0    0  0.36290939612E+02  0.10470690696E+02  0.25382182273E+02  0.45507393229E+02  0.00000000000E+00 0. -1.
</event>
<event>
 7    1  0.1910099E-015  0.9000780E+02  0.7816164E-02  0.1186339E+00
        -11   -1    0    0    0    0  0.00000000000E+00  0.00000000000E+00  0.45593999997E+02  0.45594000000E+02  0.51100000000E-03 0.  1.
         11   -1    0    0    0    0 -0.00000000000E+00 -0.00000000000E+00 -0.45593999997E+02  0.45594000000E+02  0.51100000000E-03 0. -1.
    9900012    2    1    2    0    0  0.88641250849E+00  0.76157814685E+00  0.16476030500E+00  0.90007799014E+02  0.90000061161E+02 0.  0.
        -12    1    1    2    0    0 -0.88641250849E+00 -0.76157814685E+00 -0.16476030500E+00  0.11802009859E+01  0.00000000000E+00 0.  1.
         11    1    3    3    0    0 -0.18641633730E+01 -0.18173343632E+02 -0.26600904794E+02  0.32270011775E+02  0.51100000000E-03 0. -1.
        -11    1    3    3    0    0  0.14571900849E+01 -0.10852346751E+02 -0.67629943203E+01  0.12869923286E+02  0.51100000000E-03 0.  1.
        -12    1    3    3    0    0  0.12933857966E+01  0.29787268530E+02  0.33528659419E+02  0.44867863953E+02  0.00000000000E+00 0.  1.
</event>
<event>
 7    1  0.1910099E-015  0.9000780E+02  0.7816164E-02  0.1186339E+00
        -11   -1    0    0    0    0  0.00000000000E+00  0.00000000000E+00  0.45593999997E+02  0.45594000000E+02  0.51100000000E-03 0.  1.
         11   -1    0    0    0    0 -0.00000000000E+00 -0.00000000000E+00 -0.45593999997E+02  0.45594000000E+02  0.51100000000E-03 0. -1.
    9900012    2    1    2    0    0  0.10023592154E+01 -0.56714319580E+00  0.25786439090E+00  0.90007801099E+02  0.90000063274E+02 0.  0.
        -12    1    1    2    0    0 -0.10023592154E+01  0.56714319580E+00 -0.25786439090E+00  0.11801989007E+01  0.00000000000E+00 0.  1.
         11    1    3    3    0    0  0.30232842202E+02  0.54779997846E+01 -0.22066193213E+02  0.37827901243E+02  0.51100000000E-03 0. -1.
        -11    1    3    3    0    0  0.78138635769E+01  0.40014380372E+01  0.39706700802E+01  0.96350501561E+01  0.51100000000E-03 0.  1.
        -12    1    3    3    0    0 -0.37044346563E+02 -0.10046581018E+02  0.18353387524E+02  0.42544849701E+02  0.00000000000E+00 0.  1.
</event>
<event>
 7    1  0.1910099E-015  0.9000733E+02  0.7816164E-02  0.1186340E+00
        -11   -1    0    0    0    0  0.00000000000E+00  0.00000000000E+00  0.45593999997E+02  0.45594000000E+02  0.51100000000E-03 0.  1.
         11   -1    0    0    0    0 -0.00000000000E+00 -0.00000000000E+00 -0.45593999997E+02  0.45594000000E+02  0.51100000000E-03 0. -1.
    9900012    2    1    2    0    0 -0.11788863586E+01  0.22783623017E-01 -0.60750734643E-01  0.90007329516E+02  0.89999585465E+02 0.  0.
        -12    1    1    2    0    0  0.11788863586E+01 -0.22783623017E-01  0.60750734643E-01  0.11806704839E+01  0.00000000000E+00 0.  1.
         11    1    3    3    0    0 -0.17672157993E+01  0.15522943399E+02 -0.34192332266E+02  0.37592557900E+02  0.51100000000E-03 0. -1.
        -11    1    3    3    0    0 -0.13944808130E+01  0.91658991816E+01 -0.11264502483E+01  0.93395489703E+01  0.51100000000E-03 0.  1.
        -12    1    3    3    0    0  0.19828102538E+01 -0.24666058958E+02  0.35258031779E+02  0.43075222646E+02  0.00000000000E+00 0.  1.
</event>
<event>
 7    1  0.1910099E-015  0.9000759E+02  0.7816164E-02  0.1186339E+00
        -11   -1    0    0    0    0  0.00000000000E+00  0.00000000000E+00  0.45593999997E+02  0.45594000000E+02  0.51100000000E-03 0. -1.
         11   -1    0    0    0    0 -0.00000000000E+00 -0.00000000000E+00 -0.45593999997E+02  0.45594000000E+02  0.51100000000E-03 0.  1.
    9900012    2    1    2    0    0 -0.10506300154E+01 -0.53341591245E+00  0.70841788905E-01  0.90007587138E+02  0.89999846488E+02 0.  0.
        -12    1    1    2    0    0  0.10506300154E+01  0.53341591245E+00 -0.70841788905E-01  0.11804128617E+01  0.00000000000E+00 0.  1.
         11    1    3    3    0    0 -0.31393232806E+02  0.22371750486E+02  0.52714209142E+01  0.38907816239E+02  0.51100000000E-03 0. -1.
        -11    1    3    3    0    0  0.35488804482E+01  0.85868509105E+01 -0.27029037931E+01  0.96764792239E+01  0.51100000000E-03 0.  1.
        -12    1    3    3    0    0  0.26793722342E+02 -0.31492017309E+02 -0.24976753323E+01  0.41423291675E+02  0.00000000000E+00 0.  1.
</event>
<event>
 7    1  0.1910099E-015  0.9000769E+02  0.7816164E-02  0.1186339E+00
        -11   -1    0    0    0    0  0.00000000000E+00  0.00000000000E+00  0.45593999997E+02  0.45594000000E+02  0.51100000000E-03 0.  1.
         11   -1    0    0    0    0 -0.00000000000E+00 -0.00000000000E+00 -0.45593999997E+02  0.45594000000E+02  0.51100000000E-03 0. -1.
    9900012    2    1    2    0    0 -0.79592778383E+00 -0.81520453502E+00  0.30832063214E+00  0.90007694496E+02  0.89999955263E+02 0.  0.
        -12    1    1    2    0    0  0.79592778383E+00  0.81520453502E+00 -0.30832063214E+00  0.11803055042E+01  0.00000000000E+00 0.  1.
         11    1    3    3    0    0 -0.10522785898E+02 -0.13702070651E+02 -0.13261597517E+02  0.21779479611E+02  0.51100000000E-03 0. -1.
        -11    1    3    3    0    0 -0.87429711935E+01  0.19761338000E+02 -0.19907125671E+02  0.29381008791E+02  0.51100000000E-03 0.  1.
        -12    1    3    3    0    0  0.18469829308E+02 -0.68744718844E+01  0.33477043820E+02  0.38847206094E+02  0.00000000000E+00 0.  1.
</event>
<event>
 7    1  0.1910099E-015  0.9000768E+02  0.7816164E-02  0.1186339E+00
        -11   -1    0    0    0    0  0.00000000000E+00  0.00000000000E+00  0.45593999997E+02  0.45594000000E+02  0.51100000000E-03 0.  1.
         11   -1    0    0    0    0 -0.00000000000E+00 -0.00000000000E+00 -0.45593999997E+02  0.45594000000E+02  0.51100000000E-03 0. -1.
    9900012    2    1    2    0    0 -0.10284123933E+01  0.48430263591E+00 -0.31774823683E+00  0.90007684349E+02  0.89999944982E+02 0.  0.
        -12    1    1    2    0    0  0.10284123933E+01 -0.48430263591E+00  0.31774823683E+00  0.11803156510E+01  0.00000000000E+00 0.  1.
         11    1    3    3    0    0 -0.99816091222E+00  0.86812618213E+01  0.43188533214E+01  0.97474676860E+01  0.51100000000E-03 0. -1.
        -11    1    3    3    0    0 -0.27817769022E+02 -0.28586022101E+02  0.12459200973E+02  0.41787804705E+02  0.51100000000E-03 0.  1.
         12    1    3    3    0    0  0.27787517541E+02  0.20389062916E+02 -0.17095802531E+02  0.38472411958E+02  0.00000000000E+00 0. -1.
</event>
<event>
 7    1  0.1910099E-015  0.9000774E+02  0.7816164E-02  0.1186339E+00
        -11   -1    0    0    0    0  0.00000000000E+00  0.00000000000E+00  0.45593999997E+02  0.45594000000E+02  0.51100000000E-03 0. -1.
         11   -1    0    0    0    0 -0.00000000000E+00 -0.00000000000E+00 -0.45593999997E+02  0.45594000000E+02  0.51100000000E-03 0.  1.
    9900012    2    1    2    0    0 -0.58117339784E+00  0.10262733796E+01 -0.44830187922E-01  0.90007741844E+02  0.90000003237E+02 0.  0.
        -12    1    1    2    0    0  0.58117339784E+00 -0.10262733796E+01  0.44830187922E-01  0.11802581556E+01  0.00000000000E+00 0.  1.
         11    1    3    3    0    0  0.27295752446E+01  0.18693236052E+02  0.16830454949E+01  0.18966293721E+02  0.51100000000E-03 0. -1.
        -11    1    3    3    0    0 -0.71653633595E+00  0.14439364246E+02 -0.26647311821E+02  0.30316462388E+02  0.51100000000E-03 0.  1.
         12    1    3    3    0    0 -0.25942123065E+01 -0.32106326918E+02  0.24919436139E+02  0.40724985735E+02  0.00000000000E+00 0. -1.
</event>
<event>
 7    1  0.1910099E-015  0.9000776E+02  0.7816164E-02  0.1186339E+00
        -11   -1    0    0    0    0  0.00000000000E+00  0.00000000000E+00  0.45593999997E+02  0.45594000000E+02  0.51100000000E-03 0. -1.
         11   -1    0    0    0    0 -0.00000000000E+00 -0.00000000000E+00 -0.45593999997E+02  0.45594000000E+02  0.51100000000E-03 0.  1.
    9900012    2    1    2    0    0  0.65395109514E+00  0.74170717895E+00  0.64434262227E+00  0.90007763164E+02  0.90000024838E+02 0.  0.
        -12    1    1    2    0    0 -0.65395109514E+00 -0.74170717895E+00 -0.64434262227E+00  0.11802368360E+01  0.00000000000E+00 0.  1.
         11    1    3    3    0    0  0.21195635126E+02  0.35885374091E+02  0.36741980283E+01  0.41839153355E+02  0.51100000000E-03 0. -1.
        -11    1    3    3    0    0 -0.29438175460E+01 -0.30882421984E+01  0.87625149195E+01  0.97460232709E+01  0.51100000000E-03 0.  1.
        -12    1    3    3    0    0 -0.17597866485E+02 -0.32055424714E+02 -0.11792370326E+02  0.38422586538E+02  0.00000000000E+00 0.  1.
</event>
<event>
 7    1  0.1910099E-015  0.9000779E+02  0.7816164E-02  0.1186339E+00
        -11   -1    0    0    0    0  0.00000000000E+00  0.00000000000E+00  0.45593999997E+02  0.45594000000E+02  0.51100000000E-03 0.  1.
         11   -1    0    0    0    0 -0.00000000000E+00 -0.00000000000E+00 -0.45593999997E+02  0.45594000000E+02  0.51100000000E-03 0. -1.
    9900012    2    1    2    0    0  0.53175350001E+00 -0.26932279860E+00 -0.10186309404E+01  0.90007785804E+02  0.90000047777E+02 0.  0.
        -12    1    1    2    0    0 -0.53175350001E+00  0.26932279860E+00  0.10186309404E+01  0.11802141955E+01  0.00000000000E+00 0.  1.
         11    1    3    3    0    0  0.79399037898E+01 -0.27903236274E+00 -0.47867118550E+01  0.92753728710E+01  0.51100000000E-03 0. -1.
        -11    1    3    3    0    0 -0.33046183293E+02 -0.26379708606E+02  0.99117666314E+01  0.43430201178E+02  0.51100000000E-03 0.  1.
         12    1    3    3    0    0  0.25638033003E+02  0.26389418170E+02 -0.61436857167E+01  0.37302211755E+02  0.00000000000E+00 0. -1.
</event>
<event>
 7    1  0.1910099E-015  0.9000773E+02  0.7816164E-02  0.1186339E+00
        -11   -1    0    0    0    0  0.00000000000E+00  0.00000000000E+00  0.45593999997E+02  0.45594000000E+02  0.51100000000E-03 0.  1.
         11   -1    0    0    0    0 -0.00000000000E+00 -0.00000000000E+00 -0.45593999997E+02  0.45594000000E+02  0.51100000000E-03 0. -1.
    9900012    2    1    2    0    0 -0.11154300859E+01 -0.17105089210E+00 -0.34582670179E+00  0.90007729356E+02  0.89999990584E+02 0.  0.
        -12    1    1    2    0    0  0.11154300859E+01  0.17105089210E+00  0.34582670179E+00  0.11802706435E+01  0.00000000000E+00 0.  1.
         11    1    3    3    0    0 -0.18666701726E+02 -0.17693659721E+02 -0.23076559573E+02  0.34554868682E+02  0.51100000000E-03 0. -1.
        -11    1    3    3    0    0 -0.49739279716E+01 -0.11243806825E+02 -0.23719642989E+00  0.12297130307E+02  0.51100000000E-03 0.  1.
        -12    1    3    3    0    0  0.22525199612E+02  0.28766415654E+02  0.22967929301E+02  0.43155730367E+02  0.00000000000E+00 0.  1.
</event>
<event>
 7    1  0.1910099E-015  0.9000811E+02  0.7816164E-02  0.1186338E+00
        -11   -1    0    0    0    0  0.00000000000E+00  0.00000000000E+00  0.45593999997E+02  0.45594000000E+02  0.51100000000E-03 0.  1.
         11   -1    0    0    0    0 -0.00000000000E+00 -0.00000000000E+00 -0.45593999997E+02  0.45594000000E+02  0.51100000000E-03 0. -1.
    9900012    2    1    2    0    0  0.10022311924E+01 -0.11818905264E+00  0.61131725472E+00  0.90008108140E+02  0.90000374367E+02 0.  0.
        -12    1    1    2    0    0 -0.10022311924E+01  0.11818905264E+00 -0.61131725472E+00  0.11798918599E+01  0.00000000000E+00 0.  1.
         11    1    3    3    0    0 -0.58737650436E+01  0.30415507611E+01 -0.49780218458E+01  0.82784568960E+01  0.51100000000E-03 0. -1.
        -11    1    3    3    0    0 -0.37131834358E+02  0.19541774608E+01  0.39920310647E+01  0.37396901538E+02  0.51100000000E-03 0.  1.
         12    1    3    3    0    0  0.44007830594E+02 -0.51139172746E+01  0.15973080358E+01  0.44332749706E+02  0.00000000000E+00 0. -1.
</event>
<event>
 7    1  0.1910099E-015  0.9000776E+02  0.7816164E-02  0.1186339E+00
        -11   -1    0    0    0    0  0.00000000000E+00  0.00000000000E+00  0.45593999997E+02  0.45594000000E+02  0.51100000000E-03 0. -1.
         11   -1    0    0    0    0 -0.00000000000E+00 -0.00000000000E+00 -0.45593999997E+02  0.45594000000E+02  0.51100000000E-03 0.  1.
    9900012    2    1    2    0    0  0.43045645522E+00  0.51041328149E+00  0.97322242786E+00  0.90007755800E+02  0.90000017376E+02 0.  0.
        -12    1    1    2    0    0 -0.43045645522E+00 -0.51041328149E+00 -0.97322242786E+00  0.11802442001E+01  0.00000000000E+00 0.  1.
         11    1    3    3    0    0  0.77338357234E+01  0.56550113998E+01  0.52601804507E+00  0.95952104809E+01  0.51100000000E-03 0. -1.
        -11    1    3    3    0    0 -0.24730126389E+02 -0.25163834797E+01  0.34233146882E+02  0.42306260562E+02  0.51100000000E-03 0.  1.
         12    1    3    3    0    0  0.17426747121E+02 -0.26282146386E+01 -0.33785942499E+02  0.38106284757E+02  0.00000000000E+00 0. -1.
</event>
<event>
 7    1  0.1910099E-015  0.9000680E+02  0.7816164E-02  0.1186341E+00
        -11   -1    0    0    0    0  0.00000000000E+00  0.00000000000E+00  0.45593999997E+02  0.45594000000E+02  0.51100000000E-03 0.  1.
         11   -1    0    0    0    0 -0.00000000000E+00 -0.00000000000E+00 -0.45593999997E+02  0.45594000000E+02  0.51100000000E-03 0. -1.
    9900012    2    1    2    0    0 -0.43936797803E+00  0.16644683406E+00 -0.10837326810E+01  0.90006803449E+02  0.89999052449E+02 0.  0.
        -12    1    1    2    0    0  0.43936797803E+00 -0.16644683406E+00  0.10837326810E+01  0.11811965512E+01  0.00000000000E+00 0.  1.
         11    1    3    3    0    0 -0.81700681191E+01 -0.43911508818E+01  0.35036126417E+01  0.99150149239E+01  0.51100000000E-03 0. -1.
        -11    1    3    3    0    0 -0.11474492174E+02 -0.32698552057E+02 -0.13586554711E+02  0.37221683821E+02  0.51100000000E-03 0.  1.
         12    1    3    3    0    0  0.19205192315E+02  0.37256149772E+02  0.89992093885E+01  0.42870104704E+02  0.00000000000E+00 0. -1.
</event>
<event>
 7    1  0.1910099E-015  0.9000776E+02  0.7816164E-02  0.1186339E+00
        -11   -1    0    0    0    0  0.00000000000E+00  0.00000000000E+00  0.45593999997E+02  0.45594000000E+02  0.51100000000E-03 0.  1.
         11   -1    0    0    0    0 -0.00000000000E+00 -0.00000000000E+00 -0.45593999997E+02  0.45594000000E+02  0.51100000000E-03 0. -1.
    9900012    2    1    2    0    0  0.70380359772E+00 -0.12579770216E+00 -0.93903988970E+00  0.90007762532E+02  0.90000024198E+02 0.  0.
        -12    1    1    2    0    0 -0.70380359772E+00  0.12579770216E+00  0.93903988970E+00  0.11802374678E+01  0.00000000000E+00 0.  1.
         11    1    3    3    0    0  0.29412996201E+02  0.17552510581E+02 -0.87571045217E+01  0.35353951025E+02  0.51100000000E-03 0. -1.
        -11    1    3    3    0    0  0.97502370457E+01  0.23938862926E+01 -0.18461531997E+01  0.10208138710E+02  0.51100000000E-03 0.  1.
        -12    1    3    3    0    0 -0.38459429649E+02 -0.20072194576E+02  0.96642178317E+01  0.44445672797E+02  0.00000000000E+00 0.  1.
</event>
<event>
 7    1  0.1910099E-015  0.9000774E+02  0.7816164E-02  0.1186339E+00
        -11   -1    0    0    0    0  0.00000000000E+00  0.00000000000E+00  0.45593999997E+02  0.45594000000E+02  0.51100000000E-03 0. -1.
         11   -1    0    0    0    0 -0.00000000000E+00 -0.00000000000E+00 -0.45593999997E+02  0.45594000000E+02  0.51100000000E-03 0.  1.
    9900012    2    1    2    0    0 -0.84018658791E+00  0.45382724759E-01  0.82767379876E+00  0.90007738583E+02  0.89999999933E+02 0.  0.
        -12    1    1    2    0    0  0.84018658791E+00 -0.45382724759E-01 -0.82767379876E+00  0.11802614165E+01  0.00000000000E+00 0.  1.
         11    1    3    3    0    0 -0.15291265775E+02 -0.84842871316E+01 -0.56562632307E+01  0.18379315850E+02  0.51100000000E-03 0. -1.
        -11    1    3    3    0    0 -0.21637419327E+02 -0.39665886157E+01 -0.16099626013E+02  0.27260038489E+02  0.51100000000E-03 0.  1.
         12    1    3    3    0    0  0.36088498514E+02  0.12496258472E+02  0.22583563042E+02  0.44368384245E+02  0.00000000000E+00 0. -1.
</event>
<event>
 7    1  0.1910099E-015  0.9000856E+02  0.7816164E-02  0.1186337E+00
        -11   -1    0    0    0    0  0.00000000000E+00  0.00000000000E+00  0.45593999997E+02  0.45594000000E+02  0.51100000000E-03 0.  1.
         11   -1    0    0    0    0 -0.00000000000E+00 -0.00000000000E+00 -0.45593999997E+02  0.45594000000E+02  0.51100000000E-03 0. -1.
    9900012    2    1    2    0    0  0.97383325963E+00  0.36558775267E+00  0.55594064894E+00  0.90008561308E+02  0.90000833514E+02 0.  0.
        -12    1    1    2    0    0 -0.97383325963E+00 -0.36558775267E+00 -0.55594064894E+00  0.11794386918E+01  0.00000000000E+00 0.  1.
         11    1    3    3    0    0  0.14323953832E+02 -0.16757371107E+02 -0.28946403726E+02  0.36385153960E+02  0.51100000000E-03 0. -1.
        -11    1    3    3    0    0 -0.48530557052E+01  0.67215087594E+01 -0.93611852901E+01  0.12504503988E+02  0.51100000000E-03 0.  1.
        -12    1    3    3    0    0 -0.84970648667E+01  0.10401450101E+02  0.38863529665E+02  0.41118903360E+02  0.00000000000E+00 0.  1.
</event>
<event>
 7    1  0.1910099E-015  0.9000784E+02  0.7816164E-02  0.1186339E+00
        -11   -1    0    0    0    0  0.00000000000E+00  0.00000000000E+00  0.45593999997E+02  0.45594000000E+02  0.51100000000E-03 0.  1.
         11   -1    0    0    0    0 -0.00000000000E+00 -0.00000000000E+00 -0.45593999997E+02  0.45594000000E+02  0.51100000000E-03 0. -1.
    9900012    2    1    2    0    0  0.10699366890E+01 -0.34379065324E+00 -0.36029308146E+00  0.90007844232E+02  0.90000106976E+02 0.  0.
        -12    1    1    2    0    0 -0.10699366890E+01  0.34379065324E+00  0.36029308146E+00  0.11801557678E+01  0.00000000000E+00 0.  1.
         11    1    3    3    0    0  0.34767455997E+01  0.97682681499E+01  0.62039523354E+01  0.12082874139E+02  0.51100000000E-03 0. -1.
        -11    1    3    3    0    0  0.45729690007E+01  0.17829410738E+02  0.27641654349E+02  0.33209350914E+02  0.51100000000E-03 0.  1.
         12    1    3    3    0    0 -0.69797779114E+01 -0.27941469541E+02 -0.34205899766E+02  0.44715619179E+02  0.00000000000E+00 0. -1.
</event>
<event>
 7    1  0.1910099E-015  0.9000791E+02  0.7816164E-02  0.1186339E+00
        -11   -1    0    0    0    0  0.00000000000E+00  0.00000000000E+00  0.45593999997E+02  0.45594000000E+02  0.51100000000E-03 0.  1.
         11   -1    0    0    0    0 -0.00000000000E+00 -0.00000000000E+00 -0.45593999997E+02  0.45594000000E+02  0.51100000000E-03 0. -1.
    9900012    2    1    2    0    0 -0.43936646898E+00  0.34562108030E+00 -0.10392897221E+01  0.90007906804E+02  0.90000170373E+02 0.  0.
        -12    1    1    2    0    0  0.43936646898E+00 -0.34562108030E+00  0.10392897221E+01  0.11800931962E+01  0.00000000000E+00 0.  1.
         11    1    3    3    0    0 -0.95251995850E+01  0.33326365149E+00 -0.33673291920E+02  0.34996158086E+02  0.51100000000E-03 0. -1.
        -11    1    3    3    0    0 -0.21615886741E+01 -0.13606275889E+02 -0.39968114192E+01  0.14344954198E+02  0.51100000000E-03 0.  1.
        -12    1    3    3    0    0  0.11247421790E+02  0.13618633317E+02  0.36630813617E+02  0.40666794520E+02  0.00000000000E+00 0.  1.
</event>
<event>
 7    1  0.1910099E-015  0.9000778E+02  0.7816164E-02  0.1186339E+00
        -11   -1    0    0    0    0  0.00000000000E+00  0.00000000000E+00  0.45593999997E+02  0.45594000000E+02  0.51100000000E-03 0. -1.
         11   -1    0    0    0    0 -0.00000000000E+00 -0.00000000000E+00 -0.45593999997E+02  0.45594000000E+02  0.51100000000E-03 0.  1.
    9900012    2    1    2    0    0 -0.14947993922E+00 -0.10330452499E+01  0.55081951872E+00  0.90007775918E+02  0.90000037761E+02 0.  0.
        -12    1    1    2    0    0  0.14947993922E+00  0.10330452499E+01 -0.55081951872E+00  0.11802240816E+01  0.00000000000E+00 0.  1.
         11    1    3    3    0    0  0.14146677387E+02 -0.13630416349E+02 -0.99712789862E+01  0.22030504665E+02  0.51100000000E-03 0. -1.
        -11    1    3    3    0    0 -0.13365126811E+02  0.28333408468E+02 -0.17457070178E+02  0.35863044343E+02  0.51100000000E-03 0.  1.
         12    1    3    3    0    0 -0.93103051490E+00 -0.15736037369E+02  0.27979168683E+02  0.32114226911E+02  0.00000000000E+00 0. -1.
</event>
<event>
 7    1  0.1910099E-015  0.9000770E+02  0.7816164E-02  0.1186339E+00
        -11   -1    0    0    0    0  0.00000000000E+00  0.00000000000E+00  0.45593999997E+02  0.45594000000E+02  0.51100000000E-03 0. -1.
         11   -1    0    0    0    0 -0.00000000000E+00 -0.00000000000E+00 -0.45593999997E+02  0.45594000000E+02  0.51100000000E-03 0.  1.
    9900012    2    1    2    0    0 -0.19634715432E+00  0.98116881586E+00 -0.62598397972E+00  0.90007703261E+02  0.89999964144E+02 0.  0.
        -12    1    1    2    0    0  0.19634715432E+00 -0.98116881586E+00  0.62598397972E+00  0.11802967394E+01  0.00000000000E+00 0.  1.
         11    1    3    3    0    0  0.17050431197E+01 -0.86106494533E+01 -0.24759816324E+01  0.91203586197E+01  0.51100000000E-03 0. -1.
        -11    1    3    3    0    0  0.28411557312E+02  0.64488271205E+01 -0.26411964515E+02  0.39324239725E+02  0.51100000000E-03 0.  1.
         12    1    3    3    0    0 -0.30312947586E+02  0.31429911486E+01  0.28261962167E+02  0.41563104916E+02  0.00000000000E+00 0. -1.
</event>
<event>
 7    1  0.1910099E-015  0.9000775E+02  0.7816164E-02  0.1186339E+00
        -11   -1    0    0    0    0  0.00000000000E+00  0.00000000000E+00  0.45593999997E+02  0.45594000000E+02  0.51100000000E-03 0.  1.
         11   -1    0    0    0    0 -0.00000000000E+00 -0.00000000000E+00 -0.45593999997E+02  0.45594000000E+02  0.51100000000E-03 0. -1.
    9900012    2    1    2    0    0  0.49182599384E+00 -0.58544062589E+00 -0.89908762491E+00  0.90007749140E+02  0.90000010629E+02 0.  0.
        -12    1    1    2    0    0 -0.49182599384E+00  0.58544062589E+00  0.89908762491E+00  0.11802508597E+01  0.00000000000E+00 0.  1.
         11    1    3    3    0    0  0.15886567166E+02  0.93022058990E+00 -0.36436432653E+02  0.39760054721E+02  0.51100000000E-03 0. -1.
        -11    1    3    3    0    0 -0.61751965998E+01  0.53406311612E+01 -0.39880405821E+01  0.90862457700E+01  0.51100000000E-03 0.  1.
        -12    1    3    3    0    0 -0.92195445720E+01 -0.68562923770E+01  0.39525385610E+02  0.41161448649E+02  0.00000000000E+00 0.  1.
</event>
<event>
 7    1  0.1910099E-015  0.9000770E+02  0.7816164E-02  0.1186339E+00
        -11   -1    0    0    0    0  0.00000000000E+00  0.00000000000E+00  0.45593999997E+02  0.45594000000E+02  0.51100000000E-03 0.  1.
         11   -1    0    0    0    0 -0.00000000000E+00 -0.00000000000E+00 -0.45593999997E+02  0.45594000000E+02  0.51100000000E-03 0. -1.
    9900012    2    1    2    0    0  0.83980337253E+00  0.77760823787E+00 -0.28838692765E+00  0.90007698642E+02  0.89999959464E+02 0.  0.
        -12    1    1    2    0    0 -0.83980337253E+00 -0.77760823787E+00  0.28838692765E+00  0.11803013582E+01  0.00000000000E+00 0.  1.
         11    1    3    3    0    0  0.97351498767E+00 -0.67760368754E+01  0.36137254612E+01  0.77408926577E+01  0.51100000000E-03 0. -1.
        -11    1    3    3    0    0  0.29975284085E+02 -0.62578399838E+01  0.24039517683E+02  0.38930407498E+02  0.51100000000E-03 0.  1.
         12    1    3    3    0    0 -0.30108995701E+02  0.13811485097E+02 -0.27941630072E+02  0.43336398486E+02  0.00000000000E+00 0. -1.
</event>
<event>
 7    1  0.1910099E-015  0.9000776E+02  0.7816164E-02  0.1186339E+00
        -11   -1    0    0    0    0  0.00000000000E+00  0.00000000000E+00  0.45593999997E+02  0.45594000000E+02  0.51100000000E-03 0.  1.
         11   -1    0    0    0    0 -0.00000000000E+00 -0.00000000000E+00 -0.45593999997E+02  0.45594000000E+02  0.51100000000E-03 0. -1.
    9900012    2    1    2    0    0 -0.71426866937E+00  0.63493686707E+00 -0.69255661779E+00  0.90007763064E+02  0.90000024736E+02 0.  0.
        -12    1    1    2    0    0  0.71426866937E+00 -0.63493686707E+00  0.69255661779E+00  0.11802369364E+01  0.00000000000E+00 0.  1.
         11    1    3    3    0    0 -0.82817065867E+01 -0.48446365501E+01 -0.34975355563E+01  0.10212243755E+02  0.51100000000E-03 0. -1.
        -11    1    3    3    0    0 -0.21766072770E+02  0.32340502495E+02 -0.48760794873E+01  0.39286717564E+02  0.51100000000E-03 0.  1.
         12    1    3    3    0    0  0.29333510688E+02 -0.26860929078E+02  0.76810584259E+01  0.40508801744E+02  0.00000000000E+00 0. -1.
</event>
<event>
 7    1  0.1910099E-015  0.9000780E+02  0.7816164E-02  0.1186339E+00
        -11   -1    0    0    0    0  0.00000000000E+00  0.00000000000E+00  0.45593999997E+02  0.45594000000E+02  0.51100000000E-03 0. -1.
         11   -1    0    0    0    0 -0.00000000000E+00 -0.00000000000E+00 -0.45593999997E+02  0.45594000000E+02  0.51100000000E-03 0.  1.
    9900012    2    1    2    0    0  0.46154663884E+00  0.10856577540E+01  0.34607940701E-01  0.90007798421E+02  0.90000060560E+02 0.  0.
        -12    1    1    2    0    0 -0.46154663884E+00 -0.10856577540E+01 -0.34607940701E-01  0.11802015795E+01  0.00000000000E+00 0.  1.
         11    1    3    3    0    0  0.36897111227E+01  0.52458813878E+01  0.53412697630E+01  0.83464005803E+01  0.51100000000E-03 0. -1.
        -11    1    3    3    0    0  0.23167095470E+02 -0.33370815351E+02 -0.10477635643E+02  0.41953622950E+02  0.51100000000E-03 0.  1.
         12    1    3    3    0    0 -0.26395259954E+02  0.29210591717E+02  0.51709738205E+01  0.39707774890E+02  0.00000000000E+00 0. -1.
</event>
<event>
 7    1  0.1910099E-015  0.9000762E+02  0.7816164E-02  0.1186339E+00
        -11   -1    0    0    0    0  0.00000000000E+00  0.00000000000E+00  0.45593999997E+02  0.45594000000E+02  0.51100000000E-03 0. -1.
         11   -1    0    0    0    0 -0.00000000000E+00 -0.00000000000E+00 -0.45593999997E+02  0.45594000000E+02  0.51100000000E-03 0.  1.
    9900012    2    1    2    0    0 -0.99622142472E+00 -0.28105702916E+00  0.56732559476E+00  0.90007615100E+02  0.89999874820E+02 0.  0.
        -12    1    1    2    0    0  0.99622142472E+00  0.28105702916E+00 -0.56732559476E+00  0.11803848996E+01  0.00000000000E+00 0.  1.
         11    1    3    3    0    0  0.97388171849E+01 -0.24854694512E+02 -0.93262289307E+01  0.28276827010E+02  0.51100000000E-03 0.  1.
        -11    1    3    3    0    0  0.78670907258E+01 -0.15055886396E+02  0.72576708595E+00  0.17002869457E+02  0.51100000000E-03 0. -1.
        -12    1    3    3    0    0 -0.18602129335E+02  0.39629523879E+02  0.91677874395E+01  0.44727918633E+02  0.00000000000E+00 0.  1.
</event>
<event>
 7    1  0.1910099E-015  0.9000777E+02  0.7816164E-02  0.1186339E+00
        -11   -1    0    0    0    0  0.00000000000E+00  0.00000000000E+00  0.45593999997E+02  0.45594000000E+02  0.51100000000E-03 0.  1.
         11   -1    0    0    0    0 -0.00000000000E+00 -0.00000000000E+00 -0.45593999997E+02  0.45594000000E+02  0.51100000000E-03 0. -1.
    9900012    2    1    2    0    0  0.34664373366E+00  0.88741681108E+00 -0.69660718232E+00  0.90007774580E+02  0.90000036405E+02 0.  0.
        -12    1    1    2    0    0 -0.34664373366E+00 -0.88741681108E+00  0.69660718232E+00  0.11802254196E+01  0.00000000000E+00 0.  1.
         11    1    3    3    0    0  0.90664367239E+01 -0.14666864431E+01  0.46792141658E+01  0.10307593777E+02  0.51100000000E-03 0. -1.
        -11    1    3    3    0    0  0.11234413990E+02  0.90513758390E+01  0.32952774788E+02  0.35972556606E+02  0.51100000000E-03 0.  1.
         12    1    3    3    0    0 -0.19954206980E+02 -0.66972725847E+01 -0.38328596136E+02  0.43727624198E+02  0.00000000000E+00 0. -1.
</event>
<event>
 7    1  0.1910099E-015  0.9000763E+02  0.7816164E-02  0.1186339E+00
        -11   -1    0    0    0    0  0.00000000000E+00  0.00000000000E+00  0.45593999997E+02  0.45594000000E+02  0.51100000000E-03 0. -1.
         11   -1    0    0    0    0 -0.00000000000E+00 -0.00000000000E+00 -0.45593999997E+02  0.45594000000E+02  0.51100000000E-03 0.  1.
    9900012    2    1    2    0    0 -0.72568739118E+00  0.37661926087E+00  0.85135370137E+00  0.90007632522E+02  0.89999892472E+02 0.  0.
        -12    1    1    2    0    0  0.72568739118E+00 -0.37661926087E+00 -0.85135370137E+00  0.11803674776E+01  0.00000000000E+00 0.  1.
         11    1    3    3    0    0 -0.22214596954E+02  0.36250155069E+01  0.28870129133E+02  0.36607559488E+02  0.51100000000E-03 0. -1.
        -11    1    3    3    0    0 -0.36752135524E+01 -0.32318386375E+01  0.80498133632E+01  0.94207999171E+01  0.51100000000E-03 0.  1.
        -12    1    3    3    0    0  0.25164123115E+02 -0.16557608567E-01 -0.36068588795E+02  0.43979273117E+02  0.00000000000E+00 0.  1.
</event>
<event>
 7    1  0.1910099E-015  0.9000775E+02  0.7816164E-02  0.1186339E+00
        -11   -1    0    0    0    0  0.00000000000E+00  0.00000000000E+00  0.45593999997E+02  0.45594000000E+02  0.51100000000E-03 0. -1.
         11   -1    0    0    0    0 -0.00000000000E+00 -0.00000000000E+00 -0.45593999997E+02  0.45594000000E+02  0.51100000000E-03 0.  1.
    9900012    2    1    2    0    0 -0.84741394085E+00  0.35104322924E+00  0.74272390147E+00  0.90007754038E+02  0.90000015592E+02 0.  0.
        -12    1    1    2    0    0  0.84741394085E+00 -0.35104322924E+00 -0.74272390147E+00  0.11802459616E+01  0.00000000000E+00 0.  1.
         11    1    3    3    0    0  0.10212673055E+02 -0.37080414025E+00 -0.25945716057E+01  0.10543623131E+02  0.51100000000E-03 0. -1.
        -11    1    3    3    0    0  0.16413191870E+02 -0.26736856045E+02  0.19992141696E+02  0.37201318100E+02  0.51100000000E-03 0.  1.
         12    1    3    3    0    0 -0.27473278866E+02  0.27458703414E+02 -0.16654846188E+02  0.42262812808E+02  0.00000000000E+00 0. -1.
</event>
<event>
 7    1  0.1910099E-015  0.9000762E+02  0.7816164E-02  0.1186339E+00
        -11   -1    0    0    0    0  0.00000000000E+00  0.00000000000E+00  0.45593999997E+02  0.45594000000E+02  0.51100000000E-03 0. -1.
         11   -1    0    0    0    0 -0.00000000000E+00 -0.00000000000E+00 -0.45593999997E+02  0.45594000000E+02  0.51100000000E-03 0.  1.
    9900012    2    1    2    0    0 -0.14934047757E+00 -0.11708891276E+01 -0.23073646813E-02  0.90007623259E+02  0.89999883086E+02 0.  0.
        -12    1    1    2    0    0  0.14934047757E+00  0.11708891276E+01  0.23073646813E-02  0.11803767413E+01  0.00000000000E+00 0.  1.
         11    1    3    3    0    0 -0.17089169418E+01  0.58186322198E+01 -0.28368680001E+01  0.66951249678E+01  0.51100000000E-03 0. -1.
        -11    1    3    3    0    0  0.61254270852E+00 -0.25806530246E+02 -0.33554577111E+02  0.42335113763E+02  0.51100000000E-03 0.  1.
         12    1    3    3    0    0  0.94703375568E+00  0.18817008899E+02  0.36389137747E+02  0.40977384528E+02  0.00000000000E+00 0. -1.
</event>
<event>
 7    1  0.1910099E-015  0.9000771E+02  0.7816164E-02  0.1186339E+00
        -11   -1    0    0    0    0  0.00000000000E+00  0.00000000000E+00  0.45593999997E+02  0.45594000000E+02  0.51100000000E-03 0. -1.
         11   -1    0    0    0    0 -0.00000000000E+00 -0.00000000000E+00 -0.45593999997E+02  0.45594000000E+02  0.51100000000E-03 0.  1.
    9900012    2    1    2    0    0 -0.93989040566E+00  0.20629775784E+00 -0.68347492700E+00  0.90007707360E+02  0.89999968297E+02 0.  0.
        -12    1    1    2    0    0  0.93989040566E+00 -0.20629775784E+00  0.68347492700E+00  0.11802926397E+01  0.00000000000E+00 0.  1.
         11    1    3    3    0    0 -0.26059919788E+02  0.32273938757E+02  0.11298006381E+02  0.42992691131E+02  0.51100000000E-03 0. -1.
        -11    1    3    3    0    0  0.75043835244E+01  0.13311208995E+01 -0.30801730323E+01  0.82204088158E+01  0.51100000000E-03 0.  1.
        -12    1    3    3    0    0  0.17615645858E+02 -0.33398761899E+02 -0.89013082762E+01  0.38794607413E+02  0.00000000000E+00 0.  1.
</event>
<event>
 7    1  0.1910099E-015  0.9000784E+02  0.7816164E-02  0.1186339E+00
        -11   -1    0    0    0    0  0.00000000000E+00  0.00000000000E+00  0.45593999997E+02  0.45594000000E+02  0.51100000000E-03 0.  1.
         11   -1    0    0    0    0 -0.00000000000E+00 -0.00000000000E+00 -0.45593999997E+02  0.45594000000E+02  0.51100000000E-03 0. -1.
    9900012    2    1    2    0    0  0.10441759761E+01  0.54856564414E+00  0.39318627546E-01  0.90007841668E+02  0.90000104378E+02 0.  0.
        -12    1    1    2    0    0 -0.10441759761E+01 -0.54856564414E+00 -0.39318627546E-01  0.11801583324E+01  0.00000000000E+00 0.  1.
         11    1    3    3    0    0  0.94303759854E+01  0.25475973214E+01 -0.23216712066E+01  0.10040537874E+02  0.51100000000E-03 0. -1.
        -11    1    3    3    0    0 -0.12173569713E+02 -0.20837054927E+02  0.34749863990E+02  0.42307584487E+02  0.51100000000E-03 0.  1.
         12    1    3    3    0    0  0.37873697035E+01  0.18838023249E+02 -0.32388874156E+02  0.37659719307E+02  0.00000000000E+00 0. -1.
</event>
<event>
 7    1  0.1910099E-015  0.9000737E+02  0.7816164E-02  0.1186340E+00
        -11   -1    0    0    0    0  0.00000000000E+00  0.00000000000E+00  0.45593999997E+02  0.45594000000E+02  0.51100000000E-03 0.  1.
         11   -1    0    0    0    0 -0.00000000000E+00 -0.00000000000E+00 -0.45593999997E+02  0.45594000000E+02  0.51100000000E-03 0. -1.
    9900012    2    1    2    0    0 -0.71109888592E+00 -0.91856220292E+00 -0.21088032282E+00  0.90007369382E+02  0.89999625857E+02 0.  0.
        -12    1    1    2    0    0  0.71109888592E+00  0.91856220292E+00  0.21088032282E+00  0.11806306182E+01  0.00000000000E+00 0.  1.
         11    1    3    3    0    0 -0.54203124245E+01 -0.52597593732E+01  0.64253534871E+01  0.99161496125E+01  0.51100000000E-03 0. -1.
        -11    1    3    3    0    0 -0.24115287507E+02  0.11503988136E+02  0.25075529557E+02  0.36642475590E+02  0.51100000000E-03 0.  1.
         12    1    3    3    0    0  0.28824501045E+02 -0.71627909653E+01 -0.31711763367E+02  0.43448744179E+02  0.00000000000E+00 0. -1.
</event>
<event>
 7    1  0.1910099E-015  0.9000796E+02  0.7816164E-02  0.1186339E+00
        -11   -1    0    0    0    0  0.00000000000E+00  0.00000000000E+00  0.45593999997E+02  0.45594000000E+02  0.51100000000E-03 0. -1.
         11   -1    0    0    0    0 -0.00000000000E+00 -0.00000000000E+00 -0.45593999997E+02  0.45594000000E+02  0.51100000000E-03 0.  1.
    9900012    2    1    2    0    0  0.67578278774E+00  0.19597039105E+00  0.94731276745E+00  0.90007962607E+02  0.90000226913E+02 0.  0.
        -12    1    1    2    0    0 -0.67578278774E+00 -0.19597039105E+00 -0.94731276745E+00  0.11800373934E+01  0.00000000000E+00 0.  1.
         11    1    3    3    0    0 -0.50899016524E+01  0.20633297160E+01 -0.19318644450E+01  0.58220725556E+01  0.51100000000E-03 0. -1.
        -11    1    3    3    0    0 -0.12563670841E+02  0.38027258847E+02  0.41521563480E+01  0.40263614381E+02  0.51100000000E-03 0.  1.
         12    1    3    3    0    0  0.18329355281E+02 -0.39894618172E+02 -0.12729791356E+01  0.43922275670E+02  0.00000000000E+00 0. -1.
</event>
<event>
 7    1  0.1910099E-015  0.9000765E+02  0.7816164E-02  0.1186339E+00
        -11   -1    0    0    0    0  0.00000000000E+00  0.00000000000E+00  0.45593999997E+02  0.45594000000E+02  0.51100000000E-03 0.  1.
         11   -1    0    0    0    0 -0.00000000000E+00 -0.00000000000E+00 -0.45593999997E+02  0.45594000000E+02  0.51100000000E-03 0. -1.
    9900012    2    1    2    0    0 -0.11675979735E+01 -0.16718830677E+00 -0.44596474040E-01  0.90007650135E+02  0.89999910317E+02 0.  0.
        -12    1    1    2    0    0  0.11675979735E+01  0.16718830677E+00  0.44596474040E-01  0.11803498647E+01  0.00000000000E+00 0.  1.
         11    1    3    3    0    0 -0.37367732481E+02 -0.10119492730E+02 -0.15346908604E+02  0.41644677545E+02  0.51100000000E-03 0. -1.
        -11    1    3    3    0    0 -0.19680183182E+01  0.50931380613E+01  0.72113392919E+01  0.90452510223E+01  0.51100000000E-03 0.  1.
        -12    1    3    3    0    0  0.38168152825E+02  0.48591663616E+01  0.80909728386E+01  0.39317721568E+02  0.00000000000E+00 0.  1.
</event>
<event>
 7    1  0.1910099E-015  0.9000776E+02  0.7816164E-02  0.1186339E+00
        -11   -1    0    0    0    0  0.00000000000E+00  0.00000000000E+00  0.45593999997E+02  0.45594000000E+02  0.51100000000E-03 0.  1.
         11   -1    0    0    0    0 -0.00000000000E+00 -0.00000000000E+00 -0.45593999997E+02  0.45594000000E+02  0.51100000000E-03 0. -1.
    9900012    2    1    2    0    0  0.59583287433E+00 -0.74542187437E+00 -0.69447068881E+00  0.90007762684E+02  0.90000024351E+02 0.  0.
        -12    1    1    2    0    0 -0.59583287433E+00  0.74542187437E+00  0.69447068881E+00  0.11802373162E+01  0.00000000000E+00 0.  1.
         11    1    3    3    0    0 -0.73819260952E+01 -0.92180492686E+01 -0.64289341218E+01  0.13446057392E+02  0.51100000000E-03 0. -1.
        -11    1    3    3    0    0 -0.19586379120E+02 -0.23960175608E+02 -0.77691436790E+01  0.31907300982E+02  0.51100000000E-03 0.  1.
         12    1    3    3    0    0  0.27564138089E+02  0.32432803002E+02  0.13503607112E+02  0.44654404309E+02  0.00000000000E+00 0. -1.
</event>
<event>
 7    1  0.1980427E-015  0.9000774E+02  0.7816164E-02  0.1186339E+00
        -11   -1    0    0    0    0  0.00000000000E+00  0.00000000000E+00  0.45593999997E+02  0.45594000000E+02  0.51100000000E-03 0.  1.
         11   -1    0    0    0    0 -0.00000000000E+00 -0.00000000000E+00 -0.45593999997E+02  0.45594000000E+02  0.51100000000E-03 0. -1.
    9900012    2    1    2    0    0  0.10655208522E+01 -0.50079421714E+00 -0.82993327457E-01  0.90007738407E+02  0.89999999754E+02 0.  0.
        -12    1    1    2    0    0 -0.10655208522E+01  0.50079421714E+00  0.82993327457E-01  0.11802615925E+01  0.00000000000E+00 0.  1.
         11    1    3    3    0    0  0.86630340552E+01 -0.31298572616E+01  0.27890663356E+01  0.96240873232E+01  0.51100000000E-03 0. -1.
        -11    1    3    3    0    0  0.95313499173E+01  0.13477003656E+02  0.34286759590E+02  0.38053359146E+02  0.51100000000E-03 0.  1.
         12    1    3    3    0    0 -0.17128863120E+02 -0.10847940612E+02 -0.37158819253E+02  0.42330291939E+02  0.00000000000E+00 0. -1.
</event>
<event>
 7    1  0.1910099E-015  0.9000785E+02  0.7816164E-02  0.1186339E+00
        -11   -1    0    0    0    0  0.00000000000E+00  0.00000000000E+00  0.45593999997E+02  0.45594000000E+02  0.51100000000E-03 0. -1.
         11   -1    0    0    0    0 -0.00000000000E+00 -0.00000000000E+00 -0.45593999997E+02  0.45594000000E+02  0.51100000000E-03 0.  1.
    9900012    2    1    2    0    0  0.10115534765E+01 -0.59683348644E+00 -0.11532538766E+00  0.90007851454E+02  0.90000114293E+02 0.  0.
        -12    1    1    2    0    0 -0.10115534765E+01  0.59683348644E+00  0.11532538766E+00  0.11801485464E+01  0.00000000000E+00 0.  1.
         11    1    3    3    0    0  0.45806742292E+01 -0.50709178557E+01 -0.58832413056E+01  0.90171676714E+01  0.51100000000E-03 0. -1.
        -11    1    3    3    0    0  0.13999150221E+02  0.39252696191E+02  0.54286737732E+00  0.41677872671E+02  0.51100000000E-03 0.  1.
         12    1    3    3    0    0 -0.17568270973E+02 -0.34778611821E+02  0.52250485406E+01  0.39312811111E+02  0.00000000000E+00 0. -1.
</event>
<event>
 7    1  0.1910099E-015  0.9000777E+02  0.7816164E-02  0.1186339E+00
        -11   -1    0    0    0    0  0.00000000000E+00  0.00000000000E+00  0.45593999997E+02  0.45594000000E+02  0.51100000000E-03 0.  1.
         11   -1    0    0    0    0 -0.00000000000E+00 -0.00000000000E+00 -0.45593999997E+02  0.45594000000E+02  0.51100000000E-03 0. -1.
    9900012    2    1    2    0    0 -0.57820857968E+00 -0.83251897239E+00 -0.60459971078E+00  0.90007765358E+02  0.90000027060E+02 0.  0.
        -12    1    1    2    0    0  0.57820857968E+00  0.83251897239E+00  0.60459971078E+00  0.11802346425E+01  0.00000000000E+00 0.  1.
         11    1    3    3    0    0 -0.36722256117E+02 -0.25839389157E+01 -0.21482519938E+02  0.42622757979E+02  0.51100000000E-03 0. -1.
        -11    1    3    3    0    0  0.67776451858E+01  0.67110265682E+01 -0.21029711716E+01  0.97671305854E+01  0.51100000000E-03 0.  1.
        -12    1    3    3    0    0  0.29366402351E+02 -0.49596066249E+01  0.22980891399E+02  0.37617876793E+02  0.00000000000E+00 0.  1.
</event>
<event>
 7    1  0.1910099E-015  0.9000836E+02  0.7816164E-02  0.1186338E+00
        -11   -1    0    0    0    0  0.00000000000E+00  0.00000000000E+00  0.45593999997E+02  0.45594000000E+02  0.51100000000E-03 0. -1.
         11   -1    0    0    0    0 -0.00000000000E+00 -0.00000000000E+00 -0.45593999997E+02  0.45594000000E+02  0.51100000000E-03 0.  1.
    9900012    2    1    2    0    0 -0.24159506452E-01  0.89849526862E+00  0.76398812784E+00  0.90008357983E+02  0.90000627506E+02 0.  0.
        -12    1    1    2    0    0  0.24159506452E-01 -0.89849526862E+00 -0.76398812784E+00  0.11796420173E+01  0.00000000000E+00 0.  1.
         11    1    3    3    0    0  0.22235356260E+02 -0.29418964783E+02 -0.10521065585E+02  0.38348133960E+02  0.51100000000E-03 0. -1.
        -11    1    3    3    0    0  0.19956384805E+01  0.40836089009E+01 -0.93533502382E+01  0.10399211294E+02  0.51100000000E-03 0.  1.
        -12    1    3    3    0    0 -0.24255154246E+02  0.26233851151E+02  0.20638403951E+02  0.41261012729E+02  0.00000000000E+00 0.  1.
</event>
<event>
 7    1  0.1910099E-015  0.9000775E+02  0.7816164E-02  0.1186339E+00
        -11   -1    0    0    0    0  0.00000000000E+00  0.00000000000E+00  0.45593999997E+02  0.45594000000E+02  0.51100000000E-03 0. -1.
         11   -1    0    0    0    0 -0.00000000000E+00 -0.00000000000E+00 -0.45593999997E+02  0.45594000000E+02  0.51100000000E-03 0.  1.
    9900012    2    1    2    0    0  0.93051363555E+00  0.36047707519E+00 -0.63023667289E+00  0.90007746802E+02  0.90000008260E+02 0.  0.
        -12    1    1    2    0    0 -0.93051363555E+00 -0.36047707519E+00  0.63023667289E+00  0.11802531981E+01  0.00000000000E+00 0.  1.
         11    1    3    3    0    0  0.33745923898E+02  0.27452470956E+02  0.66689746009E+01  0.44010234762E+02  0.51100000000E-03 0. -1.
        -11    1    3    3    0    0 -0.54122277992E+01 -0.10233081782E+02 -0.75536314220E+01  0.13822645204E+02  0.51100000000E-03 0.  1.
        -12    1    3    3    0    0 -0.27403182463E+02 -0.16858912099E+02  0.25442014814E+00  0.32174866836E+02  0.00000000000E+00 0.  1.
</event>
<event>
 7    1  0.1910099E-015  0.9000785E+02  0.7816164E-02  0.1186339E+00
        -11   -1    0    0    0    0  0.00000000000E+00  0.00000000000E+00  0.45593999997E+02  0.45594000000E+02  0.51100000000E-03 0.  1.
         11   -1    0    0    0    0 -0.00000000000E+00 -0.00000000000E+00 -0.45593999997E+02  0.45594000000E+02  0.51100000000E-03 0. -1.
    9900012    2    1    2    0    0  0.51167442742E+00  0.10541679809E+01 -0.14023704686E+00  0.90007852856E+02  0.90000115714E+02 0.  0.
        -12    1    1    2    0    0 -0.51167442742E+00 -0.10541679809E+01  0.14023704686E+00  0.11801471437E+01  0.00000000000E+00 0.  1.
         11    1    3    3    0    0 -0.55789329816E+01 -0.32403056347E+02 -0.23292709282E+02  0.40294327886E+02  0.51100000000E-03 0. -1.
        -11    1    3    3    0    0 -0.58803723246E+01 -0.22720750904E+01  0.36472866620E+01  0.72831177492E+01  0.51100000000E-03 0.  1.
        -12    1    3    3    0    0  0.11970979734E+02  0.35729299418E+02  0.19505185573E+02  0.42430407221E+02  0.00000000000E+00 0.  1.
</event>
<event>
 7    1  0.1910099E-015  0.9000774E+02  0.7816164E-02  0.1186339E+00
        -11   -1    0    0    0    0  0.00000000000E+00  0.00000000000E+00  0.45593999997E+02  0.45594000000E+02  0.51100000000E-03 0. -1.
         11   -1    0    0    0    0 -0.00000000000E+00 -0.00000000000E+00 -0.45593999997E+02  0.45594000000E+02  0.51100000000E-03 0.  1.
    9900012    2    1    2    0    0 -0.53270967037E+00 -0.41405673329E+00  0.96839975492E+00  0.90007737039E+02  0.89999998368E+02 0.  0.
        -12    1    1    2    0    0  0.53270967037E+00  0.41405673329E+00 -0.96839975492E+00  0.11802629608E+01  0.00000000000E+00 0.  1.
         11    1    3    3    0    0 -0.14718653745E+02  0.35755175857E+02  0.12309903558E+02  0.40578382108E+02  0.51100000000E-03 0. -1.
        -11    1    3    3    0    0  0.26612358640E+01  0.30165895366E+01 -0.73635417687E+01  0.83906934396E+01  0.51100000000E-03 0.  1.
        -12    1    3    3    0    0  0.11524708210E+02 -0.39185822127E+02 -0.39779620344E+01  0.41038661492E+02  0.00000000000E+00 0.  1.
</event>
<event>
 7    1  0.1910099E-015  0.9000775E+02  0.7816164E-02  0.1186339E+00
        -11   -1    0    0    0    0  0.00000000000E+00  0.00000000000E+00  0.45593999997E+02  0.45594000000E+02  0.51100000000E-03 0.  1.
         11   -1    0    0    0    0 -0.00000000000E+00 -0.00000000000E+00 -0.45593999997E+02  0.45594000000E+02  0.51100000000E-03 0. -1.
    9900012    2    1    2    0    0 -0.19607067696E+00  0.97374185199E+00  0.63748105395E+00  0.90007746214E+02  0.90000007664E+02 0.  0.
        -12    1    1    2    0    0  0.19607067696E+00 -0.97374185199E+00 -0.63748105395E+00  0.11802537858E+01  0.00000000000E+00 0.  1.
         11    1    3    3    0    0 -0.42091406943E+01  0.58841593254E+01 -0.37679327576E+02  0.38367589489E+02  0.51100000000E-03 0. -1.
        -11    1    3    3    0    0 -0.43734799963E+01  0.94647836643E+01  0.63380898804E+00  0.10445629286E+02  0.51100000000E-03 0.  1.
        -12    1    3    3    0    0  0.83865500136E+01 -0.14375201138E+02  0.37682999642E+02  0.41194527439E+02  0.00000000000E+00 0.  1.
</event>
<event>
 7    1  0.1910099E-015  0.9000752E+02  0.7816164E-02  0.1186339E+00
        -11   -1    0    0    0    0  0.00000000000E+00  0.00000000000E+00  0.45593999997E+02  0.45594000000E+02  0.51100000000E-03 0. -1.
         11   -1    0    0    0    0 -0.00000000000E+00 -0.00000000000E+00 -0.45593999997E+02  0.45594000000E+02  0.51100000000E-03 0.  1.
    9900012    2    1    2    0    0 -0.87741192159E+00  0.37135710555E+00  0.69696946554E+00  0.90007523733E+02  0.89999782246E+02 0.  0.
        -12    1    1    2    0    0  0.87741192159E+00 -0.37135710555E+00 -0.69696946554E+00  0.11804762666E+01  0.00000000000E+00 0.  1.
         11    1    3    3    0    0  0.33672038185E+02  0.11792771002E+01  0.25395997869E+02  0.42191866018E+02  0.51100000000E-03 0. -1.
        -11    1    3    3    0    0 -0.62509906038E+01 -0.77639072736E+01 -0.57354857701E+00  0.99840922428E+01  0.51100000000E-03 0.  1.
        -12    1    3    3    0    0 -0.28298459503E+02  0.69559872789E+01 -0.24125479826E+02  0.37831565473E+02  0.00000000000E+00 0.  1.
</event>
<event>
 7    1  0.1910099E-015  0.9000716E+02  0.7816164E-02  0.1186340E+00
        -11   -1    0    0    0    0  0.00000000000E+00  0.00000000000E+00  0.45593999997E+02  0.45594000000E+02  0.51100000000E-03 0.  1.
         11   -1    0    0    0    0 -0.00000000000E+00 -0.00000000000E+00 -0.45593999997E+02  0.45594000000E+02  0.51100000000E-03 0. -1.
    9900012    2    1    2    0    0  0.68006049016E+00 -0.71608433879E+00 -0.64739405229E+00  0.90007162115E+02  0.89999415854E+02 0.  0.
        -12    1    1    2    0    0 -0.68006049016E+00  0.71608433879E+00  0.64739405229E+00  0.11808378845E+01  0.00000000000E+00 0.  1.
         11    1    3    3    0    0  0.45445991449E+01  0.18340065561E+01 -0.14628969806E+02  0.15428017348E+02  0.51100000000E-03 0. -1.
        -11    1    3    3    0    0  0.28709091688E+02 -0.81642769107E+01  0.25823544094E+02  0.39467997072E+02  0.51100000000E-03 0.  1.
         12    1    3    3    0    0 -0.32573630343E+02  0.56141860158E+01 -0.11841968340E+02  0.35111147696E+02  0.00000000000E+00 0. -1.
</event>
<event>
 7    1  0.1910099E-015  0.9000706E+02  0.7816164E-02  0.1186340E+00
        -11   -1    0    0    0    0  0.00000000000E+00  0.00000000000E+00  0.45593999997E+02  0.45594000000E+02  0.51100000000E-03 0. -1.
         11   -1    0    0    0    0 -0.00000000000E+00 -0.00000000000E+00 -0.45593999997E+02  0.45594000000E+02  0.51100000000E-03 0.  1.
    9900012    2    1    2    0    0  0.78236881333E+00  0.47817909937E+00  0.74421273479E+00  0.90007064436E+02  0.89999316884E+02 0.  0.
        -12    1    1    2    0    0 -0.78236881333E+00 -0.47817909937E+00 -0.74421273479E+00  0.11809355638E+01  0.00000000000E+00 0.  1.
         11    1    3    3    0    0 -0.25933623256E+01  0.27963649545E+01 -0.13033320413E+02  0.13579861058E+02  0.51100000000E-03 0. -1.
        -11    1    3    3    0    0 -0.19488479287E+02  0.27666545997E+02  0.18261305267E+02  0.38454048716E+02  0.51100000000E-03 0.  1.
         12    1    3    3    0    0  0.22864210425E+02 -0.29984731852E+02 -0.44837721193E+01  0.37973154663E+02  0.00000000000E+00 0. -1.
</event>
<event>
 7    1  0.1910099E-015  0.9000767E+02  0.7816164E-02  0.1186339E+00
        -11   -1    0    0    0    0  0.00000000000E+00  0.00000000000E+00  0.45593999997E+02  0.45594000000E+02  0.51100000000E-03 0.  1.
         11   -1    0    0    0    0 -0.00000000000E+00 -0.00000000000E+00 -0.45593999997E+02  0.45594000000E+02  0.51100000000E-03 0. -1.
    9900012    2    1    2    0    0  0.74577269273E+00  0.50839286930E+00 -0.76062207964E+00  0.90007666925E+02  0.89999927329E+02 0.  0.
        -12    1    1    2    0    0 -0.74577269273E+00 -0.50839286930E+00  0.76062207964E+00  0.11803330745E+01  0.00000000000E+00 0.  1.
         11    1    3    3    0    0  0.57607020398E+01  0.31749592494E+01 -0.57039442534E+01  0.87063789565E+01  0.51100000000E-03 0. -1.
        -11    1    3    3    0    0  0.22119302276E+02 -0.32420479430E+02 -0.56769046852E+01  0.39655746957E+02  0.51100000000E-03 0.  1.
         12    1    3    3    0    0 -0.27134231624E+02  0.29753913050E+02  0.10620226859E+02  0.41645541011E+02  0.00000000000E+00 0. -1.
</event>
<event>
 7    1  0.1910099E-015  0.9000762E+02  0.7816164E-02  0.1186339E+00
        -11   -1    0    0    0    0  0.00000000000E+00  0.00000000000E+00  0.45593999997E+02  0.45594000000E+02  0.51100000000E-03 0. -1.
         11   -1    0    0    0    0 -0.00000000000E+00 -0.00000000000E+00 -0.45593999997E+02  0.45594000000E+02  0.51100000000E-03 0.  1.
    9900012    2    1    2    0    0  0.62941638632E+00  0.13263161961E+00  0.98971654812E+00  0.90007620832E+02  0.89999880627E+02 0.  0.
        -12    1    1    2    0    0 -0.62941638632E+00 -0.13263161961E+00 -0.98971654812E+00  0.11803791677E+01  0.00000000000E+00 0.  1.
         11    1    3    3    0    0  0.14324450639E+02 -0.16567565266E+02  0.36403840807E+02  0.42484276276E+02  0.51100000000E-03 0. -1.
        -11    1    3    3    0    0 -0.97080511437E+01  0.10470042257E+02 -0.34156543202E+01  0.14681101341E+02  0.51100000000E-03 0.  1.
        -12    1    3    3    0    0 -0.39869831085E+01  0.62301546286E+01 -0.31998469939E+02  0.32842243215E+02  0.00000000000E+00 0.  1.
</event>
<event>
 7    1  0.1910099E-015  0.9000767E+02  0.7816164E-02  0.1186339E+00
        -11   -1    0    0    0    0  0.00000000000E+00  0.00000000000E+00  0.45593999997E+02  0.45594000000E+02  0.51100000000E-03 0.  1.
         11   -1    0    0    0    0 -0.00000000000E+00 -0.00000000000E+00 -0.45593999997E+02  0.45594000000E+02  0.51100000000E-03 0. -1.
    9900012    2    1    2    0    0 -0.10441225903E+01 -0.43909530656E+00  0.33192340613E+00  0.90007673850E+02  0.89999934345E+02 0.  0.
        -12    1    1    2    0    0  0.10441225903E+01  0.43909530656E+00 -0.33192340613E+00  0.11803261496E+01  0.00000000000E+00 0.  1.
         11    1    3    3    0    0 -0.69077373130E+01  0.52415430909E+00 -0.35925580941E+02  0.36587415032E+02  0.51100000000E-03 0. -1.
        -11    1    3    3    0    0 -0.20645326989E+01 -0.67906651032E+01 -0.64520879583E+01  0.95919167580E+01  0.51100000000E-03 0.  1.
        -12    1    3    3    0    0  0.79281474216E+01  0.58274154875E+01  0.42709592306E+02  0.43828342060E+02  0.00000000000E+00 0.  1.
</event>
<event>
 7    1  0.1910099E-015  0.9000833E+02  0.7816164E-02  0.1186338E+00
        -11   -1    0    0    0    0  0.00000000000E+00  0.00000000000E+00  0.45593999997E+02  0.45594000000E+02  0.51100000000E-03 0.  1.
         11   -1    0    0    0    0 -0.00000000000E+00 -0.00000000000E+00 -0.45593999997E+02  0.45594000000E+02  0.51100000000E-03 0. -1.
    9900012    2    1    2    0    0 -0.83569877626E+00  0.79273541498E+00  0.25455315898E+00  0.90008330897E+02  0.90000600062E+02 0.  0.
        -12    1    1    2    0    0  0.83569877626E+00 -0.79273541498E+00 -0.25455315898E+00  0.11796691034E+01  0.00000000000E+00 0.  1.
         11    1    3    3    0    0 -0.13795357704E+01  0.12101505846E+00 -0.10357779341E+02  0.10449945298E+02  0.51100000000E-03 0. -1.
        -11    1    3    3    0    0  0.26207999394E+02  0.87024887135E+01 -0.23402519898E+02  0.36197658486E+02  0.51100000000E-03 0.  1.
         12    1    3    3    0    0 -0.25664162400E+02 -0.80307683570E+01  0.34014852398E+02  0.43360727113E+02  0.00000000000E+00 0. -1.
</event>
<event>
 7    1  0.1910099E-015  0.9000773E+02  0.7816164E-02  0.1186339E+00
        -11   -1    0    0    0    0  0.00000000000E+00  0.00000000000E+00  0.45593999997E+02  0.45594000000E+02  0.51100000000E-03 0.  1.
         11   -1    0    0    0    0 -0.00000000000E+00 -0.00000000000E+00 -0.45593999997E+02  0.45594000000E+02  0.51100000000E-03 0. -1.
    9900012    2    1    2    0    0 -0.56437937651E+00  0.76011481782E+00 -0.70479180802E+00  0.90007733035E+02  0.89999994311E+02 0.  0.
        -12    1    1    2    0    0  0.56437937651E+00 -0.76011481782E+00  0.70479180802E+00  0.11802669654E+01  0.00000000000E+00 0.  1.
         11    1    3    3    0    0 -0.23287218033E+02  0.27483691396E+02 -0.18709739231E+02  0.40591897700E+02  0.51100000000E-03 0. -1.
        -11    1    3    3    0    0 -0.56749130552E+01 -0.13332424702E+01  0.82352192866E+01  0.10089648687E+02  0.51100000000E-03 0.  1.
        -12    1    3    3    0    0  0.28397751712E+02 -0.25390334108E+02  0.97697281368E+01  0.39326186648E+02  0.00000000000E+00 0.  1.
</event>
<event>
 7    1  0.1910099E-015  0.9000796E+02  0.7816164E-02  0.1186339E+00
        -11   -1    0    0    0    0  0.00000000000E+00  0.00000000000E+00  0.45593999997E+02  0.45594000000E+02  0.51100000000E-03 0. -1.
         11   -1    0    0    0    0 -0.00000000000E+00 -0.00000000000E+00 -0.45593999997E+02  0.45594000000E+02  0.51100000000E-03 0.  1.
    9900012    2    1    2    0    0 -0.38781383236E+00 -0.10987946240E+01  0.18640149605E+00  0.90007959868E+02  0.90000224138E+02 0.  0.
        -12    1    1    2    0    0  0.38781383236E+00  0.10987946240E+01 -0.18640149605E+00  0.11800401316E+01  0.00000000000E+00 0.  1.
         11    1    3    3    0    0 -0.42061630385E+01 -0.90942426414E+01 -0.31549604471E+00  0.10024798988E+02  0.51100000000E-03 0. -1.
        -11    1    3    3    0    0 -0.14237900074E+02 -0.32542156615E+02 -0.15973608915E+01  0.35556452547E+02  0.51100000000E-03 0.  1.
         12    1    3    3    0    0  0.18056249281E+02  0.40537604632E+02  0.20992584323E+01  0.44426708334E+02  0.00000000000E+00 0. -1.
</event>
<event>
 7    1  0.1910099E-015  0.9000774E+02  0.7816164E-02  0.1186339E+00
        -11   -1    0    0    0    0  0.00000000000E+00  0.00000000000E+00  0.45593999997E+02  0.45594000000E+02  0.51100000000E-03 0.  1.
         11   -1    0    0    0    0 -0.00000000000E+00 -0.00000000000E+00 -0.45593999997E+02  0.45594000000E+02  0.51100000000E-03 0. -1.
    9900012    2    1    2    0    0 -0.64401051358E+00 -0.78282015563E+00 -0.60453283924E+00  0.90007738634E+02  0.89999999984E+02 0.  0.
        -12    1    1    2    0    0  0.64401051358E+00  0.78282015563E+00  0.60453283924E+00  0.11802613657E+01  0.00000000000E+00 0.  1.
         11    1    3    3    0    0 -0.27404599384E+02 -0.18091116159E+01 -0.21350661169E+02  0.34787004540E+02  0.51100000000E-03 0. -1.
        -11    1    3    3    0    0 -0.77618898581E+01  0.30283633963E+01 -0.70023626074E+01  0.10883519714E+02  0.51100000000E-03 0.  1.
        -12    1    3    3    0    0  0.34522478729E+02 -0.20020719360E+01  0.27748490937E+02  0.44337214379E+02  0.00000000000E+00 0.  1.
</event>
<event>
 7    1  0.1910099E-015  0.9000776E+02  0.7816164E-02  0.1186339E+00
        -11   -1    0    0    0    0  0.00000000000E+00  0.00000000000E+00  0.45593999997E+02  0.45594000000E+02  0.51100000000E-03 0. -1.
         11   -1    0    0    0    0 -0.00000000000E+00 -0.00000000000E+00 -0.45593999997E+02  0.45594000000E+02  0.51100000000E-03 0.  1.
    9900012    2    1    2    0    0 -0.11048555816E+01 -0.41423012653E+00 -0.25817535216E-01  0.90007763160E+02  0.90000024833E+02 0.  0.
        -12    1    1    2    0    0  0.11048555816E+01  0.41423012653E+00  0.25817535216E-01  0.11802368402E+01  0.00000000000E+00 0.  1.
         11    1    3    3    0    0 -0.14228183661E+02  0.28062118321E+02  0.26620794940E+02  0.41213959024E+02  0.51100000000E-03 0. -1.
        -11    1    3    3    0    0  0.46308032054E+01  0.47008789770E+01 -0.36326014093E+01  0.75324892794E+01  0.51100000000E-03 0.  1.
        -12    1    3    3    0    0  0.84925248736E+01 -0.33177227424E+02 -0.23014011066E+02  0.41261314856E+02  0.00000000000E+00 0.  1.
</event>
<event>
 7    1  0.1910099E-015  0.9000766E+02  0.7816164E-02  0.1186339E+00
        -11   -1    0    0    0    0  0.00000000000E+00  0.00000000000E+00  0.45593999997E+02  0.45594000000E+02  0.51100000000E-03 0.  1.
         11   -1    0    0    0    0 -0.00000000000E+00 -0.00000000000E+00 -0.45593999997E+02  0.45594000000E+02  0.51100000000E-03 0. -1.
    9900012    2    1    2    0    0 -0.11211667167E+01 -0.18752850074E+00  0.31784715400E+00  0.90007657440E+02  0.89999917718E+02 0.  0.
        -12    1    1    2    0    0  0.11211667167E+01  0.18752850074E+00 -0.31784715400E+00  0.11803425598E+01  0.00000000000E+00 0.  1.
         11    1    3    3    0    0 -0.71483996098E+00  0.12250388315E+01  0.12245916087E+02  0.12327780716E+02  0.51100000000E-03 0. -1.
        -11    1    3    3    0    0 -0.68032096528E+01  0.73870156285E+01  0.31420848382E+02  0.32986684811E+02  0.51100000000E-03 0.  1.
         12    1    3    3    0    0  0.63968828970E+01 -0.87995829608E+01 -0.43348917315E+02  0.44693191914E+02  0.00000000000E+00 0. -1.
</event>
<event>
 7    1  0.1910099E-015  0.9000774E+02  0.7816164E-02  0.1186339E+00
        -11   -1    0    0    0    0  0.00000000000E+00  0.00000000000E+00  0.45593999997E+02  0.45594000000E+02  0.51100000000E-03 0.  1.
         11   -1    0    0    0    0 -0.00000000000E+00 -0.00000000000E+00 -0.45593999997E+02  0.45594000000E+02  0.51100000000E-03 0. -1.
    9900012    2    1    2    0    0  0.26343968752E+00 -0.10537881817E+01 -0.46168341629E+00  0.90007736649E+02  0.89999997973E+02 0.  0.
        -12    1    1    2    0    0 -0.26343968752E+00  0.10537881817E+01  0.46168341629E+00  0.11802633510E+01  0.00000000000E+00 0.  1.
         11    1    3    3    0    0 -0.41721143186E+01 -0.98585864069E+01  0.33690821905E+01  0.11222699270E+02  0.51100000000E-03 0. -1.
        -11    1    3    3    0    0 -0.25706920289E+02 -0.21717124911E+02  0.73697581114E+01  0.34449856314E+02  0.51100000000E-03 0.  1.
         12    1    3    3    0    0  0.30142474295E+02  0.30521923136E+02 -0.11200523718E+02  0.44335181066E+02  0.00000000000E+00 0. -1.
</event>
<event>
 7    1  0.1910099E-015  0.9000784E+02  0.7816164E-02  0.1186339E+00
        -11   -1    0    0    0    0  0.00000000000E+00  0.00000000000E+00  0.45593999997E+02  0.45594000000E+02  0.51100000000E-03 0. -1.
         11   -1    0    0    0    0 -0.00000000000E+00 -0.00000000000E+00 -0.45593999997E+02  0.45594000000E+02  0.51100000000E-03 0.  1.
    9900012    2    1    2    0    0  0.90117658565E+00  0.68403566986E+00  0.33578586963E+00  0.90007840610E+02  0.90000103306E+02 0.  0.
        -12    1    1    2    0    0 -0.90117658565E+00 -0.68403566986E+00 -0.33578586963E+00  0.11801593903E+01  0.00000000000E+00 0.  1.
         11    1    3    3    0    0  0.32908189529E+02 -0.25153588733E+02  0.96211959527E+01  0.42523162818E+02  0.51100000000E-03 0. -1.
        -11    1    3    3    0    0  0.16698356922E+01  0.79956259956E+01 -0.36971888688E+01  0.89659127864E+01  0.51100000000E-03 0.  1.
        -12    1    3    3    0    0 -0.33676848635E+02  0.17841998408E+02 -0.55882212143E+01  0.38518765005E+02  0.00000000000E+00 0.  1.
</event>
<event>
 7    1  0.1910099E-015  0.9000777E+02  0.7816164E-02  0.1186339E+00
        -11   -1    0    0    0    0  0.00000000000E+00  0.00000000000E+00  0.45593999997E+02  0.45594000000E+02  0.51100000000E-03 0. -1.
         11   -1    0    0    0    0 -0.00000000000E+00 -0.00000000000E+00 -0.45593999997E+02  0.45594000000E+02  0.51100000000E-03 0.  1.
    9900012    2    1    2    0    0 -0.29409711086E+00  0.82914884691E+00 -0.78674003195E+00  0.90007770870E+02  0.90000032646E+02 0.  0.
        -12    1    1    2    0    0  0.29409711086E+00 -0.82914884691E+00  0.78674003195E+00  0.11802291298E+01  0.00000000000E+00 0.  1.
         11    1    3    3    0    0 -0.86826573916E+01  0.35290762809E+02 -0.94827674837E+01  0.37559943536E+02  0.51100000000E-03 0. -1.
        -11    1    3    3    0    0  0.30066900682E+00  0.28814046664E+01 -0.96408671685E+01  0.10066738038E+02  0.51100000000E-03 0.  1.
        -12    1    3    3    0    0  0.80878912739E+01 -0.37343018629E+02  0.18336894620E+02  0.42381089296E+02  0.00000000000E+00 0.  1.
</event>
<event>
 7    1  0.1910099E-015  0.9000771E+02  0.7816164E-02  0.1186339E+00
        -11   -1    0    0    0    0  0.00000000000E+00  0.00000000000E+00  0.45593999997E+02  0.45594000000E+02  0.51100000000E-03 0.  1.
         11   -1    0    0    0    0 -0.00000000000E+00 -0.00000000000E+00 -0.45593999997E+02  0.45594000000E+02  0.51100000000E-03 0. -1.
    9900012    2    1    2    0    0 -0.16158366394E+00 -0.75863197608E+00 -0.88964193974E+00  0.90007705742E+02  0.89999966657E+02 0.  0.
        -12    1    1    2    0    0  0.16158366394E+00  0.75863197608E+00  0.88964193974E+00  0.11802942585E+01  0.00000000000E+00 0.  1.
         11    1    3    3    0    0 -0.72814730811E+01 -0.33577908922E+02 -0.14236938683E+02  0.37191211880E+02  0.51100000000E-03 0. -1.
        -11    1    3    3    0    0  0.56483784134E+00 -0.21084360236E+01 -0.10039526384E+02  0.10274075848E+02  0.51100000000E-03 0.  1.
        -12    1    3    3    0    0  0.65550515758E+01  0.34927712969E+02  0.23386823128E+02  0.42542418013E+02  0.00000000000E+00 0.  1.
</event>
<event>
 7    1  0.1910099E-015  0.9000773E+02  0.7816164E-02  0.1186339E+00
        -11   -1    0    0    0    0  0.00000000000E+00  0.00000000000E+00  0.45593999997E+02  0.45594000000E+02  0.51100000000E-03 0. -1.
         11   -1    0    0    0    0 -0.00000000000E+00 -0.00000000000E+00 -0.45593999997E+02  0.45594000000E+02  0.51100000000E-03 0.  1.
    9900012    2    1    2    0    0 -0.11370035378E+01 -0.20266901296E+00 -0.24329513283E+00  0.90007727025E+02  0.89999988222E+02 0.  0.
        -12    1    1    2    0    0  0.11370035378E+01  0.20266901296E+00  0.24329513283E+00  0.11802729750E+01  0.00000000000E+00 0.  1.
         11    1    3    3    0    0  0.13929379880E+02 -0.86240810385E+01  0.57408382107E+01  0.17359712591E+02  0.51100000000E-03 0. -1.
        -11    1    3    3    0    0  0.22664807483E+02 -0.39138302817E+01  0.15281821934E+02  0.27614229078E+02  0.51100000000E-03 0.  1.
         12    1    3    3    0    0 -0.37731190902E+02  0.12335242307E+02 -0.21265955277E+02  0.45033785356E+02  0.00000000000E+00 0. -1.
</event>
<event>
 7    1  0.1910099E-015  0.9000775E+02  0.7816164E-02  0.1186339E+00
        -11   -1    0    0    0    0  0.00000000000E+00  0.00000000000E+00  0.45593999997E+02  0.45594000000E+02  0.51100000000E-03 0. -1.
         11   -1    0    0    0    0 -0.00000000000E+00 -0.00000000000E+00 -0.45593999997E+02  0.45594000000E+02  0.51100000000E-03 0.  1.
    9900012    2    1    2    0    0 -0.56013569091E+00 -0.85257295564E+00  0.59359781381E+00  0.90007749602E+02  0.90000011097E+02 0.  0.
        -12    1    1    2    0    0  0.56013569091E+00  0.85257295564E+00 -0.59359781381E+00  0.11802503978E+01  0.00000000000E+00 0.  1.
         11    1    3    3    0    0  0.31013921460E+02 -0.27486582273E+01  0.31389530452E+01  0.31293313548E+02  0.51100000000E-03 0. -1.
        -11    1    3    3    0    0  0.41885475074E+01  0.17041431241E+02  0.67128846153E+01  0.18788750067E+02  0.51100000000E-03 0.  1.
        -12    1    3    3    0    0 -0.35762604658E+02 -0.15145345969E+02 -0.92582398467E+01  0.39925685987E+02  0.00000000000E+00 0.  1.
</event>
<event>
 7    1  0.1910099E-015  0.9000770E+02  0.7816164E-02  0.1186339E+00
        -11   -1    0    0    0    0  0.00000000000E+00  0.00000000000E+00  0.45593999997E+02  0.45594000000E+02  0.51100000000E-03 0. -1.
         11   -1    0    0    0    0 -0.00000000000E+00 -0.00000000000E+00 -0.45593999997E+02  0.45594000000E+02  0.51100000000E-03 0.  1.
    9900012    2    1    2    0    0  0.10273072287E+01  0.51686913566E+00 -0.26571327039E+00  0.90007696061E+02  0.89999956849E+02 0.  0.
        -12    1    1    2    0    0 -0.10273072287E+01 -0.51686913566E+00  0.26571327039E+00  0.11803039387E+01  0.00000000000E+00 0.  1.
         11    1    3    3    0    0 -0.21569821210E+02 -0.53899319862E+01  0.28590284768E+02  0.36217577738E+02  0.51100000000E-03 0. -1.
        -11    1    3    3    0    0 -0.46242388142E+01  0.15584594643E+02 -0.13132661069E+02  0.20898085124E+02  0.51100000000E-03 0.  1.
        -12    1    3    3    0    0  0.27221367253E+02 -0.96777935216E+01 -0.15723336969E+02  0.32892033200E+02  0.00000000000E+00 0.  1.
</event>
<event>
 7    1  0.1910099E-015  0.9000751E+02  0.7816164E-02  0.1186339E+00
        -11   -1    0    0    0    0  0.00000000000E+00  0.00000000000E+00  0.45593999997E+02  0.45594000000E+02  0.51100000000E-03 0. -1.
         11   -1    0    0    0    0 -0.00000000000E+00 -0.00000000000E+00 -0.45593999997E+02  0.45594000000E+02  0.51100000000E-03 0.  1.
    9900012    2    1    2    0    0  0.79475140679E+00  0.75067438604E+00  0.44542953702E+00  0.90007513107E+02  0.89999771480E+02 0.  0.
        -12    1    1    2    0    0 -0.79475140679E+00 -0.75067438604E+00 -0.44542953702E+00  0.11804868932E+01  0.00000000000E+00 0.  1.
         11    1    3    3    0    0 -0.24641205125E+02 -0.21981814636E+02  0.18488068861E+02  0.37844390009E+02  0.51100000000E-03 0. -1.
        -11    1    3    3    0    0  0.31230431343E+01 -0.76447350503E+01  0.32483990771E+01  0.88739770809E+01  0.51100000000E-03 0.  1.
        -12    1    3    3    0    0  0.22312913398E+02  0.30377224073E+02 -0.21291038401E+02  0.43289146016E+02  0.00000000000E+00 0.  1.
</event>
<event>
 7    1  0.1910099E-015  0.9000771E+02  0.7816164E-02  0.1186339E+00
        -11   -1    0    0    0    0  0.00000000000E+00  0.00000000000E+00  0.45593999997E+02  0.45594000000E+02  0.51100000000E-03 0. -1.
         11   -1    0    0    0    0 -0.00000000000E+00 -0.00000000000E+00 -0.45593999997E+02  0.45594000000E+02  0.51100000000E-03 0.  1.
    9900012    2    1    2    0    0  0.10985458804E+01  0.11391666084E+00  0.41628485882E+00  0.90007714805E+02  0.89999975841E+02 0.  0.
        -12    1    1    2    0    0 -0.10985458804E+01 -0.11391666084E+00 -0.41628485882E+00  0.11802851946E+01  0.00000000000E+00 0.  1.
         11    1    3    3    0    0  0.27324849260E+01  0.18690386767E+02 -0.69333003830E+01  0.20121324157E+02  0.51100000000E-03 0. -1.
        -11    1    3    3    0    0 -0.12792219750E+02  0.21967911531E+02 -0.53112741311E+01  0.25969976055E+02  0.51100000000E-03 0.  1.
        -12    1    3    3    0    0  0.11158280704E+02 -0.40544381637E+02  0.12660859373E+02  0.43916414593E+02  0.00000000000E+00 0.  1.
</event>
<event>
 7    1  0.1910099E-015  0.9000777E+02  0.7816164E-02  0.1186339E+00
        -11   -1    0    0    0    0  0.00000000000E+00  0.00000000000E+00  0.45593999997E+02  0.45594000000E+02  0.51100000000E-03 0.  1.
         11   -1    0    0    0    0 -0.00000000000E+00 -0.00000000000E+00 -0.45593999997E+02  0.45594000000E+02  0.51100000000E-03 0. -1.
    9900012    2    1    2    0    0  0.43562451466E+00 -0.15290687945E+00 -0.10861843502E+01  0.90007768805E+02  0.90000030553E+02 0.  0.
        -12    1    1    2    0    0 -0.43562451466E+00  0.15290687945E+00  0.10861843502E+01  0.11802311952E+01  0.00000000000E+00 0.  1.
         11    1    3    3    0    0 -0.28296818693E+02  0.23183683011E+02  0.17575422547E+02  0.40584339148E+02  0.51100000000E-03 0. -1.
        -11    1    3    3    0    0 -0.28479735294E+01 -0.10039150016E+02 -0.62819840031E-01  0.10435489105E+02  0.51100000000E-03 0.  1.
        -12    1    3    3    0    0  0.31580416737E+02 -0.13297439874E+02 -0.18598787057E+02  0.38987940552E+02  0.00000000000E+00 0.  1.
</event>
<event>
 7    1  0.1910099E-015  0.9000780E+02  0.7816164E-02  0.1186339E+00
        -11   -1    0    0    0    0  0.00000000000E+00  0.00000000000E+00  0.45593999997E+02  0.45594000000E+02  0.51100000000E-03 0.  1.
         11   -1    0    0    0    0 -0.00000000000E+00 -0.00000000000E+00 -0.45593999997E+02  0.45594000000E+02  0.51100000000E-03 0. -1.
    9900012    2    1    2    0    0 -0.72457853344E+00 -0.90901906370E+00  0.20381028400E+00  0.90007801567E+02  0.90000063748E+02 0.  0.
        -12    1    1    2    0    0  0.72457853344E+00  0.90901906370E+00 -0.20381028400E+00  0.11801984330E+01  0.00000000000E+00 0.  1.
         11    1    3    3    0    0  0.35428644596E+02 -0.24542566205E+02 -0.42557312707E+01  0.43308632658E+02  0.51100000000E-03 0. -1.
        -11    1    3    3    0    0 -0.44864331723E+01  0.73805446609E+01  0.68515407135E+01  0.11024705552E+02  0.51100000000E-03 0.  1.
        -12    1    3    3    0    0 -0.31666789957E+02  0.16253002481E+02 -0.23919991587E+01  0.35674463357E+02  0.00000000000E+00 0.  1.
</event>
<event>
 7    1  0.1910099E-015  0.9000776E+02  0.7816164E-02  0.1186339E+00
        -11   -1    0    0    0    0  0.00000000000E+00  0.00000000000E+00  0.45593999997E+02  0.45594000000E+02  0.51100000000E-03 0.  1.
         11   -1    0    0    0    0 -0.00000000000E+00 -0.00000000000E+00 -0.45593999997E+02  0.45594000000E+02  0.51100000000E-03 0. -1.
    9900012    2    1    2    0    0  0.88963250841E+00 -0.66355992965E+00 -0.40151674556E+00  0.90007757026E+02  0.90000018619E+02 0.  0.
        -12    1    1    2    0    0 -0.88963250841E+00  0.66355992965E+00  0.40151674556E+00  0.11802429738E+01  0.00000000000E+00 0.  1.
         11    1    3    3    0    0 -0.64633397249E+01  0.23504285665E+00 -0.47844383958E+01  0.80449273812E+01  0.51100000000E-03 0. -1.
        -11    1    3    3    0    0 -0.62415517911E+01  0.26916572917E+02 -0.26463498306E+02  0.38259320553E+02  0.51100000000E-03 0.  1.
         12    1    3    3    0    0  0.13594524024E+02 -0.27815175703E+02  0.30846419956E+02  0.43703509092E+02  0.00000000000E+00 0. -1.
</event>
<event>
 8    1  0.1910099E-015  0.9000778E+02  0.7816164E-02  0.1186339E+00
        -11   -1    0    0    0    0  0.00000000000E+00  0.00000000000E+00  0.45593999997E+02  0.45594000000E+02  0.51100000000E-03 0. -1.
         11   -1    0    0    0    0 -0.00000000000E+00 -0.00000000000E+00 -0.45593999997E+02  0.45594000000E+02  0.51100000000E-03 0.  1.
    9900012    2    1    2    0    0 -0.83746969680E+00  0.63026371581E+00  0.54251926030E+00  0.90007781803E+02  0.90000043723E+02 0.  0.
         23    2    3    3    0    0  0.39416256779E+01  0.12396995028E+02  0.22530634878E+02  0.64615402104E+02  0.59146418169E+02 0.  0.
        -12    1    1    2    0    0  0.83746969680E+00 -0.63026371581E+00 -0.54251926030E+00  0.11802181969E+01  0.00000000000E+00 0.  1.
         11    1    4    4    0    0  0.13129213589E+02 -0.21044423141E+02  0.15441036785E+02  0.29217625024E+02  0.51100000000E-03 0. -1.
        -11    1    4    4    0    0 -0.91875879114E+01  0.33441418169E+02  0.70895980930E+01  0.35397777079E+02  0.51100000000E-03 0.  1.
         12    1    3    3    0    0 -0.47790953747E+01 -0.11766731312E+02 -0.21988115618E+02  0.25392379700E+02  0.00000000000E+00 0. -1.
</event>
<event>
 7    1  0.1910099E-015  0.9000776E+02  0.7816164E-02  0.1186339E+00
        -11   -1    0    0    0    0  0.00000000000E+00  0.00000000000E+00  0.45593999997E+02  0.45594000000E+02  0.51100000000E-03 0.  1.
         11   -1    0    0    0    0 -0.00000000000E+00 -0.00000000000E+00 -0.45593999997E+02  0.45594000000E+02  0.51100000000E-03 0. -1.
    9900012    2    1    2    0    0  0.11631964597E+01  0.20195861615E-01  0.19882536168E+00  0.90007760448E+02  0.90000022086E+02 0.  0.
        -12    1    1    2    0    0 -0.11631964597E+01 -0.20195861615E-01 -0.19882536168E+00  0.11802395524E+01  0.00000000000E+00 0.  1.
         11    1    3    3    0    0 -0.23633226170E+02 -0.74354717555E+01 -0.30609044547E+02  0.39379299483E+02  0.51100000000E-03 0. -1.
        -11    1    3    3    0    0 -0.29359586172E+01 -0.40674727774E+01 -0.26469408929E+01  0.56719030447E+01  0.51100000000E-03 0.  1.
        -12    1    3    3    0    0  0.27732381247E+02  0.11523140395E+02  0.33454810802E+02  0.44956557920E+02  0.00000000000E+00 0.  1.
</event>
<event>
 7    1  0.1910099E-015  0.9000770E+02  0.7816164E-02  0.1186339E+00
        -11   -1    0    0    0    0  0.00000000000E+00  0.00000000000E+00  0.45593999997E+02  0.45594000000E+02  0.51100000000E-03 0.  1.
         11   -1    0    0    0    0 -0.00000000000E+00 -0.00000000000E+00 -0.45593999997E+02  0.45594000000E+02  0.51100000000E-03 0. -1.
    9900012    2    1    2    0    0 -0.13038355012E+00  0.50685659152E+00  0.10579268164E+01  0.90007698080E+02  0.89999958894E+02 0.  0.
        -12    1    1    2    0    0  0.13038355012E+00 -0.50685659152E+00 -0.10579268164E+01  0.11803019204E+01  0.00000000000E+00 0.  1.
         11    1    3    3    0    0  0.34718196636E+01 -0.12543215375E+02 -0.16214273476E+01  0.13115441686E+02  0.51100000000E-03 0. -1.
        -11    1    3    3    0    0 -0.57612192822E+01 -0.30520374845E+02 -0.78073472757E+01  0.32025608504E+02  0.51100000000E-03 0.  1.
         12    1    3    3    0    0  0.21590160685E+01  0.43570446812E+02  0.10486701440E+02  0.44866647889E+02  0.00000000000E+00 0. -1.
</event>
<event>
 7    1  0.1910099E-015  0.9000775E+02  0.7816164E-02  0.1186339E+00
        -11   -1    0    0    0    0  0.00000000000E+00  0.00000000000E+00  0.45593999997E+02  0.45594000000E+02  0.51100000000E-03 0.  1.
         11   -1    0    0    0    0 -0.00000000000E+00 -0.00000000000E+00 -0.45593999997E+02  0.45594000000E+02  0.51100000000E-03 0. -1.
    9900012    2    1    2    0    0  0.84942973428E+00  0.88482822659E-01 -0.81464086099E+00  0.90007745868E+02  0.90000007314E+02 0.  0.
        -12    1    1    2    0    0 -0.84942973428E+00 -0.88482822659E-01  0.81464086099E+00  0.11802541319E+01  0.00000000000E+00 0.  1.
         11    1    3    3    0    0 -0.15397919096E+02 -0.15359328919E+02 -0.34733857525E+02  0.40981041424E+02  0.51100000000E-03 0. -1.
        -11    1    3    3    0    0 -0.67187742811E+01 -0.10289428818E+01  0.40897983712E+01  0.79326604788E+01  0.51100000000E-03 0.  1.
        -12    1    3    3    0    0  0.22966123111E+02  0.16476754624E+02  0.29829418293E+02  0.41094043965E+02  0.00000000000E+00 0.  1.
</event>
<event>
 7    1  0.1910099E-015  0.9000792E+02  0.7816164E-02  0.1186339E+00
        -11   -1    0    0    0    0  0.00000000000E+00  0.00000000000E+00  0.45593999997E+02  0.45594000000E+02  0.51100000000E-03 0. -1.
         11   -1    0    0    0    0 -0.00000000000E+00 -0.00000000000E+00 -0.45593999997E+02  0.45594000000E+02  0.51100000000E-03 0.  1.
    9900012    2    1    2    0    0 -0.11487822227E+01 -0.26844049399E+00  0.28636717755E-01  0.90007923326E+02  0.90000187114E+02 0.  0.
        -12    1    1    2    0    0  0.11487822227E+01  0.26844049399E+00 -0.28636717755E-01  0.11800766736E+01  0.00000000000E+00 0.  1.
         11    1    3    3    0    0  0.49100424015E+01 -0.40480686741E+01  0.66777393313E+01  0.92242928841E+01  0.51100000000E-03 0. -1.
        -11    1    3    3    0    0  0.68838713632E+01 -0.23086937344E+02  0.26756009633E+02  0.36003866634E+02  0.51100000000E-03 0.  1.
         12    1    3    3    0    0 -0.12942695987E+02  0.26866565524E+02 -0.33405112246E+02  0.44779763808E+02  0.00000000000E+00 0. -1.
</event>
<event>
 7    1  0.1910099E-015  0.9000786E+02  0.7816164E-02  0.1186339E+00
        -11   -1    0    0    0    0  0.00000000000E+00  0.00000000000E+00  0.45593999997E+02  0.45594000000E+02  0.51100000000E-03 0.  1.
         11   -1    0    0    0    0 -0.00000000000E+00 -0.00000000000E+00 -0.45593999997E+02  0.45594000000E+02  0.51100000000E-03 0. -1.
    9900012    2    1    2    0    0  0.12780624751E+00  0.17948755440E+00 -0.11593875073E+01  0.90007860343E+02  0.90000123299E+02 0.  0.
        -12    1    1    2    0    0 -0.12780624751E+00 -0.17948755440E+00  0.11593875073E+01  0.11801396575E+01  0.00000000000E+00 0.  1.
         11    1    3    3    0    0  0.42915163920E+01 -0.16885293402E+02 -0.36012028954E+02  0.40004955641E+02  0.51100000000E-03 0. -1.
        -11    1    3    3    0    0 -0.47270078524E+01 -0.43810238733E+01 -0.25121772573E+01  0.69172977562E+01  0.51100000000E-03 0.  1.
        -12    1    3    3    0    0  0.56329770787E+00  0.21445804830E+02  0.37364818704E+02  0.43085606945E+02  0.00000000000E+00 0.  1.
</event>
<event>
 7    1  0.1910099E-015  0.9000732E+02  0.7816164E-02  0.1186340E+00
        -11   -1    0    0    0    0  0.00000000000E+00  0.00000000000E+00  0.45593999997E+02  0.45594000000E+02  0.51100000000E-03 0.  1.
         11   -1    0    0    0    0 -0.00000000000E+00 -0.00000000000E+00 -0.45593999997E+02  0.45594000000E+02  0.51100000000E-03 0. -1.
    9900012    2    1    2    0    0  0.68177935514E+00  0.66503885782E+00  0.69779022791E+00  0.90007317581E+02  0.89999573372E+02 0.  0.
        -12    1    1    2    0    0 -0.68177935514E+00 -0.66503885782E+00 -0.69779022791E+00  0.11806824186E+01  0.00000000000E+00 0.  1.
         11    1    3    3    0    0 -0.80551615721E+01 -0.31940357858E+01  0.18090971034E+01  0.88521367558E+01  0.51100000000E-03 0. -1.
        -11    1    3    3    0    0  0.17647259080E+02 -0.25573024992E+02  0.25726755013E+02  0.40339450715E+02  0.51100000000E-03 0.  1.
         12    1    3    3    0    0 -0.89103181529E+01  0.29432099635E+02 -0.26838061888E+02  0.40815730110E+02  0.00000000000E+00 0. -1.
</event>
<event>
 7    1  0.1910099E-015  0.9000755E+02  0.7816164E-02  0.1186339E+00
        -11   -1    0    0    0    0  0.00000000000E+00  0.00000000000E+00  0.45593999997E+02  0.45594000000E+02  0.51100000000E-03 0.  1.
         11   -1    0    0    0    0 -0.00000000000E+00 -0.00000000000E+00 -0.45593999997E+02  0.45594000000E+02  0.51100000000E-03 0. -1.
    9900012    2    1    2    0    0  0.11765532330E+01 -0.94987764347E-01  0.12547933530E-01  0.90007551934E+02  0.89999810819E+02 0.  0.
        -12    1    1    2    0    0 -0.11765532330E+01  0.94987764347E-01 -0.12547933530E-01  0.11804480658E+01  0.00000000000E+00 0.  1.
         11    1    3    3    0    0  0.42501781599E+01  0.74537487166E+01 -0.82399842388E+01  0.11896206321E+02  0.51100000000E-03 0. -1.
        -11    1    3    3    0    0 -0.27395270388E+01  0.18108986061E+02 -0.28144162046E+02  0.33578776661E+02  0.51100000000E-03 0.  1.
         12    1    3    3    0    0 -0.33409788808E+00 -0.25657722542E+02  0.36396694218E+02  0.44532568952E+02  0.00000000000E+00 0. -1.
</event>
<event>
 7    1  0.1910099E-015  0.9000774E+02  0.7816164E-02  0.1186339E+00
        -11   -1    0    0    0    0  0.00000000000E+00  0.00000000000E+00  0.45593999997E+02  0.45594000000E+02  0.51100000000E-03 0.  1.
         11   -1    0    0    0    0 -0.00000000000E+00 -0.00000000000E+00 -0.45593999997E+02  0.45594000000E+02  0.51100000000E-03 0. -1.
    9900012    2    1    2    0    0 -0.49777402031E+00  0.10075928899E+01  0.36054973652E+00  0.90007737945E+02  0.89999999285E+02 0.  0.
        -12    1    1    2    0    0  0.49777402031E+00 -0.10075928899E+01 -0.36054973652E+00  0.11802620555E+01  0.00000000000E+00 0.  1.
         11    1    3    3    0    0 -0.25915609976E+01 -0.61859923133E+01  0.56613355978E+01  0.87768679104E+01  0.51100000000E-03 0. -1.
        -11    1    3    3    0    0 -0.25379850623E+02  0.12604127168E+02  0.26542929311E+02  0.38826897068E+02  0.51100000000E-03 0.  1.
         12    1    3    3    0    0  0.27473637600E+02 -0.54105419653E+01 -0.31843715172E+02  0.42403972966E+02  0.00000000000E+00 0. -1.
</event>
<event>
 7    1  0.1910099E-015  0.9000777E+02  0.7816164E-02  0.1186339E+00
        -11   -1    0    0    0    0  0.00000000000E+00  0.00000000000E+00  0.45593999997E+02  0.45594000000E+02  0.51100000000E-03 0. -1.
         11   -1    0    0    0    0 -0.00000000000E+00 -0.00000000000E+00 -0.45593999997E+02  0.45594000000E+02  0.51100000000E-03 0.  1.
    9900012    2    1    2    0    0 -0.80271075117E+00 -0.72363022912E+00  0.47428987769E+00  0.90007772841E+02  0.90000034643E+02 0.  0.
        -12    1    1    2    0    0  0.80271075117E+00  0.72363022912E+00 -0.47428987769E+00  0.11802271589E+01  0.00000000000E+00 0.  1.
         11    1    3    3    0    0  0.51844786916E+01  0.46087971131E+00 -0.59901482858E+01  0.79355595997E+01  0.51100000000E-03 0. -1.
        -11    1    3    3    0    0  0.10422581045E+02  0.51963885358E+01 -0.35073681653E+02  0.36956674558E+02  0.51100000000E-03 0.  1.
         12    1    3    3    0    0 -0.16409770488E+02 -0.63808984763E+01  0.41538119816E+02  0.45115538683E+02  0.00000000000E+00 0. -1.
</event>
<event>
 7    1  0.1910099E-015  0.9000769E+02  0.7816164E-02  0.1186339E+00
        -11   -1    0    0    0    0  0.00000000000E+00  0.00000000000E+00  0.45593999997E+02  0.45594000000E+02  0.51100000000E-03 0. -1.
         11   -1    0    0    0    0 -0.00000000000E+00 -0.00000000000E+00 -0.45593999997E+02  0.45594000000E+02  0.51100000000E-03 0.  1.
    9900012    2    1    2    0    0 -0.42685095157E+00 -0.10659720685E+01  0.27318142771E+00  0.90007692295E+02  0.89999953033E+02 0.  0.
        -12    1    1    2    0    0  0.42685095157E+00  0.10659720685E+01 -0.27318142771E+00  0.11803077049E+01  0.00000000000E+00 0.  1.
         11    1    3    3    0    0 -0.23985273363E+02 -0.22503906472E+02  0.20320523378E+02  0.38660610644E+02  0.51100000000E-03 0. -1.
        -11    1    3    3    0    0 -0.88116238497E+01  0.65220471301E+01 -0.11970944262E+01  0.11027912267E+02  0.51100000000E-03 0.  1.
        -12    1    3    3    0    0  0.32370046261E+02  0.14915887273E+02 -0.18850247524E+02  0.40319169384E+02  0.00000000000E+00 0.  1.
</event>
<event>
 7    1  0.1910099E-015  0.9000776E+02  0.7816164E-02  0.1186339E+00
        -11   -1    0    0    0    0  0.00000000000E+00  0.00000000000E+00  0.45593999997E+02  0.45594000000E+02  0.51100000000E-03 0.  1.
         11   -1    0    0    0    0 -0.00000000000E+00 -0.00000000000E+00 -0.45593999997E+02  0.45594000000E+02  0.51100000000E-03 0. -1.
    9900012    2    1    2    0    0  0.23417687192E+00 -0.97312195562E+00 -0.62543620637E+00  0.90007756129E+02  0.90000017709E+02 0.  0.
        -12    1    1    2    0    0 -0.23417687192E+00  0.97312195562E+00  0.62543620637E+00  0.11802438714E+01  0.00000000000E+00 0.  1.
         11    1    3    3    0    0  0.72481343778E+01 -0.63645267527E+01 -0.38194658901E+01  0.10374534818E+02  0.51100000000E-03 0. -1.
        -11    1    3    3    0    0 -0.16504621497E+02 -0.26383337164E+02  0.25022010641E+02  0.39932242955E+02  0.51100000000E-03 0.  1.
         12    1    3    3    0    0  0.94906639908E+01  0.31774741961E+02 -0.21827980958E+02  0.39700978355E+02  0.00000000000E+00 0. -1.
</event>
<event>
 7    1  0.1910099E-015  0.9000775E+02  0.7816164E-02  0.1186339E+00
        -11   -1    0    0    0    0  0.00000000000E+00  0.00000000000E+00  0.45593999997E+02  0.45594000000E+02  0.51100000000E-03 0.  1.
         11   -1    0    0    0    0 -0.00000000000E+00 -0.00000000000E+00 -0.45593999997E+02  0.45594000000E+02  0.51100000000E-03 0. -1.
    9900012    2    1    2    0    0 -0.59884603439E+00 -0.73488675859E+00 -0.70308176062E+00  0.90007746179E+02  0.90000007628E+02 0.  0.
        -12    1    1    2    0    0  0.59884603439E+00  0.73488675859E+00  0.70308176062E+00  0.11802538214E+01  0.00000000000E+00 0.  1.
         11    1    3    3    0    0  0.25747771623E+01  0.78285361507E+01  0.59855716533E+01  0.10185407404E+02  0.51100000000E-03 0. -1.
        -11    1    3    3    0    0  0.26662017954E+02 -0.44715267177E+00  0.24277786293E+02  0.36062086107E+02  0.51100000000E-03 0.  1.
         12    1    3    3    0    0 -0.29835641150E+02 -0.81162702375E+01 -0.30966439707E+02  0.43760252668E+02  0.00000000000E+00 0. -1.
</event>
<event>
 7    1  0.1910099E-015  0.9000775E+02  0.7816164E-02  0.1186339E+00
        -11   -1    0    0    0    0  0.00000000000E+00  0.00000000000E+00  0.45593999997E+02  0.45594000000E+02  0.51100000000E-03 0. -1.
         11   -1    0    0    0    0 -0.00000000000E+00 -0.00000000000E+00 -0.45593999997E+02  0.45594000000E+02  0.51100000000E-03 0.  1.
    9900012    2    1    2    0    0 -0.41151802348E+00 -0.10175468822E+01  0.43387985191E+00  0.90007745592E+02  0.90000007034E+02 0.  0.
        -12    1    1    2    0    0  0.41151802348E+00  0.10175468822E+01 -0.43387985191E+00  0.11802544077E+01  0.00000000000E+00 0.  1.
         11    1    3    3    0    0  0.18390032633E+01 -0.99676058709E+00  0.28614955684E+01  0.35445199702E+01  0.51100000000E-03 0. -1.
        -11    1    3    3    0    0  0.38641452885E+02 -0.16193528217E+02  0.37172539924E+01  0.42061980632E+02  0.51100000000E-03 0.  1.
         12    1    3    3    0    0 -0.40891974172E+02  0.16172741922E+02 -0.61448697089E+01  0.44401244990E+02  0.00000000000E+00 0. -1.
</event>
<event>
 7    1  0.1910099E-015  0.9000774E+02  0.7816164E-02  0.1186339E+00
        -11   -1    0    0    0    0  0.00000000000E+00  0.00000000000E+00  0.45593999997E+02  0.45594000000E+02  0.51100000000E-03 0.  1.
         11   -1    0    0    0    0 -0.00000000000E+00 -0.00000000000E+00 -0.45593999997E+02  0.45594000000E+02  0.51100000000E-03 0. -1.
    9900012    2    1    2    0    0 -0.12581966281E+00  0.11378259950E+01 -0.28729533773E+00  0.90007738506E+02  0.89999999855E+02 0.  0.
        -12    1    1    2    0    0  0.12581966281E+00 -0.11378259950E+01  0.28729533773E+00  0.11802614937E+01  0.00000000000E+00 0.  1.
         11    1    3    3    0    0 -0.30499163485E+01  0.34900721268E+02  0.19720112390E+02  0.40202551756E+02  0.51100000000E-03 0. -1.
        -11    1    3    3    0    0  0.73055194502E+00  0.53202633449E+01 -0.64189008439E+01  0.83690618655E+01  0.51100000000E-03 0.  1.
        -12    1    3    3    0    0  0.21935447407E+01 -0.39083158618E+02 -0.13588506884E+02  0.41436124884E+02  0.00000000000E+00 0.  1.
</event>
<event>
 7    1  0.1910099E-015  0.9000792E+02  0.7816164E-02  0.1186339E+00
        -11   -1    0    0    0    0  0.00000000000E+00  0.00000000000E+00  0.45593999997E+02  0.45594000000E+02  0.51100000000E-03 0.  1.
         11   -1    0    0    0    0 -0.00000000000E+00 -0.00000000000E+00 -0.45593999997E+02  0.45594000000E+02  0.51100000000E-03 0. -1.
    9900012    2    1    2    0    0 -0.81875196089E+00  0.84640467886E+00  0.76423268889E-01  0.90007916880E+02  0.90000180583E+02 0.  0.
        -12    1    1    2    0    0  0.81875196089E+00 -0.84640467886E+00 -0.76423268889E-01  0.11800831199E+01  0.00000000000E+00 0.  1.
         11    1    3    3    0    0 -0.23484507680E+01 -0.36107797050E+02 -0.27599347742E+01  0.36289192179E+02  0.51100000000E-03 0. -1.
        -11    1    3    3    0    0 -0.11520179600E+01 -0.81369532944E+01 -0.14497838391E+01  0.83450001640E+01  0.51100000000E-03 0.  1.
        -12    1    3    3    0    0  0.26817167671E+01  0.45091155023E+02  0.42861418821E+01  0.45373724537E+02  0.00000000000E+00 0.  1.
</event>
<event>
 7    1  0.1910099E-015  0.9000765E+02  0.7816164E-02  0.1186339E+00
        -11   -1    0    0    0    0  0.00000000000E+00  0.00000000000E+00  0.45593999997E+02  0.45594000000E+02  0.51100000000E-03 0. -1.
         11   -1    0    0    0    0 -0.00000000000E+00 -0.00000000000E+00 -0.45593999997E+02  0.45594000000E+02  0.51100000000E-03 0.  1.
    9900012    2    1    2    0    0  0.51989415591E+00 -0.10219055940E+01  0.28045710197E+00  0.90007645323E+02  0.89999905442E+02 0.  0.
        -12    1    1    2    0    0 -0.51989415591E+00  0.10219055940E+01 -0.28045710197E+00  0.11803546766E+01  0.00000000000E+00 0.  1.
         11    1    3    3    0    0 -0.46068155742E+01 -0.14821797657E+02  0.36906120041E+02  0.40037109440E+02  0.51100000000E-03 0. -1.
        -11    1    3    3    0    0  0.72391083472E+01 -0.34149807369E+01  0.14465716904E+01  0.81338399918E+01  0.51100000000E-03 0.  1.
        -12    1    3    3    0    0 -0.21123986170E+01  0.17214872800E+02 -0.38072234630E+02  0.41836695892E+02  0.00000000000E+00 0.  1.
</event>
<event>
 7    1  0.1910099E-015  0.9000774E+02  0.7816164E-02  0.1186339E+00
        -11   -1    0    0    0    0  0.00000000000E+00  0.00000000000E+00  0.45593999997E+02  0.45594000000E+02  0.51100000000E-03 0.  1.
         11   -1    0    0    0    0 -0.00000000000E+00 -0.00000000000E+00 -0.45593999997E+02  0.45594000000E+02  0.51100000000E-03 0. -1.
    9900012    2    1    2    0    0  0.16495808365E-01 -0.46657147568E+00 -0.10839986135E+01  0.90007739839E+02  0.90000001205E+02 0.  0.
        -12    1    1    2    0    0 -0.16495808365E-01  0.46657147568E+00  0.10839986135E+01  0.11802601610E+01  0.00000000000E+00 0.  1.
         11    1    3    3    0    0 -0.29900422687E+01 -0.78765394512E+01 -0.43507297838E+01  0.94820396755E+01  0.51100000000E-03 0. -1.
        -11    1    3    3    0    0 -0.27185354069E+02  0.99181763955E+01 -0.25631614763E+02  0.38657384476E+02  0.51100000000E-03 0.  1.
         12    1    3    3    0    0  0.30191892146E+02 -0.25082084200E+01  0.28898345933E+02  0.41868315688E+02  0.00000000000E+00 0. -1.
</event>
<event>
 7    1  0.1910099E-015  0.9000777E+02  0.7816164E-02  0.1186339E+00
        -11   -1    0    0    0    0  0.00000000000E+00  0.00000000000E+00  0.45593999997E+02  0.45594000000E+02  0.51100000000E-03 0. -1.
         11   -1    0    0    0    0 -0.00000000000E+00 -0.00000000000E+00 -0.45593999997E+02  0.45594000000E+02  0.51100000000E-03 0.  1.
    9900012    2    1    2    0    0  0.20403619929E+00 -0.49413965570E+00  0.10522070550E+01  0.90007769321E+02  0.90000031076E+02 0.  0.
        -12    1    1    2    0    0 -0.20403619929E+00  0.49413965570E+00 -0.10522070550E+01  0.11802306794E+01  0.00000000000E+00 0.  1.
         11    1    3    3    0    0  0.24958324916E+02 -0.14514533558E+02  0.22113220878E+02  0.36367350809E+02  0.51100000000E-03 0. -1.
        -11    1    3    3    0    0  0.50107242271E+01 -0.77192582781E+01  0.29340931504E+01  0.96593585978E+01  0.51100000000E-03 0.  1.
        -12    1    3    3    0    0 -0.29765012943E+02  0.21739652181E+02 -0.23995106974E+02  0.43981059914E+02  0.00000000000E+00 0.  1.
</event>
<event>
 7    1  0.1910099E-015  0.9000765E+02  0.7816164E-02  0.1186339E+00
        -11   -1    0    0    0    0  0.00000000000E+00  0.00000000000E+00  0.45593999997E+02  0.45594000000E+02  0.51100000000E-03 0.  1.
         11   -1    0    0    0    0 -0.00000000000E+00 -0.00000000000E+00 -0.45593999997E+02  0.45594000000E+02  0.51100000000E-03 0. -1.
    9900012    2    1    2    0    0 -0.96059856525E+00  0.25045375034E+00 -0.63854784220E+00  0.90007652580E+02  0.89999912794E+02 0.  0.
        -12    1    1    2    0    0  0.96059856525E+00 -0.25045375034E+00  0.63854784220E+00  0.11803474198E+01  0.00000000000E+00 0.  1.
         11    1    3    3    0    0 -0.38735700122E+00 -0.14653737955E+01  0.10668569399E+02  0.10775701327E+02  0.51100000000E-03 0. -1.
        -11    1    3    3    0    0 -0.32760280203E+02 -0.16499113528E+02  0.79544625274E+01  0.37533054506E+02  0.51100000000E-03 0.  1.
         12    1    3    3    0    0  0.32187038639E+02  0.18214941074E+02 -0.19261579769E+02  0.41698896747E+02  0.00000000000E+00 0. -1.
</event>
<event>
 7    1  0.1910099E-015  0.9000738E+02  0.7816164E-02  0.1186340E+00
        -11   -1    0    0    0    0  0.00000000000E+00  0.00000000000E+00  0.45593999997E+02  0.45594000000E+02  0.51100000000E-03 0. -1.
         11   -1    0    0    0    0 -0.00000000000E+00 -0.00000000000E+00 -0.45593999997E+02  0.45594000000E+02  0.51100000000E-03 0.  1.
    9900012    2    1    2    0    0  0.72490037177E+00 -0.75479491662E+00 -0.54650426124E+00  0.90007380323E+02  0.89999636942E+02 0.  0.
        -12    1    1    2    0    0 -0.72490037177E+00  0.75479491662E+00  0.54650426124E+00  0.11806196774E+01  0.00000000000E+00 0.  1.
         11    1    3    3    0    0 -0.28285322204E+02  0.41679022646E+01 -0.21070420661E+02  0.35516101821E+02  0.51100000000E-03 0. -1.
        -11    1    3    3    0    0  0.69108710416E+00  0.15397656918E+02  0.40350217867E+01  0.15932571702E+02  0.51100000000E-03 0.  1.
        -12    1    3    3    0    0  0.28319135471E+02 -0.20320354099E+02  0.16488894613E+02  0.38558706800E+02  0.00000000000E+00 0.  1.
</event>
<event>
 7    1  0.1910099E-015  0.9000773E+02  0.7816164E-02  0.1186339E+00
        -11   -1    0    0    0    0  0.00000000000E+00  0.00000000000E+00  0.45593999997E+02  0.45594000000E+02  0.51100000000E-03 0.  1.
         11   -1    0    0    0    0 -0.00000000000E+00 -0.00000000000E+00 -0.45593999997E+02  0.45594000000E+02  0.51100000000E-03 0. -1.
    9900012    2    1    2    0    0  0.11689078522E+01  0.98661103128E-01 -0.13025914911E+00  0.90007725868E+02  0.89999987050E+02 0.  0.
        -12    1    1    2    0    0 -0.11689078522E+01 -0.98661103128E-01  0.13025914911E+00  0.11802741317E+01  0.00000000000E+00 0.  1.
         11    1    3    3    0    0  0.27334566047E+02 -0.13388041150E+01 -0.22585131523E+02  0.35483222283E+02  0.51100000000E-03 0. -1.
        -11    1    3    3    0    0  0.85839363516E+01 -0.22312200745E+01 -0.49137824689E+01  0.10139406527E+02  0.51100000000E-03 0.  1.
        -12    1    3    3    0    0 -0.34749594546E+02  0.36686852926E+01  0.27368654843E+02  0.44385097058E+02  0.00000000000E+00 0.  1.
</event>
<event>
 7    1  0.1910099E-015  0.9000776E+02  0.7816164E-02  0.1186339E+00
        -11   -1    0    0    0    0  0.00000000000E+00  0.00000000000E+00  0.45593999997E+02  0.45594000000E+02  0.51100000000E-03 0. -1.
         11   -1    0    0    0    0 -0.00000000000E+00 -0.00000000000E+00 -0.45593999997E+02  0.45594000000E+02  0.51100000000E-03 0.  1.
    9900012    2    1    2    0    0  0.55161608957E+00 -0.10190405254E+01  0.22412772261E+00  0.90007763948E+02  0.90000025632E+02 0.  0.
        -12    1    1    2    0    0 -0.55161608957E+00  0.10190405254E+01 -0.22412772261E+00  0.11802360521E+01  0.00000000000E+00 0.  1.
         11    1    3    3    0    0 -0.19009587977E+02 -0.29791214213E+02 -0.16329171482E+02  0.38929715140E+02  0.51100000000E-03 0. -1.
        -11    1    3    3    0    0 -0.85939588703E+01  0.16265724788E+01  0.37699709041E+00  0.87546555706E+01  0.51100000000E-03 0.  1.
        -12    1    3    3    0    0  0.28155162937E+02  0.27145601209E+02  0.16176302114E+02  0.42323393237E+02  0.00000000000E+00 0.  1.
</event>
<event>
 7    1  0.1910099E-015  0.9000772E+02  0.7816164E-02  0.1186339E+00
        -11   -1    0    0    0    0  0.00000000000E+00  0.00000000000E+00  0.45593999997E+02  0.45594000000E+02  0.51100000000E-03 0.  1.
         11   -1    0    0    0    0 -0.00000000000E+00 -0.00000000000E+00 -0.45593999997E+02  0.45594000000E+02  0.51100000000E-03 0. -1.
    9900012    2    1    2    0    0  0.57664383822E+00  0.76511864877E+00 -0.68930707081E+00  0.90007716602E+02  0.89999977661E+02 0.  0.
        -12    1    1    2    0    0 -0.57664383822E+00 -0.76511864877E+00  0.68930707081E+00  0.11802833985E+01  0.00000000000E+00 0.  1.
         11    1    3    3    0    0 -0.36695770143E+02 -0.54233821022E+01 -0.11786183268E+02  0.38921802837E+02  0.51100000000E-03 0. -1.
        -11    1    3    3    0    0  0.86027624850E+00 -0.47922913402E+01 -0.73500401612E+01  0.88164177615E+01  0.51100000000E-03 0.  1.
        -12    1    3    3    0    0  0.36412137733E+02  0.10980792091E+02  0.18446916358E+02  0.42269496003E+02  0.00000000000E+00 0.  1.
</event>
<event>
 7    1  0.1910099E-015  0.9000819E+02  0.7816164E-02  0.1186338E+00
        -11   -1    0    0    0    0  0.00000000000E+00  0.00000000000E+00  0.45593999997E+02  0.45594000000E+02  0.51100000000E-03 0. -1.
         11   -1    0    0    0    0 -0.00000000000E+00 -0.00000000000E+00 -0.45593999997E+02  0.45594000000E+02  0.51100000000E-03 0.  1.
    9900012    2    1    2    0    0  0.74765665879E+00  0.79200214975E+00  0.45354325451E+00  0.90008186723E+02  0.90000453987E+02 0.  0.
        -12    1    1    2    0    0 -0.74765665879E+00 -0.79200214975E+00 -0.45354325451E+00  0.11798132769E+01  0.00000000000E+00 0.  1.
         11    1    3    3    0    0 -0.24224524100E+02  0.19638732621E+02  0.20147468655E+02  0.37127185192E+02  0.51100000000E-03 0. -1.
        -11    1    3    3    0    0 -0.73426976170E+01  0.35385955803E+01  0.13967205372E+01  0.82696853323E+01  0.51100000000E-03 0.  1.
        -12    1    3    3    0    0  0.32314878376E+02 -0.22385326052E+02 -0.21090645938E+02  0.44611316198E+02  0.00000000000E+00 0.  1.
</event>
<event>
 7    1  0.1910099E-015  0.9000785E+02  0.7816164E-02  0.1186339E+00
        -11   -1    0    0    0    0  0.00000000000E+00  0.00000000000E+00  0.45593999997E+02  0.45594000000E+02  0.51100000000E-03 0.  1.
         11   -1    0    0    0    0 -0.00000000000E+00 -0.00000000000E+00 -0.45593999997E+02  0.45594000000E+02  0.51100000000E-03 0. -1.
    9900012    2    1    2    0    0  0.71095305098E+00  0.94176994082E+00  0.19158274953E-01  0.90007850899E+02  0.90000113730E+02 0.  0.
        -12    1    1    2    0    0 -0.71095305098E+00 -0.94176994082E+00 -0.19158274953E-01  0.11801491014E+01  0.00000000000E+00 0.  1.
         11    1    3    3    0    0  0.71335198870E+01  0.55817224951E+01  0.64783192611E+01  0.11136038465E+02  0.51100000000E-03 0. -1.
        -11    1    3    3    0    0  0.31569793121E+02  0.56433330326E+01  0.13434584316E+02  0.34770491821E+02  0.51100000000E-03 0.  1.
         12    1    3    3    0    0 -0.37992359958E+02 -0.10283285587E+02 -0.19893745302E+02  0.44101320612E+02  0.00000000000E+00 0. -1.
</event>
<event>
 7    1  0.1910099E-015  0.9000772E+02  0.7816164E-02  0.1186339E+00
        -11   -1    0    0    0    0  0.00000000000E+00  0.00000000000E+00  0.45593999997E+02  0.45594000000E+02  0.51100000000E-03 0.  1.
         11   -1    0    0    0    0 -0.00000000000E+00 -0.00000000000E+00 -0.45593999997E+02  0.45594000000E+02  0.51100000000E-03 0. -1.
    9900012    2    1    2    0    0  0.10202579086E+01  0.48363219460E+00  0.34386690381E+00  0.90007715819E+02  0.89999976868E+02 0.  0.
        -12    1    1    2    0    0 -0.10202579086E+01 -0.48363219460E+00 -0.34386690381E+00  0.11802841807E+01  0.00000000000E+00 0.  1.
         11    1    3    3    0    0 -0.81990117379E+01 -0.21085475752E+01  0.71837993988E+01  0.11103005918E+02  0.51100000000E-03 0. -1.
        -11    1    3    3    0    0 -0.10660154237E+02 -0.33514229665E+02  0.61213880380E+01  0.35697533111E+02  0.51100000000E-03 0.  1.
         12    1    3    3    0    0  0.19879423884E+02  0.36106409435E+02 -0.12961320533E+02  0.43207176790E+02  0.00000000000E+00 0. -1.
</event>
<event>
 7    1  0.1910099E-015  0.9000778E+02  0.7816164E-02  0.1186339E+00
        -11   -1    0    0    0    0  0.00000000000E+00  0.00000000000E+00  0.45593999997E+02  0.45594000000E+02  0.51100000000E-03 0.  1.
         11   -1    0    0    0    0 -0.00000000000E+00 -0.00000000000E+00 -0.45593999997E+02  0.45594000000E+02  0.51100000000E-03 0. -1.
    9900012    2    1    2    0    0 -0.11746511420E+01 -0.57146124453E-01  0.99275828819E-01  0.90007776854E+02  0.90000038708E+02 0.  0.
        -12    1    1    2    0    0  0.11746511420E+01  0.57146124453E-01 -0.99275828819E-01  0.11802231463E+01  0.00000000000E+00 0.  1.
         11    1    3    3    0    0 -0.16510141322E+01 -0.89248640272E+01  0.54429635560E+01  0.10583236655E+02  0.51100000000E-03 0. -1.
        -11    1    3    3    0    0 -0.37225446247E+02  0.12302496281E+02  0.65353346237E+01  0.39746645921E+02  0.51100000000E-03 0.  1.
         12    1    3    3    0    0  0.37701809238E+02 -0.34347783779E+01 -0.11879022351E+02  0.39677894278E+02  0.00000000000E+00 0. -1.
</event>
<event>
 7    1  0.1910099E-015  0.9000777E+02  0.7816164E-02  0.1186339E+00
        -11   -1    0    0    0    0  0.00000000000E+00  0.00000000000E+00  0.45593999997E+02  0.45594000000E+02  0.51100000000E-03 0. -1.
         11   -1    0    0    0    0 -0.00000000000E+00 -0.00000000000E+00 -0.45593999997E+02  0.45594000000E+02  0.51100000000E-03 0.  1.
    9900012    2    1    2    0    0  0.32830180854E+00  0.11329713758E+01  0.39145663811E-01  0.90007771802E+02  0.90000033590E+02 0.  0.
        -12    1    1    2    0    0 -0.32830180854E+00 -0.11329713758E+01 -0.39145663811E-01  0.11802281978E+01  0.00000000000E+00 0.  1.
         11    1    3    3    0    0  0.14499006154E+02 -0.38582299009E+02  0.65930318118E+01  0.41740664166E+02  0.51100000000E-03 0. -1.
        -11    1    3    3    0    0  0.31264796201E+01  0.50747725969E+01 -0.74460118301E+01  0.95378867764E+01  0.51100000000E-03 0.  1.
        -12    1    3    3    0    0 -0.17297183966E+02  0.34640497788E+02  0.89212568217E+00  0.38729220860E+02  0.00000000000E+00 0.  1.
</event>
<event>
 7    1  0.1910099E-015  0.9000775E+02  0.7816164E-02  0.1186339E+00
        -11   -1    0    0    0    0  0.00000000000E+00  0.00000000000E+00  0.45593999997E+02  0.45594000000E+02  0.51100000000E-03 0.  1.
         11   -1    0    0    0    0 -0.00000000000E+00 -0.00000000000E+00 -0.45593999997E+02  0.45594000000E+02  0.51100000000E-03 0. -1.
    9900012    2    1    2    0    0 -0.12854966925E+00  0.93002939626E+00 -0.71519501390E+00  0.90007752736E+02  0.90000014273E+02 0.  0.
        -12    1    1    2    0    0  0.12854966925E+00 -0.93002939626E+00  0.71519501390E+00  0.11802472636E+01  0.00000000000E+00 0.  1.
         11    1    3    3    0    0  0.27339813168E+02 -0.28313071812E+02 -0.43591454244E+01  0.39599211717E+02  0.51100000000E-03 0. -1.
        -11    1    3    3    0    0 -0.36197945401E+01 -0.64223977206E+01  0.56467765195E+00  0.73938465027E+01  0.51100000000E-03 0.  1.
        -12    1    3    3    0    0 -0.23848568297E+02  0.35665498929E+02  0.30792727585E+01  0.43014694517E+02  0.00000000000E+00 0.  1.
</event>
<event>
 7    1  0.1910099E-015  0.9000773E+02  0.7816164E-02  0.1186339E+00
        -11   -1    0    0    0    0  0.00000000000E+00  0.00000000000E+00  0.45593999997E+02  0.45594000000E+02  0.51100000000E-03 0.  1.
         11   -1    0    0    0    0 -0.00000000000E+00 -0.00000000000E+00 -0.45593999997E+02  0.45594000000E+02  0.51100000000E-03 0. -1.
    9900012    2    1    2    0    0  0.58829639811E+00  0.40639037051E+00 -0.93903643980E+00  0.90007730869E+02  0.89999992117E+02 0.  0.
        -12    1    1    2    0    0 -0.58829639811E+00 -0.40639037051E+00  0.93903643980E+00  0.11802691306E+01  0.00000000000E+00 0.  1.
         11    1    3    3    0    0  0.32600305704E+00  0.20411643013E+01  0.73629795503E+01  0.76476204023E+01  0.51100000000E-03 0. -1.
        -11    1    3    3    0    0 -0.15120482423E+02  0.81951309253E+01  0.32994899813E+02  0.37208232604E+02  0.51100000000E-03 0.  1.
         12    1    3    3    0    0  0.15382775765E+02 -0.98299048561E+01 -0.41296915803E+02  0.45151877863E+02  0.00000000000E+00 0. -1.
</event>
<event>
 7    1  0.1910099E-015  0.9000770E+02  0.7816164E-02  0.1186339E+00
        -11   -1    0    0    0    0  0.00000000000E+00  0.00000000000E+00  0.45593999997E+02  0.45594000000E+02  0.51100000000E-03 0.  1.
         11   -1    0    0    0    0 -0.00000000000E+00 -0.00000000000E+00 -0.45593999997E+02  0.45594000000E+02  0.51100000000E-03 0. -1.
    9900012    2    1    2    0    0 -0.38224932355E+00 -0.10901064404E+01 -0.24218232152E+00  0.90007703904E+02  0.89999964796E+02 0.  0.
        -12    1    1    2    0    0  0.38224932355E+00  0.10901064404E+01  0.24218232152E+00  0.11802960958E+01  0.00000000000E+00 0.  1.
         11    1    3    3    0    0  0.38370442796E+01 -0.40520989537E+01 -0.34367544873E+02  0.34817675908E+02  0.51100000000E-03 0. -1.
        -11    1    3    3    0    0  0.26574785054E+01 -0.49539594264E+01 -0.91079842698E+01  0.10703237068E+02  0.51100000000E-03 0.  1.
        -12    1    3    3    0    0 -0.68767721086E+01  0.79159519397E+01  0.43233346822E+02  0.44486790929E+02  0.00000000000E+00 0.  1.
</event>
<event>
 7    1  0.1910099E-015  0.9000764E+02  0.7816164E-02  0.1186339E+00
        -11   -1    0    0    0    0  0.00000000000E+00  0.00000000000E+00  0.45593999997E+02  0.45594000000E+02  0.51100000000E-03 0. -1.
         11   -1    0    0    0    0 -0.00000000000E+00 -0.00000000000E+00 -0.45593999997E+02  0.45594000000E+02  0.51100000000E-03 0.  1.
    9900012    2    1    2    0    0 -0.27124106869E-01  0.36774334726E+00  0.11212814929E+01  0.90007642820E+02  0.89999902905E+02 0.  0.
        -12    1    1    2    0    0  0.27124106869E-01 -0.36774334726E+00 -0.11212814929E+01  0.11803571803E+01  0.00000000000E+00 0.  1.
         11    1    3    3    0    0 -0.61325206810E+01  0.56236355937E+01 -0.33759823692E+01  0.89794400946E+01  0.51100000000E-03 0. -1.
        -11    1    3    3    0    0  0.23647499979E+02  0.30836419570E+02 -0.65449261553E+01  0.39407170487E+02  0.51100000000E-03 0.  1.
         12    1    3    3    0    0 -0.17542103405E+02 -0.36092311817E+02  0.11042190017E+02  0.41621032238E+02  0.00000000000E+00 0. -1.
</event>
<event>
 7    1  0.1910099E-015  0.9000789E+02  0.7816164E-02  0.1186339E+00
        -11   -1    0    0    0    0  0.00000000000E+00  0.00000000000E+00  0.45593999997E+02  0.45594000000E+02  0.51100000000E-03 0.  1.
         11   -1    0    0    0    0 -0.00000000000E+00 -0.00000000000E+00 -0.45593999997E+02  0.45594000000E+02  0.51100000000E-03 0. -1.
    9900012    2    1    2    0    0  0.25642982216E+00  0.81565571239E+00 -0.81338832340E+00  0.90007893624E+02  0.90000157019E+02 0.  0.
        -12    1    1    2    0    0 -0.25642982216E+00 -0.81565571239E+00  0.81338832340E+00  0.11801063763E+01  0.00000000000E+00 0.  1.
         11    1    3    3    0    0 -0.10833511132E+02  0.25992390983E+01 -0.51117975895E+01  0.12257711132E+02  0.51100000000E-03 0. -1.
        -11    1    3    3    0    0 -0.29897533404E+02 -0.15688001813E+01  0.17512866989E+02  0.34684638503E+02  0.51100000000E-03 0.  1.
         12    1    3    3    0    0  0.40987474359E+02 -0.21478320470E+00 -0.13214457722E+02  0.43065543988E+02  0.00000000000E+00 0. -1.
</event>
<event>
 7    1  0.1910099E-015  0.9000783E+02  0.7816164E-02  0.1186339E+00
        -11   -1    0    0    0    0  0.00000000000E+00  0.00000000000E+00  0.45593999997E+02  0.45594000000E+02  0.51100000000E-03 0.  1.
         11   -1    0    0    0    0 -0.00000000000E+00 -0.00000000000E+00 -0.45593999997E+02  0.45594000000E+02  0.51100000000E-03 0. -1.
    9900012    2    1    2    0    0 -0.83898441526E+00 -0.74145518801E+00 -0.37301726192E+00  0.90007833689E+02  0.90000096293E+02 0.  0.
        -12    1    1    2    0    0  0.83898441526E+00  0.74145518801E+00  0.37301726192E+00  0.11801663114E+01  0.00000000000E+00 0.  1.
         11    1    3    3    0    0 -0.45279873253E+01  0.35888050268E+02 -0.18583711950E+02  0.40667052652E+02  0.51100000000E-03 0. -1.
        -11    1    3    3    0    0  0.85269902565E+01 -0.82229899436E+00 -0.63270481106E+00  0.85898809136E+01  0.51100000000E-03 0.  1.
        -12    1    3    3    0    0 -0.48379873464E+01 -0.35807206462E+02  0.18843399499E+02  0.40750900123E+02  0.00000000000E+00 0.  1.
</event>
<event>
 7    1  0.1910099E-015  0.9000784E+02  0.7816164E-02  0.1186339E+00
        -11   -1    0    0    0    0  0.00000000000E+00  0.00000000000E+00  0.45593999997E+02  0.45594000000E+02  0.51100000000E-03 0.  1.
         11   -1    0    0    0    0 -0.00000000000E+00 -0.00000000000E+00 -0.45593999997E+02  0.45594000000E+02  0.51100000000E-03 0. -1.
    9900012    2    1    2    0    0  0.38376658081E+00 -0.13697272139E+00 -0.11075823503E+01  0.90007840274E+02  0.90000102966E+02 0.  0.
        -12    1    1    2    0    0 -0.38376658081E+00  0.13697272139E+00  0.11075823503E+01  0.11801597255E+01  0.00000000000E+00 0.  1.
         11    1    3    3    0    0  0.26999541134E+02  0.29269578318E+02 -0.86121292403E+01  0.40741283812E+02  0.51100000000E-03 0. -1.
        -11    1    3    3    0    0  0.33527178323E+01 -0.85853494911E+01 -0.52537459343E+01  0.10608995681E+02  0.51100000000E-03 0.  1.
        -12    1    3    3    0    0 -0.29968492386E+02 -0.20821201548E+02  0.12758292824E+02  0.38657560782E+02  0.00000000000E+00 0.  1.
</event>
<event>
 7    1  0.1910099E-015  0.9000772E+02  0.7816164E-02  0.1186339E+00
        -11   -1    0    0    0    0  0.00000000000E+00  0.00000000000E+00  0.45593999997E+02  0.45594000000E+02  0.51100000000E-03 0. -1.
         11   -1    0    0    0    0 -0.00000000000E+00 -0.00000000000E+00 -0.45593999997E+02  0.45594000000E+02  0.51100000000E-03 0.  1.
    9900012    2    1    2    0    0 -0.67563521088E+00 -0.64172382380E+00  0.72440347664E+00  0.90007723422E+02  0.89999984571E+02 0.  0.
        -12    1    1    2    0    0  0.67563521088E+00  0.64172382380E+00 -0.72440347664E+00  0.11802765783E+01  0.00000000000E+00 0.  1.
         11    1    3    3    0    0 -0.20564595961E+02 -0.27622002510E+02  0.13027991674E+02  0.36818557780E+02  0.51100000000E-03 0. -1.
        -11    1    3    3    0    0 -0.51962891706E+01 -0.22144714763E+01  0.79045879558E+01  0.97153392157E+01  0.51100000000E-03 0.  1.
        -12    1    3    3    0    0  0.25085249921E+02  0.29194750162E+02 -0.20208176153E+02  0.43473826426E+02  0.00000000000E+00 0.  1.
</event>
<event>
 7    1  0.1910099E-015  0.9000789E+02  0.7816164E-02  0.1186339E+00
        -11   -1    0    0    0    0  0.00000000000E+00  0.00000000000E+00  0.45593999997E+02  0.45594000000E+02  0.51100000000E-03 0. -1.
         11   -1    0    0    0    0 -0.00000000000E+00 -0.00000000000E+00 -0.45593999997E+02  0.45594000000E+02  0.51100000000E-03 0.  1.
    9900012    2    1    2    0    0 -0.95556426796E+00 -0.53140633075E+00  0.44402938893E+00  0.90007890744E+02  0.90000154101E+02 0.  0.
        -12    1    1    2    0    0  0.95556426796E+00  0.53140633075E+00 -0.44402938893E+00  0.11801092563E+01  0.00000000000E+00 0.  1.
         11    1    3    3    0    0 -0.43549875006E+01 -0.30456353806E+01  0.40762174235E+01  0.66975637172E+01  0.51100000000E-03 0. -1.
        -11    1    3    3    0    0 -0.37412417479E+02 -0.50634686964E+01  0.10957675208E+02  0.39311554829E+02  0.51100000000E-03 0.  1.
         12    1    3    3    0    0  0.40811840712E+02  0.75776977462E+01 -0.14589863242E+02  0.43998772197E+02  0.00000000000E+00 0. -1.
</event>
<event>
 7    1  0.1910099E-015  0.9000762E+02  0.7816164E-02  0.1186339E+00
        -11   -1    0    0    0    0  0.00000000000E+00  0.00000000000E+00  0.45593999997E+02  0.45594000000E+02  0.51100000000E-03 0.  1.
         11   -1    0    0    0    0 -0.00000000000E+00 -0.00000000000E+00 -0.45593999997E+02  0.45594000000E+02  0.51100000000E-03 0. -1.
    9900012    2    1    2    0    0 -0.10342988200E+01 -0.44633240941E+00 -0.35258576487E+00  0.90007617270E+02  0.89999877017E+02 0.  0.
        -12    1    1    2    0    0  0.10342988200E+01  0.44633240941E+00  0.35258576487E+00  0.11803827304E+01  0.00000000000E+00 0.  1.
         11    1    3    3    0    0 -0.10611550044E+02  0.37049504471E+02 -0.55256551236E+01  0.38933323011E+02  0.51100000000E-03 0. -1.
        -11    1    3    3    0    0 -0.11112971674E+02 -0.51153661913E+01  0.29461887466E+01  0.12583526497E+02  0.51100000000E-03 0.  1.
        -12    1    3    3    0    0  0.20690222898E+02 -0.32380470689E+02  0.22268806121E+01  0.38490767762E+02  0.00000000000E+00 0.  1.
</event>
<event>
 7    1  0.1910099E-015  0.9000781E+02  0.7816164E-02  0.1186339E+00
        -11   -1    0    0    0    0  0.00000000000E+00  0.00000000000E+00  0.45593999997E+02  0.45594000000E+02  0.51100000000E-03 0. -1.
         11   -1    0    0    0    0 -0.00000000000E+00 -0.00000000000E+00 -0.45593999997E+02  0.45594000000E+02  0.51100000000E-03 0.  1.
    9900012    2    1    2    0    0 -0.58814108138E+00 -0.48177856347E+00 -0.90268437295E+00  0.90007805273E+02  0.90000067503E+02 0.  0.
        -12    1    1    2    0    0  0.58814108138E+00  0.48177856347E+00  0.90268437295E+00  0.11801947267E+01  0.00000000000E+00 0.  1.
         11    1    3    3    0    0 -0.67433786033E+01 -0.18720822046E+01  0.51053999119E+01  0.86627337077E+01  0.51100000000E-03 0. -1.
        -11    1    3    3    0    0 -0.13073914696E+02 -0.17038761192E+02 -0.35572231874E+02  0.41552741296E+02  0.51100000000E-03 0.  1.
         12    1    3    3    0    0  0.19229152218E+02  0.18429064833E+02  0.29564147589E+02  0.39792330270E+02  0.00000000000E+00 0. -1.
</event>
<event>
 7    1  0.1910099E-015  0.9000781E+02  0.7816164E-02  0.1186339E+00
        -11   -1    0    0    0    0  0.00000000000E+00  0.00000000000E+00  0.45593999997E+02  0.45594000000E+02  0.51100000000E-03 0.  1.
         11   -1    0    0    0    0 -0.00000000000E+00 -0.00000000000E+00 -0.45593999997E+02  0.45594000000E+02  0.51100000000E-03 0. -1.
    9900012    2    1    2    0    0 -0.86519006732E+00  0.79567134902E+00 -0.10580617255E+00  0.90007812856E+02  0.90000075186E+02 0.  0.
        -12    1    1    2    0    0  0.86519006732E+00 -0.79567134902E+00  0.10580617255E+00  0.11801871438E+01  0.00000000000E+00 0.  1.
         11    1    3    3    0    0 -0.35506618987E+02  0.10016249093E+02 -0.14692430073E+02  0.39710360606E+02  0.51100000000E-03 0. -1.
        -11    1    3    3    0    0  0.20328104154E+01 -0.12204446605E+01 -0.89727725219E+01  0.92807569920E+01  0.51100000000E-03 0.  1.
        -12    1    3    3    0    0  0.32608618504E+02 -0.80001330837E+01  0.23559396422E+02  0.41016695258E+02  0.00000000000E+00 0.  1.
</event>
<event>
 7    1  0.1910099E-015  0.9000646E+02  0.7816164E-02  0.1186342E+00
        -11   -1    0    0    0    0  0.00000000000E+00  0.00000000000E+00  0.45593999997E+02  0.45594000000E+02  0.51100000000E-03 0.  1.
         11   -1    0    0    0    0 -0.00000000000E+00 -0.00000000000E+00 -0.45593999997E+02  0.45594000000E+02  0.51100000000E-03 0. -1.
    9900012    2    1    2    0    0 -0.86344418955E+00  0.20360706269E-01 -0.80628310593E+00  0.90006457418E+02  0.89998701846E+02 0.  0.
        -12    1    1    2    0    0  0.86344418955E+00 -0.20360706269E-01  0.80628310593E+00  0.11815425823E+01  0.00000000000E+00 0.  1.
         11    1    3    3    0    0  0.55801067697E+01 -0.25429988020E+01 -0.68048164303E+01  0.91602380635E+01  0.51100000000E-03 0. -1.
        -11    1    3    3    0    0 -0.22031674353E+02 -0.33876730102E+02 -0.18053515439E+01  0.40451042158E+02  0.51100000000E-03 0.  1.
         12    1    3    3    0    0  0.15588123393E+02  0.36440089610E+02  0.78038848683E+01  0.40395177197E+02  0.00000000000E+00 0. -1.
</event>
<event>
 7    1  0.1910099E-015  0.9000773E+02  0.7816164E-02  0.1186339E+00
        -11   -1    0    0    0    0  0.00000000000E+00  0.00000000000E+00  0.45593999997E+02  0.45594000000E+02  0.51100000000E-03 0. -1.
         11   -1    0    0    0    0 -0.00000000000E+00 -0.00000000000E+00 -0.45593999997E+02  0.45594000000E+02  0.51100000000E-03 0.  1.
    9900012    2    1    2    0    0 -0.57650618539E+00 -0.21618444211E+00  0.10069455500E+01  0.90007731202E+02  0.89999992454E+02 0.  0.
        -12    1    1    2    0    0  0.57650618539E+00  0.21618444211E+00 -0.10069455500E+01  0.11802687979E+01  0.00000000000E+00 0.  1.
         11    1    3    3    0    0 -0.12295335254E+02  0.78650540064E+01  0.40060591632E+02  0.42636666681E+02  0.51100000000E-03 0. -1.
        -11    1    3    3    0    0 -0.31922736627E+00  0.69514834388E+01 -0.63631974039E+01  0.94294914801E+01  0.51100000000E-03 0.  1.
        -12    1    3    3    0    0  0.12038056434E+02 -0.15032721887E+02 -0.32690448678E+02  0.37941573041E+02  0.00000000000E+00 0.  1.
</event>
<event>
 7    1  0.1910099E-015  0.9000778E+02  0.7816164E-02  0.1186339E+00
        -11   -1    0    0    0    0  0.00000000000E+00  0.00000000000E+00  0.45593999997E+02  0.45594000000E+02  0.51100000000E-03 0. -1.
         11   -1    0    0    0    0 -0.00000000000E+00 -0.00000000000E+00 -0.45593999997E+02  0.45594000000E+02  0.51100000000E-03 0.  1.
    9900012    2    1    2    0    0  0.45002149237E+00 -0.10381779086E+01  0.33554719384E+00  0.90007777719E+02  0.90000039585E+02 0.  0.
        -12    1    1    2    0    0 -0.45002149237E+00  0.10381779086E+01 -0.33554719384E+00  0.11802222811E+01  0.00000000000E+00 0.  1.
         11    1    3    3    0    0 -0.53678597260E+01 -0.52199592254E+01 -0.80786815217E+01  0.11014853051E+02  0.51100000000E-03 0. -1.
        -11    1    3    3    0    0  0.12075233789E+02 -0.10267774533E+02 -0.31950219502E+02  0.35665879933E+02  0.51100000000E-03 0.  1.
         12    1    3    3    0    0 -0.62573525707E+01  0.14449555850E+02  0.40364448218E+02  0.43327044734E+02  0.00000000000E+00 0. -1.
</event>
<event>
 7    1  0.1910099E-015  0.9000769E+02  0.7816164E-02  0.1186339E+00
        -11   -1    0    0    0    0  0.00000000000E+00  0.00000000000E+00  0.45593999997E+02  0.45594000000E+02  0.51100000000E-03 0. -1.
         11   -1    0    0    0    0 -0.00000000000E+00 -0.00000000000E+00 -0.45593999997E+02  0.45594000000E+02  0.51100000000E-03 0.  1.
    9900012    2    1    2    0    0  0.13035803190E+00  0.18779764758E+00  0.11579593307E+01  0.90007690301E+02  0.89999951013E+02 0.  0.
        -12    1    1    2    0    0 -0.13035803190E+00 -0.18779764758E+00 -0.11579593307E+01  0.11803096985E+01  0.00000000000E+00 0.  1.
         11    1    3    3    0    0  0.31391670665E+01  0.25164713244E+02  0.25589044707E+02  0.36026606443E+02  0.51100000000E-03 0. -1.
        -11    1    3    3    0    0  0.14815313756E+01  0.88498302086E+01  0.37501056115E+01  0.97251078295E+01  0.51100000000E-03 0.  1.
        -12    1    3    3    0    0 -0.44903404102E+01 -0.33826745805E+02 -0.28181190988E+02  0.44255976029E+02  0.00000000000E+00 0.  1.
</event>
<event>
 7    1  0.1910099E-015  0.9000779E+02  0.7816164E-02  0.1186339E+00
        -11   -1    0    0    0    0  0.00000000000E+00  0.00000000000E+00  0.45593999997E+02  0.45594000000E+02  0.51100000000E-03 0.  1.
         11   -1    0    0    0    0 -0.00000000000E+00 -0.00000000000E+00 -0.45593999997E+02  0.45594000000E+02  0.51100000000E-03 0. -1.
    9900012    2    1    2    0    0  0.12139204399E+00  0.10964814682E+01 -0.41939542081E+00  0.90007788088E+02  0.90000050091E+02 0.  0.
        -12    1    1    2    0    0 -0.12139204399E+00 -0.10964814682E+01  0.41939542081E+00  0.11802119121E+01  0.00000000000E+00 0.  1.
         11    1    3    3    0    0 -0.95045068472E+01 -0.29363371705E+02 -0.21414247370E+02  0.37564787221E+02  0.51100000000E-03 0. -1.
        -11    1    3    3    0    0  0.25330946144E+01  0.10663476742E+01 -0.92656582689E+01  0.96646825662E+01  0.51100000000E-03 0.  1.
        -12    1    3    3    0    0  0.70928042767E+01  0.29393505499E+02  0.30260510218E+02  0.42778318301E+02  0.00000000000E+00 0.  1.
</event>
<event>
 7    1  0.1910099E-015  0.9000773E+02  0.7816164E-02  0.1186339E+00
        -11   -1    0    0    0    0  0.00000000000E+00  0.00000000000E+00  0.45593999997E+02  0.45594000000E+02  0.51100000000E-03 0. -1.
         11   -1    0    0    0    0 -0.00000000000E+00 -0.00000000000E+00 -0.45593999997E+02  0.45594000000E+02  0.51100000000E-03 0.  1.
    9900012    2    1    2    0    0 -0.91711359133E+00 -0.12802050868E+00  0.73180688298E+00  0.90007733969E+02  0.89999995257E+02 0.  0.
        -12    1    1    2    0    0  0.91711359133E+00  0.12802050868E+00 -0.73180688298E+00  0.11802660310E+01  0.00000000000E+00 0.  1.
         11    1    3    3    0    0  0.35155009246E+01 -0.36122598109E+02  0.66244805896E+01  0.36892879858E+02  0.51100000000E-03 0. -1.
        -11    1    3    3    0    0  0.18389913089E+01 -0.65546126087E+01 -0.74316625292E+01  0.10078414741E+02  0.51100000000E-03 0.  1.
        -12    1    3    3    0    0 -0.62716058249E+01  0.42549190209E+02  0.15389888226E+01  0.43036439370E+02  0.00000000000E+00 0.  1.
</event>
<event>
 7    1  0.1910099E-015  0.9000775E+02  0.7816164E-02  0.1186339E+00
        -11   -1    0    0    0    0  0.00000000000E+00  0.00000000000E+00  0.45593999997E+02  0.45594000000E+02  0.51100000000E-03 0. -1.
         11   -1    0    0    0    0 -0.00000000000E+00 -0.00000000000E+00 -0.45593999997E+02  0.45594000000E+02  0.51100000000E-03 0.  1.
    9900012    2    1    2    0    0  0.56692732885E-01  0.12974351786E+00  0.11717307825E+01  0.90007745590E+02  0.90000007032E+02 0.  0.
        -12    1    1    2    0    0 -0.56692732885E-01 -0.12974351786E+00 -0.11717307825E+01  0.11802544103E+01  0.00000000000E+00 0.  1.
         11    1    3    3    0    0  0.24463756662E+02 -0.28642477628E+02  0.84784669693E+01  0.38610248861E+02  0.51100000000E-03 0. -1.
        -11    1    3    3    0    0 -0.35238627819E+01 -0.68410973370E+01 -0.65507972255E+01  0.10105996548E+02  0.51100000000E-03 0.  1.
        -12    1    3    3    0    0 -0.20883201147E+02  0.35613318482E+02 -0.75593896137E+00  0.41291500181E+02  0.00000000000E+00 0.  1.
</event>
<event>
 7    1  0.1910099E-015  0.9000776E+02  0.7816164E-02  0.1186339E+00
        -11   -1    0    0    0    0  0.00000000000E+00  0.00000000000E+00  0.45593999997E+02  0.45594000000E+02  0.51100000000E-03 0.  1.
         11   -1    0    0    0    0 -0.00000000000E+00 -0.00000000000E+00 -0.45593999997E+02  0.45594000000E+02  0.51100000000E-03 0. -1.
    9900012    2    1    2    0    0  0.16330591560E+00  0.99939515294E+00 -0.60623037734E+00  0.90007756481E+02  0.90000018067E+02 0.  0.
        -12    1    1    2    0    0 -0.16330591560E+00 -0.99939515294E+00  0.60623037734E+00  0.11802435190E+01  0.00000000000E+00 0.  1.
         11    1    3    3    0    0 -0.27089899708E+02  0.68093063932E+01 -0.26421587288E+02  0.38449051937E+02  0.51100000000E-03 0. -1.
        -11    1    3    3    0    0  0.57661212702E+01 -0.79579989579E+01 -0.71479475649E+01  0.12151998048E+02  0.51100000000E-03 0.  1.
        -12    1    3    3    0    0  0.21487084354E+02  0.21480877176E+01  0.32963304476E+02  0.39406706496E+02  0.00000000000E+00 0.  1.
</event>
<event>
 7    1  0.1994859E-015  0.9000796E+02  0.7816164E-02  0.1186339E+00
        -11   -1    0    0    0    0  0.00000000000E+00  0.00000000000E+00  0.45593999997E+02  0.45594000000E+02  0.51100000000E-03 0. -1.
         11   -1    0    0    0    0 -0.00000000000E+00 -0.00000000000E+00 -0.45593999997E+02  0.45594000000E+02  0.51100000000E-03 0.  1.
    9900012    2    1    2    0    0  0.29830548688E+00 -0.97656711435E+00  0.59146851708E+00  0.90007955722E+02  0.90000219937E+02 0.  0.
        -12    1    1    2    0    0 -0.29830548688E+00  0.97656711435E+00 -0.59146851708E+00  0.11800442784E+01  0.00000000000E+00 0.  1.
         11    1    3    3    0    0 -0.89412090319E+01  0.19180290121E+01  0.79905109166E-01  0.91449679787E+01  0.51100000000E-03 0. -1.
        -11    1    3    3    0    0 -0.12613094048E+02  0.98130035994E+01 -0.34300691250E+02  0.37840753185E+02  0.51100000000E-03 0.  1.
         12    1    3    3    0    0  0.21852608567E+02 -0.12707599726E+02  0.34812254658E+02  0.43022234558E+02  0.00000000000E+00 0. -1.
</event>
<event>
 7    1  0.1910099E-015  0.9000776E+02  0.7816164E-02  0.1186339E+00
        -11   -1    0    0    0    0  0.00000000000E+00  0.00000000000E+00  0.45593999997E+02  0.45594000000E+02  0.51100000000E-03 0.  1.
         11   -1    0    0    0    0 -0.00000000000E+00 -0.00000000000E+00 -0.45593999997E+02  0.45594000000E+02  0.51100000000E-03 0. -1.
    9900012    2    1    2    0    0 -0.75393226094E+00 -0.78710275237E+00 -0.45279994944E+00  0.90007757486E+02  0.90000019085E+02 0.  0.
        -12    1    1    2    0    0  0.75393226094E+00  0.78710275237E+00  0.45279994944E+00  0.11802425137E+01  0.00000000000E+00 0.  1.
         11    1    3    3    0    0 -0.73121459675E+00 -0.57822603086E+01  0.79740691540E+01  0.98769928721E+01  0.51100000000E-03 0. -1.
        -11    1    3    3    0    0 -0.18877674274E+02 -0.10210226087E+02  0.28677971442E+02  0.35819566567E+02  0.51100000000E-03 0.  1.
         12    1    3    3    0    0  0.18854956610E+02  0.15205383643E+02 -0.37104840545E+02  0.44311198047E+02  0.00000000000E+00 0. -1.
</event>
<event>
 7    1  0.1910099E-015  0.9000774E+02  0.7816164E-02  0.1186339E+00
        -11   -1    0    0    0    0  0.00000000000E+00  0.00000000000E+00  0.45593999997E+02  0.45594000000E+02  0.51100000000E-03 0.  1.
         11   -1    0    0    0    0 -0.00000000000E+00 -0.00000000000E+00 -0.45593999997E+02  0.45594000000E+02  0.51100000000E-03 0. -1.
    9900012    2    1    2    0    0 -0.59105221186E+00 -0.72256360850E+00 -0.72219913472E+00  0.90007740505E+02  0.90000001880E+02 0.  0.
        -12    1    1    2    0    0  0.59105221186E+00  0.72256360850E+00  0.72219913472E+00  0.11802594951E+01  0.00000000000E+00 0.  1.
         11    1    3    3    0    0 -0.80456414499E+01  0.32609578745E+02  0.38934749032E+00  0.33589709197E+02  0.51100000000E-03 0. -1.
        -11    1    3    3    0    0  0.16853544009E+02  0.28032184429E+01 -0.72849977862E+01  0.18573399589E+02  0.51100000000E-03 0.  1.
        -12    1    3    3    0    0 -0.93989547710E+01 -0.36135360796E+02  0.61734511612E+01  0.37844631718E+02  0.00000000000E+00 0.  1.
</event>
<event>
 7    1  0.1910099E-015  0.9000772E+02  0.7816164E-02  0.1186339E+00
        -11   -1    0    0    0    0  0.00000000000E+00  0.00000000000E+00  0.45593999997E+02  0.45594000000E+02  0.51100000000E-03 0.  1.
         11   -1    0    0    0    0 -0.00000000000E+00 -0.00000000000E+00 -0.45593999997E+02  0.45594000000E+02  0.51100000000E-03 0. -1.
    9900012    2    1    2    0    0 -0.35775683081E+00  0.80431603813E+00 -0.78621799990E+00  0.90007723345E+02  0.89999984493E+02 0.  0.
        -12    1    1    2    0    0  0.35775683081E+00 -0.80431603813E+00  0.78621799990E+00  0.11802766551E+01  0.00000000000E+00 0.  1.
         11    1    3    3    0    0 -0.48456621738E+01  0.65742448072E+01  0.67604736806E+01  0.10602129094E+02  0.51100000000E-03 0. -1.
        -11    1    3    3    0    0 -0.87349411210E+01  0.29970843480E+02  0.15516897201E+02  0.34861508205E+02  0.51100000000E-03 0.  1.
         12    1    3    3    0    0  0.13222846464E+02 -0.35740772249E+02 -0.23063588882E+02  0.44544086046E+02  0.00000000000E+00 0. -1.
</event>
<event>
 7    1  0.1910099E-015  0.9000771E+02  0.7816164E-02  0.1186339E+00
        -11   -1    0    0    0    0  0.00000000000E+00  0.00000000000E+00  0.45593999997E+02  0.45594000000E+02  0.51100000000E-03 0. -1.
         11   -1    0    0    0    0 -0.00000000000E+00 -0.00000000000E+00 -0.45593999997E+02  0.45594000000E+02  0.51100000000E-03 0.  1.
    9900012    2    1    2    0    0  0.68878136560E+00 -0.61853671313E-01 -0.95647642024E+00  0.90007706482E+02  0.89999967408E+02 0.  0.
        -12    1    1    2    0    0 -0.68878136560E+00  0.61853671313E-01  0.95647642024E+00  0.11802935180E+01  0.00000000000E+00 0.  1.
         11    1    3    3    0    0  0.70901830043E+01  0.18959657909E+01  0.34199278962E+01  0.80969925522E+01  0.51100000000E-03 0. -1.
        -11    1    3    3    0    0  0.31495072546E+02  0.25703403556E+01  0.19271127154E+02  0.37012465282E+02  0.51100000000E-03 0.  1.
         12    1    3    3    0    0 -0.37896474185E+02 -0.45281598179E+01 -0.23647531470E+02  0.44898248647E+02  0.00000000000E+00 0. -1.
</event>
<event>
 7    1  0.2890441E-015  0.9000777E+02  0.7816164E-02  0.1186339E+00
        -11   -1    0    0    0    0  0.00000000000E+00  0.00000000000E+00  0.45593999997E+02  0.45594000000E+02  0.51100000000E-03 0.  1.
         11   -1    0    0    0    0 -0.00000000000E+00 -0.00000000000E+00 -0.45593999997E+02  0.45594000000E+02  0.51100000000E-03 0. -1.
    9900012    2    1    2    0    0 -0.10030950795E+01  0.11129257171E-01 -0.62179589284E+00  0.90007765391E+02  0.90000027095E+02 0.  0.
        -12    1    1    2    0    0  0.10030950795E+01 -0.11129257171E-01  0.62179589284E+00  0.11802346086E+01  0.00000000000E+00 0.  1.
         11    1    3    3    0    0 -0.79362520611E+01 -0.29262599321E+00  0.53579345986E+01  0.95800412407E+01  0.51100000000E-03 0. -1.
        -11    1    3    3    0    0  0.14881245022E+02  0.20140730149E+02  0.29693534513E+02  0.38843357945E+02  0.51100000000E-03 0.  1.
         12    1    3    3    0    0 -0.79480880400E+01 -0.19836974899E+02 -0.35673265004E+02  0.41584366205E+02  0.00000000000E+00 0. -1.
</event>
<event>
 7    1  0.1910099E-015  0.9000768E+02  0.7816164E-02  0.1186339E+00
        -11   -1    0    0    0    0  0.00000000000E+00  0.00000000000E+00  0.45593999997E+02  0.45594000000E+02  0.51100000000E-03 0.  1.
         11   -1    0    0    0    0 -0.00000000000E+00 -0.00000000000E+00 -0.45593999997E+02  0.45594000000E+02  0.51100000000E-03 0. -1.
    9900012    2    1    2    0    0  0.11179571183E+01 -0.16210330695E+00  0.34213794807E+00  0.90007676326E+02  0.89999936853E+02 0.  0.
        -12    1    1    2    0    0 -0.11179571183E+01  0.16210330695E+00 -0.34213794807E+00  0.11803236743E+01  0.00000000000E+00 0.  1.
         11    1    3    3    0    0 -0.12910495002E+01 -0.28718118405E+02 -0.24595101535E+02  0.37832739173E+02  0.51100000000E-03 0. -1.
        -11    1    3    3    0    0 -0.14530458572E+01 -0.84737050486E+01  0.48546075250E+01  0.98733091715E+01  0.51100000000E-03 0.  1.
        -12    1    3    3    0    0  0.38620524758E+01  0.37029720147E+02  0.20082631958E+02  0.42301627981E+02  0.00000000000E+00 0.  1.
</event>
<event>
 7    1  0.1910099E-015  0.9000783E+02  0.7816164E-02  0.1186339E+00
        -11   -1    0    0    0    0  0.00000000000E+00  0.00000000000E+00  0.45593999997E+02  0.45594000000E+02  0.51100000000E-03 0. -1.
         11   -1    0    0    0    0 -0.00000000000E+00 -0.00000000000E+00 -0.45593999997E+02  0.45594000000E+02  0.51100000000E-03 0.  1.
    9900012    2    1    2    0    0  0.75427482445E+00  0.33113020346E+00  0.84512039668E+00  0.90007827891E+02  0.90000090419E+02 0.  0.
        -12    1    1    2    0    0 -0.75427482445E+00 -0.33113020346E+00 -0.84512039668E+00  0.11801721092E+01  0.00000000000E+00 0.  1.
         11    1    3    3    0    0 -0.24026029608E+01 -0.18523732858E+02  0.38108996582E+02  0.42440508959E+02  0.51100000000E-03 0. -1.
        -11    1    3    3    0    0 -0.72383693042E+01 -0.77582623698E+00 -0.78178113246E+01  0.10682418767E+02  0.51100000000E-03 0.  1.
        -12    1    3    3    0    0  0.10395247089E+02  0.19630689298E+02 -0.29446064861E+02  0.36884900165E+02  0.00000000000E+00 0.  1.
</event>
<event>
 7    1  0.1910099E-015  0.9000765E+02  0.7816164E-02  0.1186339E+00
        -11   -1    0    0    0    0  0.00000000000E+00  0.00000000000E+00  0.45593999997E+02  0.45594000000E+02  0.51100000000E-03 0.  1.
         11   -1    0    0    0    0 -0.00000000000E+00 -0.00000000000E+00 -0.45593999997E+02  0.45594000000E+02  0.51100000000E-03 0. -1.
    9900012    2    1    2    0    0  0.58882577346E+00 -0.97907382488E+00  0.29650204297E+00  0.90007654793E+02  0.89999915036E+02 0.  0.
        -12    1    1    2    0    0 -0.58882577346E+00  0.97907382488E+00 -0.29650204297E+00  0.11803452069E+01  0.00000000000E+00 0.  1.
         11    1    3    3    0    0  0.40814901039E+01  0.12655659606E+01 -0.28451928808E+02  0.28771035293E+02  0.51100000000E-03 0. -1.
        -11    1    3    3    0    0 -0.50010741150E+01 -0.87583732294E+01 -0.14395888035E+02  0.17577298897E+02  0.51100000000E-03 0.  1.
        -12    1    3    3    0    0  0.15084097845E+01  0.65137334439E+01  0.43144318886E+02  0.43659320604E+02  0.00000000000E+00 0.  1.
</event>
<event>
 7    1  0.1910099E-015  0.9000792E+02  0.7816164E-02  0.1186339E+00
        -11   -1    0    0    0    0  0.00000000000E+00  0.00000000000E+00  0.45593999997E+02  0.45594000000E+02  0.51100000000E-03 0. -1.
         11   -1    0    0    0    0 -0.00000000000E+00 -0.00000000000E+00 -0.45593999997E+02  0.45594000000E+02  0.51100000000E-03 0.  1.
    9900012    2    1    2    0    0  0.11318626674E-01 -0.32871493097E+00  0.11333147414E+01  0.90007922070E+02  0.90000185841E+02 0.  0.
        -12    1    1    2    0    0 -0.11318626674E-01  0.32871493097E+00 -0.11333147414E+01  0.11800779298E+01  0.00000000000E+00 0.  1.
         11    1    3    3    0    0 -0.30236403366E+01 -0.76733869185E+01  0.31997721901E+02  0.33043569341E+02  0.51100000000E-03 0. -1.
        -11    1    3    3    0    0  0.13847978690E+00 -0.15554622088E+02  0.31371677532E+01  0.15868436177E+02  0.51100000000E-03 0.  1.
        -12    1    3    3    0    0  0.28964791763E+01  0.22899294075E+02 -0.34001574912E+02  0.41095916552E+02  0.00000000000E+00 0.  1.
</event>
<event>
 7    1  0.1910099E-015  0.9000805E+02  0.7816164E-02  0.1186338E+00
        -11   -1    0    0    0    0  0.00000000000E+00  0.00000000000E+00  0.45593999997E+02  0.45594000000E+02  0.51100000000E-03 0.  1.
         11   -1    0    0    0    0 -0.00000000000E+00 -0.00000000000E+00 -0.45593999997E+02  0.45594000000E+02  0.51100000000E-03 0. -1.
    9900012    2    1    2    0    0 -0.44064059649E-01 -0.74922497192E+00 -0.91049523808E+00  0.90008050307E+02  0.90000315770E+02 0.  0.
        -12    1    1    2    0    0  0.44064059649E-01  0.74922497192E+00  0.91049523808E+00  0.11799496932E+01  0.00000000000E+00 0.  1.
         11    1    3    3    0    0 -0.29824006353E+02 -0.41943770737E+01  0.20574772536E+02  0.36474448854E+02  0.51100000000E-03 0. -1.
        -11    1    3    3    0    0 -0.27699750672E+01  0.59597548216E+01  0.74322521774E+01  0.99211799750E+01  0.51100000000E-03 0.  1.
        -12    1    3    3    0    0  0.32549917361E+02 -0.25146027199E+01 -0.28917519951E+02  0.43612421478E+02  0.00000000000E+00 0.  1.
</event>
<event>
 7    1  0.1910099E-015  0.9000767E+02  0.7816164E-02  0.1186339E+00
        -11   -1    0    0    0    0  0.00000000000E+00  0.00000000000E+00  0.45593999997E+02  0.45594000000E+02  0.51100000000E-03 0.  1.
         11   -1    0    0    0    0 -0.00000000000E+00 -0.00000000000E+00 -0.45593999997E+02  0.45594000000E+02  0.51100000000E-03 0. -1.
    9900012    2    1    2    0    0  0.94676775108E+00 -0.36576416398E+00  0.60252030707E+00  0.90007668132E+02  0.89999928551E+02 0.  0.
        -12    1    1    2    0    0 -0.94676775108E+00  0.36576416398E+00 -0.60252030707E+00  0.11803318680E+01  0.00000000000E+00 0.  1.
         11    1    3    3    0    0 -0.54554225561E+01  0.67947805418E+01  0.40064481530E+01  0.95907405835E+01  0.51100000000E-03 0. -1.
        -11    1    3    3    0    0 -0.15099232581E+02 -0.75024257936E+01  0.33614415843E+02  0.37605879461E+02  0.51100000000E-03 0.  1.
         12    1    3    3    0    0  0.21501422889E+02  0.34188108788E+00 -0.37018343688E+02  0.42811048088E+02  0.00000000000E+00 0. -1.
</event>
<event>
 7    1  0.1910099E-015  0.9000789E+02  0.7816164E-02  0.1186339E+00
        -11   -1    0    0    0    0  0.00000000000E+00  0.00000000000E+00  0.45593999997E+02  0.45594000000E+02  0.51100000000E-03 0.  1.
         11   -1    0    0    0    0 -0.00000000000E+00 -0.00000000000E+00 -0.45593999997E+02  0.45594000000E+02  0.51100000000E-03 0. -1.
    9900012    2    1    2    0    0  0.93857282739E+00  0.59927207967E+00  0.39065912866E+00  0.90007889610E+02  0.90000152953E+02 0.  0.
        -12    1    1    2    0    0 -0.93857282739E+00 -0.59927207967E+00 -0.39065912866E+00  0.11801103900E+01  0.00000000000E+00 0.  1.
         11    1    3    3    0    0  0.48793173102E+01 -0.54934781673E+01  0.80112766116E+01  0.10870445851E+02  0.51100000000E-03 0. -1.
        -11    1    3    3    0    0 -0.23197164433E+02 -0.29881048506E+02 -0.60046729119E+01  0.38301978990E+02  0.51100000000E-03 0.  1.
         12    1    3    3    0    0  0.19256419950E+02  0.35973798753E+02 -0.16159445711E+01  0.40835464769E+02  0.00000000000E+00 0. -1.
</event>
<event>
 7    1  0.1910099E-015  0.9000773E+02  0.7816164E-02  0.1186339E+00
        -11   -1    0    0    0    0  0.00000000000E+00  0.00000000000E+00  0.45593999997E+02  0.45594000000E+02  0.51100000000E-03 0.  1.
         11   -1    0    0    0    0 -0.00000000000E+00 -0.00000000000E+00 -0.45593999997E+02  0.45594000000E+02  0.51100000000E-03 0. -1.
    9900012    2    1    2    0    0 -0.19187750956E+00  0.11540498116E+01 -0.15616288828E+00  0.90007731050E+02  0.89999992300E+02 0.  0.
        -12    1    1    2    0    0  0.19187750956E+00 -0.11540498116E+01  0.15616288828E+00  0.11802689498E+01  0.00000000000E+00 0.  1.
         11    1    3    3    0    0 -0.22687410259E+02 -0.27942469941E+02  0.15884967628E+02  0.39342501286E+02  0.51100000000E-03 0. -1.
        -11    1    3    3    0    0 -0.73455201463E+01  0.23257840721E+01 -0.46065239026E+01  0.89769705634E+01  0.51100000000E-03 0.  1.
        -12    1    3    3    0    0  0.29841052895E+02  0.26770735680E+02 -0.11434606614E+02  0.41688259201E+02  0.00000000000E+00 0.  1.
</event>
<event>
 7    1  0.1910099E-015  0.9000781E+02  0.7816164E-02  0.1186339E+00
        -11   -1    0    0    0    0  0.00000000000E+00  0.00000000000E+00  0.45593999997E+02  0.45594000000E+02  0.51100000000E-03 0.  1.
         11   -1    0    0    0    0 -0.00000000000E+00 -0.00000000000E+00 -0.45593999997E+02  0.45594000000E+02  0.51100000000E-03 0. -1.
    9900012    2    1    2    0    0 -0.10764892278E+01 -0.50504824481E-01 -0.48110984938E+00  0.90007810828E+02  0.90000073131E+02 0.  0.
        -12    1    1    2    0    0  0.10764892278E+01  0.50504824481E-01  0.48110984938E+00  0.11801891722E+01  0.00000000000E+00 0.  1.
         11    1    3    3    0    0  0.39539806300E+01  0.73741382787E+00 -0.19442816601E+01  0.44674347686E+01  0.51100000000E-03 0. -1.
        -11    1    3    3    0    0 -0.30460185851E+01  0.87194774166E+01  0.42437366703E+02  0.43430837070E+02  0.51100000000E-03 0.  1.
         12    1    3    3    0    0 -0.19844512728E+01 -0.95073960689E+01 -0.40974194892E+02  0.42109538990E+02  0.00000000000E+00 0. -1.
</event>
<event>
 7    1  0.1910099E-015  0.9000772E+02  0.7816164E-02  0.1186339E+00
        -11   -1    0    0    0    0  0.00000000000E+00  0.00000000000E+00  0.45593999997E+02  0.45594000000E+02  0.51100000000E-03 0.  1.
         11   -1    0    0    0    0 -0.00000000000E+00 -0.00000000000E+00 -0.45593999997E+02  0.45594000000E+02  0.51100000000E-03 0. -1.
    9900012    2    1    2    0    0  0.18457782364E+00 -0.10756803240E+01 -0.44934434832E+00  0.90007717205E+02  0.89999978272E+02 0.  0.
        -12    1    1    2    0    0 -0.18457782364E+00  0.10756803240E+01  0.44934434832E+00  0.11802827948E+01  0.00000000000E+00 0.  1.
         11    1    3    3    0    0 -0.41779353034E+01 -0.29970219126E+02 -0.19224464967E+02  0.35850372821E+02  0.51100000000E-03 0. -1.
        -11    1    3    3    0    0 -0.72840293487E+01  0.21188109106E+01 -0.10405217388E+02  0.12876917037E+02  0.51100000000E-03 0.  1.
        -12    1    3    3    0    0  0.11646542476E+02  0.26775727891E+02  0.29180338007E+02  0.41280427347E+02  0.00000000000E+00 0.  1.
</event>
<event>
 7    1  0.1910099E-015  0.9000771E+02  0.7816164E-02  0.1186339E+00
        -11   -1    0    0    0    0  0.00000000000E+00  0.00000000000E+00  0.45593999997E+02  0.45594000000E+02  0.51100000000E-03 0.  1.
         11   -1    0    0    0    0 -0.00000000000E+00 -0.00000000000E+00 -0.45593999997E+02  0.45594000000E+02  0.51100000000E-03 0. -1.
    9900012    2    1    2    0    0  0.52923557201E-02 -0.11268432013E+01 -0.35111751836E+00  0.90007708883E+02  0.89999969840E+02 0.  0.
        -12    1    1    2    0    0 -0.52923557201E-02  0.11268432013E+01  0.35111751836E+00  0.11802911171E+01  0.00000000000E+00 0.  1.
         11    1    3    3    0    0  0.28249726012E+02 -0.21371926214E+02 -0.80002636721E+01  0.36315430177E+02  0.51100000000E-03 0. -1.
        -11    1    3    3    0    0  0.83208256799E+01 -0.31098384155E+01 -0.23059520756E+01  0.91773988800E+01  0.51100000000E-03 0.  1.
        -12    1    3    3    0    0 -0.36565259336E+02  0.23354921428E+02  0.99550982294E+01  0.44514879826E+02  0.00000000000E+00 0.  1.
</event>
<event>
 7    1  0.1910099E-015  0.9000777E+02  0.7816164E-02  0.1186339E+00
        -11   -1    0    0    0    0  0.00000000000E+00  0.00000000000E+00  0.45593999997E+02  0.45594000000E+02  0.51100000000E-03 0.  1.
         11   -1    0    0    0    0 -0.00000000000E+00 -0.00000000000E+00 -0.45593999997E+02  0.45594000000E+02  0.51100000000E-03 0. -1.
    9900012    2    1    2    0    0 -0.46030797216E+00  0.10832711246E+01  0.87031589351E-01  0.90007773642E+02  0.90000035454E+02 0.  0.
        -12    1    1    2    0    0  0.46030797216E+00 -0.10832711246E+01 -0.87031589351E-01  0.11802263580E+01  0.00000000000E+00 0.  1.
         11    1    3    3    0    0  0.26233376752E+01  0.92529421740E+01  0.13201783252E+01  0.97078169793E+01  0.51100000000E-03 0. -1.
        -11    1    3    3    0    0  0.26103997074E+02  0.24202871638E+02  0.60489618740E+01  0.36107999097E+02  0.51100000000E-03 0.  1.
         12    1    3    3    0    0 -0.29187642721E+02 -0.32372542688E+02 -0.72821086099E+01  0.44191957566E+02  0.00000000000E+00 0. -1.
</event>
<event>
 7    1  0.1910099E-015  0.9000782E+02  0.7816164E-02  0.1186339E+00
        -11   -1    0    0    0    0  0.00000000000E+00  0.00000000000E+00  0.45593999997E+02  0.45594000000E+02  0.51100000000E-03 0. -1.
         11   -1    0    0    0    0 -0.00000000000E+00 -0.00000000000E+00 -0.45593999997E+02  0.45594000000E+02  0.51100000000E-03 0.  1.
    9900012    2    1    2    0    0  0.31357897334E+00  0.15329125785E+00  0.11273853416E+01  0.90007818789E+02  0.90000081197E+02 0.  0.
        -12    1    1    2    0    0 -0.31357897334E+00 -0.15329125785E+00 -0.11273853416E+01  0.11801812110E+01  0.00000000000E+00 0.  1.
         11    1    3    3    0    0 -0.36147635396E+02  0.11520386652E+02 -0.43237000867E+01  0.38184620412E+02  0.51100000000E-03 0. -1.
        -11    1    3    3    0    0 -0.34572048725E+01 -0.80858023619E+01 -0.54086281681E+01  0.10324036240E+02  0.51100000000E-03 0.  1.
        -12    1    3    3    0    0  0.39918419241E+02 -0.32812930319E+01  0.10859713596E+02  0.41499162137E+02  0.00000000000E+00 0.  1.
</event>
<event>
 7    1  0.1910099E-015  0.9000774E+02  0.7816164E-02  0.1186339E+00
        -11   -1    0    0    0    0  0.00000000000E+00  0.00000000000E+00  0.45593999997E+02  0.45594000000E+02  0.51100000000E-03 0. -1.
         11   -1    0    0    0    0 -0.00000000000E+00 -0.00000000000E+00 -0.45593999997E+02  0.45594000000E+02  0.51100000000E-03 0.  1.
    9900012    2    1    2    0    0 -0.10010265074E+01  0.57617824830E+00  0.24284089858E+00  0.90007742763E+02  0.90000004168E+02 0.  0.
        -12    1    1    2    0    0  0.10010265074E+01 -0.57617824830E+00 -0.24284089858E+00  0.11802572365E+01  0.00000000000E+00 0.  1.
         11    1    3    3    0    0  0.67430823408E+01  0.12822267493E+02 -0.92602303561E+00  0.14516791038E+02  0.51100000000E-03 0. -1.
        -11    1    3    3    0    0  0.27397556918E+02  0.11831763451E+02 -0.99614364683E+01  0.31461833516E+02  0.51100000000E-03 0.  1.
         12    1    3    3    0    0 -0.35141665766E+02 -0.24077852696E+02  0.11130300402E+02  0.44029118209E+02  0.00000000000E+00 0. -1.
</event>
<event>
 7    1  0.1910099E-015  0.9000770E+02  0.7816164E-02  0.1186339E+00
        -11   -1    0    0    0    0  0.00000000000E+00  0.00000000000E+00  0.45593999997E+02  0.45594000000E+02  0.51100000000E-03 0. -1.
         11   -1    0    0    0    0 -0.00000000000E+00 -0.00000000000E+00 -0.45593999997E+02  0.45594000000E+02  0.51100000000E-03 0.  1.
    9900012    2    1    2    0    0  0.12589365129E+00  0.28512792742E+00  0.11384050638E+01  0.90007697820E+02  0.89999958631E+02 0.  0.
        -12    1    1    2    0    0 -0.12589365129E+00 -0.28512792742E+00 -0.11384050638E+01  0.11803021798E+01  0.00000000000E+00 0.  1.
         11    1    3    3    0    0  0.16281426120E+02  0.94090372543E+01 -0.46725646461E+01  0.19376472310E+02  0.51100000000E-03 0. -1.
        -11    1    3    3    0    0 -0.99746324435E+01  0.73777173239E+01 -0.29039743720E+02  0.31578960098E+02  0.51100000000E-03 0.  1.
         12    1    3    3    0    0 -0.61809000255E+01 -0.16501626651E+02  0.34850713430E+02  0.39052265412E+02  0.00000000000E+00 0. -1.
</event>
<event>
 7    1  0.1910099E-015  0.9000773E+02  0.7816164E-02  0.1186339E+00
        -11   -1    0    0    0    0  0.00000000000E+00  0.00000000000E+00  0.45593999997E+02  0.45594000000E+02  0.51100000000E-03 0.  1.
         11   -1    0    0    0    0 -0.00000000000E+00 -0.00000000000E+00 -0.45593999997E+02  0.45594000000E+02  0.51100000000E-03 0. -1.
    9900012    2    1    2    0    0 -0.62471539499E+00  0.92494990957E-01 -0.99710058269E+00  0.90007731293E+02  0.89999992546E+02 0.  0.
        -12    1    1    2    0    0  0.62471539499E+00 -0.92494990957E-01  0.99710058269E+00  0.11802687067E+01  0.00000000000E+00 0.  1.
         11    1    3    3    0    0  0.10168993307E+01  0.76774751177E+01 -0.36925927040E+02  0.37729322767E+02  0.51100000000E-03 0. -1.
        -11    1    3    3    0    0  0.35536395586E+01  0.97723003460E+01 -0.16796785524E+01  0.10533163270E+02  0.51100000000E-03 0.  1.
        -12    1    3    3    0    0 -0.51952542843E+01 -0.17357280473E+02  0.37608505010E+02  0.41745245257E+02  0.00000000000E+00 0.  1.
</event>
<event>
 7    1  0.1910099E-015  0.9000773E+02  0.7816164E-02  0.1186339E+00
        -11   -1    0    0    0    0  0.00000000000E+00  0.00000000000E+00  0.45593999997E+02  0.45594000000E+02  0.51100000000E-03 0. -1.
         11   -1    0    0    0    0 -0.00000000000E+00 -0.00000000000E+00 -0.45593999997E+02  0.45594000000E+02  0.51100000000E-03 0.  1.
    9900012    2    1    2    0    0 -0.43883434966E+00 -0.85438138542E+00 -0.68591732643E+00  0.90007734896E+02  0.89999996196E+02 0.  0.
        -12    1    1    2    0    0  0.43883434966E+00  0.85438138542E+00  0.68591732643E+00  0.11802651045E+01  0.00000000000E+00 0.  1.
         11    1    3    3    0    0 -0.41922129038E+02 -0.53574207721E+00  0.75381307480E+01  0.42597832552E+02  0.51100000000E-03 0. -1.
        -11    1    3    3    0    0  0.45665644757E+01 -0.14561845805E+01 -0.92972522558E+01  0.10460061396E+02  0.51100000000E-03 0.  1.
        -12    1    3    3    0    0  0.36916730213E+02  0.11375452723E+01  0.10732041814E+01  0.36949840948E+02  0.00000000000E+00 0.  1.
</event>
<event>
 7    1  0.1910099E-015  0.9000780E+02  0.7816164E-02  0.1186339E+00
        -11   -1    0    0    0    0  0.00000000000E+00  0.00000000000E+00  0.45593999997E+02  0.45594000000E+02  0.51100000000E-03 0.  1.
         11   -1    0    0    0    0 -0.00000000000E+00 -0.00000000000E+00 -0.45593999997E+02  0.45594000000E+02  0.51100000000E-03 0. -1.
    9900012    2    1    2    0    0  0.73795496110E-01 -0.11409092713E+01 -0.29281721856E+00  0.90007804396E+02  0.90000066614E+02 0.  0.
        -12    1    1    2    0    0 -0.73795496110E-01  0.11409092713E+01  0.29281721856E+00  0.11801956041E+01  0.00000000000E+00 0.  1.
         11    1    3    3    0    0 -0.24412684955E+01 -0.38292371030E+01  0.46436422742E+01  0.64950952641E+01  0.51100000000E-03 0. -1.
        -11    1    3    3    0    0 -0.36188168819E+02 -0.15981120866E+02  0.35257099848E+01  0.39716626465E+02  0.51100000000E-03 0.  1.
         12    1    3    3    0    0  0.38703232811E+02  0.18669448698E+02 -0.84621694775E+01  0.43796082667E+02  0.00000000000E+00 0. -1.
</event>
<event>
 7    1  0.1910099E-015  0.9000763E+02  0.7816164E-02  0.1186339E+00
        -11   -1    0    0    0    0  0.00000000000E+00  0.00000000000E+00  0.45593999997E+02  0.45594000000E+02  0.51100000000E-03 0.  1.
         11   -1    0    0    0    0 -0.00000000000E+00 -0.00000000000E+00 -0.45593999997E+02  0.45594000000E+02  0.51100000000E-03 0. -1.
    9900012    2    1    2    0    0  0.10146897214E+01 -0.40531904828E+00 -0.44653663173E+00  0.90007629836E+02  0.89999889749E+02 0.  0.
        -12    1    1    2    0    0 -0.10146897214E+01  0.40531904828E+00  0.44653663173E+00  0.11803701645E+01  0.00000000000E+00 0.  1.
         11    1    3    3    0    0  0.15143759878E+02 -0.17054913678E+02  0.39599584833E+01  0.23149186060E+02  0.51100000000E-03 0. -1.
        -11    1    3    3    0    0  0.15108663878E+02  0.32227312533E+01 -0.24472395475E+02  0.28940557379E+02  0.51100000000E-03 0.  1.
        -12    1    3    3    0    0 -0.29237734034E+02  0.13426863376E+02  0.20065900360E+02  0.37917886397E+02  0.00000000000E+00 0.  1.
</event>
<event>
 7    1  0.1910099E-015  0.9000772E+02  0.7816164E-02  0.1186339E+00
        -11   -1    0    0    0    0  0.00000000000E+00  0.00000000000E+00  0.45593999997E+02  0.45594000000E+02  0.51100000000E-03 0. -1.
         11   -1    0    0    0    0 -0.00000000000E+00 -0.00000000000E+00 -0.45593999997E+02  0.45594000000E+02  0.51100000000E-03 0.  1.
    9900012    2    1    2    0    0 -0.10023938957E+01  0.58876706026E+00 -0.20399087397E+00  0.90007723571E+02  0.89999984722E+02 0.  0.
        -12    1    1    2    0    0  0.10023938957E+01 -0.58876706026E+00  0.20399087397E+00  0.11802764295E+01  0.00000000000E+00 0.  1.
         11    1    3    3    0    0  0.14638101445E+01 -0.82853620636E+01 -0.28796698408E+00  0.84186037981E+01  0.51100000000E-03 0. -1.
        -11    1    3    3    0    0 -0.35152378796E+02  0.75757691445E+01 -0.21967642528E+02  0.42138572966E+02  0.51100000000E-03 0.  1.
         12    1    3    3    0    0  0.32686174755E+02  0.12983599794E+01  0.22051618638E+02  0.39450546806E+02  0.00000000000E+00 0. -1.
</event>
<event>
 7    1  0.1910099E-015  0.9000775E+02  0.7816164E-02  0.1186339E+00
        -11   -1    0    0    0    0  0.00000000000E+00  0.00000000000E+00  0.45593999997E+02  0.45594000000E+02  0.51100000000E-03 0.  1.
         11   -1    0    0    0    0 -0.00000000000E+00 -0.00000000000E+00 -0.45593999997E+02  0.45594000000E+02  0.51100000000E-03 0. -1.
    9900012    2    1    2    0    0  0.19850607016E+00  0.22298908549E+00 -0.11418652724E+01  0.90007752105E+02  0.90000013633E+02 0.  0.
        -12    1    1    2    0    0 -0.19850607016E+00 -0.22298908549E+00  0.11418652724E+01  0.11802478945E+01  0.00000000000E+00 0.  1.
         11    1    3    3    0    0 -0.20142005121E+02 -0.12156996441E+02  0.28589980293E+02  0.37025395422E+02  0.51100000000E-03 0. -1.
        -11    1    3    3    0    0 -0.22254230360E+01  0.11635931309E+02  0.39020673757E+01  0.12472912057E+02  0.51100000000E-03 0.  1.
        -12    1    3    3    0    0  0.22565934228E+02  0.74405421750E+00 -0.33633912941E+02  0.40509444627E+02  0.00000000000E+00 0.  1.
</event>
<event>
 7    1  0.1910099E-015  0.9000782E+02  0.7816164E-02  0.1186339E+00
        -11   -1    0    0    0    0  0.00000000000E+00  0.00000000000E+00  0.45593999997E+02  0.45594000000E+02  0.51100000000E-03 0. -1.
         11   -1    0    0    0    0 -0.00000000000E+00 -0.00000000000E+00 -0.45593999997E+02  0.45594000000E+02  0.51100000000E-03 0.  1.
    9900012    2    1    2    0    0  0.81083497096E+00 -0.56273174912E+00 -0.64706519487E+00  0.90007824700E+02  0.90000087186E+02 0.  0.
        -12    1    1    2    0    0 -0.81083497096E+00  0.56273174912E+00  0.64706519487E+00  0.11801752997E+01  0.00000000000E+00 0.  1.
         11    1    3    3    0    0 -0.87013094792E+01  0.75793043117E-01 -0.46983157278E+01  0.98890192728E+01  0.51100000000E-03 0. -1.
        -11    1    3    3    0    0  0.17980487397E+02 -0.14890481355E+02 -0.32481305901E+02  0.40000744934E+02  0.51100000000E-03 0.  1.
         12    1    3    3    0    0 -0.84683429468E+01  0.14251956562E+02  0.36532556434E+02  0.40118060493E+02  0.00000000000E+00 0. -1.
</event>
<event>
 7    1  0.1910099E-015  0.9000762E+02  0.7816164E-02  0.1186339E+00
        -11   -1    0    0    0    0  0.00000000000E+00  0.00000000000E+00  0.45593999997E+02  0.45594000000E+02  0.51100000000E-03 0. -1.
         11   -1    0    0    0    0 -0.00000000000E+00 -0.00000000000E+00 -0.45593999997E+02  0.45594000000E+02  0.51100000000E-03 0.  1.
    9900012    2    1    2    0    0 -0.20075500749E+00 -0.34155516206E+00  0.11119061894E+01  0.90007619606E+02  0.89999879384E+02 0.  0.
        -12    1    1    2    0    0  0.20075500749E+00  0.34155516206E+00 -0.11119061894E+01  0.11803803945E+01  0.00000000000E+00 0.  1.
         11    1    3    3    0    0  0.77919192130E+01 -0.84910481686E+00  0.67796301557E+01  0.10363318451E+02  0.51100000000E-03 0. -1.
        -11    1    3    3    0    0  0.22759847772E+02  0.14306976469E+02  0.23012213750E+02  0.35387317336E+02  0.51100000000E-03 0.  1.
         12    1    3    3    0    0 -0.30752521993E+02 -0.13799426814E+02 -0.28679937716E+02  0.44256983819E+02  0.00000000000E+00 0. -1.
</event>
<event>
 7    1  0.1910099E-015  0.9000766E+02  0.7816164E-02  0.1186339E+00
        -11   -1    0    0    0    0  0.00000000000E+00  0.00000000000E+00  0.45593999997E+02  0.45594000000E+02  0.51100000000E-03 0. -1.
         11   -1    0    0    0    0 -0.00000000000E+00 -0.00000000000E+00 -0.45593999997E+02  0.45594000000E+02  0.51100000000E-03 0.  1.
    9900012    2    1    2    0    0  0.62363795159E+00  0.99802976525E+00 -0.90661451464E-01  0.90007658013E+02  0.89999918299E+02 0.  0.
        -12    1    1    2    0    0 -0.62363795159E+00 -0.99802976525E+00  0.90661451464E-01  0.11803419868E+01  0.00000000000E+00 0.  1.
         11    1    3    3    0    0 -0.85066261147E+01  0.18144152902E+02  0.27846674063E+02  0.34307582676E+02  0.51100000000E-03 0. -1.
        -11    1    3    3    0    0  0.16731038531E+00  0.11133776229E+01  0.11378504527E+02  0.11434070493E+02  0.51100000000E-03 0.  1.
        -12    1    3    3    0    0  0.89629536810E+01 -0.18259500760E+02 -0.39315840042E+02  0.44266004845E+02  0.00000000000E+00 0.  1.
</event>
<event>
 7    1  0.1910099E-015  0.9000777E+02  0.7816164E-02  0.1186339E+00
        -11   -1    0    0    0    0  0.00000000000E+00  0.00000000000E+00  0.45593999997E+02  0.45594000000E+02  0.51100000000E-03 0.  1.
         11   -1    0    0    0    0 -0.00000000000E+00 -0.00000000000E+00 -0.45593999997E+02  0.45594000000E+02  0.51100000000E-03 0. -1.
    9900012    2    1    2    0    0  0.46323942124E+00  0.43629144626E+00 -0.99398585353E+00  0.90007767453E+02  0.90000029184E+02 0.  0.
        -12    1    1    2    0    0 -0.46323942124E+00 -0.43629144626E+00  0.99398585353E+00  0.11802325468E+01  0.00000000000E+00 0.  1.
         11    1    3    3    0    0  0.76484580345E+01  0.83462418753E+01  0.10626441583E+01  0.11370482691E+02  0.51100000000E-03 0. -1.
        -11    1    3    3    0    0 -0.25890041700E+01  0.35174546756E+02 -0.15983527879E+01  0.35305897722E+02  0.51100000000E-03 0.  1.
         12    1    3    3    0    0 -0.45962144433E+01 -0.43084497185E+02 -0.45827722390E+00  0.43331387041E+02  0.00000000000E+00 0. -1.
</event>
<event>
 7    1  0.1910099E-015  0.9000779E+02  0.7816164E-02  0.1186339E+00
        -11   -1    0    0    0    0  0.00000000000E+00  0.00000000000E+00  0.45593999997E+02  0.45594000000E+02  0.51100000000E-03 0.  1.
         11   -1    0    0    0    0 -0.00000000000E+00 -0.00000000000E+00 -0.45593999997E+02  0.45594000000E+02  0.51100000000E-03 0. -1.
    9900012    2    1    2    0    0  0.34050443277E+00  0.29785384544E+00 -0.10900675035E+01  0.90007785043E+02  0.90000047006E+02 0.  0.
        -12    1    1    2    0    0 -0.34050443277E+00 -0.29785384544E+00  0.10900675035E+01  0.11802149567E+01  0.00000000000E+00 0.  1.
         11    1    3    3    0    0 -0.29835471562E+02 -0.23465675533E+02 -0.64949888336E+01  0.38509455615E+02  0.51100000000E-03 0. -1.
        -11    1    3    3    0    0 -0.75639670968E+01  0.37572332555E+01  0.17693585113E+01  0.86290804713E+01  0.51100000000E-03 0.  1.
        -12    1    3    3    0    0  0.37739943092E+02  0.20006296123E+02  0.36355628188E+01  0.42869248957E+02  0.00000000000E+00 0.  1.
</event>
<event>
 7    1  0.1910099E-015  0.9000834E+02  0.7816164E-02  0.1186338E+00
        -11   -1    0    0    0    0  0.00000000000E+00  0.00000000000E+00  0.45593999997E+02  0.45594000000E+02  0.51100000000E-03 0.  1.
         11   -1    0    0    0    0 -0.00000000000E+00 -0.00000000000E+00 -0.45593999997E+02  0.45594000000E+02  0.51100000000E-03 0. -1.
    9900012    2    1    2    0    0 -0.97061326459E+00 -0.15500097568E+00 -0.65228338867E+00  0.90008343681E+02  0.90000613015E+02 0.  0.
        -12    1    1    2    0    0  0.97061326459E+00  0.15500097568E+00  0.65228338867E+00  0.11796563190E+01  0.00000000000E+00 0.  1.
         11    1    3    3    0    0  0.17162936682E+00  0.35218942701E-01  0.11790547283E+02  0.11791848986E+02  0.51100000000E-03 0. -1.
        -11    1    3    3    0    0  0.30410530103E+02 -0.18773793575E+02  0.75033017201E+01  0.36517875120E+02  0.51100000000E-03 0.  1.
         12    1    3    3    0    0 -0.31552772735E+02  0.18583573656E+02 -0.19946132391E+02  0.41698619575E+02  0.00000000000E+00 0. -1.
</event>
<event>
 7    1  0.1910099E-015  0.9000778E+02  0.7816164E-02  0.1186339E+00
        -11   -1    0    0    0    0  0.00000000000E+00  0.00000000000E+00  0.45593999997E+02  0.45594000000E+02  0.51100000000E-03 0.  1.
         11   -1    0    0    0    0 -0.00000000000E+00 -0.00000000000E+00 -0.45593999997E+02  0.45594000000E+02  0.51100000000E-03 0. -1.
    9900012    2    1    2    0    0  0.37364531486E+00 -0.88437538808E+00 -0.68643292245E+00  0.90007779340E+02  0.90000041228E+02 0.  0.
        -12    1    1    2    0    0 -0.37364531486E+00  0.88437538808E+00  0.68643292245E+00  0.11802206596E+01  0.00000000000E+00 0.  1.
         11    1    3    3    0    0  0.89375198753E+01  0.11647767327E+01 -0.29632040166E+01  0.94877049208E+01  0.51100000000E-03 0. -1.
        -11    1    3    3    0    0  0.18698830970E+02  0.20392129230E+02 -0.23902954497E+02  0.36562774076E+02  0.51100000000E-03 0.  1.
         12    1    3    3    0    0 -0.27262705530E+02 -0.22441281351E+02  0.26179725591E+02  0.43957300344E+02  0.00000000000E+00 0. -1.
</event>
<event>
 7    1  0.1910099E-015  0.9000792E+02  0.7816164E-02  0.1186339E+00
        -11   -1    0    0    0    0  0.00000000000E+00  0.00000000000E+00  0.45593999997E+02  0.45594000000E+02  0.51100000000E-03 0.  1.
         11   -1    0    0    0    0 -0.00000000000E+00 -0.00000000000E+00 -0.45593999997E+02  0.45594000000E+02  0.51100000000E-03 0. -1.
    9900012    2    1    2    0    0  0.20594991669E+00  0.11584628573E+01  0.90150282991E-01  0.90007924310E+02  0.90000188111E+02 0.  0.
        -12    1    1    2    0    0 -0.20594991669E+00 -0.11584628573E+01 -0.90150282991E-01  0.11800756897E+01  0.00000000000E+00 0.  1.
         11    1    3    3    0    0  0.20870629611E+02  0.64468519158E+01 -0.80409623415E+01  0.23276643994E+02  0.51100000000E-03 0. -1.
        -11    1    3    3    0    0  0.15220209419E+02 -0.18312543843E+02  0.14715995278E+02  0.27992223099E+02  0.51100000000E-03 0.  1.
        -12    1    3    3    0    0 -0.35884889113E+02  0.13024154785E+02 -0.65848826531E+01  0.38739057217E+02  0.00000000000E+00 0.  1.
</event>
<event>
 7    1  0.1910099E-015  0.9000774E+02  0.7816164E-02  0.1186339E+00
        -11   -1    0    0    0    0  0.00000000000E+00  0.00000000000E+00  0.45593999997E+02  0.45594000000E+02  0.51100000000E-03 0.  1.
         11   -1    0    0    0    0 -0.00000000000E+00 -0.00000000000E+00 -0.45593999997E+02  0.45594000000E+02  0.51100000000E-03 0. -1.
    9900012    2    1    2    0    0 -0.68370100745E+00 -0.23153372504E-01 -0.96179118005E+00  0.90007735021E+02  0.89999996323E+02 0.  0.
        -12    1    1    2    0    0  0.68370100745E+00  0.23153372504E-01  0.96179118005E+00  0.11802649788E+01  0.00000000000E+00 0.  1.
         11    1    3    3    0    0 -0.62095013988E+00 -0.50192627896E+01 -0.75719420175E+01  0.91056512235E+01  0.51100000000E-03 0. -1.
        -11    1    3    3    0    0  0.22350727229E+02 -0.30456491065E+02 -0.29174252524E+01  0.37890160015E+02  0.51100000000E-03 0.  1.
         12    1    3    3    0    0 -0.22413478096E+02  0.35452600482E+02  0.95275760899E+01  0.43011923782E+02  0.00000000000E+00 0. -1.
</event>
<event>
 7    1  0.1910099E-015  0.9000781E+02  0.7816164E-02  0.1186339E+00
        -11   -1    0    0    0    0  0.00000000000E+00  0.00000000000E+00  0.45593999997E+02  0.45594000000E+02  0.51100000000E-03 0. -1.
         11   -1    0    0    0    0 -0.00000000000E+00 -0.00000000000E+00 -0.45593999997E+02  0.45594000000E+02  0.51100000000E-03 0.  1.
    9900012    2    1    2    0    0 -0.10718470276E+01 -0.38266261933E+00  0.31234436533E+00  0.90007811145E+02  0.90000073452E+02 0.  0.
        -12    1    1    2    0    0  0.10718470276E+01  0.38266261933E+00 -0.31234436533E+00  0.11801888550E+01  0.00000000000E+00 0.  1.
         11    1    3    3    0    0 -0.22276877627E+01  0.10234708408E+02  0.24812533689E+01  0.10764221640E+02  0.51100000000E-03 0. -1.
        -11    1    3    3    0    0 -0.20031780274E+02  0.22487532778E+02 -0.19929044557E+02  0.36112714777E+02  0.51100000000E-03 0.  1.
         12    1    3    3    0    0  0.21187621009E+02 -0.33104903805E+02  0.17760135553E+02  0.43130874728E+02  0.00000000000E+00 0. -1.
</event>
<event>
 7    1  0.1910099E-015  0.9000771E+02  0.7816164E-02  0.1186339E+00
        -11   -1    0    0    0    0  0.00000000000E+00  0.00000000000E+00  0.45593999997E+02  0.45594000000E+02  0.51100000000E-03 0. -1.
         11   -1    0    0    0    0 -0.00000000000E+00 -0.00000000000E+00 -0.45593999997E+02  0.45594000000E+02  0.51100000000E-03 0.  1.
    9900012    2    1    2    0    0 -0.57862681026E+00  0.83860487163E+00  0.59583277745E+00  0.90007710283E+02  0.89999971259E+02 0.  0.
        -12    1    1    2    0    0  0.57862681026E+00 -0.83860487163E+00 -0.59583277745E+00  0.11802897165E+01  0.00000000000E+00 0.  1.
         11    1    3    3    0    0  0.46114222262E+01 -0.38037833383E+01 -0.57039568338E+01  0.82625121154E+01  0.51100000000E-03 0. -1.
        -11    1    3    3    0    0 -0.24100732382E+01  0.10369114462E+02 -0.36732810234E+02  0.38244298080E+02  0.51100000000E-03 0.  1.
         12    1    3    3    0    0 -0.27799757983E+01 -0.57267262516E+01  0.43032599845E+02  0.43500900088E+02  0.00000000000E+00 0. -1.
</event>
<event>
 7    1  0.1910099E-015  0.9000776E+02  0.7816164E-02  0.1186339E+00
        -11   -1    0    0    0    0  0.00000000000E+00  0.00000000000E+00  0.45593999997E+02  0.45594000000E+02  0.51100000000E-03 0. -1.
         11   -1    0    0    0    0 -0.00000000000E+00 -0.00000000000E+00 -0.45593999997E+02  0.45594000000E+02  0.51100000000E-03 0.  1.
    9900012    2    1    2    0    0 -0.17937807721E+00 -0.79267178145E+00 -0.85583858369E+00  0.90007760732E+02  0.90000022374E+02 0.  0.
        -12    1    1    2    0    0  0.17937807721E+00  0.79267178145E+00  0.85583858369E+00  0.11802392677E+01  0.00000000000E+00 0.  1.
         11    1    3    3    0    0 -0.23231494410E+02  0.28725604555E+02 -0.10727385860E+02  0.38469981768E+02  0.51100000000E-03 0. -1.
        -11    1    3    3    0    0  0.57947065246E+01  0.51189634591E+01 -0.59235340383E+01  0.97401574097E+01  0.51100000000E-03 0.  1.
        -12    1    3    3    0    0  0.17257409808E+02 -0.34637239795E+02  0.15795081315E+02  0.41797621555E+02  0.00000000000E+00 0.  1.
</event>
<event>
 7    1  0.1910099E-015  0.9000776E+02  0.7816164E-02  0.1186339E+00
        -11   -1    0    0    0    0  0.00000000000E+00  0.00000000000E+00  0.45593999997E+02  0.45594000000E+02  0.51100000000E-03 0.  1.
         11   -1    0    0    0    0 -0.00000000000E+00 -0.00000000000E+00 -0.45593999997E+02  0.45594000000E+02  0.51100000000E-03 0. -1.
    9900012    2    1    2    0    0 -0.10361638767E+01 -0.31058282518E+00  0.47208279622E+00  0.90007762974E+02  0.90000024645E+02 0.  0.
        -12    1    1    2    0    0  0.10361638767E+01  0.31058282518E+00 -0.47208279622E+00  0.11802370259E+01  0.00000000000E+00 0.  1.
         11    1    3    3    0    0  0.16658935684E+01  0.53047175055E+00 -0.16719071045E+02  0.16810233149E+02  0.51100000000E-03 0. -1.
        -11    1    3    3    0    0  0.20721426807E+02  0.27467126050E+02  0.85003112114E+01  0.35441160158E+02  0.51100000000E-03 0.  1.
        -12    1    3    3    0    0 -0.23423484252E+02 -0.28308180626E+02  0.86908426294E+01  0.37756369668E+02  0.00000000000E+00 0.  1.
</event>
<event>
 7    1  0.1910099E-015  0.9000773E+02  0.7816164E-02  0.1186339E+00
        -11   -1    0    0    0    0  0.00000000000E+00  0.00000000000E+00  0.45593999997E+02  0.45594000000E+02  0.51100000000E-03 0.  1.
         11   -1    0    0    0    0 -0.00000000000E+00 -0.00000000000E+00 -0.45593999997E+02  0.45594000000E+02  0.51100000000E-03 0. -1.
    9900012    2    1    2    0    0 -0.10620390335E+01  0.51213229036E+00  0.53206327008E-01  0.90007729986E+02  0.89999991222E+02 0.  0.
        -12    1    1    2    0    0  0.10620390335E+01 -0.51213229036E+00 -0.53206327008E-01  0.11802700135E+01  0.00000000000E+00 0.  1.
         11    1    3    3    0    0 -0.13609062449E+02  0.29884494252E+02  0.20567094057E+02  0.38746547403E+02  0.51100000000E-03 0. -1.
        -11    1    3    3    0    0  0.59968203041E+01  0.18426180460E+01  0.68124880278E+01  0.92610522303E+01  0.51100000000E-03 0.  1.
        -12    1    3    3    0    0  0.65502031112E+01 -0.31214980007E+02 -0.27326375758E+02  0.42000130353E+02  0.00000000000E+00 0.  1.
</event>
<event>
 7    1  0.1910099E-015  0.9000764E+02  0.7816164E-02  0.1186339E+00
        -11   -1    0    0    0    0  0.00000000000E+00  0.00000000000E+00  0.45593999997E+02  0.45594000000E+02  0.51100000000E-03 0.  1.
         11   -1    0    0    0    0 -0.00000000000E+00 -0.00000000000E+00 -0.45593999997E+02  0.45594000000E+02  0.51100000000E-03 0. -1.
    9900012    2    1    2    0    0 -0.74605463284E+00  0.91425112491E+00 -0.28218460576E-01  0.90007640345E+02  0.89999900397E+02 0.  0.
        -12    1    1    2    0    0  0.74605463284E+00 -0.91425112491E+00  0.28218460576E-01  0.11803596554E+01  0.00000000000E+00 0.  1.
         11    1    3    3    0    0  0.18065694163E+02 -0.34482986585E+01 -0.35329144893E+02  0.39829744517E+02  0.51100000000E-03 0. -1.
        -11    1    3    3    0    0 -0.16199748800E+01 -0.94281130261E+01  0.12935712537E+01  0.96533393546E+01  0.51100000000E-03 0.  1.
        -12    1    3    3    0    0 -0.17191773916E+02  0.13790662809E+02  0.34007355178E+02  0.40524556473E+02  0.00000000000E+00 0.  1.
</event>
<event>
 7    1  0.1910099E-015  0.9000783E+02  0.7816164E-02  0.1186339E+00
        -11   -1    0    0    0    0  0.00000000000E+00  0.00000000000E+00  0.45593999997E+02  0.45594000000E+02  0.51100000000E-03 0.  1.
         11   -1    0    0    0    0 -0.00000000000E+00 -0.00000000000E+00 -0.45593999997E+02  0.45594000000E+02  0.51100000000E-03 0. -1.
    9900012    2    1    2    0    0 -0.82523761011E+00  0.74864390648E+00 -0.38898133696E+00  0.90007834210E+02  0.90000096821E+02 0.  0.
        -12    1    1    2    0    0  0.82523761011E+00 -0.74864390648E+00  0.38898133696E+00  0.11801657902E+01  0.00000000000E+00 0.  1.
         11    1    3    3    0    0  0.20873471739E+02  0.10521423175E+02 -0.10548789356E+02  0.25645255413E+02  0.51100000000E-03 0. -1.
        -11    1    3    3    0    0 -0.11638871596E+02 -0.67127908585E+01 -0.24609324916E+02  0.28038255407E+02  0.51100000000E-03 0.  1.
        -12    1    3    3    0    0 -0.10059837753E+02 -0.30599884098E+01  0.34769132936E+02  0.36324323390E+02  0.00000000000E+00 0.  1.
</event>
<event>
 7    1  0.1910099E-015  0.9000733E+02  0.7816164E-02  0.1186340E+00
        -11   -1    0    0    0    0  0.00000000000E+00  0.00000000000E+00  0.45593999997E+02  0.45594000000E+02  0.51100000000E-03 0. -1.
         11   -1    0    0    0    0 -0.00000000000E+00 -0.00000000000E+00 -0.45593999997E+02  0.45594000000E+02  0.51100000000E-03 0.  1.
    9900012    2    1    2    0    0 -0.39400159364E+00 -0.48335412325E+00  0.10025586224E+01  0.90007325508E+02  0.89999581404E+02 0.  0.
        -12    1    1    2    0    0  0.39400159364E+00  0.48335412325E+00 -0.10025586224E+01  0.11806744918E+01  0.00000000000E+00 0.  1.
         11    1    3    3    0    0 -0.37549990565E+01  0.12824029053E+02  0.34732755585E+02  0.37214513967E+02  0.51100000000E-03 0. -1.
        -11    1    3    3    0    0  0.17703545510E+02  0.15615238627E+01 -0.72183792775E+01  0.19182254301E+02  0.51100000000E-03 0.  1.
        -12    1    3    3    0    0 -0.14342548047E+02 -0.14868907039E+02 -0.26511817685E+02  0.33610557240E+02  0.00000000000E+00 0.  1.
</event>
<event>
 7    1  0.1910099E-015  0.9000798E+02  0.7816164E-02  0.1186339E+00
        -11   -1    0    0    0    0  0.00000000000E+00  0.00000000000E+00  0.45593999997E+02  0.45594000000E+02  0.51100000000E-03 0.  1.
         11   -1    0    0    0    0 -0.00000000000E+00 -0.00000000000E+00 -0.45593999997E+02  0.45594000000E+02  0.51100000000E-03 0. -1.
    9900012    2    1    2    0    0 -0.53799157624E+00  0.15701489143E-01 -0.10501279973E+01  0.90007978694E+02  0.90000243212E+02 0.  0.
        -12    1    1    2    0    0  0.53799157624E+00 -0.15701489143E-01  0.10501279973E+01  0.11800213064E+01  0.00000000000E+00 0.  1.
         11    1    3    3    0    0 -0.17704774045E+02 -0.35886815531E+02 -0.17581197678E+02  0.43708363788E+02  0.51100000000E-03 0. -1.
        -11    1    3    3    0    0  0.16670539170E+01  0.76240379126E+01  0.11144205749E+02  0.13605085259E+02  0.51100000000E-03 0.  1.
        -12    1    3    3    0    0  0.15499728552E+02  0.28278479108E+02  0.53868639313E+01  0.32694529647E+02  0.00000000000E+00 0.  1.
</event>
<event>
 7    1  0.1910099E-015  0.9000762E+02  0.7816164E-02  0.1186339E+00
        -11   -1    0    0    0    0  0.00000000000E+00  0.00000000000E+00  0.45593999997E+02  0.45594000000E+02  0.51100000000E-03 0.  1.
         11   -1    0    0    0    0 -0.00000000000E+00 -0.00000000000E+00 -0.45593999997E+02  0.45594000000E+02  0.51100000000E-03 0. -1.
    9900012    2    1    2    0    0 -0.80791498909E+00 -0.60854663931E+00 -0.60847306541E+00  0.90007620776E+02  0.89999880570E+02 0.  0.
        -12    1    1    2    0    0  0.80791498909E+00  0.60854663931E+00  0.60847306541E+00  0.11803792243E+01  0.00000000000E+00 0.  1.
         11    1    3    3    0    0 -0.11565877546E+02 -0.33373667834E+02  0.16228765060E+02  0.38870863686E+02  0.51100000000E-03 0. -1.
        -11    1    3    3    0    0 -0.62979246356E+01 -0.34117840667E+00  0.49256312475E+01  0.80026308717E+01  0.51100000000E-03 0.  1.
        -12    1    3    3    0    0  0.17055887192E+02  0.33106299601E+02 -0.21762869373E+02  0.43134126218E+02  0.00000000000E+00 0.  1.
</event>
<event>
 7    1  0.1910099E-015  0.9000772E+02  0.7816164E-02  0.1186339E+00
        -11   -1    0    0    0    0  0.00000000000E+00  0.00000000000E+00  0.45593999997E+02  0.45594000000E+02  0.51100000000E-03 0.  1.
         11   -1    0    0    0    0 -0.00000000000E+00 -0.00000000000E+00 -0.45593999997E+02  0.45594000000E+02  0.51100000000E-03 0. -1.
    9900012    2    1    2    0    0 -0.15133334716E+00 -0.11313826071E+01 -0.30022770727E+00  0.90007718228E+02  0.89999979308E+02 0.  0.
        -12    1    1    2    0    0  0.15133334716E+00  0.11313826071E+01  0.30022770727E+00  0.11802817722E+01  0.00000000000E+00 0.  1.
         11    1    3    3    0    0 -0.47203515373E+01  0.45912757675E+00 -0.64595329192E+01  0.80136185685E+01  0.51100000000E-03 0. -1.
        -11    1    3    3    0    0  0.65062364434E+01  0.22511758878E+02  0.36390396207E+02  0.43282459921E+02  0.51100000000E-03 0.  1.
         12    1    3    3    0    0 -0.19372182533E+01 -0.24102269062E+02 -0.30231090995E+02  0.38711639738E+02  0.00000000000E+00 0. -1.
</event>
<event>
 7    1  0.1910099E-015  0.9000771E+02  0.7816164E-02  0.1186339E+00
        -11   -1    0    0    0    0  0.00000000000E+00  0.00000000000E+00  0.45593999997E+02  0.45594000000E+02  0.51100000000E-03 0.  1.
         11   -1    0    0    0    0 -0.00000000000E+00 -0.00000000000E+00 -0.45593999997E+02  0.45594000000E+02  0.51100000000E-03 0. -1.
    9900012    2    1    2    0    0 -0.11080917106E+01  0.39521449591E+00  0.95024074748E-01  0.90007707108E+02  0.89999968041E+02 0.  0.
        -12    1    1    2    0    0  0.11080917106E+01 -0.39521449591E+00 -0.95024074748E-01  0.11802928924E+01  0.00000000000E+00 0.  1.
         11    1    3    3    0    0 -0.17456868534E+02 -0.25773569950E+02 -0.13002903285E+02  0.33735658599E+02  0.51100000000E-03 0. -1.
        -11    1    3    3    0    0  0.20102860079E+01 -0.95975128670E+01 -0.77151127160E+01  0.12477037611E+02  0.51100000000E-03 0.  1.
        -12    1    3    3    0    0  0.14338490815E+02  0.35766297313E+02  0.20813040075E+02  0.43795010898E+02  0.00000000000E+00 0.  1.
</event>
<event>
 7    1  0.1910099E-015  0.9000766E+02  0.7816164E-02  0.1186339E+00
        -11   -1    0    0    0    0  0.00000000000E+00  0.00000000000E+00  0.45593999997E+02  0.45594000000E+02  0.51100000000E-03 0.  1.
         11   -1    0    0    0    0 -0.00000000000E+00 -0.00000000000E+00 -0.45593999997E+02  0.45594000000E+02  0.51100000000E-03 0. -1.
    9900012    2    1    2    0    0  0.21250374290E+00  0.11453436665E+01 -0.19034203876E+00  0.90007661046E+02  0.89999921372E+02 0.  0.
        -12    1    1    2    0    0 -0.21250374290E+00 -0.11453436665E+01  0.19034203876E+00  0.11803389542E+01  0.00000000000E+00 0.  1.
         11    1    3    3    0    0  0.10943908510E+02 -0.18036090697E+01 -0.14403920863E+01  0.11184671152E+02  0.51100000000E-03 0. -1.
        -11    1    3    3    0    0  0.10154835781E+02 -0.34437040274E+02 -0.12568652516E+01  0.35925062882E+02  0.51100000000E-03 0.  1.
         12    1    3    3    0    0 -0.20886240548E+02  0.37385993010E+02  0.25069152991E+01  0.42897927012E+02  0.00000000000E+00 0. -1.
</event>
<event>
 7    1  0.1910099E-015  0.9000770E+02  0.7816164E-02  0.1186339E+00
        -11   -1    0    0    0    0  0.00000000000E+00  0.00000000000E+00  0.45593999997E+02  0.45594000000E+02  0.51100000000E-03 0.  1.
         11   -1    0    0    0    0 -0.00000000000E+00 -0.00000000000E+00 -0.45593999997E+02  0.45594000000E+02  0.51100000000E-03 0. -1.
    9900012    2    1    2    0    0 -0.80496724766E+00  0.85565405559E+00 -0.11400808037E+00  0.90007697507E+02  0.89999958314E+02 0.  0.
        -12    1    1    2    0    0  0.80496724766E+00 -0.85565405559E+00  0.11400808037E+00  0.11803024930E+01  0.00000000000E+00 0.  1.
         11    1    3    3    0    0 -0.48102146304E+01 -0.41289861230E+01  0.84058739850E+01  0.10528314628E+02  0.51100000000E-03 0. -1.
        -11    1    3    3    0    0  0.97159802559E+01  0.30101520697E+02  0.22753228523E+02  0.38964230123E+02  0.51100000000E-03 0.  1.
         12    1    3    3    0    0 -0.57107328732E+01 -0.25116880519E+02 -0.31273110588E+02  0.40515152756E+02  0.00000000000E+00 0. -1.
</event>
<event>
 7    1  0.1910099E-015  0.9000758E+02  0.7816164E-02  0.1186339E+00
        -11   -1    0    0    0    0  0.00000000000E+00  0.00000000000E+00  0.45593999997E+02  0.45594000000E+02  0.51100000000E-03 0.  1.
         11   -1    0    0    0    0 -0.00000000000E+00 -0.00000000000E+00 -0.45593999997E+02  0.45594000000E+02  0.51100000000E-03 0. -1.
    9900012    2    1    2    0    0  0.10517336990E+01  0.73421935386E-01  0.53089157239E+00  0.90007584643E+02  0.89999843960E+02 0.  0.
        -12    1    1    2    0    0 -0.10517336990E+01 -0.73421935386E-01 -0.53089157239E+00  0.11804153574E+01  0.00000000000E+00 0.  1.
         11    1    3    3    0    0  0.44121865183E+01 -0.74747829910E+01  0.65819151715E+01  0.10893180354E+02  0.51100000000E-03 0. -1.
        -11    1    3    3    0    0  0.18211626696E+02 -0.88193314864E+01  0.28664457234E+02  0.35086964296E+02  0.51100000000E-03 0.  1.
         12    1    3    3    0    0 -0.21572079515E+02  0.16367536413E+02 -0.34715480833E+02  0.44027439992E+02  0.00000000000E+00 0. -1.
</event>
<event>
 7    1  0.1910099E-015  0.9000767E+02  0.7816164E-02  0.1186339E+00
        -11   -1    0    0    0    0  0.00000000000E+00  0.00000000000E+00  0.45593999997E+02  0.45594000000E+02  0.51100000000E-03 0.  1.
         11   -1    0    0    0    0 -0.00000000000E+00 -0.00000000000E+00 -0.45593999997E+02  0.45594000000E+02  0.51100000000E-03 0. -1.
    9900012    2    1    2    0    0  0.11724777863E+01 -0.68134203062E-01 -0.11759382896E+00  0.90007671767E+02  0.89999932234E+02 0.  0.
        -12    1    1    2    0    0 -0.11724777863E+01  0.68134203062E-01  0.11759382896E+00  0.11803282330E+01  0.00000000000E+00 0.  1.
         11    1    3    3    0    0 -0.71860097498E+01 -0.12646984564E+01 -0.80630512576E+01  0.10874327297E+02  0.51100000000E-03 0. -1.
        -11    1    3    3    0    0 -0.19029758925E+02  0.31749187122E+02 -0.14352212966E+01  0.37043251316E+02  0.51100000000E-03 0.  1.
         12    1    3    3    0    0  0.27388246461E+02 -0.30552622869E+02  0.93806787252E+01  0.42090093154E+02  0.00000000000E+00 0. -1.
</event>
<event>
 7    1  0.1910099E-015  0.9000779E+02  0.7816164E-02  0.1186339E+00
        -11   -1    0    0    0    0  0.00000000000E+00  0.00000000000E+00  0.45593999997E+02  0.45594000000E+02  0.51100000000E-03 0.  1.
         11   -1    0    0    0    0 -0.00000000000E+00 -0.00000000000E+00 -0.45593999997E+02  0.45594000000E+02  0.51100000000E-03 0. -1.
    9900012    2    1    2    0    0  0.48530980519E+00 -0.34750464841E+00 -0.10181433541E+01  0.90007787741E+02  0.90000049739E+02 0.  0.
        -12    1    1    2    0    0 -0.48530980519E+00  0.34750464841E+00  0.10181433541E+01  0.11802122593E+01  0.00000000000E+00 0.  1.
         11    1    3    3    0    0 -0.18465414357E+01  0.31726518427E+02  0.28827239111E+02  0.42906775710E+02  0.51100000000E-03 0. -1.
        -11    1    3    3    0    0 -0.57917587510E+01 -0.38887622698E+01 -0.42322537857E+01  0.81595902954E+01  0.51100000000E-03 0.  1.
        -12    1    3    3    0    0  0.81236099919E+01 -0.28185260806E+02 -0.25613128680E+02  0.38941421735E+02  0.00000000000E+00 0.  1.
</event>
<event>
 7    1  0.1910099E-015  0.9000723E+02  0.7816164E-02  0.1186340E+00
        -11   -1    0    0    0    0  0.00000000000E+00  0.00000000000E+00  0.45593999997E+02  0.45594000000E+02  0.51100000000E-03 0. -1.
         11   -1    0    0    0    0 -0.00000000000E+00 -0.00000000000E+00 -0.45593999997E+02  0.45594000000E+02  0.51100000000E-03 0.  1.
    9900012    2    1    2    0    0 -0.49048438409E+00 -0.99780922389E-01  0.10694348735E+01  0.90007228171E+02  0.89999482781E+02 0.  0.
        -12    1    1    2    0    0  0.49048438409E+00  0.99780922389E-01 -0.10694348735E+01  0.11807718290E+01  0.00000000000E+00 0.  1.
         11    1    3    3    0    0  0.76625977932E+00  0.25456646481E+02  0.17618079361E+01  0.25529041728E+02  0.51100000000E-03 0. -1.
        -11    1    3    3    0    0  0.13299275469E+01  0.16286104508E+02 -0.12895430132E+02  0.20815811919E+02  0.51100000000E-03 0.  1.
        -12    1    3    3    0    0 -0.25866717103E+01 -0.41842531911E+02  0.12203057069E+02  0.43662374524E+02  0.00000000000E+00 0.  1.
</event>
<event>
 7    1  0.1910099E-015  0.9000773E+02  0.7816164E-02  0.1186339E+00
        -11   -1    0    0    0    0  0.00000000000E+00  0.00000000000E+00  0.45593999997E+02  0.45594000000E+02  0.51100000000E-03 0. -1.
         11   -1    0    0    0    0 -0.00000000000E+00 -0.00000000000E+00 -0.45593999997E+02  0.45594000000E+02  0.51100000000E-03 0.  1.
    9900012    2    1    2    0    0 -0.63620493339E+00 -0.20354867829E+00  0.97306323700E+00  0.90007728487E+02  0.89999989703E+02 0.  0.
        -12    1    1    2    0    0  0.63620493339E+00  0.20354867829E+00 -0.97306323700E+00  0.11802715132E+01  0.00000000000E+00 0.  1.
         11    1    3    3    0    0 -0.15950172751E+01  0.33238629383E+01  0.80808913618E+01  0.88821703655E+01  0.51100000000E-03 0. -1.
        -11    1    3    3    0    0  0.29941421194E+02 -0.25431827996E+02  0.10630444191E+02  0.40697333110E+02  0.51100000000E-03 0.  1.
         12    1    3    3    0    0 -0.28982608852E+02  0.21904416379E+02 -0.17738272316E+02  0.40428225011E+02  0.00000000000E+00 0. -1.
</event>
<event>
 7    1  0.1910099E-015  0.9000777E+02  0.7816164E-02  0.1186339E+00
        -11   -1    0    0    0    0  0.00000000000E+00  0.00000000000E+00  0.45593999997E+02  0.45594000000E+02  0.51100000000E-03 0.  1.
         11   -1    0    0    0    0 -0.00000000000E+00 -0.00000000000E+00 -0.45593999997E+02  0.45594000000E+02  0.51100000000E-03 0. -1.
    9900012    2    1    2    0    0 -0.79676065159E+00  0.38886006131E+00 -0.77903527542E+00  0.90007773054E+02  0.90000034859E+02 0.  0.
        -12    1    1    2    0    0  0.79676065159E+00 -0.38886006131E+00  0.77903527542E+00  0.11802269458E+01  0.00000000000E+00 0.  1.
         11    1    3    3    0    0 -0.16983142853E+02  0.11656862202E+02 -0.15833124972E+02  0.25980712542E+02  0.51100000000E-03 0. -1.
        -11    1    3    3    0    0 -0.20268738927E+02 -0.14130549336E+02  0.11603843509E+02  0.27297314642E+02  0.51100000000E-03 0.  1.
         12    1    3    3    0    0  0.36455121128E+02  0.28625471945E+01  0.34502461872E+01  0.36729745870E+02  0.00000000000E+00 0. -1.
</event>
<event>
 7    1  0.1910099E-015  0.9000773E+02  0.7816164E-02  0.1186339E+00
        -11   -1    0    0    0    0  0.00000000000E+00  0.00000000000E+00  0.45593999997E+02  0.45594000000E+02  0.51100000000E-03 0. -1.
         11   -1    0    0    0    0 -0.00000000000E+00 -0.00000000000E+00 -0.45593999997E+02  0.45594000000E+02  0.51100000000E-03 0.  1.
    9900012    2    1    2    0    0 -0.18026206634E+00  0.10032460016E+00  0.11621035863E+01  0.90007727073E+02  0.89999988270E+02 0.  0.
        -12    1    1    2    0    0  0.18026206634E+00 -0.10032460016E+00 -0.11621035863E+01  0.11802729274E+01  0.00000000000E+00 0.  1.
         11    1    3    3    0    0 -0.23553201367E+01  0.31390436738E+02  0.19629834915E+02  0.37097674734E+02  0.51100000000E-03 0. -1.
        -11    1    3    3    0    0 -0.50575414590E+01 -0.13191938095E+01  0.97837928193E+01  0.11092411826E+02  0.51100000000E-03 0.  1.
        -12    1    3    3    0    0  0.72325995293E+01 -0.29970918329E+02 -0.28251524148E+02  0.41817640513E+02  0.00000000000E+00 0.  1.
</event>
<event>
 7    1  0.1910099E-015  0.9000774E+02  0.7816164E-02  0.1186339E+00
        -11   -1    0    0    0    0  0.00000000000E+00  0.00000000000E+00  0.45593999997E+02  0.45594000000E+02  0.51100000000E-03 0.  1.
         11   -1    0    0    0    0 -0.00000000000E+00 -0.00000000000E+00 -0.45593999997E+02  0.45594000000E+02  0.51100000000E-03 0. -1.
    9900012    2    1    2    0    0 -0.65064916742E+00  0.25058505773E-02 -0.98471873950E+00  0.90007736634E+02  0.89999997957E+02 0.  0.
        -12    1    1    2    0    0  0.65064916742E+00 -0.25058505773E-02  0.98471873950E+00  0.11802633665E+01  0.00000000000E+00 0.  1.
         11    1    3    3    0    0 -0.15293501906E+01  0.60723962029E+01 -0.86853032198E+01  0.10707352611E+02  0.51100000000E-03 0. -1.
        -11    1    3    3    0    0  0.29398002965E+00 -0.40601652973E+02 -0.79654220694E+01  0.41376667307E+02  0.51100000000E-03 0.  1.
         12    1    3    3    0    0  0.58472099353E+00  0.34531762621E+02  0.15666006550E+02  0.37923716716E+02  0.00000000000E+00 0. -1.
</event>
<event>
 7    1  0.1910099E-015  0.9000774E+02  0.7816164E-02  0.1186339E+00
        -11   -1    0    0    0    0  0.00000000000E+00  0.00000000000E+00  0.45593999997E+02  0.45594000000E+02  0.51100000000E-03 0.  1.
         11   -1    0    0    0    0 -0.00000000000E+00 -0.00000000000E+00 -0.45593999997E+02  0.45594000000E+02  0.51100000000E-03 0. -1.
    9900012    2    1    2    0    0 -0.46544810722E+00 -0.24764395152E+00 -0.10559615045E+01  0.90007735552E+02  0.89999996862E+02 0.  0.
        -12    1    1    2    0    0  0.46544810722E+00  0.24764395152E+00  0.10559615045E+01  0.11802644476E+01  0.00000000000E+00 0.  1.
         11    1    3    3    0    0 -0.93171913523E+01 -0.18036283679E+01 -0.39298474010E+01  0.10271651807E+02  0.51100000000E-03 0. -1.
        -11    1    3    3    0    0 -0.34211856071E+02 -0.86513476174E+01 -0.10610309450E+01  0.35304712127E+02  0.51100000000E-03 0.  1.
         12    1    3    3    0    0  0.43063599317E+02  0.10207332034E+02  0.39349168415E+01  0.44431371618E+02  0.00000000000E+00 0. -1.
</event>
<event>
 7    1  0.1910099E-015  0.9000776E+02  0.7816164E-02  0.1186339E+00
        -11   -1    0    0    0    0  0.00000000000E+00  0.00000000000E+00  0.45593999997E+02  0.45594000000E+02  0.51100000000E-03 0.  1.
         11   -1    0    0    0    0 -0.00000000000E+00 -0.00000000000E+00 -0.45593999997E+02  0.45594000000E+02  0.51100000000E-03 0. -1.
    9900012    2    1    2    0    0  0.95461284191E+00 -0.12861704875E+00 -0.68200913168E+00  0.90007760838E+02  0.90000022481E+02 0.  0.
        -12    1    1    2    0    0 -0.95461284191E+00  0.12861704875E+00  0.68200913168E+00  0.11802391617E+01  0.00000000000E+00 0.  1.
         11    1    3    3    0    0  0.32520137092E+02  0.16539660102E+02  0.27026152486E+01  0.36584474880E+02  0.51100000000E-03 0. -1.
        -11    1    3    3    0    0  0.12824567549E+01  0.89120081639E+01  0.59032226006E+01  0.10766458200E+02  0.51100000000E-03 0.  1.
        -12    1    3    3    0    0 -0.32847981005E+02 -0.25580285314E+02 -0.92878469809E+01  0.42656827759E+02  0.00000000000E+00 0.  1.
</event>
<event>
 7    1  0.3909482E-015  0.9000778E+02  0.7816164E-02  0.1186339E+00
        -11   -1    0    0    0    0  0.00000000000E+00  0.00000000000E+00  0.45593999997E+02  0.45594000000E+02  0.51100000000E-03 0.  1.
         11   -1    0    0    0    0 -0.00000000000E+00 -0.00000000000E+00 -0.45593999997E+02  0.45594000000E+02  0.51100000000E-03 0. -1.
    9900012    2    1    2    0    0 -0.91027098046E+00 -0.48400127718E-02 -0.75119486646E+00  0.90007783744E+02  0.90000045689E+02 0.  0.
        -12    1    1    2    0    0  0.91027098046E+00  0.48400127718E-02  0.75119486646E+00  0.11802162560E+01  0.00000000000E+00 0.  1.
         11    1    3    3    0    0  0.30358861983E+00 -0.12460510858E+01 -0.94109984515E+01  0.94979840742E+01  0.51100000000E-03 0. -1.
        -11    1    3    3    0    0  0.14724890367E+02 -0.36060043124E+02 -0.37299596621E+00  0.38952384172E+02  0.51100000000E-03 0.  1.
         12    1    3    3    0    0 -0.15938749967E+02  0.37301254197E+02  0.90327995513E+01  0.41557415498E+02  0.00000000000E+00 0. -1.
</event>
<event>
 7    1  0.1910099E-015  0.9000768E+02  0.7816164E-02  0.1186339E+00
        -11   -1    0    0    0    0  0.00000000000E+00  0.00000000000E+00  0.45593999997E+02  0.45594000000E+02  0.51100000000E-03 0.  1.
         11   -1    0    0    0    0 -0.00000000000E+00 -0.00000000000E+00 -0.45593999997E+02  0.45594000000E+02  0.51100000000E-03 0. -1.
    9900012    2    1    2    0    0  0.45536938918E+00  0.63506819271E+00 -0.88457485761E+00  0.90007684123E+02  0.89999944754E+02 0.  0.
        -12    1    1    2    0    0 -0.45536938918E+00 -0.63506819271E+00  0.88457485761E+00  0.11803158767E+01  0.00000000000E+00 0.  1.
         11    1    3    3    0    0 -0.28175449577E+02 -0.22463794878E+02  0.66175573581E+01  0.36637004583E+02  0.51100000000E-03 0. -1.
        -11    1    3    3    0    0  0.89403451630E+01 -0.10468566430E+02 -0.37829586500E+01  0.14276954547E+02  0.51100000000E-03 0.  1.
        -12    1    3    3    0    0  0.19690473803E+02  0.33567429500E+02 -0.37191735657E+01  0.39093724993E+02  0.00000000000E+00 0.  1.
</event>
<event>
 7    1  0.1910099E-015  0.9000766E+02  0.7816164E-02  0.1186339E+00
        -11   -1    0    0    0    0  0.00000000000E+00  0.00000000000E+00  0.45593999997E+02  0.45594000000E+02  0.51100000000E-03 0.  1.
         11   -1    0    0    0    0 -0.00000000000E+00 -0.00000000000E+00 -0.45593999997E+02  0.45594000000E+02  0.51100000000E-03 0. -1.
    9900012    2    1    2    0    0  0.10606418873E+01 -0.15201850613E-01 -0.51768947070E+00  0.90007663312E+02  0.89999923668E+02 0.  0.
        -12    1    1    2    0    0 -0.10606418873E+01  0.15201850613E-01  0.51768947070E+00  0.11803366881E+01  0.00000000000E+00 0.  1.
         11    1    3    3    0    0  0.28163283233E+02 -0.15436264819E+02 -0.20771018018E+02  0.38247666383E+02  0.51100000000E-03 0. -1.
        -11    1    3    3    0    0  0.18454250947E+01  0.37160904995E+01 -0.84075084865E+01  0.93755598015E+01  0.51100000000E-03 0.  1.
        -12    1    3    3    0    0 -0.28948066440E+02  0.11704972469E+02  0.28660837034E+02  0.42384437127E+02  0.00000000000E+00 0.  1.
</event>
<event>
 7    1  0.1910099E-015  0.9000767E+02  0.7816164E-02  0.1186339E+00
        -11   -1    0    0    0    0  0.00000000000E+00  0.00000000000E+00  0.45593999997E+02  0.45594000000E+02  0.51100000000E-03 0.  1.
         11   -1    0    0    0    0 -0.00000000000E+00 -0.00000000000E+00 -0.45593999997E+02  0.45594000000E+02  0.51100000000E-03 0. -1.
    9900012    2    1    2    0    0  0.42228312193E+00  0.10943314626E+01 -0.13154232967E+00  0.90007666247E+02  0.89999926641E+02 0.  0.
        -12    1    1    2    0    0 -0.42228312193E+00 -0.10943314626E+01  0.13154232967E+00  0.11803337535E+01  0.00000000000E+00 0.  1.
         11    1    3    3    0    0 -0.12874324433E+02  0.33074994006E+02 -0.12956075933E+02  0.37783109480E+02  0.51100000000E-03 0. -1.
        -11    1    3    3    0    0 -0.66282421396E+01  0.45488639744E+01 -0.15777735104E+01  0.81923822439E+01  0.51100000000E-03 0.  1.
        -12    1    3    3    0    0  0.19924849695E+02 -0.36529526518E+02  0.14402307114E+02  0.44032174523E+02  0.00000000000E+00 0.  1.
</event>
<event>
 7    1  0.1910099E-015  0.9000773E+02  0.7816164E-02  0.1186339E+00
        -11   -1    0    0    0    0  0.00000000000E+00  0.00000000000E+00  0.45593999997E+02  0.45594000000E+02  0.51100000000E-03 0.  1.
         11   -1    0    0    0    0 -0.00000000000E+00 -0.00000000000E+00 -0.45593999997E+02  0.45594000000E+02  0.51100000000E-03 0. -1.
    9900012    2    1    2    0    0 -0.32130269754E+00 -0.70587912130E+00 -0.88968339472E+00  0.90007729988E+02  0.89999991224E+02 0.  0.
        -12    1    1    2    0    0  0.32130269754E+00  0.70587912130E+00  0.88968339472E+00  0.11802700116E+01  0.00000000000E+00 0.  1.
         11    1    3    3    0    0  0.43539844057E+01 -0.10682107116E+02 -0.84175198127E-03  0.11535362743E+02  0.51100000000E-03 0. -1.
        -11    1    3    3    0    0  0.23964081796E+02 -0.14667138720E+02  0.20753831916E+02  0.34930269309E+02  0.51100000000E-03 0.  1.
         12    1    3    3    0    0 -0.28639368899E+02  0.24643366714E+02 -0.21642673559E+02  0.43542097937E+02  0.00000000000E+00 0. -1.
</event>
<event>
 7    1  0.1910099E-015  0.9000762E+02  0.7816164E-02  0.1186339E+00
        -11   -1    0    0    0    0  0.00000000000E+00  0.00000000000E+00  0.45593999997E+02  0.45594000000E+02  0.51100000000E-03 0.  1.
         11   -1    0    0    0    0 -0.00000000000E+00 -0.00000000000E+00 -0.45593999997E+02  0.45594000000E+02  0.51100000000E-03 0. -1.
    9900012    2    1    2    0    0  0.85322059524E+00  0.64668629232E+00  0.49710404295E+00  0.90007618293E+02  0.89999878054E+02 0.  0.
        -12    1    1    2    0    0 -0.85322059524E+00 -0.64668629232E+00 -0.49710404295E+00  0.11803817070E+01  0.00000000000E+00 0.  1.
         11    1    3    3    0    0 -0.58147619193E+01  0.39234136646E+01  0.77229432688E+01  0.10433047683E+02  0.51100000000E-03 0. -1.
        -11    1    3    3    0    0 -0.17295485029E+02  0.12885179664E+02  0.27142166291E+02  0.34667835937E+02  0.51100000000E-03 0.  1.
         12    1    3    3    0    0  0.23963467544E+02 -0.16161907036E+02 -0.34368005517E+02  0.44906734673E+02  0.00000000000E+00 0. -1.
</event>
<event>
 7    1  0.1910099E-015  0.9000770E+02  0.7816164E-02  0.1186339E+00
        -11   -1    0    0    0    0  0.00000000000E+00  0.00000000000E+00  0.45593999997E+02  0.45594000000E+02  0.51100000000E-03 0. -1.
         11   -1    0    0    0    0 -0.00000000000E+00 -0.00000000000E+00 -0.45593999997E+02  0.45594000000E+02  0.51100000000E-03 0.  1.
    9900012    2    1    2    0    0  0.10898545492E+01  0.41909655570E+00  0.17230572799E+00  0.90007697443E+02  0.89999958250E+02 0.  0.
        -12    1    1    2    0    0 -0.10898545492E+01 -0.41909655570E+00 -0.17230572799E+00  0.11803025567E+01  0.00000000000E+00 0.  1.
         11    1    3    3    0    0 -0.40859361590E+01 -0.76585110783E+01 -0.38807399836E+01  0.95083021257E+01  0.51100000000E-03 0. -1.
        -11    1    3    3    0    0 -0.11814907004E+02 -0.61854502571E+01 -0.33961158639E+02  0.36485779679E+02  0.51100000000E-03 0.  1.
         12    1    3    3    0    0  0.16990697712E+02  0.14263057891E+02  0.38014204351E+02  0.44013615639E+02  0.00000000000E+00 0. -1.
</event>
<event>
 7    1  0.1910099E-015  0.9000767E+02  0.7816164E-02  0.1186339E+00
        -11   -1    0    0    0    0  0.00000000000E+00  0.00000000000E+00  0.45593999997E+02  0.45594000000E+02  0.51100000000E-03 0.  1.
         11   -1    0    0    0    0 -0.00000000000E+00 -0.00000000000E+00 -0.45593999997E+02  0.45594000000E+02  0.51100000000E-03 0. -1.
    9900012    2    1    2    0    0 -0.52197436368E+00 -0.88465888434E+00 -0.58146099079E+00  0.90007671460E+02  0.89999931923E+02 0.  0.
        -12    1    1    2    0    0  0.52197436368E+00  0.88465888434E+00  0.58146099079E+00  0.11803285398E+01  0.00000000000E+00 0.  1.
         11    1    3    3    0    0  0.24439381449E+01 -0.22700866573E+01  0.85612095913E+01  0.91880594804E+01  0.51100000000E-03 0. -1.
        -11    1    3    3    0    0  0.13009389552E+02 -0.74631826637E+01  0.32255730895E+02  0.35572116718E+02  0.51100000000E-03 0.  1.
         12    1    3    3    0    0 -0.15975302060E+02  0.88486104367E+01 -0.41398401477E+02  0.45247495262E+02  0.00000000000E+00 0. -1.
</event>
<event>
 7    1  0.1910099E-015  0.9000779E+02  0.7816164E-02  0.1186339E+00
        -11   -1    0    0    0    0  0.00000000000E+00  0.00000000000E+00  0.45593999997E+02  0.45594000000E+02  0.51100000000E-03 0.  1.
         11   -1    0    0    0    0 -0.00000000000E+00 -0.00000000000E+00 -0.45593999997E+02  0.45594000000E+02  0.51100000000E-03 0. -1.
    9900012    2    1    2    0    0  0.49137587211E+00  0.43219405538E+00 -0.98216818050E+00  0.90007789729E+02  0.90000051753E+02 0.  0.
        -12    1    1    2    0    0 -0.49137587211E+00 -0.43219405538E+00  0.98216818050E+00  0.11802102711E+01  0.00000000000E+00 0.  1.
         11    1    3    3    0    0 -0.91041864071E+01  0.17650697008E+02 -0.32575641200E+02  0.38152401168E+02  0.51100000000E-03 0. -1.
        -11    1    3    3    0    0  0.10700561055E+00 -0.43401462873E+01 -0.80279534405E+01  0.91266837735E+01  0.51100000000E-03 0.  1.
        -12    1    3    3    0    0  0.94885566686E+01 -0.12878356665E+02  0.39621426460E+02  0.42728704787E+02  0.00000000000E+00 0.  1.
</event>
<event>
 7    1  0.1910099E-015  0.9000780E+02  0.7816164E-02  0.1186339E+00
        -11   -1    0    0    0    0  0.00000000000E+00  0.00000000000E+00  0.45593999997E+02  0.45594000000E+02  0.51100000000E-03 0. -1.
         11   -1    0    0    0    0 -0.00000000000E+00 -0.00000000000E+00 -0.45593999997E+02  0.45594000000E+02  0.51100000000E-03 0.  1.
    9900012    2    1    2    0    0  0.52661092956E+00  0.37630474316E+00  0.98688796381E+00  0.90007799939E+02  0.90000062098E+02 0.  0.
        -12    1    1    2    0    0 -0.52661092956E+00 -0.37630474316E+00 -0.98688796381E+00  0.11802000610E+01  0.00000000000E+00 0.  1.
         11    1    3    3    0    0  0.22049242544E+01  0.34895238929E+02 -0.11171278895E+02  0.36706087551E+02  0.51100000000E-03 0. -1.
        -11    1    3    3    0    0  0.28324967759E+01  0.38260997518E+01 -0.83289914186E+01  0.95934444079E+01  0.51100000000E-03 0.  1.
        -12    1    3    3    0    0 -0.45108101008E+01 -0.38345033938E+02  0.20487158278E+02  0.43708267980E+02  0.00000000000E+00 0.  1.
</event>
<event>
 7    1  0.1910099E-015  0.9000739E+02  0.7816164E-02  0.1186340E+00
        -11   -1    0    0    0    0  0.00000000000E+00  0.00000000000E+00  0.45593999997E+02  0.45594000000E+02  0.51100000000E-03 0.  1.
         11   -1    0    0    0    0 -0.00000000000E+00 -0.00000000000E+00 -0.45593999997E+02  0.45594000000E+02  0.51100000000E-03 0. -1.
    9900012    2    1    2    0    0  0.10632274984E+01  0.39994110537E+00 -0.32160176650E+00  0.90007392827E+02  0.89999649611E+02 0.  0.
        -12    1    1    2    0    0 -0.10632274984E+01 -0.39994110537E+00  0.32160176650E+00  0.11806071732E+01  0.00000000000E+00 0.  1.
         11    1    3    3    0    0 -0.11495391195E+02  0.29962523583E+02 -0.19751874862E+02  0.37683330519E+02  0.51100000000E-03 0. -1.
        -11    1    3    3    0    0 -0.88574629711E+01 -0.84526713448E+00 -0.37491870641E+01  0.96553369033E+01  0.51100000000E-03 0.  1.
        -12    1    3    3    0    0  0.21416081665E+02 -0.28717315343E+02  0.23179460159E+02  0.42668725405E+02  0.00000000000E+00 0.  1.
</event>
<event>
 7    1  0.1910099E-015  0.9000719E+02  0.7816164E-02  0.1186340E+00
        -11   -1    0    0    0    0  0.00000000000E+00  0.00000000000E+00  0.45593999997E+02  0.45594000000E+02  0.51100000000E-03 0. -1.
         11   -1    0    0    0    0 -0.00000000000E+00 -0.00000000000E+00 -0.45593999997E+02  0.45594000000E+02  0.51100000000E-03 0.  1.
    9900012    2    1    2    0    0  0.11139332145E+01 -0.15192221763E+00  0.36108815061E+00  0.90007190016E+02  0.89999444122E+02 0.  0.
        -12    1    1    2    0    0 -0.11139332145E+01  0.15192221763E+00 -0.36108815061E+00  0.11808099843E+01  0.00000000000E+00 0.  1.
         11    1    3    3    0    0 -0.10230548199E+02  0.31541480051E+02 -0.24828191108E+02  0.41424245970E+02  0.51100000000E-03 0. -1.
        -11    1    3    3    0    0 -0.75353831647E+01 -0.66442232790E+01  0.77934331010E+01  0.12714767091E+02  0.51100000000E-03 0.  1.
        -12    1    3    3    0    0  0.18879864578E+02 -0.25049178989E+02  0.17395846157E+02  0.35868176955E+02  0.00000000000E+00 0.  1.
</event>
<event>
 7    1  0.1910099E-015  0.9000773E+02  0.7816164E-02  0.1186339E+00
        -11   -1    0    0    0    0  0.00000000000E+00  0.00000000000E+00  0.45593999997E+02  0.45594000000E+02  0.51100000000E-03 0.  1.
         11   -1    0    0    0    0 -0.00000000000E+00 -0.00000000000E+00 -0.45593999997E+02  0.45594000000E+02  0.51100000000E-03 0. -1.
    9900012    2    1    2    0    0 -0.93424088415E+00 -0.60072327986E+00 -0.39919547445E+00  0.90007732439E+02  0.89999993707E+02 0.  0.
        -12    1    1    2    0    0  0.93424088415E+00  0.60072327986E+00  0.39919547445E+00  0.11802675609E+01  0.00000000000E+00 0.  1.
         11    1    3    3    0    0 -0.19776390291E+02  0.17120941176E+02  0.16718065856E+02  0.31043936057E+02  0.51100000000E-03 0. -1.
        -11    1    3    3    0    0 -0.12211428276E+02  0.16935585493E+01  0.78719327824E+01  0.14627181789E+02  0.51100000000E-03 0.  1.
        -12    1    3    3    0    0  0.31053577682E+02 -0.19415223005E+02 -0.24989194112E+02  0.44336614593E+02  0.00000000000E+00 0.  1.
</event>
<event>
 7    1  0.1910099E-015  0.9000780E+02  0.7816164E-02  0.1186339E+00
        -11   -1    0    0    0    0  0.00000000000E+00  0.00000000000E+00  0.45593999997E+02  0.45594000000E+02  0.51100000000E-03 0.  1.
         11   -1    0    0    0    0 -0.00000000000E+00 -0.00000000000E+00 -0.45593999997E+02  0.45594000000E+02  0.51100000000E-03 0. -1.
    9900012    2    1    2    0    0  0.28316451550E+00  0.62644031273E+00 -0.95930570528E+00  0.90007797880E+02  0.90000060012E+02 0.  0.
        -12    1    1    2    0    0 -0.28316451550E+00 -0.62644031273E+00  0.95930570528E+00  0.11802021202E+01  0.00000000000E+00 0.  1.
         11    1    3    3    0    0 -0.25935867403E+02 -0.10077112776E+02 -0.26262654971E+02  0.38261527233E+02  0.51100000000E-03 0. -1.
        -11    1    3    3    0    0 -0.86934418060E+01  0.49195933159E+00  0.38956617513E+01  0.95390846081E+01  0.51100000000E-03 0.  1.
        -12    1    3    3    0    0  0.34912473724E+02  0.10211593757E+02  0.21407687514E+02  0.42207186039E+02  0.00000000000E+00 0.  1.
</event>
<event>
 7    1  0.1910099E-015  0.9000773E+02  0.7816164E-02  0.1186339E+00
        -11   -1    0    0    0    0  0.00000000000E+00  0.00000000000E+00  0.45593999997E+02  0.45594000000E+02  0.51100000000E-03 0.  1.
         11   -1    0    0    0    0 -0.00000000000E+00 -0.00000000000E+00 -0.45593999997E+02  0.45594000000E+02  0.51100000000E-03 0. -1.
    9900012    2    1    2    0    0  0.97592162322E+00  0.51691493438E+00  0.41644206440E+00  0.90007725431E+02  0.89999986607E+02 0.  0.
        -12    1    1    2    0    0 -0.97592162322E+00 -0.51691493438E+00 -0.41644206440E+00  0.11802745685E+01  0.00000000000E+00 0.  1.
         11    1    3    3    0    0 -0.68860312794E+01  0.37017329276E+01  0.27762257207E+01  0.82962451122E+01  0.51100000000E-03 0. -1.
        -11    1    3    3    0    0  0.39911373025E+02 -0.40153836824E+01  0.17751798992E+02  0.43865332217E+02  0.51100000000E-03 0.  1.
         12    1    3    3    0    0 -0.32049420122E+02  0.83056568920E+00 -0.20111582648E+02  0.37846148102E+02  0.00000000000E+00 0. -1.
</event>
<event>
 7    1  0.1910099E-015  0.9000774E+02  0.7816164E-02  0.1186339E+00
        -11   -1    0    0    0    0  0.00000000000E+00  0.00000000000E+00  0.45593999997E+02  0.45594000000E+02  0.51100000000E-03 0. -1.
         11   -1    0    0    0    0 -0.00000000000E+00 -0.00000000000E+00 -0.45593999997E+02  0.45594000000E+02  0.51100000000E-03 0.  1.
    9900012    2    1    2    0    0  0.50164571563E-01  0.11775686212E+01  0.61890450212E-01  0.90007739533E+02  0.90000000895E+02 0.  0.
        -12    1    1    2    0    0 -0.50164571563E-01 -0.11775686212E+01 -0.61890450212E-01  0.11802604669E+01  0.00000000000E+00 0.  1.
         11    1    3    3    0    0  0.24825857681E+01 -0.92642211909E+01 -0.30444918235E+01  0.10062701282E+02  0.51100000000E-03 0. -1.
        -11    1    3    3    0    0  0.96184969241E+01 -0.27403378593E+02 -0.18790776542E+02  0.34591240578E+02  0.51100000000E-03 0.  1.
         12    1    3    3    0    0 -0.12050918121E+02  0.37845168405E+02  0.21897158816E+02  0.45353797673E+02  0.00000000000E+00 0. -1.
</event>
<event>
 7    1  0.1910099E-015  0.9000780E+02  0.7816164E-02  0.1186339E+00
        -11   -1    0    0    0    0  0.00000000000E+00  0.00000000000E+00  0.45593999997E+02  0.45594000000E+02  0.51100000000E-03 0.  1.
         11   -1    0    0    0    0 -0.00000000000E+00 -0.00000000000E+00 -0.45593999997E+02  0.45594000000E+02  0.51100000000E-03 0. -1.
    9900012    2    1    2    0    0  0.84578367376E+00  0.12205923410E+00 -0.81401951124E+00  0.90007798219E+02  0.90000060355E+02 0.  0.
        -12    1    1    2    0    0 -0.84578367376E+00 -0.12205923410E+00  0.81401951124E+00  0.11802017811E+01  0.00000000000E+00 0.  1.
         11    1    3    3    0    0  0.20176246815E+01 -0.57745034052E+01  0.72709783096E+01  0.95017274625E+01  0.51100000000E-03 0. -1.
        -11    1    3    3    0    0  0.34760309831E+02 -0.35601899469E+01  0.13588177248E+02  0.37491234351E+02  0.51100000000E-03 0.  1.
         12    1    3    3    0    0 -0.35932150839E+02  0.94567525862E+01 -0.21673175069E+02  0.43014836405E+02  0.00000000000E+00 0. -1.
</event>
<event>
 7    1  0.1910099E-015  0.9000768E+02  0.7816164E-02  0.1186339E+00
        -11   -1    0    0    0    0  0.00000000000E+00  0.00000000000E+00  0.45593999997E+02  0.45594000000E+02  0.51100000000E-03 0.  1.
         11   -1    0    0    0    0 -0.00000000000E+00 -0.00000000000E+00 -0.45593999997E+02  0.45594000000E+02  0.51100000000E-03 0. -1.
    9900012    2    1    2    0    0  0.59469471887E+00  0.10192348854E+01 -0.25715829870E-01  0.90007676797E+02  0.89999937330E+02 0.  0.
        -12    1    1    2    0    0 -0.59469471887E+00 -0.10192348854E+01  0.25715829870E-01  0.11803232033E+01  0.00000000000E+00 0.  1.
         11    1    3    3    0    0 -0.37746358102E-01 -0.38163514775E+02 -0.81465586397E+01  0.39023348174E+02  0.51100000000E-03 0. -1.
        -11    1    3    3    0    0 -0.10397538832E+02  0.85496462529E+00  0.22300728839E+01  0.10668317749E+02  0.51100000000E-03 0.  1.
        -12    1    3    3    0    0  0.11029979909E+02  0.38327785035E+02  0.58907699260E+01  0.40316010874E+02  0.00000000000E+00 0.  1.
</event>
<event>
 7    1  0.1910099E-015  0.9000767E+02  0.7816164E-02  0.1186339E+00
        -11   -1    0    0    0    0  0.00000000000E+00  0.00000000000E+00  0.45593999997E+02  0.45594000000E+02  0.51100000000E-03 0. -1.
         11   -1    0    0    0    0 -0.00000000000E+00 -0.00000000000E+00 -0.45593999997E+02  0.45594000000E+02  0.51100000000E-03 0.  1.
    9900012    2    1    2    0    0 -0.14164554196E+00 -0.11197196171E+01 -0.34545359805E+00  0.90007672220E+02  0.89999932693E+02 0.  0.
        -12    1    1    2    0    0  0.14164554196E+00  0.11197196171E+01  0.34545359805E+00  0.11803277803E+01  0.00000000000E+00 0.  1.
         11    1    3    3    0    0 -0.10694520667E+02  0.20179670973E+01 -0.29411515850E+01  0.11273656745E+02  0.51100000000E-03 0. -1.
        -11    1    3    3    0    0 -0.21706958149E+02  0.23307396564E+02 -0.12721807714E+02  0.34296809742E+02  0.51100000000E-03 0.  1.
         12    1    3    3    0    0  0.32259833273E+02 -0.26445083279E+02  0.15317505701E+02  0.44437205733E+02  0.00000000000E+00 0. -1.
</event>
<event>
 7    1  0.1910099E-015  0.9000775E+02  0.7816164E-02  0.1186339E+00
        -11   -1    0    0    0    0  0.00000000000E+00  0.00000000000E+00  0.45593999997E+02  0.45594000000E+02  0.51100000000E-03 0.  1.
         11   -1    0    0    0    0 -0.00000000000E+00 -0.00000000000E+00 -0.45593999997E+02  0.45594000000E+02  0.51100000000E-03 0. -1.
    9900012    2    1    2    0    0 -0.91618903918E+00  0.74316456498E+00  0.36025913342E-01  0.90007748420E+02  0.90000009899E+02 0.  0.
        -12    1    1    2    0    0  0.91618903918E+00 -0.74316456498E+00 -0.36025913342E-01  0.11802515802E+01  0.00000000000E+00 0.  1.
         11    1    3    3    0    0  0.17374582728E+01 -0.99301019056E+01  0.87399264721E+01  0.13342113779E+02  0.51100000000E-03 0. -1.
        -11    1    3    3    0    0  0.23561396845E+02 -0.16615194302E+02  0.14506065346E+02  0.32274293719E+02  0.51100000000E-03 0.  1.
         12    1    3    3    0    0 -0.26215044157E+02  0.27288460773E+02 -0.23209965905E+02  0.44391340921E+02  0.00000000000E+00 0. -1.
</event>
<event>
 7    1  0.1910099E-015  0.9000777E+02  0.7816164E-02  0.1186339E+00
        -11   -1    0    0    0    0  0.00000000000E+00  0.00000000000E+00  0.45593999997E+02  0.45594000000E+02  0.51100000000E-03 0.  1.
         11   -1    0    0    0    0 -0.00000000000E+00 -0.00000000000E+00 -0.45593999997E+02  0.45594000000E+02  0.51100000000E-03 0. -1.
    9900012    2    1    2    0    0  0.11106741801E+01 -0.28643939437E+00  0.27801314160E+00  0.90007772917E+02  0.90000034719E+02 0.  0.
        -12    1    1    2    0    0 -0.11106741801E+01  0.28643939437E+00 -0.27801314160E+00  0.11802270832E+01  0.00000000000E+00 0.  1.
         11    1    3    3    0    0  0.51586812940E+01  0.54529940442E+01  0.44929721229E+01  0.87483675905E+01  0.51100000000E-03 0. -1.
        -11    1    3    3    0    0  0.32332371941E+02 -0.27504043294E+01  0.19378761842E+02  0.37795282909E+02  0.51100000000E-03 0.  1.
         12    1    3    3    0    0 -0.36380379055E+02 -0.29890291092E+01 -0.23593720824E+02  0.43464122418E+02  0.00000000000E+00 0. -1.
</event>
<event>
 7    1  0.1910099E-015  0.9000759E+02  0.7816164E-02  0.1186339E+00
        -11   -1    0    0    0    0  0.00000000000E+00  0.00000000000E+00  0.45593999997E+02  0.45594000000E+02  0.51100000000E-03 0.  1.
         11   -1    0    0    0    0 -0.00000000000E+00 -0.00000000000E+00 -0.45593999997E+02  0.45594000000E+02  0.51100000000E-03 0. -1.
    9900012    2    1    2    0    0  0.74566009489E+00 -0.46273870169E+00 -0.78944975853E+00  0.90007590323E+02  0.89999849716E+02 0.  0.
        -12    1    1    2    0    0 -0.74566009489E+00  0.46273870169E+00  0.78944975853E+00  0.11804096765E+01  0.00000000000E+00 0.  1.
         11    1    3    3    0    0  0.34340333056E+00  0.21985061940E+01  0.91584310607E+01  0.94248721523E+01  0.51100000000E-03 0. -1.
        -11    1    3    3    0    0  0.35680016453E+02  0.13424939730E+02  0.61250698563E+01  0.38610996644E+02  0.51100000000E-03 0.  1.
         12    1    3    3    0    0 -0.35277759689E+02 -0.16086184626E+02 -0.16072950676E+02  0.41971721527E+02  0.00000000000E+00 0. -1.
</event>
<event>
 7    1  0.1910099E-015  0.9000773E+02  0.7816164E-02  0.1186339E+00
        -11   -1    0    0    0    0  0.00000000000E+00  0.00000000000E+00  0.45593999997E+02  0.45594000000E+02  0.51100000000E-03 0.  1.
         11   -1    0    0    0    0 -0.00000000000E+00 -0.00000000000E+00 -0.45593999997E+02  0.45594000000E+02  0.51100000000E-03 0. -1.
    9900012    2    1    2    0    0 -0.13632417139E+00  0.90007193904E+00 -0.75121756116E+00  0.90007728167E+02  0.89999989379E+02 0.  0.
        -12    1    1    2    0    0  0.13632417139E+00 -0.90007193904E+00  0.75121756116E+00  0.11802718328E+01  0.00000000000E+00 0.  1.
         11    1    3    3    0    0 -0.62553430405E+01 -0.20745437677E+02 -0.32814536017E+02  0.39322973886E+02  0.51100000000E-03 0. -1.
        -11    1    3    3    0    0 -0.11986152816E+02  0.19114085190E+01  0.70352764645E+01  0.14029128877E+02  0.51100000000E-03 0.  1.
        -12    1    3    3    0    0  0.18105171685E+02  0.19734101097E+02  0.25028041992E+02  0.36655625404E+02  0.00000000000E+00 0.  1.
</event>
<event>
 7    1  0.2535280E-015  0.9000775E+02  0.7816164E-02  0.1186339E+00
        -11   -1    0    0    0    0  0.00000000000E+00  0.00000000000E+00  0.45593999997E+02  0.45594000000E+02  0.51100000000E-03 0. -1.
         11   -1    0    0    0    0 -0.00000000000E+00 -0.00000000000E+00 -0.45593999997E+02  0.45594000000E+02  0.51100000000E-03 0.  1.
    9900012    2    1    2    0    0  0.10661013037E+01 -0.28625351928E+00  0.41770686702E+00  0.90007749139E+02  0.90000010628E+02 0.  0.
        -12    1    1    2    0    0 -0.10661013037E+01  0.28625351928E+00 -0.41770686702E+00  0.11802508605E+01  0.00000000000E+00 0.  1.
         11    1    3    3    0    0  0.55178761346E+01 -0.69938846894E+01  0.36360599770E+01  0.96219703026E+01  0.51100000000E-03 0. -1.
        -11    1    3    3    0    0  0.31280019676E+01 -0.12991581959E+02 -0.37676986673E+02  0.39976504638E+02  0.51100000000E-03 0.  1.
         12    1    3    3    0    0 -0.75797767985E+01  0.19699213129E+02  0.34458633563E+02  0.40409274198E+02  0.00000000000E+00 0. -1.
</event>
<event>
 7    1  0.1910099E-015  0.9000806E+02  0.7816164E-02  0.1186338E+00
        -11   -1    0    0    0    0  0.00000000000E+00  0.00000000000E+00  0.45593999997E+02  0.45594000000E+02  0.51100000000E-03 0. -1.
         11   -1    0    0    0    0 -0.00000000000E+00 -0.00000000000E+00 -0.45593999997E+02  0.45594000000E+02  0.51100000000E-03 0.  1.
    9900012    2    1    2    0    0 -0.11507069461E+01  0.23602238970E+00  0.11147256867E+00  0.90008059672E+02  0.90000325259E+02 0.  0.
        -12    1    1    2    0    0  0.11507069461E+01 -0.23602238970E+00 -0.11147256867E+00  0.11799403281E+01  0.00000000000E+00 0.  1.
         11    1    3    3    0    0  0.33232738173E+01 -0.93435848666E+01 -0.10417454562E+02  0.14382979067E+02  0.51100000000E-03 0. -1.
        -11    1    3    3    0    0 -0.69169356470E+01 -0.29555646278E+02 -0.92166350528E+01  0.31722651018E+02  0.51100000000E-03 0.  1.
         12    1    3    3    0    0  0.24429548835E+01  0.39135253534E+02  0.19745562183E+02  0.43902429587E+02  0.00000000000E+00 0. -1.
</event>
<event>
 7    1  0.1910099E-015  0.9000773E+02  0.7816164E-02  0.1186339E+00
        -11   -1    0    0    0    0  0.00000000000E+00  0.00000000000E+00  0.45593999997E+02  0.45594000000E+02  0.51100000000E-03 0.  1.
         11   -1    0    0    0    0 -0.00000000000E+00 -0.00000000000E+00 -0.45593999997E+02  0.45594000000E+02  0.51100000000E-03 0. -1.
    9900012    2    1    2    0    0 -0.79507871979E+00  0.86252225877E+00 -0.13014225447E+00  0.90007732308E+02  0.89999993575E+02 0.  0.
        -12    1    1    2    0    0  0.79507871979E+00 -0.86252225877E+00  0.13014225447E+00  0.11802676916E+01  0.00000000000E+00 0.  1.
         11    1    3    3    0    0  0.20426399366E+02  0.67588086203E+01  0.28518027456E+02  0.35723902016E+02  0.51100000000E-03 0. -1.
        -11    1    3    3    0    0  0.40045904211E+01  0.22855093062E+00  0.82474620122E+01  0.91711291492E+01  0.51100000000E-03 0.  1.
        -12    1    3    3    0    0 -0.25226068507E+02 -0.61248372921E+01 -0.36895631723E+02  0.45112701143E+02  0.00000000000E+00 0.  1.
</event>
<event>
 7    1  0.1910099E-015  0.9000776E+02  0.7816164E-02  0.1186339E+00
        -11   -1    0    0    0    0  0.00000000000E+00  0.00000000000E+00  0.45593999997E+02  0.45594000000E+02  0.51100000000E-03 0.  1.
         11   -1    0    0    0    0 -0.00000000000E+00 -0.00000000000E+00 -0.45593999997E+02  0.45594000000E+02  0.51100000000E-03 0. -1.
    9900012    2    1    2    0    0  0.50754256037E+00 -0.14590517545E+00 -0.10555020543E+01  0.90007757501E+02  0.90000019100E+02 0.  0.
        -12    1    1    2    0    0 -0.50754256037E+00  0.14590517545E+00  0.10555020543E+01  0.11802424994E+01  0.00000000000E+00 0.  1.
         11    1    3    3    0    0 -0.10166848360E+02 -0.33857595452E+01  0.16913615566E+02  0.20022451525E+02  0.51100000000E-03 0. -1.
        -11    1    3    3    0    0  0.33023039689E+02  0.12408443854E+02  0.61955447574E+01  0.35817250094E+02  0.51100000000E-03 0.  1.
         12    1    3    3    0    0 -0.22348648769E+02 -0.91685894838E+01 -0.24164662378E+02  0.34168055882E+02  0.00000000000E+00 0. -1.
</event>
<event>
 7    1  0.1910099E-015  0.9000765E+02  0.7816164E-02  0.1186339E+00
        -11   -1    0    0    0    0  0.00000000000E+00  0.00000000000E+00  0.45593999997E+02  0.45594000000E+02  0.51100000000E-03 0.  1.
         11   -1    0    0    0    0 -0.00000000000E+00 -0.00000000000E+00 -0.45593999997E+02  0.45594000000E+02  0.51100000000E-03 0. -1.
    9900012    2    1    2    0    0  0.38118368761E+00 -0.11160760603E+01 -0.47845284750E-01  0.90007654310E+02  0.89999914547E+02 0.  0.
        -12    1    1    2    0    0 -0.38118368761E+00  0.11160760603E+01  0.47845284750E-01  0.11803456898E+01  0.00000000000E+00 0.  1.
         11    1    3    3    0    0 -0.20172281629E+02  0.48780194488E+01 -0.31333400928E+02  0.37583214788E+02  0.51100000000E-03 0. -1.
        -11    1    3    3    0    0 -0.69261659504E+01 -0.75446894699E+01 -0.65324101023E+00  0.10262594119E+02  0.51100000000E-03 0.  1.
        -12    1    3    3    0    0  0.27479631267E+02  0.15505939608E+01  0.31938796653E+02  0.42161845403E+02  0.00000000000E+00 0.  1.
</event>
<event>
 7    1  0.1910099E-015  0.9000777E+02  0.7816164E-02  0.1186339E+00
        -11   -1    0    0    0    0  0.00000000000E+00  0.00000000000E+00  0.45593999997E+02  0.45594000000E+02  0.51100000000E-03 0.  1.
         11   -1    0    0    0    0 -0.00000000000E+00 -0.00000000000E+00 -0.45593999997E+02  0.45594000000E+02  0.51100000000E-03 0. -1.
    9900012    2    1    2    0    0 -0.18424070012E+00  0.87510005929E-01 -0.11624671320E+01  0.90007774399E+02  0.90000036221E+02 0.  0.
        -12    1    1    2    0    0  0.18424070012E+00 -0.87510005929E-01  0.11624671320E+01  0.11802256012E+01  0.00000000000E+00 0.  1.
         11    1    3    3    0    0 -0.11023483710E+02  0.30847492345E+02 -0.28330383243E+02  0.43309301449E+02  0.51100000000E-03 0. -1.
        -11    1    3    3    0    0 -0.15371497432E+01  0.11532276209E+01 -0.11798754145E+01  0.22549655283E+01  0.51100000000E-03 0.  1.
        -12    1    3    3    0    0  0.12376392753E+02 -0.31913209960E+02  0.28347791525E+02  0.44443507421E+02  0.00000000000E+00 0.  1.
</event>
<event>
 7    1  0.2249906E-015  0.9000777E+02  0.7816164E-02  0.1186339E+00
        -11   -1    0    0    0    0  0.00000000000E+00  0.00000000000E+00  0.45593999997E+02  0.45594000000E+02  0.51100000000E-03 0. -1.
         11   -1    0    0    0    0 -0.00000000000E+00 -0.00000000000E+00 -0.45593999997E+02  0.45594000000E+02  0.51100000000E-03 0.  1.
    9900012    2    1    2    0    0 -0.90989219577E-01  0.90564576370E+00  0.75130490632E+00  0.90007774450E+02  0.90000036272E+02 0.  0.
        -12    1    1    2    0    0  0.90989219577E-01 -0.90564576370E+00 -0.75130490632E+00  0.11802255503E+01  0.00000000000E+00 0.  1.
         11    1    3    3    0    0 -0.85904796039E+01  0.31701297500E+01  0.41226060601E+01  0.10042008935E+02  0.51100000000E-03 0. -1.
        -11    1    3    3    0    0 -0.19199605069E+02 -0.33129275336E+02 -0.39198058253E+01  0.38490759892E+02  0.51100000000E-03 0.  1.
         12    1    3    3    0    0  0.27699095454E+02  0.30864791350E+02  0.54850467154E+00  0.41475005623E+02  0.00000000000E+00 0. -1.
</event>
<event>
 7    1  0.1910099E-015  0.9000772E+02  0.7816164E-02  0.1186339E+00
        -11   -1    0    0    0    0  0.00000000000E+00  0.00000000000E+00  0.45593999997E+02  0.45594000000E+02  0.51100000000E-03 0.  1.
         11   -1    0    0    0    0 -0.00000000000E+00 -0.00000000000E+00 -0.45593999997E+02  0.45594000000E+02  0.51100000000E-03 0. -1.
    9900012    2    1    2    0    0  0.18827160038E+00  0.11639741108E+01  0.52771014421E-01  0.90007717531E+02  0.89999978603E+02 0.  0.
        -12    1    1    2    0    0 -0.18827160038E+00 -0.11639741108E+01 -0.52771014421E-01  0.11802824688E+01  0.00000000000E+00 0.  1.
         11    1    3    3    0    0  0.54758355880E+00 -0.14676493774E+02 -0.31629350336E+02  0.34872842158E+02  0.51100000000E-03 0. -1.
        -11    1    3    3    0    0  0.17135396198E+01  0.35248567747E+01 -0.10465803239E+02  0.11175592647E+02  0.51100000000E-03 0.  1.
        -12    1    3    3    0    0 -0.20728515782E+01  0.12315611110E+02  0.42147924589E+02  0.43959282727E+02  0.00000000000E+00 0.  1.
</event>
<event>
 7    1  0.1910099E-015  0.9000773E+02  0.7816164E-02  0.1186339E+00
        -11   -1    0    0    0    0  0.00000000000E+00  0.00000000000E+00  0.45593999997E+02  0.45594000000E+02  0.51100000000E-03 0.  1.
         11   -1    0    0    0    0 -0.00000000000E+00 -0.00000000000E+00 -0.45593999997E+02  0.45594000000E+02  0.51100000000E-03 0. -1.
    9900012    2    1    2    0    0 -0.17381479195E+00  0.10553752004E+00 -0.11626192146E+01  0.90007731730E+02  0.89999992989E+02 0.  0.
        -12    1    1    2    0    0  0.17381479195E+00 -0.10553752004E+00  0.11626192146E+01  0.11802682696E+01  0.00000000000E+00 0.  1.
         11    1    3    3    0    0 -0.24728136519E+01  0.89530635999E+01 -0.32878760477E+02  0.34165553500E+02  0.51100000000E-03 0. -1.
        -11    1    3    3    0    0 -0.10005360346E+01 -0.14052648169E+01 -0.11620336487E+02  0.11747683257E+02  0.51100000000E-03 0.  1.
        -12    1    3    3    0    0  0.32995348945E+01 -0.74422612630E+01  0.43336477750E+02  0.44094494974E+02  0.00000000000E+00 0.  1.
</event>
<event>
 7    1  0.1910099E-015  0.9000778E+02  0.7816164E-02  0.1186339E+00
        -11   -1    0    0    0    0  0.00000000000E+00  0.00000000000E+00  0.45593999997E+02  0.45594000000E+02  0.51100000000E-03 0.  1.
         11   -1    0    0    0    0 -0.00000000000E+00 -0.00000000000E+00 -0.45593999997E+02  0.45594000000E+02  0.51100000000E-03 0. -1.
    9900012    2    1    2    0    0  0.16043956072E+00 -0.24740855751E+00 -0.11427918579E+01  0.90007777531E+02  0.90000039394E+02 0.  0.
        -12    1    1    2    0    0 -0.16043956072E+00  0.24740855751E+00  0.11427918579E+01  0.11802224695E+01  0.00000000000E+00 0.  1.
         11    1    3    3    0    0 -0.50941500266E+01  0.79890456656E+01 -0.32785580335E+01  0.10026173656E+02  0.51100000000E-03 0. -1.
        -11    1    3    3    0    0 -0.24373095335E+02 -0.91500142720E+01  0.29706361981E+02  0.39499854174E+02  0.51100000000E-03 0.  1.
         12    1    3    3    0    0  0.29627684922E+02  0.91356004888E+00 -0.27570595805E+02  0.40481749701E+02  0.00000000000E+00 0. -1.
</event>
<event>
 7    1  0.1910099E-015  0.9000774E+02  0.7816164E-02  0.1186339E+00
        -11   -1    0    0    0    0  0.00000000000E+00  0.00000000000E+00  0.45593999997E+02  0.45594000000E+02  0.51100000000E-03 0.  1.
         11   -1    0    0    0    0 -0.00000000000E+00 -0.00000000000E+00 -0.45593999997E+02  0.45594000000E+02  0.51100000000E-03 0. -1.
    9900012    2    1    2    0    0 -0.54230075793E+00  0.54562108546E+00 -0.89510514478E+00  0.90007743375E+02  0.90000004787E+02 0.  0.
        -12    1    1    2    0    0  0.54230075793E+00 -0.54562108546E+00  0.89510514478E+00  0.11802566251E+01  0.00000000000E+00 0.  1.
         11    1    3    3    0    0 -0.35786594884E+01  0.64537628215E+01  0.65972192991E+01  0.98985433792E+01  0.51100000000E-03 0. -1.
        -11    1    3    3    0    0 -0.12045909800E+02  0.29417701914E+02  0.15475521483E+02  0.35355295137E+02  0.51100000000E-03 0.  1.
         12    1    3    3    0    0  0.15082268530E+02 -0.35325843650E+02 -0.22967845927E+02  0.44753904859E+02  0.00000000000E+00 0. -1.
</event>
<event>
 7    1  0.1910099E-015  0.9000774E+02  0.7816164E-02  0.1186339E+00
        -11   -1    0    0    0    0  0.00000000000E+00  0.00000000000E+00  0.45593999997E+02  0.45594000000E+02  0.51100000000E-03 0.  1.
         11   -1    0    0    0    0 -0.00000000000E+00 -0.00000000000E+00 -0.45593999997E+02  0.45594000000E+02  0.51100000000E-03 0. -1.
    9900012    2    1    2    0    0 -0.10238051443E+01 -0.16572786446E+00 -0.56335075389E+00  0.90007742922E+02  0.90000004328E+02 0.  0.
        -12    1    1    2    0    0  0.10238051443E+01  0.16572786446E+00  0.56335075389E+00  0.11802570782E+01  0.00000000000E+00 0.  1.
         11    1    3    3    0    0 -0.16331671259E+02  0.47582031803E+01 -0.32087810539E+02  0.36317923523E+02  0.51100000000E-03 0. -1.
        -11    1    3    3    0    0 -0.64086747034E+01  0.88755831538E+01 -0.23047679026E+01  0.11187450251E+02  0.51100000000E-03 0.  1.
        -12    1    3    3    0    0  0.21716540818E+02 -0.13799514199E+02  0.33829227687E+02  0.42502369147E+02  0.00000000000E+00 0.  1.
</event>
<event>
 7    1  0.1910099E-015  0.9000765E+02  0.7816164E-02  0.1186339E+00
        -11   -1    0    0    0    0  0.00000000000E+00  0.00000000000E+00  0.45593999997E+02  0.45594000000E+02  0.51100000000E-03 0. -1.
         11   -1    0    0    0    0 -0.00000000000E+00 -0.00000000000E+00 -0.45593999997E+02  0.45594000000E+02  0.51100000000E-03 0.  1.
    9900012    2    1    2    0    0 -0.10792340081E+01 -0.27975811874E+00 -0.38756738333E+00  0.90007652964E+02  0.89999913183E+02 0.  0.
        -12    1    1    2    0    0  0.10792340081E+01  0.27975811874E+00  0.38756738333E+00  0.11803470362E+01  0.00000000000E+00 0.  1.
         11    1    3    3    0    0  0.26017912857E+01  0.49543866784E+01  0.35534269473E+02  0.35972205555E+02  0.51100000000E-03 0. -1.
        -11    1    3    3    0    0 -0.14963518487E+01 -0.31550903996E+01  0.86673765215E+01  0.93443608830E+01  0.51100000000E-03 0.  1.
        -12    1    3    3    0    0 -0.21846734450E+01 -0.20790543975E+01 -0.44589213378E+02  0.44691086526E+02  0.00000000000E+00 0.  1.
</event>
<event>
 7    1  0.1910099E-015  0.9000781E+02  0.7816164E-02  0.1186339E+00
        -11   -1    0    0    0    0  0.00000000000E+00  0.00000000000E+00  0.45593999997E+02  0.45594000000E+02  0.51100000000E-03 0. -1.
         11   -1    0    0    0    0 -0.00000000000E+00 -0.00000000000E+00 -0.45593999997E+02  0.45594000000E+02  0.51100000000E-03 0.  1.
    9900012    2    1    2    0    0 -0.19783169297E+00 -0.11097379407E+01 -0.34955112288E+00  0.90007812869E+02  0.90000075199E+02 0.  0.
        -12    1    1    2    0    0  0.19783169297E+00  0.11097379407E+01  0.34955112288E+00  0.11801871306E+01  0.00000000000E+00 0.  1.
         11    1    3    3    0    0 -0.23477959237E+02  0.34110761063E+02  0.91267777172E+01  0.42403498228E+02  0.51100000000E-03 0. -1.
        -11    1    3    3    0    0  0.38639873853E+01 -0.57071913695E+01  0.59029450302E+01  0.90745353673E+01  0.51100000000E-03 0.  1.
        -12    1    3    3    0    0  0.19416140159E+02 -0.29513307634E+02 -0.15379273870E+02  0.38529779274E+02  0.00000000000E+00 0.  1.
</event>
<event>
 7    1  0.1910099E-015  0.9000767E+02  0.7816164E-02  0.1186339E+00
        -11   -1    0    0    0    0  0.00000000000E+00  0.00000000000E+00  0.45593999997E+02  0.45594000000E+02  0.51100000000E-03 0.  1.
         11   -1    0    0    0    0 -0.00000000000E+00 -0.00000000000E+00 -0.45593999997E+02  0.45594000000E+02  0.51100000000E-03 0. -1.
    9900012    2    1    2    0    0  0.14090783886E+00 -0.53211525251E+00 -0.10441186022E+01  0.90007667286E+02  0.89999927694E+02 0.  0.
        -12    1    1    2    0    0 -0.14090783886E+00  0.53211525251E+00  0.10441186022E+01  0.11803327143E+01  0.00000000000E+00 0.  1.
         11    1    3    3    0    0  0.42347198779E+01 -0.52793156339E+01 -0.53463868958E+01  0.86248408163E+01  0.51100000000E-03 0. -1.
        -11    1    3    3    0    0 -0.32355280941E+02 -0.14296202165E+02  0.23308906982E+02  0.42362138120E+02  0.51100000000E-03 0.  1.
         12    1    3    3    0    0  0.28261468902E+02  0.19043402547E+02 -0.19006638689E+02  0.39020688350E+02  0.00000000000E+00 0. -1.
</event>
<event>
 7    1  0.1910099E-015  0.9000772E+02  0.7816164E-02  0.1186339E+00
        -11   -1    0    0    0    0  0.00000000000E+00  0.00000000000E+00  0.45593999997E+02  0.45594000000E+02  0.51100000000E-03 0.  1.
         11   -1    0    0    0    0 -0.00000000000E+00 -0.00000000000E+00 -0.45593999997E+02  0.45594000000E+02  0.51100000000E-03 0. -1.
    9900012    2    1    2    0    0  0.95589521282E+00 -0.53464925149E+00 -0.43985685781E+00  0.90007720569E+02  0.89999981680E+02 0.  0.
        -12    1    1    2    0    0 -0.95589521282E+00  0.53464925149E+00  0.43985685781E+00  0.11802794311E+01  0.00000000000E+00 0.  1.
         11    1    3    3    0    0 -0.22966483894E+02 -0.27468563933E+02  0.10887947006E+02  0.37423639283E+02  0.51100000000E-03 0. -1.
        -11    1    3    3    0    0  0.49902133833E+01 -0.89483038079E+01  0.69624387425E+00  0.10269329406E+02  0.51100000000E-03 0.  1.
        -12    1    3    3    0    0  0.18932165723E+02  0.35882218489E+02 -0.12024047738E+02  0.42314751880E+02  0.00000000000E+00 0.  1.
</event>
<event>
 7    1  0.1910099E-015  0.9000774E+02  0.7816164E-02  0.1186339E+00
        -11   -1    0    0    0    0  0.00000000000E+00  0.00000000000E+00  0.45593999997E+02  0.45594000000E+02  0.51100000000E-03 0.  1.
         11   -1    0    0    0    0 -0.00000000000E+00 -0.00000000000E+00 -0.45593999997E+02  0.45594000000E+02  0.51100000000E-03 0. -1.
    9900012    2    1    2    0    0  0.10241552857E+01  0.52087458602E+00 -0.26984276110E+00  0.90007737530E+02  0.89999998865E+02 0.  0.
        -12    1    1    2    0    0 -0.10241552857E+01 -0.52087458602E+00  0.26984276110E+00  0.11802624705E+01  0.00000000000E+00 0.  1.
         11    1    3    3    0    0 -0.66898007075E+01  0.48125099342E+01 -0.53958604295E+01  0.98503297106E+01  0.51100000000E-03 0. -1.
        -11    1    3    3    0    0  0.17548113616E+02 -0.26819940839E+01  0.40066878133E+02  0.43823328346E+02  0.51100000000E-03 0.  1.
         12    1    3    3    0    0 -0.98341576224E+01 -0.16096412643E+01 -0.34940860465E+02  0.36334079473E+02  0.00000000000E+00 0. -1.
</event>
<event>
 7    1  0.1910099E-015  0.9000775E+02  0.7816164E-02  0.1186339E+00
        -11   -1    0    0    0    0  0.00000000000E+00  0.00000000000E+00  0.45593999997E+02  0.45594000000E+02  0.51100000000E-03 0. -1.
         11   -1    0    0    0    0 -0.00000000000E+00 -0.00000000000E+00 -0.45593999997E+02  0.45594000000E+02  0.51100000000E-03 0.  1.
    9900012    2    1    2    0    0  0.10850006425E+00 -0.72112831532E+00 -0.92800982407E+00  0.90007745559E+02  0.90000007001E+02 0.  0.
        -12    1    1    2    0    0 -0.10850006425E+00  0.72112831532E+00  0.92800982407E+00  0.11802544406E+01  0.00000000000E+00 0.  1.
         11    1    3    3    0    0 -0.26214700736E+02 -0.23736897775E+02 -0.91653309509E+01  0.36532918613E+02  0.51100000000E-03 0. -1.
        -11    1    3    3    0    0 -0.45643709439E+01 -0.75643324748E+01  0.43186419278E+01  0.98337823987E+01  0.51100000000E-03 0.  1.
        -12    1    3    3    0    0  0.30887571745E+02  0.30580101934E+02  0.39186791990E+01  0.43641044548E+02  0.00000000000E+00 0.  1.
</event>
<event>
 7    1  0.1910099E-015  0.9000770E+02  0.7816164E-02  0.1186339E+00
        -11   -1    0    0    0    0  0.00000000000E+00  0.00000000000E+00  0.45593999997E+02  0.45594000000E+02  0.51100000000E-03 0. -1.
         11   -1    0    0    0    0 -0.00000000000E+00 -0.00000000000E+00 -0.45593999997E+02  0.45594000000E+02  0.51100000000E-03 0.  1.
    9900012    2    1    2    0    0  0.83992236290E+00 -0.41193914336E+00  0.71968079664E+00  0.90007701782E+02  0.89999962646E+02 0.  0.
        -12    1    1    2    0    0 -0.83992236290E+00  0.41193914336E+00 -0.71968079664E+00  0.11802982177E+01  0.00000000000E+00 0.  1.
         11    1    3    3    0    0 -0.67934636881E+01  0.42006312664E+01 -0.73672653186E+01  0.10866142391E+02  0.51100000000E-03 0. -1.
        -11    1    3    3    0    0 -0.29937135464E+02  0.13450474624E+02 -0.90881127871E+01  0.34054972349E+02  0.51100000000E-03 0.  1.
         12    1    3    3    0    0  0.37570521515E+02 -0.18063045034E+02  0.17175058902E+02  0.45086587042E+02  0.00000000000E+00 0. -1.
</event>
<event>
 7    1  0.1910099E-015  0.9000772E+02  0.7816164E-02  0.1186339E+00
        -11   -1    0    0    0    0  0.00000000000E+00  0.00000000000E+00  0.45593999997E+02  0.45594000000E+02  0.51100000000E-03 0.  1.
         11   -1    0    0    0    0 -0.00000000000E+00 -0.00000000000E+00 -0.45593999997E+02  0.45594000000E+02  0.51100000000E-03 0. -1.
    9900012    2    1    2    0    0  0.66502243150E+00  0.80259648607E+00 -0.55376124255E+00  0.90007717209E+02  0.89999978276E+02 0.  0.
        -12    1    1    2    0    0 -0.66502243150E+00 -0.80259648607E+00  0.55376124255E+00  0.11802827914E+01  0.00000000000E+00 0.  1.
         11    1    3    3    0    0  0.15559431936E+02 -0.12582100076E+02 -0.29237993089E+02  0.35429724874E+02  0.51100000000E-03 0. -1.
        -11    1    3    3    0    0  0.37978671839E+01 -0.24601207205E+01 -0.87418319973E+01  0.98435570825E+01  0.51100000000E-03 0.  1.
        -12    1    3    3    0    0 -0.18692276688E+02  0.15844817282E+02  0.37426063844E+02  0.44734435252E+02  0.00000000000E+00 0.  1.
</event>
<event>
 8    1  0.1910099E-015  0.9000770E+02  0.7816164E-02  0.1186339E+00
        -11   -1    0    0    0    0  0.00000000000E+00  0.00000000000E+00  0.45593999997E+02  0.45594000000E+02  0.51100000000E-03 0. -1.
         11   -1    0    0    0    0 -0.00000000000E+00 -0.00000000000E+00 -0.45593999997E+02  0.45594000000E+02  0.51100000000E-03 0.  1.
    9900012    2    1    2    0    0  0.54692699782E+00 -0.99322012960E+00  0.32784746817E+00  0.90007703711E+02  0.89999964600E+02 0.  0.
         23    2    3    3    0    0  0.21301894287E+02  0.82796973763E+01  0.15770428496E+02  0.62526274072E+02  0.56022356658E+02 0.  0.
        -12    1    1    2    0    0 -0.54692699782E+00  0.99322012960E+00 -0.32784746817E+00  0.11802962887E+01  0.00000000000E+00 0.  1.
         11    1    4    4    0    0  0.30980483478E+02  0.24578036685E+02  0.17982041337E+02  0.43442192103E+02  0.51100000000E-03 0. -1.
        -11    1    4    4    0    0 -0.96785891915E+01 -0.16298339308E+02 -0.22116128413E+01  0.19084081968E+02  0.51100000000E-03 0.  1.
        -12    1    3    3    0    0 -0.20754967289E+02 -0.92729175059E+01 -0.15442581028E+02  0.27481429640E+02  0.00000000000E+00 0.  1.
</event>
<event>
 7    1  0.1910099E-015  0.9000777E+02  0.7816164E-02  0.1186339E+00
        -11   -1    0    0    0    0  0.00000000000E+00  0.00000000000E+00  0.45593999997E+02  0.45594000000E+02  0.51100000000E-03 0. -1.
         11   -1    0    0    0    0 -0.00000000000E+00 -0.00000000000E+00 -0.45593999997E+02  0.45594000000E+02  0.51100000000E-03 0.  1.
    9900012    2    1    2    0    0  0.79092748043E+00 -0.39149476836E+00  0.78365188280E+00  0.90007769215E+02  0.90000030968E+02 0.  0.
        -12    1    1    2    0    0 -0.79092748043E+00  0.39149476836E+00 -0.78365188280E+00  0.11802307852E+01  0.00000000000E+00 0.  1.
         11    1    3    3    0    0  0.91241372675E+01 -0.16407590641E+01 -0.96543625942E+01  0.13384643759E+02  0.51100000000E-03 0. -1.
        -11    1    3    3    0    0 -0.75364018128E+01  0.17761846625E+01 -0.32634274114E+02  0.33540244952E+02  0.51100000000E-03 0.  1.
         12    1    3    3    0    0 -0.79680797426E+00 -0.52692036672E+00  0.43072288591E+02  0.43082880504E+02  0.00000000000E+00 0. -1.
</event>
<event>
 7    1  0.1910099E-015  0.9000770E+02  0.7816164E-02  0.1186339E+00
        -11   -1    0    0    0    0  0.00000000000E+00  0.00000000000E+00  0.45593999997E+02  0.45594000000E+02  0.51100000000E-03 0. -1.
         11   -1    0    0    0    0 -0.00000000000E+00 -0.00000000000E+00 -0.45593999997E+02  0.45594000000E+02  0.51100000000E-03 0.  1.
    9900012    2    1    2    0    0  0.59929404297E+00  0.27353517905E+00  0.97935713251E+00  0.90007696972E+02  0.89999957772E+02 0.  0.
        -12    1    1    2    0    0 -0.59929404297E+00 -0.27353517905E+00 -0.97935713251E+00  0.11803030277E+01  0.00000000000E+00 0.  1.
         11    1    3    3    0    0  0.37471151610E+01 -0.99568277242E+01 -0.17253690677E+01  0.10777578069E+02  0.51100000000E-03 0. -1.
        -11    1    3    3    0    0  0.16067273047E+02  0.17872110278E+01 -0.33604693052E+02  0.37291108616E+02  0.51100000000E-03 0.  1.
         12    1    3    3    0    0 -0.19215094165E+02  0.84431518755E+01  0.36309419253E+02  0.41939010287E+02  0.00000000000E+00 0. -1.
</event>
<event>
 7    1  0.1910099E-015  0.9000748E+02  0.7816164E-02  0.1186340E+00
        -11   -1    0    0    0    0  0.00000000000E+00  0.00000000000E+00  0.45593999997E+02  0.45594000000E+02  0.51100000000E-03 0.  1.
         11   -1    0    0    0    0 -0.00000000000E+00 -0.00000000000E+00 -0.45593999997E+02  0.45594000000E+02  0.51100000000E-03 0. -1.
    9900012    2    1    2    0    0  0.61696956260E+00 -0.98019608628E+00 -0.22846689128E+00  0.90007477688E+02  0.89999735593E+02 0.  0.
        -12    1    1    2    0    0 -0.61696956260E+00  0.98019608628E+00  0.22846689128E+00  0.11805223120E+01  0.00000000000E+00 0.  1.
         11    1    3    3    0    0  0.75700552086E-01 -0.14956249028E+02 -0.34641224084E+01  0.15352369846E+02  0.51100000000E-03 0. -1.
        -11    1    3    3    0    0  0.52612615954E+01 -0.51826505303E+01  0.35813869491E+02  0.36567389684E+02  0.51100000000E-03 0.  1.
         12    1    3    3    0    0 -0.47199925849E+01  0.19158703472E+02 -0.32578213974E+02  0.38087718158E+02  0.00000000000E+00 0. -1.
</event>
<event>
 7    1  0.1910099E-015  0.9000791E+02  0.7816164E-02  0.1186339E+00
        -11   -1    0    0    0    0  0.00000000000E+00  0.00000000000E+00  0.45593999997E+02  0.45594000000E+02  0.51100000000E-03 0. -1.
         11   -1    0    0    0    0 -0.00000000000E+00 -0.00000000000E+00 -0.45593999997E+02  0.45594000000E+02  0.51100000000E-03 0.  1.
    9900012    2    1    2    0    0  0.81411950613E+00  0.77602247898E+00  0.35724180759E+00  0.90007905441E+02  0.90000168993E+02 0.  0.
        -12    1    1    2    0    0 -0.81411950613E+00 -0.77602247898E+00 -0.35724180759E+00  0.11800945586E+01  0.00000000000E+00 0.  1.
         11    1    3    3    0    0 -0.19250449451E+02 -0.36405990521E+02 -0.13228415898E+02  0.43254675323E+02  0.51100000000E-03 0. -1.
        -11    1    3    3    0    0  0.86901579125E+00  0.73553965906E+01  0.79031166663E+01  0.10831264966E+02  0.51100000000E-03 0.  1.
        -12    1    3    3    0    0  0.19195553165E+02  0.29826616410E+02  0.56825410388E+01  0.35921965153E+02  0.00000000000E+00 0.  1.
</event>
<event>
 7    1  0.1910099E-015  0.9000775E+02  0.7816164E-02  0.1186339E+00
        -11   -1    0    0    0    0  0.00000000000E+00  0.00000000000E+00  0.45593999997E+02  0.45594000000E+02  0.51100000000E-03 0. -1.
         11   -1    0    0    0    0 -0.00000000000E+00 -0.00000000000E+00 -0.45593999997E+02  0.45594000000E+02  0.51100000000E-03 0.  1.
    9900012    2    1    2    0    0  0.52521653355E+00 -0.51230601195E+00  0.92448718257E+00  0.90007751548E+02  0.90000013069E+02 0.  0.
        -12    1    1    2    0    0 -0.52521653355E+00  0.51230601195E+00 -0.92448718257E+00  0.11802484517E+01  0.00000000000E+00 0.  1.
         11    1    3    3    0    0  0.10333678233E+01  0.54105419288E+01 -0.31593682182E+01  0.63500725052E+01  0.51100000000E-03 0. -1.
        -11    1    3    3    0    0  0.36435306175E+02  0.16598607411E+02  0.52125925119E+01  0.40375938689E+02  0.51100000000E-03 0.  1.
         12    1    3    3    0    0 -0.36943457465E+02 -0.22521455352E+02 -0.11287371112E+01  0.43281740354E+02  0.00000000000E+00 0. -1.
</event>
<event>
 7    1  0.1910099E-015  0.9000772E+02  0.7816164E-02  0.1186339E+00
        -11   -1    0    0    0    0  0.00000000000E+00  0.00000000000E+00  0.45593999997E+02  0.45594000000E+02  0.51100000000E-03 0.  1.
         11   -1    0    0    0    0 -0.00000000000E+00 -0.00000000000E+00 -0.45593999997E+02  0.45594000000E+02  0.51100000000E-03 0. -1.
    9900012    2    1    2    0    0 -0.76079756915E+00  0.27543051759E+00 -0.85928709096E+00  0.90007724941E+02  0.89999986110E+02 0.  0.
        -12    1    1    2    0    0  0.76079756915E+00 -0.27543051759E+00  0.85928709096E+00  0.11802750594E+01  0.00000000000E+00 0.  1.
         11    1    3    3    0    0 -0.49593776291E+01  0.97091961404E+01  0.31700826051E+01  0.11354001063E+02  0.51100000000E-03 0. -1.
        -11    1    3    3    0    0 -0.26050250270E+02  0.18715670519E+02  0.12119661345E+02  0.34289620201E+02  0.51100000000E-03 0.  1.
         12    1    3    3    0    0  0.30248830330E+02 -0.28149436142E+02 -0.16149031041E+02  0.44364103677E+02  0.00000000000E+00 0. -1.
</event>
<event>
 7    1  0.1910099E-015  0.9000779E+02  0.7816164E-02  0.1186339E+00
        -11   -1    0    0    0    0  0.00000000000E+00  0.00000000000E+00  0.45593999997E+02  0.45594000000E+02  0.51100000000E-03 0.  1.
         11   -1    0    0    0    0 -0.00000000000E+00 -0.00000000000E+00 -0.45593999997E+02  0.45594000000E+02  0.51100000000E-03 0. -1.
    9900012    2    1    2    0    0  0.93922655122E+00 -0.96663201385E-01 -0.70810133421E+00  0.90007789092E+02  0.90000051108E+02 0.  0.
        -12    1    1    2    0    0 -0.93922655122E+00  0.96663201385E-01  0.70810133421E+00  0.11802109085E+01  0.00000000000E+00 0.  1.
         11    1    3    3    0    0  0.32912507615E+02  0.21577637357E+02 -0.13778938365E+02  0.41697562688E+02  0.51100000000E-03 0. -1.
        -11    1    3    3    0    0 -0.91849770358E+01  0.98409588694E+00 -0.59302469824E+01  0.10977252725E+02  0.51100000000E-03 0.  1.
        -12    1    3    3    0    0 -0.22788304028E+02 -0.22658396445E+02  0.19001084014E+02  0.37332973678E+02  0.00000000000E+00 0.  1.
</event>
<event>
 7    1  0.1910099E-015  0.9000767E+02  0.7816164E-02  0.1186339E+00
        -11   -1    0    0    0    0  0.00000000000E+00  0.00000000000E+00  0.45593999997E+02  0.45594000000E+02  0.51100000000E-03 0.  1.
         11   -1    0    0    0    0 -0.00000000000E+00 -0.00000000000E+00 -0.45593999997E+02  0.45594000000E+02  0.51100000000E-03 0. -1.
    9900012    2    1    2    0    0 -0.40765655527E+00  0.90297847184E+00 -0.64157763883E+00  0.90007671294E+02  0.89999931755E+02 0.  0.
        -12    1    1    2    0    0  0.40765655527E+00 -0.90297847184E+00  0.64157763883E+00  0.11803287060E+01  0.00000000000E+00 0.  1.
         11    1    3    3    0    0  0.39783879332E+01  0.24239658228E+02 -0.14367616627E+02  0.28457283942E+02  0.51100000000E-03 0. -1.
        -11    1    3    3    0    0  0.23989401900E+02 -0.12841775977E+02  0.15370822902E+02  0.31251636929E+02  0.51100000000E-03 0.  1.
         12    1    3    3    0    0 -0.28375446389E+02 -0.10494903779E+02 -0.16447839139E+01  0.30298750423E+02  0.00000000000E+00 0. -1.
</event>
<event>
 7    1  0.1910099E-015  0.9000780E+02  0.7816164E-02  0.1186339E+00
        -11   -1    0    0    0    0  0.00000000000E+00  0.00000000000E+00  0.45593999997E+02  0.45594000000E+02  0.51100000000E-03 0.  1.
         11   -1    0    0    0    0 -0.00000000000E+00 -0.00000000000E+00 -0.45593999997E+02  0.45594000000E+02  0.51100000000E-03 0. -1.
    9900012    2    1    2    0    0  0.17198929354E+00 -0.10839473046E+01 -0.43398627174E+00  0.90007802491E+02  0.90000064684E+02 0.  0.
        -12    1    1    2    0    0 -0.17198929354E+00  0.10839473046E+01  0.43398627174E+00  0.11801975091E+01  0.00000000000E+00 0.  1.
         11    1    3    3    0    0  0.24703106004E+01 -0.43718950279E-01  0.92664297575E+01  0.95901546661E+01  0.51100000000E-03 0. -1.
        -11    1    3    3    0    0  0.26628881300E+02 -0.27459424593E+02  0.49963700281E+01  0.38575653358E+02  0.51100000000E-03 0.  1.
         12    1    3    3    0    0 -0.28927202607E+02  0.26419196239E+02 -0.14696786057E+02  0.41841994467E+02  0.00000000000E+00 0. -1.
</event>
<event>
 8    1  0.1910099E-015  0.9000774E+02  0.7816164E-02  0.1186339E+00
        -11   -1    0    0    0    0  0.00000000000E+00  0.00000000000E+00  0.45593999997E+02  0.45594000000E+02  0.51100000000E-03 0.  1.
         11   -1    0    0    0    0 -0.00000000000E+00 -0.00000000000E+00 -0.45593999997E+02  0.45594000000E+02  0.51100000000E-03 0. -1.
    9900012    2    1    2    0    0 -0.26176620647E+00 -0.33551359973E+00 -0.11008682770E+01  0.90007744991E+02  0.90000006425E+02 0.  0.
         23    2    3    3    0    0  0.76972161576E+01 -0.36560996351E+01  0.25337881795E+02  0.62198048889E+02  0.56160260244E+02 0.  0.
        -12    1    1    2    0    0  0.26176620647E+00  0.33551359973E+00  0.11008682770E+01  0.11802550088E+01  0.00000000000E+00 0.  1.
         11    1    4    4    0    0 -0.23820530802E+02  0.43578849883E+01  0.12307632112E+02  0.27164069241E+02  0.51100000000E-03 0. -1.
        -11    1    4    4    0    0  0.31517746959E+02 -0.80139846234E+01  0.13030249683E+02  0.35033979649E+02  0.51100000000E-03 0.  1.
         12    1    3    3    0    0 -0.79589823640E+01  0.33205860354E+01 -0.26438750072E+02  0.27809696102E+02  0.00000000000E+00 0. -1.
</event>
<event>
 7    1  0.1910099E-015  0.9000799E+02  0.7816164E-02  0.1186339E+00
        -11   -1    0    0    0    0  0.00000000000E+00  0.00000000000E+00  0.45593999997E+02  0.45594000000E+02  0.51100000000E-03 0.  1.
         11   -1    0    0    0    0 -0.00000000000E+00 -0.00000000000E+00 -0.45593999997E+02  0.45594000000E+02  0.51100000000E-03 0. -1.
    9900012    2    1    2    0    0  0.10775680652E+01  0.45900877418E+00  0.14349992647E+00  0.90007985501E+02  0.90000250109E+02 0.  0.
        -12    1    1    2    0    0 -0.10775680652E+01 -0.45900877418E+00 -0.14349992647E+00  0.11800144994E+01  0.00000000000E+00 0.  1.
         11    1    3    3    0    0  0.41502227167E+01 -0.91479603945E+01  0.23356635343E+01  0.10313333718E+02  0.51100000000E-03 0. -1.
        -11    1    3    3    0    0 -0.65137282955E+01 -0.30925409772E+02  0.15660586984E+02  0.35271285925E+02  0.51100000000E-03 0.  1.
         12    1    3    3    0    0  0.34410736440E+01  0.40532378941E+02 -0.17852750592E+02  0.44423365857E+02  0.00000000000E+00 0. -1.
</event>
<event>
 7    1  0.1910099E-015  0.9000768E+02  0.7816164E-02  0.1186339E+00
        -11   -1    0    0    0    0  0.00000000000E+00  0.00000000000E+00  0.45593999997E+02  0.45594000000E+02  0.51100000000E-03 0.  1.
         11   -1    0    0    0    0 -0.00000000000E+00 -0.00000000000E+00 -0.45593999997E+02  0.45594000000E+02  0.51100000000E-03 0. -1.
    9900012    2    1    2    0    0 -0.71822375396E+00  0.27763472007E+00 -0.89455562028E+00  0.90007679638E+02  0.89999940209E+02 0.  0.
        -12    1    1    2    0    0  0.71822375396E+00 -0.27763472007E+00  0.89455562028E+00  0.11803203617E+01  0.00000000000E+00 0.  1.
         11    1    3    3    0    0  0.21712646860E+01 -0.26739379631E+02 -0.23338436723E+02  0.35558282331E+02  0.51100000000E-03 0. -1.
        -11    1    3    3    0    0 -0.17056069471E+02 -0.21130559260E+01  0.86842309453E+01  0.19255918013E+02  0.51100000000E-03 0.  1.
        -12    1    3    3    0    0  0.14166581031E+02  0.29130070277E+02  0.13759650157E+02  0.35193479295E+02  0.00000000000E+00 0.  1.
</event>
<event>
 7    1  0.1910099E-015  0.9000777E+02  0.7816164E-02  0.1186339E+00
        -11   -1    0    0    0    0  0.00000000000E+00  0.00000000000E+00  0.45593999997E+02  0.45594000000E+02  0.51100000000E-03 0. -1.
         11   -1    0    0    0    0 -0.00000000000E+00 -0.00000000000E+00 -0.45593999997E+02  0.45594000000E+02  0.51100000000E-03 0.  1.
    9900012    2    1    2    0    0 -0.42358033674E-01 -0.11459226082E+00  0.11738851771E+01  0.90007774599E+02  0.90000036423E+02 0.  0.
        -12    1    1    2    0    0  0.42358033674E-01  0.11459226082E+00 -0.11738851771E+01  0.11802254015E+01  0.00000000000E+00 0.  1.
         11    1    3    3    0    0 -0.36876396112E+02  0.74649292599E+00  0.94429217269E+01  0.38073542164E+02  0.51100000000E-03 0. -1.
        -11    1    3    3    0    0 -0.51626279789E+01 -0.68800191612E+01  0.48290525654E+00  0.86151372047E+01  0.51100000000E-03 0.  1.
        -12    1    3    3    0    0  0.41996666058E+02  0.60189339744E+01 -0.87519418063E+01  0.43319095230E+02  0.00000000000E+00 0.  1.
</event>
<event>
 7    1  0.1910099E-015  0.9000777E+02  0.7816164E-02  0.1186339E+00
        -11   -1    0    0    0    0  0.00000000000E+00  0.00000000000E+00  0.45593999997E+02  0.45594000000E+02  0.51100000000E-03 0.  1.
         11   -1    0    0    0    0 -0.00000000000E+00 -0.00000000000E+00 -0.45593999997E+02  0.45594000000E+02  0.51100000000E-03 0. -1.
    9900012    2    1    2    0    0 -0.35518543432E+00 -0.87907506225E+00 -0.70286666184E+00  0.90007766463E+02  0.90000028180E+02 0.  0.
        -12    1    1    2    0    0  0.35518543432E+00  0.87907506225E+00  0.70286666184E+00  0.11802335371E+01  0.00000000000E+00 0.  1.
         11    1    3    3    0    0 -0.11697805760E+02  0.69173664517E+01 -0.38964141280E+02  0.41266123203E+02  0.51100000000E-03 0. -1.
        -11    1    3    3    0    0 -0.80404534806E+01  0.31293320046E+00  0.52392683463E+01  0.96019139981E+01  0.51100000000E-03 0.  1.
        -12    1    3    3    0    0  0.19383073807E+02 -0.81093747145E+01  0.33022006272E+02  0.39139729262E+02  0.00000000000E+00 0.  1.
</event>
<event>
 7    1  0.1910099E-015  0.9000779E+02  0.7816164E-02  0.1186339E+00
        -11   -1    0    0    0    0  0.00000000000E+00  0.00000000000E+00  0.45593999997E+02  0.45594000000E+02  0.51100000000E-03 0. -1.
         11   -1    0    0    0    0 -0.00000000000E+00 -0.00000000000E+00 -0.45593999997E+02  0.45594000000E+02  0.51100000000E-03 0.  1.
    9900012    2    1    2    0    0  0.91654225147E+00  0.50012008336E+00  0.55019747603E+00  0.90007793637E+02  0.90000055713E+02 0.  0.
        -12    1    1    2    0    0 -0.91654225147E+00 -0.50012008336E+00 -0.55019747603E+00  0.11802063629E+01  0.00000000000E+00 0.  1.
         11    1    3    3    0    0  0.32730645607E+02 -0.55983119776E+01  0.11863612446E+02  0.35261615949E+02  0.51100000000E-03 0. -1.
        -11    1    3    3    0    0  0.79663684695E+01 -0.51478168396E+01  0.44834771762E+01  0.10491168317E+02  0.51100000000E-03 0.  1.
        -12    1    3    3    0    0 -0.39780471825E+02  0.11246248900E+02 -0.15796892146E+02  0.44255009371E+02  0.00000000000E+00 0.  1.
</event>
<event>
 7    1  0.1910099E-015  0.9000759E+02  0.7816164E-02  0.1186339E+00
        -11   -1    0    0    0    0  0.00000000000E+00  0.00000000000E+00  0.45593999997E+02  0.45594000000E+02  0.51100000000E-03 0. -1.
         11   -1    0    0    0    0 -0.00000000000E+00 -0.00000000000E+00 -0.45593999997E+02  0.45594000000E+02  0.51100000000E-03 0.  1.
    9900012    2    1    2    0    0  0.32080876766E+00 -0.86389150575E+00  0.73765452671E+00  0.90007592867E+02  0.89999852293E+02 0.  0.
        -12    1    1    2    0    0 -0.32080876766E+00  0.86389150575E+00 -0.73765452671E+00  0.11804071331E+01  0.00000000000E+00 0.  1.
         11    1    3    3    0    0 -0.52130398092E+01 -0.20846602793E+02  0.33302176356E+02  0.39633213122E+02  0.51100000000E-03 0. -1.
        -11    1    3    3    0    0  0.10182303954E+02  0.22752534313E+01  0.25797336092E+01  0.10747609861E+02  0.51100000000E-03 0.  1.
        -12    1    3    3    0    0 -0.46484553767E+01  0.17707457856E+02 -0.35144255438E+02  0.39626769884E+02  0.00000000000E+00 0.  1.
</event>
<event>
 7    1  0.1910099E-015  0.9000754E+02  0.7816164E-02  0.1186339E+00
        -11   -1    0    0    0    0  0.00000000000E+00  0.00000000000E+00  0.45593999997E+02  0.45594000000E+02  0.51100000000E-03 0.  1.
         11   -1    0    0    0    0 -0.00000000000E+00 -0.00000000000E+00 -0.45593999997E+02  0.45594000000E+02  0.51100000000E-03 0. -1.
    9900012    2    1    2    0    0  0.54329013972E+00  0.10265203030E+01  0.21115581387E+00  0.90007536156E+02  0.89999794833E+02 0.  0.
        -12    1    1    2    0    0 -0.54329013972E+00 -0.10265203030E+01 -0.21115581387E+00  0.11804638436E+01  0.00000000000E+00 0.  1.
         11    1    3    3    0    0 -0.19005076697E+02  0.27324878143E+02 -0.15616868531E+02  0.36765860370E+02  0.51100000000E-03 0. -1.
        -11    1    3    3    0    0 -0.55186684420E+01  0.38324011094E+01 -0.54431697688E+01  0.86470282195E+01  0.51100000000E-03 0.  1.
        -12    1    3    3    0    0  0.25067035279E+02 -0.30130758950E+02  0.21271194114E+02  0.44594647566E+02  0.00000000000E+00 0.  1.
</event>
<event>
 7    1  0.1910099E-015  0.9000772E+02  0.7816164E-02  0.1186339E+00
        -11   -1    0    0    0    0  0.00000000000E+00  0.00000000000E+00  0.45593999997E+02  0.45594000000E+02  0.51100000000E-03 0. -1.
         11   -1    0    0    0    0 -0.00000000000E+00 -0.00000000000E+00 -0.45593999997E+02  0.45594000000E+02  0.51100000000E-03 0.  1.
    9900012    2    1    2    0    0  0.10328010592E+01  0.31770331113E+00  0.47480761193E+00  0.90007722198E+02  0.89999983331E+02 0.  0.
        -12    1    1    2    0    0 -0.10328010592E+01 -0.31770331113E+00 -0.47480761193E+00  0.11802778021E+01  0.00000000000E+00 0.  1.
         11    1    3    3    0    0 -0.19658825511E+01 -0.77941607467E+01  0.10358992873E+01  0.81047346375E+01  0.51100000000E-03 0. -1.
        -11    1    3    3    0    0 -0.36090899462E+02  0.39418391816E+01  0.15449817039E+02  0.39456152459E+02  0.51100000000E-03 0.  1.
         12    1    3    3    0    0  0.39089583072E+02  0.41700248762E+01 -0.16010908715E+02  0.42446835101E+02  0.00000000000E+00 0. -1.
</event>
<event>
 7    1  0.1910099E-015  0.9000779E+02  0.7816164E-02  0.1186339E+00
        -11   -1    0    0    0    0  0.00000000000E+00  0.00000000000E+00  0.45593999997E+02  0.45594000000E+02  0.51100000000E-03 0.  1.
         11   -1    0    0    0    0 -0.00000000000E+00 -0.00000000000E+00 -0.45593999997E+02  0.45594000000E+02  0.51100000000E-03 0. -1.
    9900012    2    1    2    0    0  0.12527530571E+00 -0.54030172540E+00 -0.10417635590E+01  0.90007791896E+02  0.90000053949E+02 0.  0.
        -12    1    1    2    0    0 -0.12527530571E+00  0.54030172540E+00  0.10417635590E+01  0.11802081043E+01  0.00000000000E+00 0.  1.
         11    1    3    3    0    0 -0.26413156165E+02 -0.59120457181E+01  0.27845242479E+02  0.38832520291E+02  0.51100000000E-03 0. -1.
        -11    1    3    3    0    0  0.81588555150E+00  0.48430788141E+01  0.60466384511E+01  0.77899241622E+01  0.51100000000E-03 0.  1.
        -12    1    3    3    0    0  0.25722545919E+02  0.52866517856E+00 -0.34933644489E+02  0.43385347443E+02  0.00000000000E+00 0.  1.
</event>
<event>
 7    1  0.1910099E-015  0.9000777E+02  0.7816164E-02  0.1186339E+00
        -11   -1    0    0    0    0  0.00000000000E+00  0.00000000000E+00  0.45593999997E+02  0.45594000000E+02  0.51100000000E-03 0. -1.
         11   -1    0    0    0    0 -0.00000000000E+00 -0.00000000000E+00 -0.45593999997E+02  0.45594000000E+02  0.51100000000E-03 0.  1.
    9900012    2    1    2    0    0 -0.78742552309E+00  0.75215207216E+00  0.45516472784E+00  0.90007768403E+02  0.90000030145E+02 0.  0.
        -12    1    1    2    0    0  0.78742552309E+00 -0.75215207216E+00 -0.45516472784E+00  0.11802315974E+01  0.00000000000E+00 0.  1.
         11    1    3    3    0    0 -0.26287937063E+02 -0.29376765296E+01  0.24860878456E+02  0.36300810683E+02  0.51100000000E-03 0. -1.
        -11    1    3    3    0    0 -0.26102483760E+01 -0.30861744849E+01  0.87950918783E+01  0.96794375324E+01  0.51100000000E-03 0.  1.
        -12    1    3    3    0    0  0.28110759916E+02  0.67760030866E+01 -0.33200805607E+02  0.44027520187E+02  0.00000000000E+00 0.  1.
</event>
<event>
 7    1  0.1910099E-015  0.9000771E+02  0.7816164E-02  0.1186339E+00
        -11   -1    0    0    0    0  0.00000000000E+00  0.00000000000E+00  0.45593999997E+02  0.45594000000E+02  0.51100000000E-03 0.  1.
         11   -1    0    0    0    0 -0.00000000000E+00 -0.00000000000E+00 -0.45593999997E+02  0.45594000000E+02  0.51100000000E-03 0. -1.
    9900012    2    1    2    0    0  0.10025102801E+01  0.31404196011E+00 -0.53799171920E+00  0.90007710076E+02  0.89999971049E+02 0.  0.
        -12    1    1    2    0    0 -0.10025102801E+01 -0.31404196011E+00  0.53799171920E+00  0.11802899238E+01  0.00000000000E+00 0.  1.
         11    1    3    3    0    0 -0.34148436752E+01  0.43261063476E+00  0.96104675762E+01  0.10208300377E+02  0.51100000000E-03 0. -1.
        -11    1    3    3    0    0 -0.12149231989E+02  0.19879123927E+02  0.26243118042E+02  0.35092515596E+02  0.51100000000E-03 0.  1.
         12    1    3    3    0    0  0.16566585944E+02 -0.19997692602E+02 -0.36391577338E+02  0.44706894103E+02  0.00000000000E+00 0. -1.
</event>
<event>
 7    1  0.1910099E-015  0.9000783E+02  0.7816164E-02  0.1186339E+00
        -11   -1    0    0    0    0  0.00000000000E+00  0.00000000000E+00  0.45593999997E+02  0.45594000000E+02  0.51100000000E-03 0.  1.
         11   -1    0    0    0    0 -0.00000000000E+00 -0.00000000000E+00 -0.45593999997E+02  0.45594000000E+02  0.51100000000E-03 0. -1.
    9900012    2    1    2    0    0  0.41835402094E+00  0.22561985505E+00 -0.10802247804E+01  0.90007826292E+02  0.90000088799E+02 0.  0.
        -12    1    1    2    0    0 -0.41835402094E+00 -0.22561985505E+00  0.10802247804E+01  0.11801737084E+01  0.00000000000E+00 0.  1.
         11    1    3    3    0    0  0.15586805379E+01 -0.22575636711E+01 -0.10103951580E+02  0.10469762009E+02  0.51100000000E-03 0. -1.
        -11    1    3    3    0    0  0.24654007268E+02 -0.25100981245E+02  0.19659407352E+02  0.40303494036E+02  0.51100000000E-03 0.  1.
         12    1    3    3    0    0 -0.25794333785E+02  0.27584164771E+02 -0.10635680553E+02  0.39234570246E+02  0.00000000000E+00 0. -1.
</event>
<event>
 7    1  0.1910099E-015  0.9000773E+02  0.7816164E-02  0.1186339E+00
        -11   -1    0    0    0    0  0.00000000000E+00  0.00000000000E+00  0.45593999997E+02  0.45594000000E+02  0.51100000000E-03 0.  1.
         11   -1    0    0    0    0 -0.00000000000E+00 -0.00000000000E+00 -0.45593999997E+02  0.45594000000E+02  0.51100000000E-03 0. -1.
    9900012    2    1    2    0    0  0.43095476905E+00  0.10764777986E+01 -0.22024736301E+00  0.90007730808E+02  0.89999992055E+02 0.  0.
        -12    1    1    2    0    0 -0.43095476905E+00 -0.10764777986E+01  0.22024736301E+00  0.11802691916E+01  0.00000000000E+00 0.  1.
         11    1    3    3    0    0  0.40156594059E+00 -0.65895626217E+01 -0.74973488903E+01  0.99896862511E+01  0.51100000000E-03 0. -1.
        -11    1    3    3    0    0 -0.22009001230E+02 -0.28403596448E+02  0.11016294734E+02  0.37583496062E+02  0.51100000000E-03 0.  1.
         12    1    3    3    0    0  0.22038390059E+02  0.36069636868E+02 -0.37391932063E+01  0.42434548495E+02  0.00000000000E+00 0. -1.
</event>
<event>
 7    1  0.1910099E-015  0.9000774E+02  0.7816164E-02  0.1186339E+00
        -11   -1    0    0    0    0  0.00000000000E+00  0.00000000000E+00  0.45593999997E+02  0.45594000000E+02  0.51100000000E-03 0.  1.
         11   -1    0    0    0    0 -0.00000000000E+00 -0.00000000000E+00 -0.45593999997E+02  0.45594000000E+02  0.51100000000E-03 0. -1.
    9900012    2    1    2    0    0  0.80004940192E+00 -0.39870729406E+00 -0.77068769068E+00  0.90007743219E+02  0.90000004630E+02 0.  0.
        -12    1    1    2    0    0 -0.80004940192E+00  0.39870729406E+00  0.77068769068E+00  0.11802567807E+01  0.00000000000E+00 0.  1.
         11    1    3    3    0    0  0.28363823361E+02  0.13286763038E+02 -0.21044290363E+02  0.37734688349E+02  0.51100000000E-03 0. -1.
        -11    1    3    3    0    0  0.77794196928E+01 -0.64264568885E+01 -0.13934560242E+01  0.10186286804E+02  0.51100000000E-03 0.  1.
        -12    1    3    3    0    0 -0.35343193652E+02 -0.72590134430E+01  0.21667058696E+02  0.42086768066E+02  0.00000000000E+00 0.  1.
</event>
<event>
 7    1  0.1910099E-015  0.9000712E+02  0.7816164E-02  0.1186340E+00
        -11   -1    0    0    0    0  0.00000000000E+00  0.00000000000E+00  0.45593999997E+02  0.45594000000E+02  0.51100000000E-03 0.  1.
         11   -1    0    0    0    0 -0.00000000000E+00 -0.00000000000E+00 -0.45593999997E+02  0.45594000000E+02  0.51100000000E-03 0. -1.
    9900012    2    1    2    0    0  0.10175496374E+01 -0.30262838323E+00 -0.51719744989E+00  0.90007117108E+02  0.89999370251E+02 0.  0.
        -12    1    1    2    0    0 -0.10175496374E+01  0.30262838323E+00  0.51719744989E+00  0.11808828922E+01  0.00000000000E+00 0.  1.
         11    1    3    3    0    0  0.17087856891E+01 -0.85679498936E+01  0.34558705252E+01  0.93953581762E+01  0.51100000000E-03 0. -1.
        -11    1    3    3    0    0  0.36628546325E+02 -0.65895868024E+01  0.92043918740E+01  0.38337891050E+02  0.51100000000E-03 0.  1.
         12    1    3    3    0    0 -0.37319782377E+02  0.14854908313E+02 -0.13177459849E+02  0.42273867882E+02  0.00000000000E+00 0. -1.
</event>
<event>
 7    1  0.1910099E-015  0.9000687E+02  0.7816164E-02  0.1186341E+00
        -11   -1    0    0    0    0  0.00000000000E+00  0.00000000000E+00  0.45593999997E+02  0.45594000000E+02  0.51100000000E-03 0.  1.
         11   -1    0    0    0    0 -0.00000000000E+00 -0.00000000000E+00 -0.45593999997E+02  0.45594000000E+02  0.51100000000E-03 0. -1.
    9900012    2    1    2    0    0  0.10142880590E+01  0.42489432296E+00  0.43099155858E+00  0.90006869535E+02  0.89999119408E+02 0.  0.
        -12    1    1    2    0    0 -0.10142880590E+01 -0.42489432296E+00 -0.43099155858E+00  0.11811304652E+01  0.00000000000E+00 0.  1.
         11    1    3    3    0    0  0.38374617516E+02  0.11681043582E+02 -0.10417208613E+02  0.41443651917E+02  0.51100000000E-03 0. -1.
        -11    1    3    3    0    0  0.17104742192E+00 -0.95041651196E+01  0.18645412235E+00  0.95075326579E+01  0.51100000000E-03 0.  1.
        -12    1    3    3    0    0 -0.37531376879E+02 -0.17519841396E+01  0.10661746049E+02  0.39055684960E+02  0.00000000000E+00 0.  1.
</event>
<event>
 7    1  0.1910099E-015  0.9000774E+02  0.7816164E-02  0.1186339E+00
        -11   -1    0    0    0    0  0.00000000000E+00  0.00000000000E+00  0.45593999997E+02  0.45594000000E+02  0.51100000000E-03 0.  1.
         11   -1    0    0    0    0 -0.00000000000E+00 -0.00000000000E+00 -0.45593999997E+02  0.45594000000E+02  0.51100000000E-03 0. -1.
    9900012    2    1    2    0    0 -0.10441725693E+00 -0.97451945375E+00 -0.65758508258E+00  0.90007741863E+02  0.90000003256E+02 0.  0.
        -12    1    1    2    0    0  0.10441725693E+00  0.97451945375E+00  0.65758508258E+00  0.11802581371E+01  0.00000000000E+00 0.  1.
         11    1    3    3    0    0 -0.50401656859E+01  0.79787083694E+01  0.42740434227E+01  0.10360043669E+02  0.51100000000E-03 0. -1.
        -11    1    3    3    0    0  0.31524257319E+02 -0.12819575282E+02  0.22856508144E+02  0.40994393211E+02  0.51100000000E-03 0.  1.
         12    1    3    3    0    0 -0.26588508890E+02  0.38663474592E+01 -0.27788136649E+02  0.38653304983E+02  0.00000000000E+00 0. -1.
</event>
<event>
 7    1  0.1910099E-015  0.9000771E+02  0.7816164E-02  0.1186339E+00
        -11   -1    0    0    0    0  0.00000000000E+00  0.00000000000E+00  0.45593999997E+02  0.45594000000E+02  0.51100000000E-03 0.  1.
         11   -1    0    0    0    0 -0.00000000000E+00 -0.00000000000E+00 -0.45593999997E+02  0.45594000000E+02  0.51100000000E-03 0. -1.
    9900012    2    1    2    0    0  0.84256307553E+00  0.46244537264E+00 -0.68506400424E+00  0.90007711498E+02  0.89999972489E+02 0.  0.
        -12    1    1    2    0    0 -0.84256307553E+00 -0.46244537264E+00  0.68506400424E+00  0.11802885024E+01  0.00000000000E+00 0.  1.
         11    1    3    3    0    0  0.44409916651E+01 -0.15710396510E+01  0.64911106498E+01  0.80202924064E+01  0.51100000000E-03 0. -1.
        -11    1    3    3    0    0 -0.16515739670E+02  0.62992156036E+01  0.34164347347E+02  0.38466250194E+02  0.51100000000E-03 0.  1.
         12    1    3    3    0    0  0.12917311081E+02 -0.42657305800E+01 -0.41340522001E+02  0.43521168898E+02  0.00000000000E+00 0. -1.
</event>
<event>
 7    1  0.1910099E-015  0.9000773E+02  0.7816164E-02  0.1186339E+00
        -11   -1    0    0    0    0  0.00000000000E+00  0.00000000000E+00  0.45593999997E+02  0.45594000000E+02  0.51100000000E-03 0. -1.
         11   -1    0    0    0    0 -0.00000000000E+00 -0.00000000000E+00 -0.45593999997E+02  0.45594000000E+02  0.51100000000E-03 0.  1.
    9900012    2    1    2    0    0  0.50918591280E+00 -0.74433928399E+00  0.76139458329E+00  0.90007731821E+02  0.89999993081E+02 0.  0.
        -12    1    1    2    0    0 -0.50918591280E+00  0.74433928399E+00 -0.76139458329E+00  0.11802681792E+01  0.00000000000E+00 0.  1.
         11    1    3    3    0    0  0.18300639255E+01 -0.79336252279E+01 -0.65328816351E+01  0.10438873787E+02  0.51100000000E-03 0. -1.
        -11    1    3    3    0    0  0.15501871938E+01 -0.33608180445E+02  0.16762998327E+02  0.37588708229E+02  0.51100000000E-03 0.  1.
         12    1    3    3    0    0 -0.28710652066E+01  0.40797466389E+02 -0.94687221087E+01  0.41980149804E+02  0.00000000000E+00 0. -1.
</event>
<event>
 7    1  0.1910099E-015  0.9000777E+02  0.7816164E-02  0.1186339E+00
        -11   -1    0    0    0    0  0.00000000000E+00  0.00000000000E+00  0.45593999997E+02  0.45594000000E+02  0.51100000000E-03 0. -1.
         11   -1    0    0    0    0 -0.00000000000E+00 -0.00000000000E+00 -0.45593999997E+02  0.45594000000E+02  0.51100000000E-03 0.  1.
    9900012    2    1    2    0    0  0.64625983114E+00  0.45445776838E+00  0.87678367112E+00  0.90007774073E+02  0.90000035891E+02 0.  0.
        -12    1    1    2    0    0 -0.64625983114E+00 -0.45445776838E+00 -0.87678367112E+00  0.11802259269E+01  0.00000000000E+00 0.  1.
         11    1    3    3    0    0 -0.97781183178E+01 -0.18755451574E+01  0.35830027686E+02  0.37187634393E+02  0.51100000000E-03 0. -1.
        -11    1    3    3    0    0  0.62257969449E+01 -0.93415716916E+00  0.76380344372E+01  0.98981193941E+01  0.51100000000E-03 0.  1.
        -12    1    3    3    0    0  0.41985812040E+01  0.32641600950E+01 -0.42591278452E+02  0.42922020286E+02  0.00000000000E+00 0.  1.
</event>
<event>
 7    1  0.1910099E-015  0.9000770E+02  0.7816164E-02  0.1186339E+00
        -11   -1    0    0    0    0  0.00000000000E+00  0.00000000000E+00  0.45593999997E+02  0.45594000000E+02  0.51100000000E-03 0.  1.
         11   -1    0    0    0    0 -0.00000000000E+00 -0.00000000000E+00 -0.45593999997E+02  0.45594000000E+02  0.51100000000E-03 0. -1.
    9900012    2    1    2    0    0 -0.95850702106E+00 -0.12735095723E+00  0.67687710828E+00  0.90007696397E+02  0.89999957189E+02 0.  0.
        -12    1    1    2    0    0  0.95850702106E+00  0.12735095723E+00 -0.67687710828E+00  0.11803036031E+01  0.00000000000E+00 0.  1.
         11    1    3    3    0    0 -0.13424751411E+02 -0.23074362680E+02 -0.23464624980E+02  0.35542070694E+02  0.51100000000E-03 0. -1.
        -11    1    3    3    0    0  0.55197542256E+01 -0.47439276993E+01 -0.84407606834E+01  0.11145356787E+02  0.51100000000E-03 0.  1.
        -12    1    3    3    0    0  0.69464901641E+01  0.27690939422E+02  0.32582262771E+02  0.43320268916E+02  0.00000000000E+00 0.  1.
</event>
<event>
 7    1  0.1910099E-015  0.9000772E+02  0.7816164E-02  0.1186339E+00
        -11   -1    0    0    0    0  0.00000000000E+00  0.00000000000E+00  0.45593999997E+02  0.45594000000E+02  0.51100000000E-03 0.  1.
         11   -1    0    0    0    0 -0.00000000000E+00 -0.00000000000E+00 -0.45593999997E+02  0.45594000000E+02  0.51100000000E-03 0. -1.
    9900012    2    1    2    0    0  0.54341902091E+00  0.94581423487E+00 -0.45077827267E+00  0.90007716199E+02  0.89999977253E+02 0.  0.
        -12    1    1    2    0    0 -0.54341902091E+00 -0.94581423487E+00  0.45077827267E+00  0.11802838007E+01  0.00000000000E+00 0.  1.
         11    1    3    3    0    0  0.27961445154E+02 -0.10537756867E+02  0.56392625345E+01  0.30408683251E+02  0.51100000000E-03 0. -1.
        -11    1    3    3    0    0  0.14004535067E+02  0.13079791688E+01  0.59590990294E+01  0.15275754432E+02  0.51100000000E-03 0.  1.
        -12    1    3    3    0    0 -0.41422561200E+02  0.10175591933E+02 -0.12049139837E+02  0.44323278516E+02  0.00000000000E+00 0.  1.
</event>
<event>
 7    1  0.1910099E-015  0.9000771E+02  0.7816164E-02  0.1186339E+00
        -11   -1    0    0    0    0  0.00000000000E+00  0.00000000000E+00  0.45593999997E+02  0.45594000000E+02  0.51100000000E-03 0.  1.
         11   -1    0    0    0    0 -0.00000000000E+00 -0.00000000000E+00 -0.45593999997E+02  0.45594000000E+02  0.51100000000E-03 0. -1.
    9900012    2    1    2    0    0  0.11305966532E+01  0.19219568530E+00 -0.27911374193E+00  0.90007706623E+02  0.89999967551E+02 0.  0.
        -12    1    1    2    0    0 -0.11305966532E+01 -0.19219568530E+00  0.27911374193E+00  0.11802933765E+01  0.00000000000E+00 0.  1.
         11    1    3    3    0    0 -0.17605508926E+02  0.34896030454E+02  0.24300730698E+01  0.39161104956E+02  0.51100000000E-03 0. -1.
        -11    1    3    3    0    0 -0.69995057796E+01 -0.33024364808E+01  0.54096953507E+01  0.94426676271E+01  0.51100000000E-03 0.  1.
        -12    1    3    3    0    0  0.25735611359E+02 -0.31401398288E+02 -0.81188821624E+01  0.41403934040E+02  0.00000000000E+00 0.  1.
</event>
<event>
 7    1  0.1910099E-015  0.9000775E+02  0.7816164E-02  0.1186339E+00
        -11   -1    0    0    0    0  0.00000000000E+00  0.00000000000E+00  0.45593999997E+02  0.45594000000E+02  0.51100000000E-03 0.  1.
         11   -1    0    0    0    0 -0.00000000000E+00 -0.00000000000E+00 -0.45593999997E+02  0.45594000000E+02  0.51100000000E-03 0. -1.
    9900012    2    1    2    0    0  0.38876136825E+00 -0.10774562350E+01  0.28452443176E+00  0.90007745158E+02  0.90000006594E+02 0.  0.
        -12    1    1    2    0    0 -0.38876136825E+00  0.10774562350E+01 -0.28452443176E+00  0.11802548420E+01  0.00000000000E+00 0.  1.
         11    1    3    3    0    0  0.31613783715E+00  0.30972090782E+02  0.17729222715E+02  0.35688873461E+02  0.51100000000E-03 0. -1.
        -11    1    3    3    0    0  0.66525031857E+00  0.60817434041E+01  0.67855852928E+01  0.91364286703E+01  0.51100000000E-03 0.  1.
        -12    1    3    3    0    0 -0.59262678748E+00 -0.38131290421E+02 -0.24230283576E+02  0.45182443027E+02  0.00000000000E+00 0.  1.
</event>
<event>
 7    1  0.1910099E-015  0.9000772E+02  0.7816164E-02  0.1186339E+00
        -11   -1    0    0    0    0  0.00000000000E+00  0.00000000000E+00  0.45593999997E+02  0.45594000000E+02  0.51100000000E-03 0. -1.
         11   -1    0    0    0    0 -0.00000000000E+00 -0.00000000000E+00 -0.45593999997E+02  0.45594000000E+02  0.51100000000E-03 0.  1.
    9900012    2    1    2    0    0 -0.11786051775E+01 -0.62610486025E-01 -0.59456557769E-02  0.90007718005E+02  0.89999979082E+02 0.  0.
        -12    1    1    2    0    0  0.11786051775E+01  0.62610486025E-01  0.59456557768E-02  0.11802819952E+01  0.00000000000E+00 0.  1.
         11    1    3    3    0    0 -0.22310745833E+02 -0.90702537171E+01 -0.14767497861E+02  0.28250980079E+02  0.51100000000E-03 0. -1.
        -11    1    3    3    0    0  0.78358633855E+01 -0.16951641999E+02 -0.11979468907E+02  0.22187081760E+02  0.51100000000E-03 0.  1.
         12    1    3    3    0    0  0.13296277270E+02  0.25959285230E+02  0.26741021113E+02  0.39569656165E+02  0.00000000000E+00 0. -1.
</event>
<event>
 7    1  0.1910099E-015  0.9000770E+02  0.7816164E-02  0.1186339E+00
        -11   -1    0    0    0    0  0.00000000000E+00  0.00000000000E+00  0.45593999997E+02  0.45594000000E+02  0.51100000000E-03 0.  1.
         11   -1    0    0    0    0 -0.00000000000E+00 -0.00000000000E+00 -0.45593999997E+02  0.45594000000E+02  0.51100000000E-03 0. -1.
    9900012    2    1    2    0    0 -0.95862486741E+00 -0.80299657871E-01 -0.68388913446E+00  0.90007697488E+02  0.89999958295E+02 0.  0.
        -12    1    1    2    0    0  0.95862486741E+00  0.80299657871E-01  0.68388913446E+00  0.11803025119E+01  0.00000000000E+00 0.  1.
         11    1    3    3    0    0 -0.22461483644E+02  0.36325156179E+02 -0.25270463501E+01  0.42783421818E+02  0.51100000000E-03 0. -1.
        -11    1    3    3    0    0  0.82849385185E+01  0.17239154234E+00 -0.21719316017E-01  0.82867603494E+01  0.51100000000E-03 0.  1.
        -12    1    3    3    0    0  0.13217920258E+02 -0.36577847380E+02  0.18648765316E+01  0.38937515321E+02  0.00000000000E+00 0.  1.
</event>
<event>
 7    1  0.1910099E-015  0.9000783E+02  0.7816164E-02  0.1186339E+00
        -11   -1    0    0    0    0  0.00000000000E+00  0.00000000000E+00  0.45593999997E+02  0.45594000000E+02  0.51100000000E-03 0.  1.
         11   -1    0    0    0    0 -0.00000000000E+00 -0.00000000000E+00 -0.45593999997E+02  0.45594000000E+02  0.51100000000E-03 0. -1.
    9900012    2    1    2    0    0  0.46954131976E+00 -0.10747042429E+01 -0.13168901508E+00  0.90007830412E+02  0.90000092973E+02 0.  0.
        -12    1    1    2    0    0 -0.46954131976E+00  0.10747042429E+01  0.13168901508E+00  0.11801695884E+01  0.00000000000E+00 0.  1.
         11    1    3    3    0    0 -0.24251330566E+02  0.49372366717E+00 -0.24916917605E+02  0.34773892225E+02  0.51100000000E-03 0. -1.
        -11    1    3    3    0    0 -0.11014119761E+02  0.41276724264E+01  0.73611823271E+00  0.11785176456E+02  0.51100000000E-03 0.  1.
        -12    1    3    3    0    0  0.35734991647E+02 -0.56961003364E+01  0.24049110357E+02  0.43448761731E+02  0.00000000000E+00 0.  1.
</event>
<event>
 7    1  0.1910099E-015  0.9000784E+02  0.7816164E-02  0.1186339E+00
        -11   -1    0    0    0    0  0.00000000000E+00  0.00000000000E+00  0.45593999997E+02  0.45594000000E+02  0.51100000000E-03 0.  1.
         11   -1    0    0    0    0 -0.00000000000E+00 -0.00000000000E+00 -0.45593999997E+02  0.45594000000E+02  0.51100000000E-03 0. -1.
    9900012    2    1    2    0    0  0.64252066247E+00  0.30803570929E+00  0.94077376810E+00  0.90007841501E+02  0.90000104209E+02 0.  0.
        -12    1    1    2    0    0 -0.64252066247E+00 -0.30803570929E+00 -0.94077376810E+00  0.11801584990E+01  0.00000000000E+00 0.  1.
         11    1    3    3    0    0 -0.38589248634E+02  0.50888282411E+01 -0.11722014229E+02  0.40650115632E+02  0.51100000000E-03 0. -1.
        -11    1    3    3    0    0 -0.33601409863E+01  0.85709704599E+00 -0.19485489615E+01  0.39776885386E+01  0.51100000000E-03 0.  1.
        -12    1    3    3    0    0  0.42591910283E+02 -0.56378895778E+01  0.14611336959E+02  0.45380037331E+02  0.00000000000E+00 0.  1.
</event>
<event>
 7    1  0.1910099E-015  0.9000776E+02  0.7816164E-02  0.1186339E+00
        -11   -1    0    0    0    0  0.00000000000E+00  0.00000000000E+00  0.45593999997E+02  0.45594000000E+02  0.51100000000E-03 0. -1.
         11   -1    0    0    0    0 -0.00000000000E+00 -0.00000000000E+00 -0.45593999997E+02  0.45594000000E+02  0.51100000000E-03 0.  1.
    9900012    2    1    2    0    0 -0.72109412984E+00  0.93344335937E+00  0.40949228951E-01  0.90007758462E+02  0.90000020073E+02 0.  0.
        -12    1    1    2    0    0  0.72109412984E+00 -0.93344335937E+00 -0.40949228951E-01  0.11802415382E+01  0.00000000000E+00 0.  1.
         11    1    3    3    0    0 -0.23932760482E-01 -0.53722829383E+01  0.77447352610E+01  0.94256522994E+01  0.51100000000E-03 0. -1.
        -11    1    3    3    0    0 -0.30614234781E+02 -0.13979996938E+02 -0.23589627766E+02  0.41099175467E+02  0.51100000000E-03 0.  1.
         12    1    3    3    0    0  0.29917073412E+02  0.20285723236E+02  0.15885841734E+02  0.39482930696E+02  0.00000000000E+00 0. -1.
</event>
<event>
 7    1  0.1910099E-015  0.9000775E+02  0.7816164E-02  0.1186339E+00
        -11   -1    0    0    0    0  0.00000000000E+00  0.00000000000E+00  0.45593999997E+02  0.45594000000E+02  0.51100000000E-03 0.  1.
         11   -1    0    0    0    0 -0.00000000000E+00 -0.00000000000E+00 -0.45593999997E+02  0.45594000000E+02  0.51100000000E-03 0. -1.
    9900012    2    1    2    0    0  0.70544352135E+00  0.72535975989E+00 -0.60761945974E+00  0.90007746319E+02  0.90000007771E+02 0.  0.
        -12    1    1    2    0    0 -0.70544352135E+00 -0.72535975989E+00  0.60761945974E+00  0.11802536808E+01  0.00000000000E+00 0.  1.
         11    1    3    3    0    0 -0.31802017138E+02 -0.80019756291E+01  0.67330289135E+01  0.33477359314E+02  0.51100000000E-03 0. -1.
        -11    1    3    3    0    0 -0.11391979812E+02  0.11648441015E+01 -0.25093528132E+01  0.11723093347E+02  0.51100000000E-03 0.  1.
        -12    1    3    3    0    0  0.43899440472E+02  0.75624912874E+01 -0.48312955600E+01  0.44807293658E+02  0.00000000000E+00 0.  1.
</event>
<event>
 7    1  0.1910099E-015  0.9000772E+02  0.7816164E-02  0.1186339E+00
        -11   -1    0    0    0    0  0.00000000000E+00  0.00000000000E+00  0.45593999997E+02  0.45594000000E+02  0.51100000000E-03 0. -1.
         11   -1    0    0    0    0 -0.00000000000E+00 -0.00000000000E+00 -0.45593999997E+02  0.45594000000E+02  0.51100000000E-03 0.  1.
    9900012    2    1    2    0    0  0.45278547412E+00 -0.85064673429E+00 -0.68150281489E+00  0.90007720101E+02  0.89999981207E+02 0.  0.
        -12    1    1    2    0    0 -0.45278547412E+00  0.85064673429E+00  0.68150281489E+00  0.11802798985E+01  0.00000000000E+00 0.  1.
         11    1    3    3    0    0  0.15209972703E+01  0.16114163300E+02  0.55349654610E+01  0.17106008724E+02  0.51100000000E-03 0. -1.
        -11    1    3    3    0    0 -0.20985404677E+02  0.20825421484E+02 -0.60811394033E+01  0.30183864003E+02  0.51100000000E-03 0.  1.
         12    1    3    3    0    0  0.19917192881E+02 -0.37790231518E+02 -0.13532887261E+00  0.42717847375E+02  0.00000000000E+00 0. -1.
</event>
<event>
 8    1  0.1910099E-015  0.9000756E+02  0.7816164E-02  0.1186339E+00
        -11   -1    0    0    0    0  0.00000000000E+00  0.00000000000E+00  0.45593999997E+02  0.45594000000E+02  0.51100000000E-03 0. -1.
         11   -1    0    0    0    0 -0.00000000000E+00 -0.00000000000E+00 -0.45593999997E+02  0.45594000000E+02  0.51100000000E-03 0.  1.
    9900012    2    1    2    0    0  0.20227802728E+00  0.11610287154E+01  0.67359734871E-01  0.90007558806E+02  0.89999817782E+02 0.  0.
         23    2    3    3    0    0 -0.25771498729E+02  0.87210389203E+01  0.82757633983E+01  0.61737986400E+02  0.54798394487E+02 0.  0.
        -12    1    1    2    0    0 -0.20227802728E+00 -0.11610287154E+01 -0.67359734871E-01  0.11804411939E+01  0.00000000000E+00 0.  1.
         11    1    4    4    0    0 -0.60270368693E+01 -0.18730116547E+02 -0.11276041246E+02  0.22677996951E+02  0.51100000000E-03 0. -1.
        -11    1    4    4    0    0 -0.19744461860E+02  0.27451155467E+02  0.19551804645E+02  0.39059989449E+02  0.51100000000E-03 0.  1.
         12    1    3    3    0    0  0.25973776757E+02 -0.75600102049E+01 -0.82084036634E+01  0.28269572406E+02  0.00000000000E+00 0. -1.
</event>
<event>
 7    1  0.1910099E-015  0.9000779E+02  0.7816164E-02  0.1186339E+00
        -11   -1    0    0    0    0  0.00000000000E+00  0.00000000000E+00  0.45593999997E+02  0.45594000000E+02  0.51100000000E-03 0.  1.
         11   -1    0    0    0    0 -0.00000000000E+00 -0.00000000000E+00 -0.45593999997E+02  0.45594000000E+02  0.51100000000E-03 0. -1.
    9900012    2    1    2    0    0 -0.10952779056E+01  0.28126901116E+00 -0.33787719160E+00  0.90007785213E+02  0.90000047178E+02 0.  0.
        -12    1    1    2    0    0  0.10952779056E+01 -0.28126901116E+00  0.33787719160E+00  0.11802147871E+01  0.00000000000E+00 0.  1.
         11    1    3    3    0    0  0.18625509897E+02 -0.28448325536E+02  0.41134160925E+00  0.34005676687E+02  0.51100000000E-03 0. -1.
        -11    1    3    3    0    0 -0.10805234571E+02 -0.96500974887E+01  0.66020656435E+01  0.15920576205E+02  0.51100000000E-03 0.  1.
        -12    1    3    3    0    0 -0.89155532314E+01  0.38379692036E+02 -0.73512844444E+01  0.40081532321E+02  0.00000000000E+00 0.  1.
</event>
<event>
 7    1  0.1910099E-015  0.9000776E+02  0.7816164E-02  0.1186339E+00
        -11   -1    0    0    0    0  0.00000000000E+00  0.00000000000E+00  0.45593999997E+02  0.45594000000E+02  0.51100000000E-03 0.  1.
         11   -1    0    0    0    0 -0.00000000000E+00 -0.00000000000E+00 -0.45593999997E+02  0.45594000000E+02  0.51100000000E-03 0. -1.
    9900012    2    1    2    0    0  0.59303027693E+00  0.76239763333E+00  0.67825335193E+00  0.90007761605E+02  0.90000023258E+02 0.  0.
        -12    1    1    2    0    0 -0.59303027693E+00 -0.76239763333E+00 -0.67825335193E+00  0.11802383954E+01  0.00000000000E+00 0.  1.
         11    1    3    3    0    0  0.12325322853E+02  0.44688954733E+01 -0.36448898471E+02  0.38735085003E+02  0.51100000000E-03 0. -1.
        -11    1    3    3    0    0  0.93294519463E+01  0.48692911768E+01  0.43683269540E+01  0.11394338543E+02  0.51100000000E-03 0.  1.
        -12    1    3    3    0    0 -0.21061744523E+02 -0.85757890167E+01  0.32758824869E+02  0.39878338059E+02  0.00000000000E+00 0.  1.
</event>
<event>
 7    1  0.1910099E-015  0.9000775E+02  0.7816164E-02  0.1186339E+00
        -11   -1    0    0    0    0  0.00000000000E+00  0.00000000000E+00  0.45593999997E+02  0.45594000000E+02  0.51100000000E-03 0.  1.
         11   -1    0    0    0    0 -0.00000000000E+00 -0.00000000000E+00 -0.45593999997E+02  0.45594000000E+02  0.51100000000E-03 0. -1.
    9900012    2    1    2    0    0  0.58563896022E-01  0.38037045216E+00 -0.11157420179E+01  0.90007749323E+02  0.90000010814E+02 0.  0.
        -12    1    1    2    0    0 -0.58563896022E-01 -0.38037045216E+00  0.11157420179E+01  0.11802506773E+01  0.00000000000E+00 0.  1.
         11    1    3    3    0    0  0.12164841183E+02  0.20894941221E+02 -0.13521738510E+02  0.27702334599E+02  0.51100000000E-03 0. -1.
        -11    1    3    3    0    0 -0.26041996983E+02 -0.55056820458E+00 -0.11236631085E+02  0.28368126668E+02  0.51100000000E-03 0.  1.
        -12    1    3    3    0    0  0.13935719696E+02 -0.19964002565E+02  0.23642627577E+02  0.33937288056E+02  0.00000000000E+00 0.  1.
</event>
<event>
 7    1  0.1910099E-015  0.9000772E+02  0.7816164E-02  0.1186339E+00
        -11   -1    0    0    0    0  0.00000000000E+00  0.00000000000E+00  0.45593999997E+02  0.45594000000E+02  0.51100000000E-03 0.  1.
         11   -1    0    0    0    0 -0.00000000000E+00 -0.00000000000E+00 -0.45593999997E+02  0.45594000000E+02  0.51100000000E-03 0. -1.
    9900012    2    1    2    0    0  0.72591173770E+00  0.26395791794E+00  0.89243704110E+00  0.90007718040E+02  0.89999979118E+02 0.  0.
        -12    1    1    2    0    0 -0.72591173770E+00 -0.26395791794E+00 -0.89243704110E+00  0.11802819603E+01  0.00000000000E+00 0.  1.
         11    1    3    3    0    0  0.26490463785E+02 -0.21061441615E+02 -0.71095386112E+01  0.34581418912E+02  0.51100000000E-03 0. -1.
        -11    1    3    3    0    0  0.85974864858E+01 -0.34834227390E+01 -0.56962096933E+01  0.10885670075E+02  0.51100000000E-03 0.  1.
        -12    1    3    3    0    0 -0.34362038533E+02  0.24808822271E+02  0.13698185346E+02  0.44540629053E+02  0.00000000000E+00 0.  1.
</event>
<event>
 7    1  0.1910099E-015  0.9000771E+02  0.7816164E-02  0.1186339E+00
        -11   -1    0    0    0    0  0.00000000000E+00  0.00000000000E+00  0.45593999997E+02  0.45594000000E+02  0.51100000000E-03 0. -1.
         11   -1    0    0    0    0 -0.00000000000E+00 -0.00000000000E+00 -0.45593999997E+02  0.45594000000E+02  0.51100000000E-03 0.  1.
    9900012    2    1    2    0    0 -0.77692775283E+00 -0.50611695899E+00  0.73028053920E+00  0.90007711571E+02  0.89999972564E+02 0.  0.
        -12    1    1    2    0    0  0.77692775283E+00  0.50611695899E+00 -0.73028053920E+00  0.11802884288E+01  0.00000000000E+00 0.  1.
         11    1    3    3    0    0  0.96062465514E+01  0.10337720754E+02  0.29449617824E+02  0.32656215847E+02  0.51100000000E-03 0. -1.
        -11    1    3    3    0    0 -0.25687516338E+02  0.42354028333E+01 -0.73573998461E+01  0.27053991674E+02  0.51100000000E-03 0.  1.
        -12    1    3    3    0    0  0.15304342033E+02 -0.15079240546E+02 -0.21361937439E+02  0.30297504050E+02  0.00000000000E+00 0.  1.
</event>
<event>
 7    1  0.1910099E-015  0.9000765E+02  0.7816164E-02  0.1186339E+00
        -11   -1    0    0    0    0  0.00000000000E+00  0.00000000000E+00  0.45593999997E+02  0.45594000000E+02  0.51100000000E-03 0.  1.
         11   -1    0    0    0    0 -0.00000000000E+00 -0.00000000000E+00 -0.45593999997E+02  0.45594000000E+02  0.51100000000E-03 0. -1.
    9900012    2    1    2    0    0 -0.41340637055E+00 -0.41916330537E+00 -0.10230498270E+01  0.90007646810E+02  0.89999906948E+02 0.  0.
        -12    1    1    2    0    0  0.41340637055E+00  0.41916330537E+00  0.10230498270E+01  0.11803531896E+01  0.00000000000E+00 0.  1.
         11    1    3    3    0    0  0.60721491410E+01 -0.35015899539E+02 -0.13545412910E+02  0.38032386553E+02  0.51100000000E-03 0. -1.
        -11    1    3    3    0    0 -0.38412296028E+01 -0.11645481292E+01 -0.92087555395E+01  0.10045516216E+02  0.51100000000E-03 0.  1.
        -12    1    3    3    0    0 -0.26443259088E+01  0.35761284363E+02  0.21731118622E+02  0.41929744041E+02  0.00000000000E+00 0.  1.
</event>
<event>
 7    1  0.1910099E-015  0.9000766E+02  0.7816164E-02  0.1186339E+00
        -11   -1    0    0    0    0  0.00000000000E+00  0.00000000000E+00  0.45593999997E+02  0.45594000000E+02  0.51100000000E-03 0.  1.
         11   -1    0    0    0    0 -0.00000000000E+00 -0.00000000000E+00 -0.45593999997E+02  0.45594000000E+02  0.51100000000E-03 0. -1.
    9900012    2    1    2    0    0 -0.21014328150E+00  0.14775048581E-01 -0.11613868492E+01  0.90007661949E+02  0.89999922287E+02 0.  0.
        -12    1    1    2    0    0  0.21014328150E+00 -0.14775048581E-01  0.11613868492E+01  0.11803380509E+01  0.00000000000E+00 0.  1.
         11    1    3    3    0    0  0.44379091673E+01 -0.43160897823E+01 -0.71794587803E+01  0.94798891040E+01  0.51100000000E-03 0. -1.
        -11    1    3    3    0    0  0.26503323265E+02  0.14187059685E+02 -0.22188446054E+02  0.37363430586E+02  0.51100000000E-03 0.  1.
         12    1    3    3    0    0 -0.31151375714E+02 -0.98561948542E+01  0.28206517985E+02  0.43164342259E+02  0.00000000000E+00 0. -1.
</event>
<event>
 7    1  0.1910099E-015  0.9000777E+02  0.7816164E-02  0.1186339E+00
        -11   -1    0    0    0    0  0.00000000000E+00  0.00000000000E+00  0.45593999997E+02  0.45594000000E+02  0.51100000000E-03 0. -1.
         11   -1    0    0    0    0 -0.00000000000E+00 -0.00000000000E+00 -0.45593999997E+02  0.45594000000E+02  0.51100000000E-03 0.  1.
    9900012    2    1    2    0    0 -0.18062539531E+00  0.11320858262E+01 -0.28051538961E+00  0.90007774286E+02  0.90000036107E+02 0.  0.
        -12    1    1    2    0    0  0.18062539531E+00 -0.11320858262E+01  0.28051538961E+00  0.11802257136E+01  0.00000000000E+00 0.  1.
         11    1    3    3    0    0 -0.65656832385E+01  0.24906336281E+01 -0.40514957156E+01  0.81071616521E+01  0.51100000000E-03 0. -1.
        -11    1    3    3    0    0 -0.92324979951E+01  0.37852574369E+02  0.69377584886E+01  0.39575104531E+02  0.51100000000E-03 0.  1.
         12    1    3    3    0    0  0.15617555838E+02 -0.39211122171E+02 -0.31667781626E+01  0.42325508103E+02  0.00000000000E+00 0. -1.
</event>
<event>
 7    1  0.2524122E-015  0.9000771E+02  0.7816164E-02  0.1186339E+00
        -11   -1    0    0    0    0  0.00000000000E+00  0.00000000000E+00  0.45593999997E+02  0.45594000000E+02  0.51100000000E-03 0. -1.
         11   -1    0    0    0    0 -0.00000000000E+00 -0.00000000000E+00 -0.45593999997E+02  0.45594000000E+02  0.51100000000E-03 0.  1.
    9900012    2    1    2    0    0 -0.18228693771E-01 -0.17266619433E+00  0.11674460816E+01  0.90007713487E+02  0.89999974505E+02 0.  0.
        -12    1    1    2    0    0  0.18228693771E-01  0.17266619433E+00 -0.11674460816E+01  0.11802865132E+01  0.00000000000E+00 0.  1.
         11    1    3    3    0    0  0.31489836161E+01 -0.45232331169E+01 -0.79035723346E+01  0.96354653003E+01  0.51100000000E-03 0. -1.
        -11    1    3    3    0    0 -0.29694137193E+02  0.10158841014E+01 -0.23751945880E+02  0.38038516500E+02  0.51100000000E-03 0.  1.
         12    1    3    3    0    0  0.26526924883E+02  0.33346828212E+01  0.32822964296E+02  0.42333731686E+02  0.00000000000E+00 0. -1.
</event>
<event>
 7    1  0.1910099E-015  0.9000765E+02  0.7816164E-02  0.1186339E+00
        -11   -1    0    0    0    0  0.00000000000E+00  0.00000000000E+00  0.45593999997E+02  0.45594000000E+02  0.51100000000E-03 0.  1.
         11   -1    0    0    0    0 -0.00000000000E+00 -0.00000000000E+00 -0.45593999997E+02  0.45594000000E+02  0.51100000000E-03 0. -1.
    9900012    2    1    2    0    0 -0.60257794582E+00  0.97570785083E+00 -0.27947885937E+00  0.90007654956E+02  0.89999915201E+02 0.  0.
        -12    1    1    2    0    0  0.60257794582E+00 -0.97570785083E+00  0.27947885937E+00  0.11803450444E+01  0.00000000000E+00 0.  1.
         11    1    3    3    0    0  0.77630129994E+01  0.57483889823E+01 -0.88332622615E+01  0.13089494611E+02  0.51100000000E-03 0. -1.
        -11    1    3    3    0    0 -0.30115114383E+02  0.22890035344E+02  0.15794425875E+02  0.40991922635E+02  0.51100000000E-03 0.  1.
         12    1    3    3    0    0  0.21749523438E+02 -0.27662716476E+02 -0.72406424726E+01  0.35926237710E+02  0.00000000000E+00 0. -1.
</event>
<event>
 7    1  0.1910099E-015  0.9000772E+02  0.7816164E-02  0.1186339E+00
        -11   -1    0    0    0    0  0.00000000000E+00  0.00000000000E+00  0.45593999997E+02  0.45594000000E+02  0.51100000000E-03 0.  1.
         11   -1    0    0    0    0 -0.00000000000E+00 -0.00000000000E+00 -0.45593999997E+02  0.45594000000E+02  0.51100000000E-03 0. -1.
    9900012    2    1    2    0    0 -0.87727961977E+00  0.76900515184E+00 -0.17905980236E+00  0.90007724241E+02  0.89999985401E+02 0.  0.
        -12    1    1    2    0    0  0.87727961977E+00 -0.76900515184E+00  0.17905980236E+00  0.11802757591E+01  0.00000000000E+00 0.  1.
         11    1    3    3    0    0  0.33641903679E+02  0.21506281639E+02 -0.21469363227E+01  0.39986337278E+02  0.51100000000E-03 0. -1.
        -11    1    3    3    0    0 -0.16469019456E+02  0.42408232907E+01  0.77120118035E+01  0.18673197646E+02  0.51100000000E-03 0.  1.
        -12    1    3    3    0    0 -0.18050163843E+02 -0.24978099778E+02 -0.57441352832E+01  0.31348189317E+02  0.00000000000E+00 0.  1.
</event>
<event>
 7    1  0.1910099E-015  0.9000772E+02  0.7816164E-02  0.1186339E+00
        -11   -1    0    0    0    0  0.00000000000E+00  0.00000000000E+00  0.45593999997E+02  0.45594000000E+02  0.51100000000E-03 0.  1.
         11   -1    0    0    0    0 -0.00000000000E+00 -0.00000000000E+00 -0.45593999997E+02  0.45594000000E+02  0.51100000000E-03 0. -1.
    9900012    2    1    2    0    0 -0.21160101869E+00 -0.13901185035E+00 -0.11528047677E+01  0.90007721169E+02  0.89999982289E+02 0.  0.
        -12    1    1    2    0    0  0.21160101869E+00  0.13901185035E+00  0.11528047677E+01  0.11802788306E+01  0.00000000000E+00 0.  1.
         11    1    3    3    0    0 -0.12957772269E+02  0.17148031547E+02 -0.24923769342E+02  0.32911291779E+02  0.51100000000E-03 0. -1.
        -11    1    3    3    0    0 -0.98795603207E+01  0.11252462814E+02  0.33588039098E+01  0.15346178530E+02  0.51100000000E-03 0.  1.
        -12    1    3    3    0    0  0.22625731571E+02 -0.28539506211E+02  0.20412160664E+02  0.41750250860E+02  0.00000000000E+00 0.  1.
</event>
<event>
 7    1  0.1910099E-015  0.9000780E+02  0.7816164E-02  0.1186339E+00
        -11   -1    0    0    0    0  0.00000000000E+00  0.00000000000E+00  0.45593999997E+02  0.45594000000E+02  0.51100000000E-03 0. -1.
         11   -1    0    0    0    0 -0.00000000000E+00 -0.00000000000E+00 -0.45593999997E+02  0.45594000000E+02  0.51100000000E-03 0.  1.
    9900012    2    1    2    0    0  0.21663368365E+00  0.19706358330E+00  0.11432831305E+01  0.90007804878E+02  0.90000067103E+02 0.  0.
        -12    1    1    2    0    0 -0.21663368365E+00 -0.19706358330E+00 -0.11432831305E+01  0.11801951217E+01  0.00000000000E+00 0.  1.
         11    1    3    3    0    0 -0.71996360056E+00 -0.99919980690E+01  0.38145638214E+02  0.39439169464E+02  0.51100000000E-03 0. -1.
        -11    1    3    3    0    0  0.16371184294E+01  0.99872935947E+01  0.30029418327E+01  0.10556696927E+02  0.51100000000E-03 0.  1.
        -12    1    3    3    0    0 -0.70052114524E+00  0.20176805766E+00 -0.40005296916E+02  0.40011938488E+02  0.00000000000E+00 0.  1.
</event>
<event>
 7    1  0.1910099E-015  0.9000776E+02  0.7816164E-02  0.1186339E+00
        -11   -1    0    0    0    0  0.00000000000E+00  0.00000000000E+00  0.45593999997E+02  0.45594000000E+02  0.51100000000E-03 0.  1.
         11   -1    0    0    0    0 -0.00000000000E+00 -0.00000000000E+00 -0.45593999997E+02  0.45594000000E+02  0.51100000000E-03 0. -1.
    9900012    2    1    2    0    0 -0.23306172378E+00 -0.45601888218E+00 -0.10633432059E+01  0.90007758600E+02  0.90000020214E+02 0.  0.
        -12    1    1    2    0    0  0.23306172378E+00  0.45601888218E+00  0.10633432059E+01  0.11802413996E+01  0.00000000000E+00 0.  1.
         11    1    3    3    0    0  0.14906366070E+02  0.29313934354E+01 -0.29466677127E+02  0.33152343477E+02  0.51100000000E-03 0. -1.
        -11    1    3    3    0    0 -0.72410693369E+01  0.32194040539E+01 -0.12431395594E+02  0.14742362236E+02  0.51100000000E-03 0.  1.
        -12    1    3    3    0    0 -0.78983584569E+01 -0.66068163714E+01  0.40834729515E+02  0.42113052887E+02  0.00000000000E+00 0.  1.
</event>
<event>
 7    1  0.1910099E-015  0.9000770E+02  0.7816164E-02  0.1186339E+00
        -11   -1    0    0    0    0  0.00000000000E+00  0.00000000000E+00  0.45593999997E+02  0.45594000000E+02  0.51100000000E-03 0. -1.
         11   -1    0    0    0    0 -0.00000000000E+00 -0.00000000000E+00 -0.45593999997E+02  0.45594000000E+02  0.51100000000E-03 0.  1.
    9900012    2    1    2    0    0  0.71412271354E+00  0.82742320026E+00 -0.44555015748E+00  0.90007696927E+02  0.89999957726E+02 0.  0.
        -12    1    1    2    0    0 -0.71412271354E+00 -0.82742320026E+00  0.44555015748E+00  0.11803030734E+01  0.00000000000E+00 0.  1.
         11    1    3    3    0    0  0.32901221936E-02 -0.32638215879E+01 -0.11131914856E+02  0.11600520282E+02  0.51100000000E-03 0. -1.
        -11    1    3    3    0    0  0.36778574840E+02 -0.10333206799E+02  0.32539794055E+00  0.38203986887E+02  0.51100000000E-03 0.  1.
         12    1    3    3    0    0 -0.36067742249E+02  0.14424451587E+02  0.10360966758E+02  0.40203189757E+02  0.00000000000E+00 0. -1.
</event>
<event>
 7    1  0.1910099E-015  0.9000777E+02  0.7816164E-02  0.1186339E+00
        -11   -1    0    0    0    0  0.00000000000E+00  0.00000000000E+00  0.45593999997E+02  0.45594000000E+02  0.51100000000E-03 0.  1.
         11   -1    0    0    0    0 -0.00000000000E+00 -0.00000000000E+00 -0.45593999997E+02  0.45594000000E+02  0.51100000000E-03 0. -1.
    9900012    2    1    2    0    0 -0.58504189131E+00 -0.33540987936E+00 -0.96859671467E+00  0.90007765533E+02  0.90000027238E+02 0.  0.
        -12    1    1    2    0    0  0.58504189131E+00  0.33540987936E+00  0.96859671467E+00  0.11802344671E+01  0.00000000000E+00 0.  1.
         11    1    3    3    0    0  0.95075773982E+01 -0.16676312035E+02 -0.38692191616E+02  0.43192350056E+02  0.51100000000E-03 0. -1.
        -11    1    3    3    0    0 -0.10131913964E+00 -0.45455805943E+01  0.69351581576E+01  0.82927068826E+01  0.51100000000E-03 0.  1.
        -12    1    3    3    0    0 -0.99913001499E+01  0.20886482750E+02  0.30788436743E+02  0.38522708594E+02  0.00000000000E+00 0.  1.
</event>
<event>
 7    1  0.1910099E-015  0.9000762E+02  0.7816164E-02  0.1186339E+00
        -11   -1    0    0    0    0  0.00000000000E+00  0.00000000000E+00  0.45593999997E+02  0.45594000000E+02  0.51100000000E-03 0.  1.
         11   -1    0    0    0    0 -0.00000000000E+00 -0.00000000000E+00 -0.45593999997E+02  0.45594000000E+02  0.51100000000E-03 0. -1.
    9900012    2    1    2    0    0 -0.55816712802E+00 -0.85082734800E+00 -0.59819601065E+00  0.90007620321E+02  0.89999880109E+02 0.  0.
        -12    1    1    2    0    0  0.55816712802E+00  0.85082734800E+00  0.59819601065E+00  0.11803796788E+01  0.00000000000E+00 0.  1.
         11    1    3    3    0    0  0.34979983021E+02 -0.59175531381E+01  0.44495132527E+01  0.35754927154E+02  0.51100000000E-03 0. -1.
        -11    1    3    3    0    0  0.66971805081E+01 -0.41472669215E+00  0.72940458531E+01  0.99109701924E+01  0.51100000000E-03 0.  1.
        -12    1    3    3    0    0 -0.42235330657E+02  0.54814524823E+01 -0.12341755116E+02  0.44341722975E+02  0.00000000000E+00 0.  1.
</event>
<event>
 7    1  0.1910099E-015  0.9000771E+02  0.7816164E-02  0.1186339E+00
        -11   -1    0    0    0    0  0.00000000000E+00  0.00000000000E+00  0.45593999997E+02  0.45594000000E+02  0.51100000000E-03 0.  1.
         11   -1    0    0    0    0 -0.00000000000E+00 -0.00000000000E+00 -0.45593999997E+02  0.45594000000E+02  0.51100000000E-03 0. -1.
    9900012    2    1    2    0    0 -0.10748671691E+01 -0.37420264531E+00 -0.31261113906E+00  0.90007706488E+02  0.89999967413E+02 0.  0.
        -12    1    1    2    0    0  0.10748671691E+01  0.37420264531E+00  0.31261113906E+00  0.11802935123E+01  0.00000000000E+00 0.  1.
         11    1    3    3    0    0 -0.13593133611E+02  0.19087651438E+02 -0.21239384484E+02  0.31626305069E+02  0.51100000000E-03 0. -1.
        -11    1    3    3    0    0 -0.11243410444E+02  0.69550857191E+01 -0.52746286240E+01  0.14234085962E+02  0.51100000000E-03 0.  1.
        -12    1    3    3    0    0  0.23761676886E+02 -0.26416939802E+02  0.26201401969E+02  0.44147315457E+02  0.00000000000E+00 0.  1.
</event>
<event>
 7    1  0.1910099E-015  0.9000749E+02  0.7816164E-02  0.1186340E+00
        -11   -1    0    0    0    0  0.00000000000E+00  0.00000000000E+00  0.45593999997E+02  0.45594000000E+02  0.51100000000E-03 0.  1.
         11   -1    0    0    0    0 -0.00000000000E+00 -0.00000000000E+00 -0.45593999997E+02  0.45594000000E+02  0.51100000000E-03 0. -1.
    9900012    2    1    2    0    0  0.53214631319E+00  0.88196741152E+00 -0.57667368583E+00  0.90007492163E+02  0.89999750259E+02 0.  0.
        -12    1    1    2    0    0 -0.53214631319E+00 -0.88196741152E+00  0.57667368583E+00  0.11805078371E+01  0.00000000000E+00 0.  1.
         11    1    3    3    0    0  0.12876245504E+01  0.11125839264E+02  0.20149108439E+01  0.11379900802E+02  0.51100000000E-03 0. -1.
        -11    1    3    3    0    0 -0.21439060688E+02 -0.33292865354E+02  0.15771552960E+02  0.42623820684E+02  0.51100000000E-03 0.  1.
         12    1    3    3    0    0  0.20683582451E+02  0.23048993502E+02 -0.18363137489E+02  0.36003770676E+02  0.00000000000E+00 0. -1.
</event>
<event>
 7    1  0.1910099E-015  0.9000772E+02  0.7816164E-02  0.1186339E+00
        -11   -1    0    0    0    0  0.00000000000E+00  0.00000000000E+00  0.45593999997E+02  0.45594000000E+02  0.51100000000E-03 0. -1.
         11   -1    0    0    0    0 -0.00000000000E+00 -0.00000000000E+00 -0.45593999997E+02  0.45594000000E+02  0.51100000000E-03 0.  1.
    9900012    2    1    2    0    0 -0.80242165254E+00  0.67670175876E+00 -0.53967815700E+00  0.90007721096E+02  0.89999982214E+02 0.  0.
        -12    1    1    2    0    0  0.80242165254E+00 -0.67670175876E+00  0.53967815700E+00  0.11802789043E+01  0.00000000000E+00 0.  1.
         11    1    3    3    0    0  0.75961340618E+01 -0.45305420073E+01 -0.26744751245E+01  0.92401234308E+01  0.51100000000E-03 0. -1.
        -11    1    3    3    0    0 -0.22054509632E+02 -0.41101008846E+01 -0.34169772493E+02  0.40876248322E+02  0.51100000000E-03 0.  1.
         12    1    3    3    0    0  0.13655953918E+02  0.93173446506E+01  0.36304569460E+02  0.39891349343E+02  0.00000000000E+00 0. -1.
</event>
<event>
 7    1  0.1910099E-015  0.9000749E+02  0.7816164E-02  0.1186340E+00
        -11   -1    0    0    0    0  0.00000000000E+00  0.00000000000E+00  0.45593999997E+02  0.45594000000E+02  0.51100000000E-03 0.  1.
         11   -1    0    0    0    0 -0.00000000000E+00 -0.00000000000E+00 -0.45593999997E+02  0.45594000000E+02  0.51100000000E-03 0. -1.
    9900012    2    1    2    0    0  0.39789562734E-03  0.47200123946E+00 -0.10820399083E+01  0.90007493460E+02  0.89999751573E+02 0.  0.
        -12    1    1    2    0    0 -0.39789562734E-03 -0.47200123946E+00  0.10820399083E+01  0.11805065402E+01  0.00000000000E+00 0.  1.
         11    1    3    3    0    0  0.17506698278E+01  0.11253250599E+01  0.59773128083E+01  0.63292550909E+01  0.51100000000E-03 0. -1.
        -11    1    3    3    0    0 -0.26949406280E+02 -0.28529179202E+02  0.12665755501E+02  0.41238403551E+02  0.51100000000E-03 0.  1.
         12    1    3    3    0    0  0.25199134347E+02  0.27875855382E+02 -0.19725108218E+02  0.42439834818E+02  0.00000000000E+00 0. -1.
</event>
<event>
 7    1  0.1910099E-015  0.9000774E+02  0.7816164E-02  0.1186339E+00
        -11   -1    0    0    0    0  0.00000000000E+00  0.00000000000E+00  0.45593999997E+02  0.45594000000E+02  0.51100000000E-03 0. -1.
         11   -1    0    0    0    0 -0.00000000000E+00 -0.00000000000E+00 -0.45593999997E+02  0.45594000000E+02  0.51100000000E-03 0.  1.
    9900012    2    1    2    0    0 -0.18949410159E+00  0.11648787322E+01  0.12527363652E-01  0.90007742651E+02  0.90000004054E+02 0.  0.
        -12    1    1    2    0    0  0.18949410159E+00 -0.11648787322E+01 -0.12527363652E-01  0.11802573491E+01  0.00000000000E+00 0.  1.
         11    1    3    3    0    0  0.80449420548E+01 -0.64800535282E+01 -0.12843957342E+01  0.10409700239E+02  0.51100000000E-03 0. -1.
        -11    1    3    3    0    0 -0.30467624774E+02 -0.17967763219E+02 -0.18919870210E+02  0.40113316536E+02  0.51100000000E-03 0.  1.
         12    1    3    3    0    0  0.22233188618E+02  0.25612695480E+02  0.20216793308E+02  0.39484725876E+02  0.00000000000E+00 0. -1.
</event>
<event>
 7    1  0.1910099E-015  0.9000770E+02  0.7816164E-02  0.1186339E+00
        -11   -1    0    0    0    0  0.00000000000E+00  0.00000000000E+00  0.45593999997E+02  0.45594000000E+02  0.51100000000E-03 0.  1.
         11   -1    0    0    0    0 -0.00000000000E+00 -0.00000000000E+00 -0.45593999997E+02  0.45594000000E+02  0.51100000000E-03 0. -1.
    9900012    2    1    2    0    0 -0.45169484942E-02 -0.22029476306E+00 -0.11595461072E+01  0.90007704545E+02  0.89999965445E+02 0.  0.
        -12    1    1    2    0    0  0.45169484942E-02  0.22029476306E+00  0.11595461072E+01  0.11802954546E+01  0.00000000000E+00 0.  1.
         11    1    3    3    0    0  0.39002892117E+00 -0.36888510591E+01 -0.67563459115E+01  0.77076556120E+01  0.51100000000E-03 0. -1.
        -11    1    3    3    0    0  0.27547473851E+02  0.31867042809E+02  0.42274478980E+00  0.42125413308E+02  0.51100000000E-03 0.  1.
         12    1    3    3    0    0 -0.27942019721E+02 -0.28398486513E+02  0.51740550145E+01  0.40174635625E+02  0.00000000000E+00 0. -1.
</event>
<event>
 7    1  0.1910099E-015  0.9000841E+02  0.7816164E-02  0.1186338E+00
        -11   -1    0    0    0    0  0.00000000000E+00  0.00000000000E+00  0.45593999997E+02  0.45594000000E+02  0.51100000000E-03 0.  1.
         11   -1    0    0    0    0 -0.00000000000E+00 -0.00000000000E+00 -0.45593999997E+02  0.45594000000E+02  0.51100000000E-03 0. -1.
    9900012    2    1    2    0    0  0.11177674094E+01 -0.29308804182E+00  0.23691666592E+00  0.90008409356E+02  0.90000679557E+02 0.  0.
        -12    1    1    2    0    0 -0.11177674094E+01  0.29308804182E+00 -0.23691666592E+00  0.11795906444E+01  0.00000000000E+00 0.  1.
         11    1    3    3    0    0 -0.85106492381E+01 -0.29208794205E+01 -0.50827335926E+01  0.10334257016E+02  0.51100000000E-03 0. -1.
        -11    1    3    3    0    0 -0.23094579216E+02  0.28851855248E+02  0.73917926782E+01  0.37688562451E+02  0.51100000000E-03 0.  1.
         12    1    3    3    0    0  0.32722995863E+02 -0.26224063869E+02 -0.20721424197E+01  0.41985589888E+02  0.00000000000E+00 0. -1.
</event>
<event>
 7    1  0.2280577E-015  0.9000768E+02  0.7816164E-02  0.1186339E+00
        -11   -1    0    0    0    0  0.00000000000E+00  0.00000000000E+00  0.45593999997E+02  0.45594000000E+02  0.51100000000E-03 0. -1.
         11   -1    0    0    0    0 -0.00000000000E+00 -0.00000000000E+00 -0.45593999997E+02  0.45594000000E+02  0.51100000000E-03 0.  1.
    9900012    2    1    2    0    0  0.18680338405E+00  0.71061466947E+00  0.92373865008E+00  0.90007677245E+02  0.89999937784E+02 0.  0.
        -12    1    1    2    0    0 -0.18680338405E+00 -0.71061466947E+00 -0.92373865008E+00  0.11803227552E+01  0.00000000000E+00 0.  1.
         11    1    3    3    0    0  0.94838208787E+01  0.14661566444E+01  0.83797241706E+00  0.96329991071E+01  0.51100000000E-03 0. -1.
        -11    1    3    3    0    0  0.19256342718E+02  0.30388518279E+02 -0.91577379312E+01  0.37123212986E+02  0.51100000000E-03 0.  1.
         12    1    3    3    0    0 -0.28553360213E+02 -0.31144060254E+02  0.92435041643E+01  0.43251465152E+02  0.00000000000E+00 0. -1.
</event>
<event>
 7    1  0.1910099E-015  0.9000805E+02  0.7816164E-02  0.1186338E+00
        -11   -1    0    0    0    0  0.00000000000E+00  0.00000000000E+00  0.45593999997E+02  0.45594000000E+02  0.51100000000E-03 0.  1.
         11   -1    0    0    0    0 -0.00000000000E+00 -0.00000000000E+00 -0.45593999997E+02  0.45594000000E+02  0.51100000000E-03 0. -1.
    9900012    2    1    2    0    0 -0.68766860881E+00  0.34979413587E+00 -0.89276345576E+00  0.90008054814E+02  0.90000320337E+02 0.  0.
        -12    1    1    2    0    0  0.68766860881E+00 -0.34979413587E+00  0.89276345576E+00  0.11799451856E+01  0.00000000000E+00 0.  1.
         11    1    3    3    0    0 -0.27421575137E+01  0.12267810350E+01 -0.37747814489E+02  0.37867161479E+02  0.51100000000E-03 0. -1.
        -11    1    3    3    0    0 -0.35667769838E+01  0.88045222092E+01 -0.36050010382E+01  0.10160587686E+02  0.51100000000E-03 0.  1.
        -12    1    3    3    0    0  0.56212658887E+01 -0.96815091083E+01  0.40460052071E+02  0.41980305649E+02  0.00000000000E+00 0.  1.
</event>
<event>
 7    1  0.1910099E-015  0.9000779E+02  0.7816164E-02  0.1186339E+00
        -11   -1    0    0    0    0  0.00000000000E+00  0.00000000000E+00  0.45593999997E+02  0.45594000000E+02  0.51100000000E-03 0.  1.
         11   -1    0    0    0    0 -0.00000000000E+00 -0.00000000000E+00 -0.45593999997E+02  0.45594000000E+02  0.51100000000E-03 0. -1.
    9900012    2    1    2    0    0 -0.74327987534E+00 -0.86233841030E+00 -0.31111772935E+00  0.90007793769E+02  0.90000055846E+02 0.  0.
        -12    1    1    2    0    0  0.74327987534E+00  0.86233841030E+00  0.31111772935E+00  0.11802062313E+01  0.00000000000E+00 0.  1.
         11    1    3    3    0    0  0.75169733394E+01 -0.77765922194E+01 -0.39172566984E+01  0.11503268015E+02  0.51100000000E-03 0. -1.
        -11    1    3    3    0    0 -0.26769092461E+01 -0.35086035099E+02  0.74255069231E+01  0.35962951149E+02  0.51100000000E-03 0.  1.
         12    1    3    3    0    0 -0.55833439687E+01  0.42000288908E+02 -0.38193679541E+01  0.42541574604E+02  0.00000000000E+00 0. -1.
</event>
<event>
 7    1  0.1910099E-015  0.9000794E+02  0.7816164E-02  0.1186339E+00
        -11   -1    0    0    0    0  0.00000000000E+00  0.00000000000E+00  0.45593999997E+02  0.45594000000E+02  0.51100000000E-03 0. -1.
         11   -1    0    0    0    0 -0.00000000000E+00 -0.00000000000E+00 -0.45593999997E+02  0.45594000000E+02  0.51100000000E-03 0.  1.
    9900012    2    1    2    0    0  0.33395650639E-01 -0.34314395119E+00  0.11285691885E+01  0.90007944300E+02  0.90000208365E+02 0.  0.
        -12    1    1    2    0    0 -0.33395650639E-01  0.34314395119E+00 -0.11285691885E+01  0.11800556995E+01  0.00000000000E+00 0.  1.
         11    1    3    3    0    0  0.53208933386E+01 -0.73331384648E+01 -0.17551693648E+00  0.90618779577E+01  0.51100000000E-03 0. -1.
        -11    1    3    3    0    0 -0.39506637870E+02 -0.86545817439E+01  0.11342971902E+02  0.42004038292E+02  0.51100000000E-03 0.  1.
         12    1    3    3    0    0  0.34219140182E+02  0.15644576257E+02 -0.10038885777E+02  0.38942028051E+02  0.00000000000E+00 0. -1.
</event>
<event>
 7    1  0.1910099E-015  0.9000769E+02  0.7816164E-02  0.1186339E+00
        -11   -1    0    0    0    0  0.00000000000E+00  0.00000000000E+00  0.45593999997E+02  0.45594000000E+02  0.51100000000E-03 0.  1.
         11   -1    0    0    0    0 -0.00000000000E+00 -0.00000000000E+00 -0.45593999997E+02  0.45594000000E+02  0.51100000000E-03 0. -1.
    9900012    2    1    2    0    0 -0.68251608374E+00  0.23832914339E+00 -0.93300255105E+00  0.90007693792E+02  0.89999954550E+02 0.  0.
        -12    1    1    2    0    0  0.68251608374E+00 -0.23832914339E+00  0.93300255105E+00  0.11803062083E+01  0.00000000000E+00 0.  1.
         11    1    3    3    0    0  0.37957343010E+02  0.42383677460E+01 -0.48145955878E+01  0.38495505977E+02  0.51100000000E-03 0. -1.
        -11    1    3    3    0    0  0.25259692158E+01 -0.28444312231E+01  0.92310381256E+01  0.99841561787E+01  0.51100000000E-03 0.  1.
        -12    1    3    3    0    0 -0.41165828309E+02 -0.11556073795E+01 -0.53494450888E+01  0.41528031636E+02  0.00000000000E+00 0.  1.
</event>
<event>
 7    1  0.1910099E-015  0.9000779E+02  0.7816164E-02  0.1186339E+00
        -11   -1    0    0    0    0  0.00000000000E+00  0.00000000000E+00  0.45593999997E+02  0.45594000000E+02  0.51100000000E-03 0.  1.
         11   -1    0    0    0    0 -0.00000000000E+00 -0.00000000000E+00 -0.45593999997E+02  0.45594000000E+02  0.51100000000E-03 0. -1.
    9900012    2    1    2    0    0  0.34789323160E-01 -0.41644177629E+00 -0.11037449718E+01  0.90007793657E+02  0.90000055733E+02 0.  0.
        -12    1    1    2    0    0 -0.34789323160E-01  0.41644177629E+00  0.11037449718E+01  0.11802063433E+01  0.00000000000E+00 0.  1.
         11    1    3    3    0    0  0.14989060987E+01  0.78400535304E+01 -0.56853488707E+01  0.97998138194E+01  0.51100000000E-03 0. -1.
        -11    1    3    3    0    0 -0.34231648560E+02 -0.23202190166E+02 -0.78798440245E+01  0.42097973036E+02  0.51100000000E-03 0.  1.
         12    1    3    3    0    0  0.32767531784E+02  0.14945694859E+02  0.12461447923E+02  0.38110006801E+02  0.00000000000E+00 0. -1.
</event>
<event>
 7    1  0.1910099E-015  0.9000760E+02  0.7816164E-02  0.1186339E+00
        -11   -1    0    0    0    0  0.00000000000E+00  0.00000000000E+00  0.45593999997E+02  0.45594000000E+02  0.51100000000E-03 0.  1.
         11   -1    0    0    0    0 -0.00000000000E+00 -0.00000000000E+00 -0.45593999997E+02  0.45594000000E+02  0.51100000000E-03 0. -1.
    9900012    2    1    2    0    0  0.47893556107E+00  0.49246167455E+00 -0.95991581049E+00  0.90007603399E+02  0.89999862964E+02 0.  0.
        -12    1    1    2    0    0 -0.47893556107E+00 -0.49246167455E+00  0.95991581049E+00  0.11803966011E+01  0.00000000000E+00 0.  1.
         11    1    3    3    0    0  0.17489958268E+02 -0.19380502521E+01 -0.27698994179E+02  0.32815986314E+02  0.51100000000E-03 0. -1.
        -11    1    3    3    0    0 -0.10284396270E+02  0.12594319255E+00 -0.13138279139E+02  0.16685294343E+02  0.51100000000E-03 0.  1.
        -12    1    3    3    0    0 -0.67266264371E+01  0.23045687341E+01  0.39877357508E+02  0.40506322742E+02  0.00000000000E+00 0.  1.
</event>
<event>
 7    1  0.1910099E-015  0.9000771E+02  0.7816164E-02  0.1186339E+00
        -11   -1    0    0    0    0  0.00000000000E+00  0.00000000000E+00  0.45593999997E+02  0.45594000000E+02  0.51100000000E-03 0.  1.
         11   -1    0    0    0    0 -0.00000000000E+00 -0.00000000000E+00 -0.45593999997E+02  0.45594000000E+02  0.51100000000E-03 0. -1.
    9900012    2    1    2    0    0  0.29294955109E+00 -0.57472536384E+00 -0.98841210237E+00  0.90007708863E+02  0.89999969820E+02 0.  0.
        -12    1    1    2    0    0 -0.29294955109E+00  0.57472536384E+00  0.98841210237E+00  0.11802911367E+01  0.00000000000E+00 0.  1.
         11    1    3    3    0    0 -0.15200364274E+02 -0.15383266110E+02 -0.34451274639E+02  0.40676605988E+02  0.51100000000E-03 0. -1.
        -11    1    3    3    0    0 -0.73423669303E+01 -0.16271111976E+00  0.18802585251E+01  0.75810421072E+01  0.51100000000E-03 0.  1.
        -12    1    3    3    0    0  0.22835680755E+02  0.14971251866E+02  0.31582604011E+02  0.41750060768E+02  0.00000000000E+00 0.  1.
</event>
<event>
 7    1  0.1910099E-015  0.9000782E+02  0.7816164E-02  0.1186339E+00
        -11   -1    0    0    0    0  0.00000000000E+00  0.00000000000E+00  0.45593999997E+02  0.45594000000E+02  0.51100000000E-03 0.  1.
         11   -1    0    0    0    0 -0.00000000000E+00 -0.00000000000E+00 -0.45593999997E+02  0.45594000000E+02  0.51100000000E-03 0. -1.
    9900012    2    1    2    0    0 -0.58270271706E+00  0.64252117986E+00 -0.80028101419E+00  0.90007819664E+02  0.90000082084E+02 0.  0.
        -12    1    1    2    0    0  0.58270271706E+00 -0.64252117986E+00  0.80028101419E+00  0.11801803357E+01  0.00000000000E+00 0.  1.
         11    1    3    3    0    0  0.43226934516E+02  0.34491685288E+01  0.46990696832E+01  0.43618182990E+02  0.51100000000E-03 0. -1.
        -11    1    3    3    0    0 -0.84224400356E+01  0.63619937416E+00  0.43438528811E+01  0.94979631454E+01  0.51100000000E-03 0.  1.
        -12    1    3    3    0    0 -0.35387197198E+02 -0.34428467231E+01 -0.98432035785E+01  0.36891673529E+02  0.00000000000E+00 0.  1.
</event>
<event>
 7    1  0.1910099E-015  0.9000791E+02  0.7816164E-02  0.1186339E+00
        -11   -1    0    0    0    0  0.00000000000E+00  0.00000000000E+00  0.45593999997E+02  0.45594000000E+02  0.51100000000E-03 0.  1.
         11   -1    0    0    0    0 -0.00000000000E+00 -0.00000000000E+00 -0.45593999997E+02  0.45594000000E+02  0.51100000000E-03 0. -1.
    9900012    2    1    2    0    0 -0.64390558168E+00 -0.77216001354E+00 -0.61787272204E+00  0.90007910094E+02  0.90000173707E+02 0.  0.
        -12    1    1    2    0    0  0.64390558168E+00  0.77216001354E+00  0.61787272204E+00  0.11800899056E+01  0.00000000000E+00 0.  1.
         11    1    3    3    0    0 -0.16833004143E+02 -0.28005775202E+02  0.18764220736E+02  0.37679828201E+02  0.51100000000E-03 0. -1.
        -11    1    3    3    0    0  0.40339820133E+01  0.28696875118E+01  0.10678138557E+02  0.11769909116E+02  0.51100000000E-03 0.  1.
        -12    1    3    3    0    0  0.12155116548E+02  0.24363927677E+02 -0.30060232016E+02  0.40558172777E+02  0.00000000000E+00 0.  1.
</event>
<event>
 7    1  0.1910099E-015  0.9000768E+02  0.7816164E-02  0.1186339E+00
        -11   -1    0    0    0    0  0.00000000000E+00  0.00000000000E+00  0.45593999997E+02  0.45594000000E+02  0.51100000000E-03 0.  1.
         11   -1    0    0    0    0 -0.00000000000E+00 -0.00000000000E+00 -0.45593999997E+02  0.45594000000E+02  0.51100000000E-03 0. -1.
    9900012    2    1    2    0    0  0.11041601783E+00 -0.59087956587E+00 -0.10157838506E+01  0.90007683437E+02  0.89999944058E+02 0.  0.
        -12    1    1    2    0    0 -0.11041601783E+00  0.59087956587E+00  0.10157838506E+01  0.11803165632E+01  0.00000000000E+00 0.  1.
         11    1    3    3    0    0  0.11301175225E+02 -0.28507293614E+02  0.18789729811E+02  0.35964375391E+02  0.51100000000E-03 0. -1.
        -11    1    3    3    0    0  0.85972385696E+01 -0.56189088718E+01  0.18748248308E+00  0.10272282992E+02  0.51100000000E-03 0.  1.
        -12    1    3    3    0    0 -0.19787997777E+02  0.33535322920E+02 -0.19992996144E+02  0.43771025053E+02  0.00000000000E+00 0.  1.
</event>
<event>
 7    1  0.1910099E-015  0.9000777E+02  0.7816164E-02  0.1186339E+00
        -11   -1    0    0    0    0  0.00000000000E+00  0.00000000000E+00  0.45593999997E+02  0.45594000000E+02  0.51100000000E-03 0. -1.
         11   -1    0    0    0    0 -0.00000000000E+00 -0.00000000000E+00 -0.45593999997E+02  0.45594000000E+02  0.51100000000E-03 0.  1.
    9900012    2    1    2    0    0 -0.43707610821E+00 -0.84588557783E+00 -0.69741604347E+00  0.90007768212E+02  0.90000029953E+02 0.  0.
        -12    1    1    2    0    0  0.43707610821E+00  0.84588557783E+00  0.69741604347E+00  0.11802317878E+01  0.00000000000E+00 0.  1.
         11    1    3    3    0    0 -0.28191423465E+02 -0.20041070849E+02  0.10338452772E+02  0.36101031616E+02  0.51100000000E-03 0. -1.
        -11    1    3    3    0    0 -0.49795524190E+01 -0.16016817802E+01  0.88830936646E+01  0.10308767149E+02  0.51100000000E-03 0.  1.
        -12    1    3    3    0    0  0.32733899776E+02  0.20796867051E+02 -0.19918962480E+02  0.43597969447E+02  0.00000000000E+00 0.  1.
</event>
<event>
 7    1  0.1910099E-015  0.9000779E+02  0.7816164E-02  0.1186339E+00
        -11   -1    0    0    0    0  0.00000000000E+00  0.00000000000E+00  0.45593999997E+02  0.45594000000E+02  0.51100000000E-03 0.  1.
         11   -1    0    0    0    0 -0.00000000000E+00 -0.00000000000E+00 -0.45593999997E+02  0.45594000000E+02  0.51100000000E-03 0. -1.
    9900012    2    1    2    0    0 -0.94979281840E+00  0.69612502869E+00 -0.78699523512E-01  0.90007792362E+02  0.90000054421E+02 0.  0.
        -12    1    1    2    0    0  0.94979281840E+00 -0.69612502869E+00  0.78699523512E-01  0.11802076379E+01  0.00000000000E+00 0.  1.
         11    1    3    3    0    0  0.77399491500E+01 -0.23700192728E+02 -0.27537699907E+02  0.37147420699E+02  0.51100000000E-03 0. -1.
        -11    1    3    3    0    0 -0.81421538837E+01  0.72569236344E+00 -0.71951979063E+01  0.10890003326E+02  0.51100000000E-03 0.  1.
        -12    1    3    3    0    0 -0.54758808472E+00  0.23670625393E+02  0.34654198290E+02  0.41970368337E+02  0.00000000000E+00 0.  1.
</event>
<event>
 7    1  0.1910099E-015  0.9000768E+02  0.7816164E-02  0.1186339E+00
        -11   -1    0    0    0    0  0.00000000000E+00  0.00000000000E+00  0.45593999997E+02  0.45594000000E+02  0.51100000000E-03 0.  1.
         11   -1    0    0    0    0 -0.00000000000E+00 -0.00000000000E+00 -0.45593999997E+02  0.45594000000E+02  0.51100000000E-03 0. -1.
    9900012    2    1    2    0    0 -0.10061745177E+01 -0.46493283079E+00  0.40572481501E+00  0.90007677026E+02  0.89999937563E+02 0.  0.
        -12    1    1    2    0    0  0.10061745177E+01  0.46493283079E+00 -0.40572481501E+00  0.11803229739E+01  0.00000000000E+00 0.  1.
         11    1    3    3    0    0  0.92243638266E+01  0.48076865111E+01 -0.36635066167E+01  0.11028328005E+02  0.51100000000E-03 0. -1.
        -11    1    3    3    0    0 -0.14722133244E+02 -0.27558268372E+02  0.30810682778E+02  0.43880491525E+02  0.51100000000E-03 0.  1.
         12    1    3    3    0    0  0.44915948996E+01  0.22285649031E+02 -0.26741451346E+02  0.35098857496E+02  0.00000000000E+00 0. -1.
</event>
<event>
 7    1  0.1910099E-015  0.9000767E+02  0.7816164E-02  0.1186339E+00
        -11   -1    0    0    0    0  0.00000000000E+00  0.00000000000E+00  0.45593999997E+02  0.45594000000E+02  0.51100000000E-03 0.  1.
         11   -1    0    0    0    0 -0.00000000000E+00 -0.00000000000E+00 -0.45593999997E+02  0.45594000000E+02  0.51100000000E-03 0. -1.
    9900012    2    1    2    0    0 -0.98275790863E+00 -0.22292840727E+00 -0.61455578032E+00  0.90007665730E+02  0.89999926118E+02 0.  0.
        -12    1    1    2    0    0  0.98275790863E+00  0.22292840727E+00  0.61455578032E+00  0.11803342700E+01  0.00000000000E+00 0.  1.
         11    1    3    3    0    0 -0.22585432310E+02 -0.22041326207E+02 -0.15239319603E+02  0.35045094889E+02  0.51100000000E-03 0. -1.
        -11    1    3    3    0    0 -0.50194802033E+01 -0.85858743326E+01 -0.36713550098E+01  0.10601474776E+02  0.51100000000E-03 0.  1.
        -12    1    3    3    0    0  0.26622154604E+02  0.30404272132E+02  0.18296118833E+02  0.44361096064E+02  0.00000000000E+00 0.  1.
</event>
<event>
 7    1  0.1910099E-015  0.9000769E+02  0.7816164E-02  0.1186339E+00
        -11   -1    0    0    0    0  0.00000000000E+00  0.00000000000E+00  0.45593999997E+02  0.45594000000E+02  0.51100000000E-03 0.  1.
         11   -1    0    0    0    0 -0.00000000000E+00 -0.00000000000E+00 -0.45593999997E+02  0.45594000000E+02  0.51100000000E-03 0. -1.
    9900012    2    1    2    0    0 -0.75455888592E+00 -0.33714591062E-02 -0.90761626204E+00  0.90007687432E+02  0.89999948106E+02 0.  0.
        -12    1    1    2    0    0  0.75455888592E+00  0.33714591062E-02  0.90761626204E+00  0.11803125680E+01  0.00000000000E+00 0.  1.
         11    1    3    3    0    0 -0.13718554531E+01 -0.11795085363E+01  0.27469598846E+01  0.32892273622E+01  0.51100000000E-03 0. -1.
        -11    1    3    3    0    0 -0.37657729535E+02  0.72015977784E+01  0.17973935693E+02  0.42344184593E+02  0.51100000000E-03 0.  1.
         12    1    3    3    0    0  0.38275026102E+02 -0.60254607012E+01 -0.21628511839E+02  0.44374275477E+02  0.00000000000E+00 0. -1.
</event>
<event>
 7    1  0.1910099E-015  0.9000857E+02  0.7816164E-02  0.1186337E+00
        -11   -1    0    0    0    0  0.00000000000E+00  0.00000000000E+00  0.45593999997E+02  0.45594000000E+02  0.51100000000E-03 0. -1.
         11   -1    0    0    0    0 -0.00000000000E+00 -0.00000000000E+00 -0.45593999997E+02  0.45594000000E+02  0.51100000000E-03 0.  1.
    9900012    2    1    2    0    0  0.85333046001E+00  0.27949521475E+00  0.76470376271E+00  0.90008566961E+02  0.90000839241E+02 0.  0.
        -12    1    1    2    0    0 -0.85333046001E+00 -0.27949521475E+00 -0.76470376271E+00  0.11794330391E+01  0.00000000000E+00 0.  1.
         11    1    3    3    0    0  0.34174417569E+02 -0.73635331047E+01  0.23588270780E+02  0.42172490496E+02  0.51100000000E-03 0. -1.
        -11    1    3    3    0    0 -0.52515269659E+01 -0.75776223286E+01 -0.12577480864E+01  0.93048818444E+01  0.51100000000E-03 0.  1.
        -12    1    3    3    0    0 -0.28069560143E+02  0.15220650648E+02 -0.21565818931E+02  0.38531194621E+02  0.00000000000E+00 0.  1.
</event>
<event>
 7    1  0.1910099E-015  0.9000772E+02  0.7816164E-02  0.1186339E+00
        -11   -1    0    0    0    0  0.00000000000E+00  0.00000000000E+00  0.45593999997E+02  0.45594000000E+02  0.51100000000E-03 0. -1.
         11   -1    0    0    0    0 -0.00000000000E+00 -0.00000000000E+00 -0.45593999997E+02  0.45594000000E+02  0.51100000000E-03 0.  1.
    9900012    2    1    2    0    0 -0.92923615340E+00 -0.70392329509E+00  0.18459059928E+00  0.90007719727E+02  0.89999980827E+02 0.  0.
        -12    1    1    2    0    0  0.92923615340E+00  0.70392329509E+00 -0.18459059928E+00  0.11802802733E+01  0.00000000000E+00 0.  1.
         11    1    3    3    0    0 -0.19861807633E+02 -0.15322656823E+02  0.29875782846E+02  0.39010737182E+02  0.51100000000E-03 0. -1.
        -11    1    3    3    0    0  0.47208529485E+00  0.19077475155E+01  0.74017729645E+01  0.76582379428E+01  0.51100000000E-03 0.  1.
        -12    1    3    3    0    0  0.18460486184E+02  0.12710986012E+02 -0.37092965211E+02  0.43338744602E+02  0.00000000000E+00 0.  1.
</event>
<event>
 7    1  0.1910099E-015  0.9000775E+02  0.7816164E-02  0.1186339E+00
        -11   -1    0    0    0    0  0.00000000000E+00  0.00000000000E+00  0.45593999997E+02  0.45594000000E+02  0.51100000000E-03 0. -1.
         11   -1    0    0    0    0 -0.00000000000E+00 -0.00000000000E+00 -0.45593999997E+02  0.45594000000E+02  0.51100000000E-03 0.  1.
    9900012    2    1    2    0    0 -0.71491533814E+00  0.27575044687E+00  0.89768661219E+00  0.90007752779E+02  0.90000014315E+02 0.  0.
        -12    1    1    2    0    0  0.71491533814E+00 -0.27575044687E+00 -0.89768661219E+00  0.11802472213E+01  0.00000000000E+00 0.  1.
         11    1    3    3    0    0  0.45972180123E+01 -0.33467816967E+01 -0.85966991228E+01  0.10307210934E+02  0.51100000000E-03 0. -1.
        -11    1    3    3    0    0 -0.13816756992E+02  0.27538288572E+02 -0.23013840547E+02  0.38456429479E+02  0.51100000000E-03 0.  1.
         12    1    3    3    0    0  0.85046236415E+01 -0.23915756428E+02  0.32508226282E+02  0.41244112366E+02  0.00000000000E+00 0. -1.
</event>
<event>
 7    1  0.1910099E-015  0.9000769E+02  0.7816164E-02  0.1186339E+00
        -11   -1    0    0    0    0  0.00000000000E+00  0.00000000000E+00  0.45593999997E+02  0.45594000000E+02  0.51100000000E-03 0.  1.
         11   -1    0    0    0    0 -0.00000000000E+00 -0.00000000000E+00 -0.45593999997E+02  0.45594000000E+02  0.51100000000E-03 0. -1.
    9900012    2    1    2    0    0 -0.22264004936E+00  0.82409720612E+00 -0.81511812536E+00  0.90007693957E+02  0.89999954717E+02 0.  0.
        -12    1    1    2    0    0  0.22264004936E+00 -0.82409720612E+00  0.81511812536E+00  0.11803060429E+01  0.00000000000E+00 0.  1.
         11    1    3    3    0    0 -0.31234965737E+02  0.53960377380E+01 -0.15852555997E+02  0.35440708793E+02  0.51100000000E-03 0. -1.
        -11    1    3    3    0    0 -0.81144522369E+01 -0.77046648454E+01 -0.26731492475E+01  0.11504430566E+02  0.51100000000E-03 0.  1.
        -12    1    3    3    0    0  0.39126777925E+02  0.31327243134E+01  0.17710587119E+02  0.43062554598E+02  0.00000000000E+00 0.  1.
</event>
<event>
 7    1  0.1910099E-015  0.9000778E+02  0.7816164E-02  0.1186339E+00
        -11   -1    0    0    0    0  0.00000000000E+00  0.00000000000E+00  0.45593999997E+02  0.45594000000E+02  0.51100000000E-03 0.  1.
         11   -1    0    0    0    0 -0.00000000000E+00 -0.00000000000E+00 -0.45593999997E+02  0.45594000000E+02  0.51100000000E-03 0. -1.
    9900012    2    1    2    0    0 -0.20334253621E+00 -0.10081238947E+01 -0.57900975486E+00  0.90007782109E+02  0.90000044033E+02 0.  0.
        -12    1    1    2    0    0  0.20334253621E+00  0.10081238947E+01  0.57900975486E+00  0.11802178911E+01  0.00000000000E+00 0.  1.
         11    1    3    3    0    0 -0.38925276052E+01  0.21467992138E-01  0.72856490544E+01  0.82603216908E+01  0.51100000000E-03 0. -1.
        -11    1    3    3    0    0 -0.20249905111E+02 -0.57196004315E+01  0.30036937471E+02  0.36674106656E+02  0.51100000000E-03 0.  1.
         12    1    3    3    0    0  0.23939090180E+02  0.46900085446E+01 -0.37901596280E+02  0.45073353762E+02  0.00000000000E+00 0. -1.
</event>
<event>
 7    1  0.1910099E-015  0.9000775E+02  0.7816164E-02  0.1186339E+00
        -11   -1    0    0    0    0  0.00000000000E+00  0.00000000000E+00  0.45593999997E+02  0.45594000000E+02  0.51100000000E-03 0.  1.
         11   -1    0    0    0    0 -0.00000000000E+00 -0.00000000000E+00 -0.45593999997E+02  0.45594000000E+02  0.51100000000E-03 0. -1.
    9900012    2    1    2    0    0  0.76908616259E+00 -0.83652894667E+00  0.31893913873E+00  0.90007747324E+02  0.90000008789E+02 0.  0.
        -12    1    1    2    0    0 -0.76908616259E+00  0.83652894667E+00 -0.31893913873E+00  0.11802526756E+01  0.00000000000E+00 0.  1.
         11    1    3    3    0    0 -0.31496928112E+02  0.60977590294E+01 -0.28106486448E+02  0.42652241751E+02  0.51100000000E-03 0. -1.
        -11    1    3    3    0    0  0.21268578382E+00  0.17173380091E+01  0.84149112234E+01  0.85909962308E+01  0.51100000000E-03 0.  1.
        -12    1    3    3    0    0  0.32053328491E+02 -0.86516259852E+01  0.20010514363E+02  0.38764509343E+02  0.00000000000E+00 0.  1.
</event>
<event>
 7    1  0.1910099E-015  0.9000777E+02  0.7816164E-02  0.1186339E+00
        -11   -1    0    0    0    0  0.00000000000E+00  0.00000000000E+00  0.45593999997E+02  0.45594000000E+02  0.51100000000E-03 0. -1.
         11   -1    0    0    0    0 -0.00000000000E+00 -0.00000000000E+00 -0.45593999997E+02  0.45594000000E+02  0.51100000000E-03 0.  1.
    9900012    2    1    2    0    0 -0.11924323601E+00 -0.82414838677E-01  0.11712902588E+01  0.90007774587E+02  0.90000036412E+02 0.  0.
        -12    1    1    2    0    0  0.11924323601E+00  0.82414838677E-01 -0.11712902588E+01  0.11802254129E+01  0.00000000000E+00 0.  1.
         11    1    3    3    0    0  0.15949261767E+02  0.32711201541E+02 -0.74797886152E+01  0.37153046916E+02  0.51100000000E-03 0. -1.
        -11    1    3    3    0    0  0.66214098026E+01  0.41419153380E+01 -0.23054262800E+01  0.81433114294E+01  0.51100000000E-03 0.  1.
        -12    1    3    3    0    0 -0.22689914806E+02 -0.36935531717E+02  0.10956505154E+02  0.44711416242E+02  0.00000000000E+00 0.  1.
</event>
<event>
 7    1  0.1910099E-015  0.9000898E+02  0.7816164E-02  0.1186337E+00
        -11   -1    0    0    0    0  0.00000000000E+00  0.00000000000E+00  0.45593999997E+02  0.45594000000E+02  0.51100000000E-03 0.  1.
         11   -1    0    0    0    0 -0.00000000000E+00 -0.00000000000E+00 -0.45593999997E+02  0.45594000000E+02  0.51100000000E-03 0. -1.
    9900012    2    1    2    0    0 -0.50262560329E+00 -0.94144481031E+00 -0.50114046624E+00  0.90008978119E+02  0.90001255822E+02 0.  0.
        -12    1    1    2    0    0  0.50262560329E+00  0.94144481031E+00  0.50114046624E+00  0.11790218806E+01  0.00000000000E+00 0.  1.
         11    1    3    3    0    0  0.80816653815E+01 -0.28374314532E+01  0.24514422982E+01  0.89092032299E+01  0.51100000000E-03 0. -1.
        -11    1    3    3    0    0 -0.12941373701E+02  0.39301159731E+02 -0.10509684166E+02  0.42690909700E+02  0.51100000000E-03 0.  1.
         12    1    3    3    0    0  0.43570827163E+01 -0.37405173088E+02  0.75571014016E+01  0.38408865190E+02  0.00000000000E+00 0. -1.
</event>
<event>
 7    1  0.1910099E-015  0.9000777E+02  0.7816164E-02  0.1186339E+00
        -11   -1    0    0    0    0  0.00000000000E+00  0.00000000000E+00  0.45593999997E+02  0.45594000000E+02  0.51100000000E-03 0.  1.
         11   -1    0    0    0    0 -0.00000000000E+00 -0.00000000000E+00 -0.45593999997E+02  0.45594000000E+02  0.51100000000E-03 0. -1.
    9900012    2    1    2    0    0  0.21793262289E+00  0.48450568266E+00 -0.10538942135E+01  0.90007774006E+02  0.90000035822E+02 0.  0.
        -12    1    1    2    0    0 -0.21793262289E+00 -0.48450568266E+00  0.10538942135E+01  0.11802259944E+01  0.00000000000E+00 0.  1.
         11    1    3    3    0    0 -0.76316223004E+01 -0.69933317295E+01 -0.25951784028E+01  0.10671611819E+02  0.51100000000E-03 0. -1.
        -11    1    3    3    0    0 -0.22997853266E+02 -0.67439172548E+01  0.27578562578E+02  0.36537087855E+02  0.51100000000E-03 0.  1.
         12    1    3    3    0    0  0.30847408189E+02  0.14221754667E+02 -0.26037278389E+02  0.42799074332E+02  0.00000000000E+00 0. -1.
</event>
<event>
 7    1  0.1910099E-015  0.9000772E+02  0.7816164E-02  0.1186339E+00
        -11   -1    0    0    0    0  0.00000000000E+00  0.00000000000E+00  0.45593999997E+02  0.45594000000E+02  0.51100000000E-03 0. -1.
         11   -1    0    0    0    0 -0.00000000000E+00 -0.00000000000E+00 -0.45593999997E+02  0.45594000000E+02  0.51100000000E-03 0.  1.
    9900012    2    1    2    0    0  0.28225010693E+00 -0.11418881780E+01  0.97452504141E-01  0.90007715829E+02  0.89999976878E+02 0.  0.
        -12    1    1    2    0    0 -0.28225010693E+00  0.11418881780E+01 -0.97452504141E-01  0.11802841710E+01  0.00000000000E+00 0.  1.
         11    1    3    3    0    0 -0.41182470289E+01 -0.20893325483E+02  0.29918932999E+02  0.36723746546E+02  0.51100000000E-03 0. -1.
        -11    1    3    3    0    0 -0.81517186557E+01 -0.18825494317E+01  0.54936524282E+01  0.10008732521E+02  0.51100000000E-03 0.  1.
        -12    1    3    3    0    0  0.12552215791E+02  0.21633986737E+02 -0.35315132924E+02  0.43275236762E+02  0.00000000000E+00 0.  1.
</event>
<event>
 7    1  0.1910099E-015  0.9000792E+02  0.7816164E-02  0.1186339E+00
        -11   -1    0    0    0    0  0.00000000000E+00  0.00000000000E+00  0.45593999997E+02  0.45594000000E+02  0.51100000000E-03 0. -1.
         11   -1    0    0    0    0 -0.00000000000E+00 -0.00000000000E+00 -0.45593999997E+02  0.45594000000E+02  0.51100000000E-03 0.  1.
    9900012    2    1    2    0    0 -0.66826375838E+00 -0.88163290733E+00  0.41077955026E+00  0.90007918277E+02  0.90000181998E+02 0.  0.
        -12    1    1    2    0    0  0.66826375838E+00  0.88163290733E+00 -0.41077955026E+00  0.11800817230E+01  0.00000000000E+00 0.  1.
         11    1    3    3    0    0 -0.24825847518E+00 -0.26888497473E+01 -0.89069383716E+01  0.93072604267E+01  0.51100000000E-03 0. -1.
        -11    1    3    3    0    0  0.20473212114E+02  0.35213567993E+02  0.37010559787E+01  0.40900435214E+02  0.51100000000E-03 0.  1.
         12    1    3    3    0    0 -0.20893217397E+02 -0.33406351153E+02  0.56166619431E+01  0.39800222637E+02  0.00000000000E+00 0. -1.
</event>
<event>
 7    1  0.1910099E-015  0.9000772E+02  0.7816164E-02  0.1186339E+00
        -11   -1    0    0    0    0  0.00000000000E+00  0.00000000000E+00  0.45593999997E+02  0.45594000000E+02  0.51100000000E-03 0. -1.
         11   -1    0    0    0    0 -0.00000000000E+00 -0.00000000000E+00 -0.45593999997E+02  0.45594000000E+02  0.51100000000E-03 0.  1.
    9900012    2    1    2    0    0  0.92215853465E+00 -0.33897424370E+00  0.65404776170E+00  0.90007721060E+02  0.89999982178E+02 0.  0.
        -12    1    1    2    0    0 -0.92215853465E+00  0.33897424370E+00 -0.65404776170E+00  0.11802789397E+01  0.00000000000E+00 0.  1.
         11    1    3    3    0    0 -0.31655800848E+02  0.12790828350E+01  0.18220940302E+02  0.36547618883E+02  0.51100000000E-03 0. -1.
        -11    1    3    3    0    0 -0.16771941108E+01 -0.61945457524E+01  0.81562416246E+01  0.10378326207E+02  0.51100000000E-03 0.  1.
        -12    1    3    3    0    0  0.34255153494E+02  0.45764886736E+01 -0.25723134165E+02  0.43081775970E+02  0.00000000000E+00 0.  1.
</event>
<event>
 7    1  0.1910099E-015  0.9000768E+02  0.7816164E-02  0.1186339E+00
        -11   -1    0    0    0    0  0.00000000000E+00  0.00000000000E+00  0.45593999997E+02  0.45594000000E+02  0.51100000000E-03 0. -1.
         11   -1    0    0    0    0 -0.00000000000E+00 -0.00000000000E+00 -0.45593999997E+02  0.45594000000E+02  0.51100000000E-03 0.  1.
    9900012    2    1    2    0    0 -0.28934523600E+00  0.99417181354E+00  0.56662814293E+00  0.90007675590E+02  0.89999936108E+02 0.  0.
        -12    1    1    2    0    0  0.28934523600E+00 -0.99417181354E+00 -0.56662814293E+00  0.11803244100E+01  0.00000000000E+00 0.  1.
         11    1    3    3    0    0  0.35899705233E+01 -0.86898848388E+01 -0.55398581320E+01  0.10912928812E+02  0.51100000000E-03 0. -1.
        -11    1    3    3    0    0 -0.74970496751E+01 -0.24906570308E+02  0.27826704161E+02  0.38090267301E+02  0.51100000000E-03 0.  1.
         12    1    3    3    0    0  0.36177339158E+01  0.34590626960E+02 -0.21720217886E+02  0.41004479477E+02  0.00000000000E+00 0. -1.
</event>
<event>
 7    1  0.1910099E-015  0.9000756E+02  0.7816164E-02  0.1186339E+00
        -11   -1    0    0    0    0  0.00000000000E+00  0.00000000000E+00  0.45593999997E+02  0.45594000000E+02  0.51100000000E-03 0. -1.
         11   -1    0    0    0    0 -0.00000000000E+00 -0.00000000000E+00 -0.45593999997E+02  0.45594000000E+02  0.51100000000E-03 0.  1.
    9900012    2    1    2    0    0  0.52040758218E+00 -0.64527220427E+00  0.84037409428E+00  0.90007564111E+02  0.89999823157E+02 0.  0.
        -12    1    1    2    0    0 -0.52040758218E+00  0.64527220427E+00 -0.84037409428E+00  0.11804358888E+01  0.00000000000E+00 0.  1.
         11    1    3    3    0    0 -0.24037236347E+01 -0.10243071972E+02  0.79614183267E+00  0.10551409992E+02  0.51100000000E-03 0. -1.
        -11    1    3    3    0    0 -0.13764015403E+01 -0.34804704332E+02  0.75825143031E+00  0.34840161743E+02  0.51100000000E-03 0.  1.
         12    1    3    3    0    0  0.43005327571E+01  0.44402504100E+02 -0.71401916870E+00  0.44615992376E+02  0.00000000000E+00 0. -1.
</event>
<event>
 7    1  0.1910099E-015  0.9000725E+02  0.7816164E-02  0.1186340E+00
        -11   -1    0    0    0    0  0.00000000000E+00  0.00000000000E+00  0.45593999997E+02  0.45594000000E+02  0.51100000000E-03 0. -1.
         11   -1    0    0    0    0 -0.00000000000E+00 -0.00000000000E+00 -0.45593999997E+02  0.45594000000E+02  0.51100000000E-03 0.  1.
    9900012    2    1    2    0    0  0.84294075807E+00 -0.82001836199E+00  0.10579530831E+00  0.90007249441E+02  0.89999504332E+02 0.  0.
        -12    1    1    2    0    0 -0.84294075807E+00  0.82001836199E+00 -0.10579530831E+00  0.11807505591E+01  0.00000000000E+00 0.  1.
         11    1    3    3    0    0  0.17229319345E+02 -0.36795058458E+01  0.34610982346E+02  0.38836945137E+02  0.51100000000E-03 0. -1.
        -11    1    3    3    0    0 -0.74326940560E+00 -0.28240033303E+01  0.63858453645E+01  0.70218562716E+01  0.51100000000E-03 0.  1.
        -12    1    3    3    0    0 -0.15643109181E+02  0.56834908141E+01 -0.40891032403E+02  0.44148448032E+02  0.00000000000E+00 0.  1.
</event>
<event>
 7    1  0.1910099E-015  0.9000771E+02  0.7816164E-02  0.1186339E+00
        -11   -1    0    0    0    0  0.00000000000E+00  0.00000000000E+00  0.45593999997E+02  0.45594000000E+02  0.51100000000E-03 0.  1.
         11   -1    0    0    0    0 -0.00000000000E+00 -0.00000000000E+00 -0.45593999997E+02  0.45594000000E+02  0.51100000000E-03 0. -1.
    9900012    2    1    2    0    0 -0.78866815059E+00 -0.51904794601E+00 -0.70828476763E+00  0.90007713791E+02  0.89999974814E+02 0.  0.
        -12    1    1    2    0    0  0.78866815059E+00  0.51904794601E+00  0.70828476763E+00  0.11802862085E+01  0.00000000000E+00 0.  1.
         11    1    3    3    0    0  0.48202188680E+01 -0.72829974986E+01  0.13422285703E+01  0.88361835821E+01  0.51100000000E-03 0. -1.
        -11    1    3    3    0    0  0.21791154828E+02  0.24300500223E+02 -0.25206874903E+02  0.41240214384E+02  0.51100000000E-03 0.  1.
         12    1    3    3    0    0 -0.27400041846E+02 -0.17536550670E+02  0.23156361565E+02  0.39931315825E+02  0.00000000000E+00 0. -1.
</event>
<event>
 7    1  0.1910099E-015  0.9000772E+02  0.7816164E-02  0.1186339E+00
        -11   -1    0    0    0    0  0.00000000000E+00  0.00000000000E+00  0.45593999997E+02  0.45594000000E+02  0.51100000000E-03 0.  1.
         11   -1    0    0    0    0 -0.00000000000E+00 -0.00000000000E+00 -0.45593999997E+02  0.45594000000E+02  0.51100000000E-03 0. -1.
    9900012    2    1    2    0    0 -0.80606470636E+00 -0.64901453605E+00 -0.56753867045E+00  0.90007720236E+02  0.89999981343E+02 0.  0.
        -12    1    1    2    0    0  0.80606470636E+00  0.64901453605E+00  0.56753867045E+00  0.11802797640E+01  0.00000000000E+00 0.  1.
         11    1    3    3    0    0  0.66787094694E+01 -0.56592974893E+01 -0.17960752585E+01  0.89363692205E+01  0.51100000000E-03 0. -1.
        -11    1    3    3    0    0  0.29849552282E+02  0.24718181350E+02  0.24944479627E+01  0.38835634816E+02  0.51100000000E-03 0.  1.
         12    1    3    3    0    0 -0.37334326457E+02 -0.19707898397E+02 -0.12659113746E+01  0.42235716199E+02  0.00000000000E+00 0. -1.
</event>
<event>
 7    1  0.1910099E-015  0.9000776E+02  0.7816164E-02  0.1186339E+00
        -11   -1    0    0    0    0  0.00000000000E+00  0.00000000000E+00  0.45593999997E+02  0.45594000000E+02  0.51100000000E-03 0. -1.
         11   -1    0    0    0    0 -0.00000000000E+00 -0.00000000000E+00 -0.45593999997E+02  0.45594000000E+02  0.51100000000E-03 0.  1.
    9900012    2    1    2    0    0  0.10571994900E+01  0.69788376289E-01 -0.52002976741E+00  0.90007757593E+02  0.90000019194E+02 0.  0.
        -12    1    1    2    0    0 -0.10571994900E+01 -0.69788376289E-01  0.52002976741E+00  0.11802424065E+01  0.00000000000E+00 0.  1.
         11    1    3    3    0    0 -0.64353758894E+01 -0.12015440971E+01 -0.82406640156E+01  0.10524557698E+02  0.51100000000E-03 0. -1.
        -11    1    3    3    0    0 -0.12123439304E+02  0.56760621810E+01 -0.32152773113E+02  0.34828096151E+02  0.51100000000E-03 0.  1.
         12    1    3    3    0    0  0.19616014684E+02 -0.44047297075E+01  0.39873407361E+02  0.44655103744E+02  0.00000000000E+00 0. -1.
</event>
<event>
 7    1  0.1910099E-015  0.9000771E+02  0.7816164E-02  0.1186339E+00
        -11   -1    0    0    0    0  0.00000000000E+00  0.00000000000E+00  0.45593999997E+02  0.45594000000E+02  0.51100000000E-03 0. -1.
         11   -1    0    0    0    0 -0.00000000000E+00 -0.00000000000E+00 -0.45593999997E+02  0.45594000000E+02  0.51100000000E-03 0.  1.
    9900012    2    1    2    0    0 -0.63789393616E+00  0.63435414693E+00  0.76404269593E+00  0.90007713976E+02  0.89999975000E+02 0.  0.
        -12    1    1    2    0    0  0.63789393616E+00 -0.63435414693E+00 -0.76404269593E+00  0.11802860241E+01  0.00000000000E+00 0.  1.
         11    1    3    3    0    0 -0.14295793937E+02  0.20691978963E+02  0.25386041203E+02  0.35734840225E+02  0.51100000000E-03 0. -1.
        -11    1    3    3    0    0 -0.16012123422E+01  0.47849917680E+01  0.86626946848E+01  0.10025083872E+02  0.51100000000E-03 0.  1.
        -12    1    3    3    0    0  0.15259112343E+02 -0.24842616584E+02 -0.33284693192E+02  0.44247789878E+02  0.00000000000E+00 0.  1.
</event>
<event>
 7    1  0.2976513E-015  0.9000781E+02  0.7816164E-02  0.1186339E+00
        -11   -1    0    0    0    0  0.00000000000E+00  0.00000000000E+00  0.45593999997E+02  0.45594000000E+02  0.51100000000E-03 0. -1.
         11   -1    0    0    0    0 -0.00000000000E+00 -0.00000000000E+00 -0.45593999997E+02  0.45594000000E+02  0.51100000000E-03 0.  1.
    9900012    2    1    2    0    0  0.26468742234E+00  0.17743121796E+00  0.11363572179E+01  0.90007809763E+02  0.90000072052E+02 0.  0.
        -12    1    1    2    0    0 -0.26468742234E+00 -0.17743121796E+00 -0.11363572179E+01  0.11801902369E+01  0.00000000000E+00 0.  1.
         11    1    3    3    0    0  0.86562094304E+01 -0.35393458071E+00 -0.44701364828E+01  0.97487102647E+01  0.51100000000E-03 0. -1.
        -11    1    3    3    0    0 -0.19118436066E+02 -0.53261058576E+01 -0.33692592694E+02  0.39103360520E+02  0.51100000000E-03 0.  1.
         12    1    3    3    0    0  0.10726914057E+02  0.58574716562E+01  0.39299086395E+02  0.41155738979E+02  0.00000000000E+00 0. -1.
</event>
<event>
 7    1  0.1910099E-015  0.9000776E+02  0.7816164E-02  0.1186339E+00
        -11   -1    0    0    0    0  0.00000000000E+00  0.00000000000E+00  0.45593999997E+02  0.45594000000E+02  0.51100000000E-03 0.  1.
         11   -1    0    0    0    0 -0.00000000000E+00 -0.00000000000E+00 -0.45593999997E+02  0.45594000000E+02  0.51100000000E-03 0. -1.
    9900012    2    1    2    0    0 -0.60144553330E+00 -0.26456640976E+00 -0.98042012429E+00  0.90007764543E+02  0.90000026235E+02 0.  0.
        -12    1    1    2    0    0  0.60144553330E+00  0.26456640976E+00  0.98042012429E+00  0.11802354574E+01  0.00000000000E+00 0.  1.
         11    1    3    3    0    0 -0.28166749804E+02 -0.20672639204E+02  0.81370779550E+01  0.35873888054E+02  0.51100000000E-03 0. -1.
        -11    1    3    3    0    0 -0.69718312819E+01 -0.31292531313E+01  0.59717486074E+01  0.96984760799E+01  0.51100000000E-03 0.  1.
        -12    1    3    3    0    0  0.34537135553E+02  0.23537325926E+02 -0.15089246687E+02  0.44435400409E+02  0.00000000000E+00 0.  1.
</event>
<event>
 7    1  0.1910099E-015  0.9000789E+02  0.7816164E-02  0.1186339E+00
        -11   -1    0    0    0    0  0.00000000000E+00  0.00000000000E+00  0.45593999997E+02  0.45594000000E+02  0.51100000000E-03 0. -1.
         11   -1    0    0    0    0 -0.00000000000E+00 -0.00000000000E+00 -0.45593999997E+02  0.45594000000E+02  0.51100000000E-03 0.  1.
    9900012    2    1    2    0    0  0.61085537722E+00 -0.30400780656E+00  0.96285472824E+00  0.90007892265E+02  0.90000155643E+02 0.  0.
        -12    1    1    2    0    0 -0.61085537722E+00  0.30400780656E+00 -0.96285472824E+00  0.11801077349E+01  0.00000000000E+00 0.  1.
         11    1    3    3    0    0 -0.32386477577E+02  0.20346068213E+02  0.94334871030E+00  0.38258807204E+02  0.51100000000E-03 0. -1.
        -11    1    3    3    0    0  0.75728778253E+00  0.75387196154E+01 -0.42905931692E+01  0.87071791201E+01  0.51100000000E-03 0.  1.
        -12    1    3    3    0    0  0.32240045172E+02 -0.28188795635E+02  0.43100991871E+01  0.43041905941E+02  0.00000000000E+00 0.  1.
</event>
<event>
 7    1  0.1910099E-015  0.9000774E+02  0.7816164E-02  0.1186339E+00
        -11   -1    0    0    0    0  0.00000000000E+00  0.00000000000E+00  0.45593999997E+02  0.45594000000E+02  0.51100000000E-03 0.  1.
         11   -1    0    0    0    0 -0.00000000000E+00 -0.00000000000E+00 -0.45593999997E+02  0.45594000000E+02  0.51100000000E-03 0. -1.
    9900012    2    1    2    0    0 -0.97622069348E+00 -0.62552397402E+00  0.22073540878E+00  0.90007741043E+02  0.90000002425E+02 0.  0.
        -12    1    1    2    0    0  0.97622069348E+00  0.62552397402E+00 -0.22073540878E+00  0.11802589568E+01  0.00000000000E+00 0.  1.
         11    1    3    3    0    0  0.18566176722E+02 -0.21353461016E+01 -0.30174328618E+02  0.35492995490E+02  0.51100000000E-03 0. -1.
        -11    1    3    3    0    0  0.28140389559E+01  0.11571735659E+02 -0.37449122085E+01  0.12483919622E+02  0.51100000000E-03 0.  1.
        -12    1    3    3    0    0 -0.22356436372E+02 -0.10061913532E+02  0.34139976235E+02  0.42030825931E+02  0.00000000000E+00 0.  1.
</event>
<event>
 7    1  0.1910099E-015  0.9000769E+02  0.7816164E-02  0.1186339E+00
        -11   -1    0    0    0    0  0.00000000000E+00  0.00000000000E+00  0.45593999997E+02  0.45594000000E+02  0.51100000000E-03 0. -1.
         11   -1    0    0    0    0 -0.00000000000E+00 -0.00000000000E+00 -0.45593999997E+02  0.45594000000E+02  0.51100000000E-03 0.  1.
    9900012    2    1    2    0    0 -0.68522023105E+00  0.91146787941E+00 -0.30467523447E+00  0.90007691795E+02  0.89999952527E+02 0.  0.
        -12    1    1    2    0    0  0.68522023105E+00 -0.91146787941E+00  0.30467523447E+00  0.11803082050E+01  0.00000000000E+00 0.  1.
         11    1    3    3    0    0 -0.10538297633E+02  0.11711198728E+02 -0.17194620599E+02  0.23320867703E+02  0.51100000000E-03 0. -1.
        -11    1    3    3    0    0 -0.13750133309E+02  0.16006972597E+02 -0.86207031283E+01  0.22794864782E+02  0.51100000000E-03 0.  1.
         12    1    3    3    0    0  0.23603210711E+02 -0.26806703446E+02  0.25510648493E+02  0.43891959309E+02  0.00000000000E+00 0. -1.
</event>
<event>
 7    1  0.1910099E-015  0.9000773E+02  0.7816164E-02  0.1186339E+00
        -11   -1    0    0    0    0  0.00000000000E+00  0.00000000000E+00  0.45593999997E+02  0.45594000000E+02  0.51100000000E-03 0.  1.
         11   -1    0    0    0    0 -0.00000000000E+00 -0.00000000000E+00 -0.45593999997E+02  0.45594000000E+02  0.51100000000E-03 0. -1.
    9900012    2    1    2    0    0 -0.10251147304E+01  0.57905965344E+00  0.82913154418E-01  0.90007726776E+02  0.89999987969E+02 0.  0.
        -12    1    1    2    0    0  0.10251147304E+01 -0.57905965344E+00 -0.82913154418E-01  0.11802732242E+01  0.00000000000E+00 0.  1.
         11    1    3    3    0    0  0.25392676453E+02 -0.25893396592E+02 -0.12617678889E+02  0.38398721663E+02  0.51100000000E-03 0. -1.
        -11    1    3    3    0    0  0.66415074274E+01  0.95473552545E+00  0.65854997730E+01  0.94015928626E+01  0.51100000000E-03 0.  1.
        -12    1    3    3    0    0 -0.33059298611E+02  0.25517720720E+02  0.61150922700E+01  0.42207412250E+02  0.00000000000E+00 0.  1.
</event>
<event>
 7    1  0.1910099E-015  0.9000773E+02  0.7816164E-02  0.1186339E+00
        -11   -1    0    0    0    0  0.00000000000E+00  0.00000000000E+00  0.45593999997E+02  0.45594000000E+02  0.51100000000E-03 0. -1.
         11   -1    0    0    0    0 -0.00000000000E+00 -0.00000000000E+00 -0.45593999997E+02  0.45594000000E+02  0.51100000000E-03 0.  1.
    9900012    2    1    2    0    0 -0.11417847380E+01  0.29723498107E+00 -0.31970560403E-01  0.90007727515E+02  0.89999988718E+02 0.  0.
        -12    1    1    2    0    0  0.11417847380E+01 -0.29723498107E+00  0.31970560403E-01  0.11802724849E+01  0.00000000000E+00 0.  1.
         11    1    3    3    0    0 -0.67119351083E+00  0.35983497509E+02 -0.22918876232E+02  0.42667756933E+02  0.51100000000E-03 0. -1.
        -11    1    3    3    0    0  0.11969062456E+00 -0.81074865828E+01 -0.38035476165E+01  0.89561509181E+01  0.51100000000E-03 0.  1.
        -12    1    3    3    0    0 -0.59028185174E+00 -0.27578775945E+02  0.26690453288E+02  0.38383819664E+02  0.00000000000E+00 0.  1.
</event>
<event>
 7    1  0.1910099E-015  0.9000772E+02  0.7816164E-02  0.1186339E+00
        -11   -1    0    0    0    0  0.00000000000E+00  0.00000000000E+00  0.45593999997E+02  0.45594000000E+02  0.51100000000E-03 0.  1.
         11   -1    0    0    0    0 -0.00000000000E+00 -0.00000000000E+00 -0.45593999997E+02  0.45594000000E+02  0.51100000000E-03 0. -1.
    9900012    2    1    2    0    0 -0.10637878104E+00 -0.14713521589E+00 -0.11662344114E+01  0.90007717017E+02  0.89999978082E+02 0.  0.
        -12    1    1    2    0    0  0.10637878104E+00  0.14713521589E+00  0.11662344114E+01  0.11802829826E+01  0.00000000000E+00 0.  1.
         11    1    3    3    0    0 -0.69285879223E+01  0.43994361485E+00  0.63552566311E+01  0.94121287757E+01  0.51100000000E-03 0. -1.
        -11    1    3    3    0    0  0.17900002522E+02  0.77660946289E+01  0.32683034783E+02  0.38064459525E+02  0.51100000000E-03 0.  1.
         12    1    3    3    0    0 -0.11077793381E+02 -0.83531734597E+01 -0.40204525825E+02  0.42531128716E+02  0.00000000000E+00 0. -1.
</event>
<event>
 7    1  0.1910099E-015  0.9000774E+02  0.7816164E-02  0.1186339E+00
        -11   -1    0    0    0    0  0.00000000000E+00  0.00000000000E+00  0.45593999997E+02  0.45594000000E+02  0.51100000000E-03 0.  1.
         11   -1    0    0    0    0 -0.00000000000E+00 -0.00000000000E+00 -0.45593999997E+02  0.45594000000E+02  0.51100000000E-03 0. -1.
    9900012    2    1    2    0    0  0.30649832299E+00 -0.87568712201E+00 -0.72954494148E+00  0.90007743681E+02  0.90000005097E+02 0.  0.
        -12    1    1    2    0    0 -0.30649832299E+00  0.87568712201E+00  0.72954494148E+00  0.11802563193E+01  0.00000000000E+00 0.  1.
         11    1    3    3    0    0 -0.85741531152E+01 -0.84233376182E+01  0.96036728286E+01  0.15385033323E+02  0.51100000000E-03 0. -1.
        -11    1    3    3    0    0  0.18859606861E+02  0.14964337504E+02  0.26467085335E+02  0.35778803421E+02  0.51100000000E-03 0.  1.
         12    1    3    3    0    0 -0.99789554224E+01 -0.74166870082E+01 -0.36800303105E+02  0.38843906937E+02  0.00000000000E+00 0. -1.
</event>
<event>
 7    1  0.1910099E-015  0.9000781E+02  0.7816164E-02  0.1186339E+00
        -11   -1    0    0    0    0  0.00000000000E+00  0.00000000000E+00  0.45593999997E+02  0.45594000000E+02  0.51100000000E-03 0.  1.
         11   -1    0    0    0    0 -0.00000000000E+00 -0.00000000000E+00 -0.45593999997E+02  0.45594000000E+02  0.51100000000E-03 0. -1.
    9900012    2    1    2    0    0  0.11692717104E+01 -0.42419516815E-01 -0.15443256192E+00  0.90007811386E+02  0.90000073696E+02 0.  0.
        -12    1    1    2    0    0 -0.11692717104E+01  0.42419516815E-01  0.15443256192E+00  0.11801886138E+01  0.00000000000E+00 0.  1.
         11    1    3    3    0    0  0.18839974710E+01 -0.11059438045E+02 -0.38912739193E+02  0.40497677564E+02  0.51100000000E-03 0. -1.
        -11    1    3    3    0    0 -0.75004053538E+01 -0.44748376531E+01  0.18733382938E+01  0.89325051982E+01  0.51100000000E-03 0.  1.
        -12    1    3    3    0    0  0.67856795931E+01  0.15491856181E+02  0.36884968337E+02  0.40577628624E+02  0.00000000000E+00 0.  1.
</event>
<event>
 7    1  0.1910099E-015  0.9000780E+02  0.7816164E-02  0.1186339E+00
        -11   -1    0    0    0    0  0.00000000000E+00  0.00000000000E+00  0.45593999997E+02  0.45594000000E+02  0.51100000000E-03 0. -1.
         11   -1    0    0    0    0 -0.00000000000E+00 -0.00000000000E+00 -0.45593999997E+02  0.45594000000E+02  0.51100000000E-03 0.  1.
    9900012    2    1    2    0    0 -0.49763314706E+00  0.10682466032E+01 -0.63979293159E-01  0.90007795397E+02  0.90000057497E+02 0.  0.
        -12    1    1    2    0    0  0.49763314706E+00 -0.10682466032E+01  0.63979293159E-01  0.11802046027E+01  0.00000000000E+00 0.  1.
         11    1    3    3    0    0  0.35463301313E+02 -0.81254175074E+01 -0.40718090810E+01  0.36609394684E+02  0.51100000000E-03 0. -1.
        -11    1    3    3    0    0  0.24974168322E+01 -0.44105447692E+01 -0.92135861749E+01  0.10515710459E+02  0.51100000000E-03 0.  1.
        -12    1    3    3    0    0 -0.38458351292E+02  0.13604208880E+02  0.13221415963E+02  0.42882690254E+02  0.00000000000E+00 0.  1.
</event>
<event>
 7    1  0.1910099E-015  0.9000774E+02  0.7816164E-02  0.1186339E+00
        -11   -1    0    0    0    0  0.00000000000E+00  0.00000000000E+00  0.45593999997E+02  0.45594000000E+02  0.51100000000E-03 0.  1.
         11   -1    0    0    0    0 -0.00000000000E+00 -0.00000000000E+00 -0.45593999997E+02  0.45594000000E+02  0.51100000000E-03 0. -1.
    9900012    2    1    2    0    0  0.11408849533E+01 -0.26141174147E+00  0.15188757425E+00  0.90007735449E+02  0.89999996757E+02 0.  0.
        -12    1    1    2    0    0 -0.11408849533E+01  0.26141174147E+00 -0.15188757425E+00  0.11802645510E+01  0.00000000000E+00 0.  1.
         11    1    3    3    0    0 -0.10884001860E+02  0.34566971192E+02  0.54885844470E+01  0.36653261156E+02  0.51100000000E-03 0. -1.
        -11    1    3    3    0    0  0.22693955746E+01  0.56224193743E+01  0.76528398966E+01  0.97635912777E+01  0.51100000000E-03 0.  1.
        -12    1    3    3    0    0  0.97554912387E+01 -0.40450802307E+02 -0.12989536769E+02  0.43590883016E+02  0.00000000000E+00 0.  1.
</event>
<event>
 7    1  0.1910099E-015  0.9000776E+02  0.7816164E-02  0.1186339E+00
        -11   -1    0    0    0    0  0.00000000000E+00  0.00000000000E+00  0.45593999997E+02  0.45594000000E+02  0.51100000000E-03 0.  1.
         11   -1    0    0    0    0 -0.00000000000E+00 -0.00000000000E+00 -0.45593999997E+02  0.45594000000E+02  0.51100000000E-03 0. -1.
    9900012    2    1    2    0    0  0.94553904121E+00  0.42573978022E+00 -0.56361188155E+00  0.90007764095E+02  0.90000025781E+02 0.  0.
        -12    1    1    2    0    0 -0.94553904121E+00 -0.42573978022E+00  0.56361188155E+00  0.11802359052E+01  0.00000000000E+00 0.  1.
         11    1    3    3    0    0  0.63804653557E+01 -0.62232024344E+01  0.12280353788E+01  0.89970360591E+01  0.51100000000E-03 0. -1.
        -11    1    3    3    0    0  0.14724106968E+02 -0.28654806629E+02  0.16770002140E+02  0.36319832612E+02  0.51100000000E-03 0.  1.
         12    1    3    3    0    0 -0.20159033282E+02  0.35303748844E+02 -0.18561649400E+02  0.44690895423E+02  0.00000000000E+00 0. -1.
</event>
<event>
 7    1  0.1910099E-015  0.9000773E+02  0.7816164E-02  0.1186339E+00
        -11   -1    0    0    0    0  0.00000000000E+00  0.00000000000E+00  0.45593999997E+02  0.45594000000E+02  0.51100000000E-03 0. -1.
         11   -1    0    0    0    0 -0.00000000000E+00 -0.00000000000E+00 -0.45593999997E+02  0.45594000000E+02  0.51100000000E-03 0.  1.
    9900012    2    1    2    0    0 -0.46785517756E+00  0.10305560205E+01 -0.33482592318E+00  0.90007727753E+02  0.89999988959E+02 0.  0.
        -12    1    1    2    0    0  0.46785517756E+00 -0.10305560205E+01  0.33482592318E+00  0.11802722472E+01  0.00000000000E+00 0.  1.
         11    1    3    3    0    0  0.60622120692E+01  0.28819157848E+02  0.26332361043E+02  0.39505537746E+02  0.51100000000E-03 0. -1.
        -11    1    3    3    0    0 -0.29483676997E+00  0.71915477336E+01 -0.61844654111E+01  0.94896206567E+01  0.51100000000E-03 0.  1.
        -12    1    3    3    0    0 -0.62352304768E+01 -0.34980149561E+02 -0.20482721555E+02  0.41012569350E+02  0.00000000000E+00 0.  1.
</event>
<event>
 7    1  0.1910099E-015  0.9000774E+02  0.7816164E-02  0.1186339E+00
        -11   -1    0    0    0    0  0.00000000000E+00  0.00000000000E+00  0.45593999997E+02  0.45594000000E+02  0.51100000000E-03 0.  1.
         11   -1    0    0    0    0 -0.00000000000E+00 -0.00000000000E+00 -0.45593999997E+02  0.45594000000E+02  0.51100000000E-03 0. -1.
    9900012    2    1    2    0    0 -0.51939587184E-01  0.80657251609E+00  0.86009749180E+00  0.90007735352E+02  0.89999996658E+02 0.  0.
        -12    1    1    2    0    0  0.51939587184E-01 -0.80657251609E+00 -0.86009749180E+00  0.11802646482E+01  0.00000000000E+00 0.  1.
         11    1    3    3    0    0 -0.96673741737E+01 -0.23985835654E+01  0.25423440512E+01  0.10279826850E+02  0.51100000000E-03 0. -1.
        -11    1    3    3    0    0 -0.22320118934E+02  0.88229143828E+01  0.27220636310E+02  0.36290419794E+02  0.51100000000E-03 0.  1.
         12    1    3    3    0    0  0.31935553521E+02 -0.56177583013E+01 -0.28902882869E+02  0.43437488707E+02  0.00000000000E+00 0. -1.
</event>
<event>
 7    1  0.1910099E-015  0.9000773E+02  0.7816164E-02  0.1186339E+00
        -11   -1    0    0    0    0  0.00000000000E+00  0.00000000000E+00  0.45593999997E+02  0.45594000000E+02  0.51100000000E-03 0.  1.
         11   -1    0    0    0    0 -0.00000000000E+00 -0.00000000000E+00 -0.45593999997E+02  0.45594000000E+02  0.51100000000E-03 0. -1.
    9900012    2    1    2    0    0  0.37971139531E+00 -0.98225122690E-01 -0.11131950788E+01  0.90007732148E+02  0.89999993413E+02 0.  0.
        -12    1    1    2    0    0 -0.37971139531E+00  0.98225122690E-01  0.11131950788E+01  0.11802678517E+01  0.00000000000E+00 0.  1.
         11    1    3    3    0    0 -0.51655139240E+01  0.45967900244E+01 -0.10510567176E+02  0.12581138075E+02  0.51100000000E-03 0. -1.
        -11    1    3    3    0    0  0.21527934379E+02  0.14116774822E+02  0.33952460986E+02  0.42608742028E+02  0.51100000000E-03 0.  1.
         12    1    3    3    0    0 -0.15982709059E+02 -0.18811789969E+02 -0.24555088888E+02  0.34817852045E+02  0.00000000000E+00 0. -1.
</event>
<event>
 7    1  0.1910099E-015  0.9000778E+02  0.7816164E-02  0.1186339E+00
        -11   -1    0    0    0    0  0.00000000000E+00  0.00000000000E+00  0.45593999997E+02  0.45594000000E+02  0.51100000000E-03 0.  1.
         11   -1    0    0    0    0 -0.00000000000E+00 -0.00000000000E+00 -0.45593999997E+02  0.45594000000E+02  0.51100000000E-03 0. -1.
    9900012    2    1    2    0    0 -0.10532685509E+01  0.28279773534E+00  0.45119414690E+00  0.90007777412E+02  0.90000039274E+02 0.  0.
        -12    1    1    2    0    0  0.10532685509E+01 -0.28279773534E+00 -0.45119414690E+00  0.11802225882E+01  0.00000000000E+00 0.  1.
         11    1    3    3    0    0 -0.22548295995E+02 -0.14876542580E+02 -0.26540349930E+02  0.37869873859E+02  0.51100000000E-03 0. -1.
        -11    1    3    3    0    0 -0.64325247296E+01  0.69655089300E+01 -0.33861236992E+01  0.10067845997E+02  0.51100000000E-03 0.  1.
        -12    1    3    3    0    0  0.27927552174E+02  0.81938313858E+01  0.30377667777E+02  0.42070057556E+02  0.00000000000E+00 0.  1.
</event>
<event>
 7    1  0.1910099E-015  0.9000772E+02  0.7816164E-02  0.1186339E+00
        -11   -1    0    0    0    0  0.00000000000E+00  0.00000000000E+00  0.45593999997E+02  0.45594000000E+02  0.51100000000E-03 0. -1.
         11   -1    0    0    0    0 -0.00000000000E+00 -0.00000000000E+00 -0.45593999997E+02  0.45594000000E+02  0.51100000000E-03 0.  1.
    9900012    2    1    2    0    0  0.47079374340E+00  0.10049931702E+01 -0.40175932352E+00  0.90007716739E+02  0.89999977800E+02 0.  0.
        -12    1    1    2    0    0 -0.47079374340E+00 -0.10049931702E+01  0.40175932352E+00  0.11802832605E+01  0.00000000000E+00 0.  1.
         11    1    3    3    0    0 -0.34650289530E+01 -0.44189063461E+01  0.65316600009E+01  0.86136950009E+01  0.51100000000E-03 0. -1.
        -11    1    3    3    0    0  0.50654043570E+00 -0.14407427917E+02 -0.40092311324E+02  0.42605445543E+02  0.51100000000E-03 0.  1.
         12    1    3    3    0    0  0.34292822607E+01  0.19831327434E+02  0.33158892000E+02  0.38788576195E+02  0.00000000000E+00 0. -1.
</event>
<event>
 7    1  0.1910099E-015  0.9000776E+02  0.7816164E-02  0.1186339E+00
        -11   -1    0    0    0    0  0.00000000000E+00  0.00000000000E+00  0.45593999997E+02  0.45594000000E+02  0.51100000000E-03 0. -1.
         11   -1    0    0    0    0 -0.00000000000E+00 -0.00000000000E+00 -0.45593999997E+02  0.45594000000E+02  0.51100000000E-03 0.  1.
    9900012    2    1    2    0    0 -0.95092909854E+00  0.46231737161E+00  0.52436410312E+00  0.90007762221E+02  0.90000023882E+02 0.  0.
        -12    1    1    2    0    0  0.95092909854E+00 -0.46231737161E+00 -0.52436410312E+00  0.11802377791E+01  0.00000000000E+00 0.  1.
         11    1    3    3    0    0  0.16520680542E+02 -0.46515555710E-01 -0.44561883939E+01  0.17111185363E+02  0.51100000000E-03 0. -1.
        -11    1    3    3    0    0 -0.75732636919E+01 -0.34779574165E+02  0.66402959107E+01  0.36208654105E+02  0.51100000000E-03 0.  1.
         12    1    3    3    0    0 -0.98983459489E+01  0.35288407093E+02 -0.16597434137E+01  0.36687922752E+02  0.00000000000E+00 0. -1.
</event>
<event>
 7    1  0.1910099E-015  0.9000761E+02  0.7816164E-02  0.1186339E+00
        -11   -1    0    0    0    0  0.00000000000E+00  0.00000000000E+00  0.45593999997E+02  0.45594000000E+02  0.51100000000E-03 0. -1.
         11   -1    0    0    0    0 -0.00000000000E+00 -0.00000000000E+00 -0.45593999997E+02  0.45594000000E+02  0.51100000000E-03 0.  1.
    9900012    2    1    2    0    0 -0.46904685372E+00  0.20180052258E+00  0.10642363856E+01  0.90007607063E+02  0.89999866676E+02 0.  0.
        -12    1    1    2    0    0  0.46904685372E+00 -0.20180052258E+00 -0.10642363856E+01  0.11803929372E+01  0.00000000000E+00 0.  1.
         11    1    3    3    0    0 -0.11444576684E+02 -0.27795269653E+02  0.18162440301E+01  0.30114018218E+02  0.51100000000E-03 0. -1.
        -11    1    3    3    0    0 -0.50567126851E+01  0.69550403121E+00  0.20914879612E+02  0.21528731001E+02  0.51100000000E-03 0.  1.
        -12    1    3    3    0    0  0.16032242515E+02  0.27301566145E+02 -0.21666887257E+02  0.38364857844E+02  0.00000000000E+00 0.  1.
</event>
<event>
 7    1  0.1910099E-015  0.9000773E+02  0.7816164E-02  0.1186339E+00
        -11   -1    0    0    0    0  0.00000000000E+00  0.00000000000E+00  0.45593999997E+02  0.45594000000E+02  0.51100000000E-03 0.  1.
         11   -1    0    0    0    0 -0.00000000000E+00 -0.00000000000E+00 -0.45593999997E+02  0.45594000000E+02  0.51100000000E-03 0. -1.
    9900012    2    1    2    0    0  0.46969384208E+00 -0.86811087007E+00 -0.64715733249E+00  0.90007728251E+02  0.89999989464E+02 0.  0.
        -12    1    1    2    0    0 -0.46969384208E+00  0.86811087007E+00  0.64715733249E+00  0.11802717488E+01  0.00000000000E+00 0.  1.
         11    1    3    3    0    0  0.67809638891E+01  0.61750116782E+01  0.47754902047E+01  0.10340094170E+02  0.51100000000E-03 0. -1.
        -11    1    3    3    0    0  0.16963609120E+02 -0.37604559296E+01  0.31455592719E+02  0.35935489099E+02  0.51100000000E-03 0.  1.
         12    1    3    3    0    0 -0.23274879167E+02 -0.32826666187E+01 -0.36878240256E+02  0.43732144983E+02  0.00000000000E+00 0. -1.
</event>
<event>
 7    1  0.1910099E-015  0.9000779E+02  0.7816164E-02  0.1186339E+00
        -11   -1    0    0    0    0  0.00000000000E+00  0.00000000000E+00  0.45593999997E+02  0.45594000000E+02  0.51100000000E-03 0. -1.
         11   -1    0    0    0    0 -0.00000000000E+00 -0.00000000000E+00 -0.45593999997E+02  0.45594000000E+02  0.51100000000E-03 0.  1.
    9900012    2    1    2    0    0  0.12528205186E+00  0.11734873294E+01  0.11470866751E-01  0.90007788288E+02  0.90000050293E+02 0.  0.
        -12    1    1    2    0    0 -0.12528205186E+00 -0.11734873294E+01 -0.11470866751E-01  0.11802117121E+01  0.00000000000E+00 0.  1.
         11    1    3    3    0    0  0.21505976904E+01  0.23084390978E+01 -0.82696308436E+01  0.88510313549E+01  0.51100000000E-03 0. -1.
        -11    1    3    3    0    0 -0.83993448991E+01  0.17270732791E+02 -0.31483022633E+02  0.36878285213E+02  0.51100000000E-03 0.  1.
         12    1    3    3    0    0  0.63740292605E+01 -0.18405684559E+02  0.39764124343E+02  0.44278471720E+02  0.00000000000E+00 0. -1.
</event>
<event>
 7    1  0.1910099E-015  0.9000768E+02  0.7816164E-02  0.1186339E+00
        -11   -1    0    0    0    0  0.00000000000E+00  0.00000000000E+00  0.45593999997E+02  0.45594000000E+02  0.51100000000E-03 0. -1.
         11   -1    0    0    0    0 -0.00000000000E+00 -0.00000000000E+00 -0.45593999997E+02  0.45594000000E+02  0.51100000000E-03 0.  1.
    9900012    2    1    2    0    0  0.18095456740E+00  0.49547212087E+00  0.10558927738E+01  0.90007683632E+02  0.89999944256E+02 0.  0.
        -12    1    1    2    0    0 -0.18095456740E+00 -0.49547212087E+00 -0.10558927738E+01  0.11803163676E+01  0.00000000000E+00 0.  1.
         11    1    3    3    0    0 -0.60982814362E+01 -0.89296203339E+01  0.40105959300E+02  0.41538116561E+02  0.51100000000E-03 0. -1.
        -11    1    3    3    0    0  0.28954876718E+01 -0.36165549154E+01  0.21608857871E+01  0.51120197534E+01  0.51100000000E-03 0.  1.
        -12    1    3    3    0    0  0.33837483318E+01  0.13041647370E+02 -0.41210952313E+02  0.43357547318E+02  0.00000000000E+00 0.  1.
</event>
<event>
 7    1  0.1910099E-015  0.9000778E+02  0.7816164E-02  0.1186339E+00
        -11   -1    0    0    0    0  0.00000000000E+00  0.00000000000E+00  0.45593999997E+02  0.45594000000E+02  0.51100000000E-03 0.  1.
         11   -1    0    0    0    0 -0.00000000000E+00 -0.00000000000E+00 -0.45593999997E+02  0.45594000000E+02  0.51100000000E-03 0. -1.
    9900012    2    1    2    0    0  0.34995022187E+00  0.10038002319E+01  0.51268363643E+00  0.90007777744E+02  0.90000039610E+02 0.  0.
        -12    1    1    2    0    0 -0.34995022187E+00 -0.10038002319E+01 -0.51268363643E+00  0.11802222563E+01  0.00000000000E+00 0.  1.
         11    1    3    3    0    0  0.89649980425E+01 -0.15570970309E+02 -0.28822542108E+02  0.33964175834E+02  0.51100000000E-03 0. -1.
        -11    1    3    3    0    0 -0.43715871046E+01  0.65996317168E+00 -0.11333941384E+02  0.12165712177E+02  0.51100000000E-03 0.  1.
        -12    1    3    3    0    0 -0.42434607160E+01  0.15914807370E+02  0.40669167129E+02  0.43877889733E+02  0.00000000000E+00 0.  1.
</event>
<event>
 7    1  0.1910099E-015  0.9000770E+02  0.7816164E-02  0.1186339E+00
        -11   -1    0    0    0    0  0.00000000000E+00  0.00000000000E+00  0.45593999997E+02  0.45594000000E+02  0.51100000000E-03 0.  1.
         11   -1    0    0    0    0 -0.00000000000E+00 -0.00000000000E+00 -0.45593999997E+02  0.45594000000E+02  0.51100000000E-03 0. -1.
    9900012    2    1    2    0    0  0.76689941876E+00 -0.16101801492E+00 -0.88263964682E+00  0.90007697384E+02  0.89999958189E+02 0.  0.
        -12    1    1    2    0    0 -0.76689941876E+00  0.16101801492E+00  0.88263964682E+00  0.11803026162E+01  0.00000000000E+00 0.  1.
         11    1    3    3    0    0 -0.66351112968E+01 -0.81417012868E+00 -0.42831991968E+01  0.79393558013E+01  0.51100000000E-03 0. -1.
        -11    1    3    3    0    0 -0.15485734847E+02  0.19799136614E+02  0.32030102538E+02  0.40715368883E+02  0.51100000000E-03 0.  1.
         12    1    3    3    0    0  0.22887745562E+02 -0.19145984500E+02 -0.28629542988E+02  0.41352972700E+02  0.00000000000E+00 0. -1.
</event>
<event>
 7    1  0.1910099E-015  0.9000773E+02  0.7816164E-02  0.1186339E+00
        -11   -1    0    0    0    0  0.00000000000E+00  0.00000000000E+00  0.45593999997E+02  0.45594000000E+02  0.51100000000E-03 0.  1.
         11   -1    0    0    0    0 -0.00000000000E+00 -0.00000000000E+00 -0.45593999997E+02  0.45594000000E+02  0.51100000000E-03 0. -1.
    9900012    2    1    2    0    0  0.11001974957E+01 -0.39776668988E+00  0.15615141209E+00  0.90007730483E+02  0.89999991725E+02 0.  0.
        -12    1    1    2    0    0 -0.11001974957E+01  0.39776668988E+00 -0.15615141209E+00  0.11802695169E+01  0.00000000000E+00 0.  1.
         11    1    3    3    0    0 -0.38495447692E+01  0.61136978581E+01  0.48031097095E+01  0.86756071587E+01  0.51100000000E-03 0. -1.
        -11    1    3    3    0    0 -0.63789701135E+01 -0.34277966773E+02  0.21989983093E+02  0.41221712998E+02  0.51100000000E-03 0.  1.
         12    1    3    3    0    0  0.11328712378E+02  0.27766502225E+02 -0.26636941390E+02  0.40110410327E+02  0.00000000000E+00 0. -1.
</event>
<event>
 7    1  0.1910099E-015  0.9000771E+02  0.7816164E-02  0.1186339E+00
        -11   -1    0    0    0    0  0.00000000000E+00  0.00000000000E+00  0.45593999997E+02  0.45594000000E+02  0.51100000000E-03 0.  1.
         11   -1    0    0    0    0 -0.00000000000E+00 -0.00000000000E+00 -0.45593999997E+02  0.45594000000E+02  0.51100000000E-03 0. -1.
    9900012    2    1    2    0    0 -0.78499718608E+00 -0.81179997069E+00  0.34329842848E+00  0.90007706144E+02  0.89999967066E+02 0.  0.
        -12    1    1    2    0    0  0.78499718608E+00  0.81179997069E+00 -0.34329842848E+00  0.11802938556E+01  0.00000000000E+00 0.  1.
         11    1    3    3    0    0 -0.33995899277E+02 -0.64720698469E+01  0.96938638777E+01  0.35938556634E+02  0.51100000000E-03 0. -1.
        -11    1    3    3    0    0  0.12078411136E+02 -0.66160116473E+01  0.14445612086E+02  0.19958339973E+02  0.51100000000E-03 0.  1.
        -12    1    3    3    0    0  0.21132490955E+02  0.12276281524E+02 -0.23796177535E+02  0.34110809537E+02  0.00000000000E+00 0.  1.
</event>
<event>
 7    1  0.1910099E-015  0.9000770E+02  0.7816164E-02  0.1186339E+00
        -11   -1    0    0    0    0  0.00000000000E+00  0.00000000000E+00  0.45593999997E+02  0.45594000000E+02  0.51100000000E-03 0. -1.
         11   -1    0    0    0    0 -0.00000000000E+00 -0.00000000000E+00 -0.45593999997E+02  0.45594000000E+02  0.51100000000E-03 0.  1.
    9900012    2    1    2    0    0  0.10050064569E+01 -0.46960249045E+00  0.40316457711E+00  0.90007700820E+02  0.89999961671E+02 0.  0.
        -12    1    1    2    0    0 -0.10050064569E+01  0.46960249045E+00 -0.40316457711E+00  0.11802991797E+01  0.00000000000E+00 0.  1.
         11    1    3    3    0    0 -0.37359511120E+02 -0.19200611221E+02 -0.19939717545E+01  0.42052020951E+02  0.51100000000E-03 0. -1.
        -11    1    3    3    0    0  0.59527215538E+01  0.40541627328E+01 -0.81200405701E+01  0.10853855927E+02  0.51100000000E-03 0.  1.
        -12    1    3    3    0    0  0.32411796024E+02  0.14676845997E+02  0.10517176902E+02  0.37101823943E+02  0.00000000000E+00 0.  1.
</event>
<event>
 7    1  0.1910099E-015  0.9000753E+02  0.7816164E-02  0.1186339E+00
        -11   -1    0    0    0    0  0.00000000000E+00  0.00000000000E+00  0.45593999997E+02  0.45594000000E+02  0.51100000000E-03 0.  1.
         11   -1    0    0    0    0 -0.00000000000E+00 -0.00000000000E+00 -0.45593999997E+02  0.45594000000E+02  0.51100000000E-03 0. -1.
    9900012    2    1    2    0    0 -0.11771743265E+01  0.70892000420E-01 -0.52349677516E-01  0.90007531636E+02  0.89999790253E+02 0.  0.
        -12    1    1    2    0    0  0.11771743265E+01 -0.70892000420E-01  0.52349677516E-01  0.11804683644E+01  0.00000000000E+00 0.  1.
         11    1    3    3    0    0  0.17944643325E+01  0.71252223351E+01 -0.47574854941E+01  0.87534315587E+01  0.51100000000E-03 0. -1.
        -11    1    3    3    0    0 -0.29951474863E+02 -0.18035013304E+02  0.27325362730E+02  0.44373730967E+02  0.51100000000E-03 0.  1.
         12    1    3    3    0    0  0.26979836204E+02  0.10980682969E+02 -0.22620226914E+02  0.36880369110E+02  0.00000000000E+00 0. -1.
</event>
<event>
 7    1  0.1910099E-015  0.9000777E+02  0.7816164E-02  0.1186339E+00
        -11   -1    0    0    0    0  0.00000000000E+00  0.00000000000E+00  0.45593999997E+02  0.45594000000E+02  0.51100000000E-03 0.  1.
         11   -1    0    0    0    0 -0.00000000000E+00 -0.00000000000E+00 -0.45593999997E+02  0.45594000000E+02  0.51100000000E-03 0. -1.
    9900012    2    1    2    0    0 -0.12015678094E+00  0.43226198675E+00 -0.10916241229E+01  0.90007774893E+02  0.90000036722E+02 0.  0.
        -12    1    1    2    0    0  0.12015678094E+00 -0.43226198675E+00  0.10916241229E+01  0.11802251069E+01  0.00000000000E+00 0.  1.
         11    1    3    3    0    0  0.88323567093E+01 -0.35368809300E+01  0.82351991810E+01  0.12583264980E+02  0.51100000000E-03 0. -1.
        -11    1    3    3    0    0  0.26561782339E+02 -0.20627067379E+02 -0.30046685181E+01  0.33764363208E+02  0.51100000000E-03 0.  1.
         12    1    3    3    0    0 -0.35514295829E+02  0.24596210295E+02 -0.63221547858E+01  0.43660146705E+02  0.00000000000E+00 0. -1.
</event>
<event>
 7    1  0.1910099E-015  0.9000776E+02  0.7816164E-02  0.1186339E+00
        -11   -1    0    0    0    0  0.00000000000E+00  0.00000000000E+00  0.45593999997E+02  0.45594000000E+02  0.51100000000E-03 0.  1.
         11   -1    0    0    0    0 -0.00000000000E+00 -0.00000000000E+00 -0.45593999997E+02  0.45594000000E+02  0.51100000000E-03 0. -1.
    9900012    2    1    2    0    0  0.34507829145E+00 -0.84141204020E+00 -0.75227732482E+00  0.90007756626E+02  0.90000018213E+02 0.  0.
        -12    1    1    2    0    0 -0.34507829145E+00  0.84141204020E+00  0.75227732482E+00  0.11802433741E+01  0.00000000000E+00 0.  1.
         11    1    3    3    0    0  0.31394048301E+01 -0.11103744541E+02 -0.16506474392E+01  0.11656485009E+02  0.51100000000E-03 0. -1.
        -11    1    3    3    0    0 -0.38352199970E+02  0.17012579850E+02  0.32512607673E+01  0.42081941644E+02  0.51100000000E-03 0.  1.
         12    1    3    3    0    0  0.35557873432E+02 -0.67502473489E+01 -0.23528906529E+01  0.36269329973E+02  0.00000000000E+00 0. -1.
</event>
<event>
 7    1  0.1910099E-015  0.9000760E+02  0.7816164E-02  0.1186339E+00
        -11   -1    0    0    0    0  0.00000000000E+00  0.00000000000E+00  0.45593999997E+02  0.45594000000E+02  0.51100000000E-03 0. -1.
         11   -1    0    0    0    0 -0.00000000000E+00 -0.00000000000E+00 -0.45593999997E+02  0.45594000000E+02  0.51100000000E-03 0.  1.
    9900012    2    1    2    0    0 -0.10369832113E+01  0.56231497096E+00  0.42439043271E-01  0.90007604567E+02  0.89999864147E+02 0.  0.
        -12    1    1    2    0    0  0.10369832113E+01 -0.56231497096E+00 -0.42439043271E-01  0.11803954335E+01  0.00000000000E+00 0.  1.
         11    1    3    3    0    0 -0.31161947750E+01  0.58329289329E+01  0.67144583709E+01  0.94243133059E+01  0.51100000000E-03 0. -1.
        -11    1    3    3    0    0  0.59247568834E+01 -0.42441585881E+02 -0.17242885285E+01  0.42887808610E+02  0.51100000000E-03 0.  1.
         12    1    3    3    0    0 -0.38455453197E+01  0.37170971919E+02 -0.49477307991E+01  0.37695482650E+02  0.00000000000E+00 0. -1.
</event>
<event>
 7    1  0.1910099E-015  0.9000771E+02  0.7816164E-02  0.1186339E+00
        -11   -1    0    0    0    0  0.00000000000E+00  0.00000000000E+00  0.45593999997E+02  0.45594000000E+02  0.51100000000E-03 0.  1.
         11   -1    0    0    0    0 -0.00000000000E+00 -0.00000000000E+00 -0.45593999997E+02  0.45594000000E+02  0.51100000000E-03 0. -1.
    9900012    2    1    2    0    0  0.69386020612E+00  0.82360803581E+00 -0.48301318946E+00  0.90007714474E+02  0.89999975505E+02 0.  0.
        -12    1    1    2    0    0 -0.69386020612E+00 -0.82360803581E+00  0.48301318946E+00  0.11802855262E+01  0.00000000000E+00 0.  1.
         11    1    3    3    0    0  0.33523856819E+01 -0.63344409232E+01  0.62387472204E+01  0.95018734316E+01  0.51100000000E-03 0. -1.
        -11    1    3    3    0    0  0.35541200605E+02  0.17880651661E+02  0.21730699313E+01  0.39844910308E+02  0.51100000000E-03 0.  1.
         12    1    3    3    0    0 -0.38199726081E+02 -0.10722602702E+02 -0.88948303411E+01  0.40660930734E+02  0.00000000000E+00 0. -1.
</event>
<event>
 7    1  0.1910099E-015  0.9000773E+02  0.7816164E-02  0.1186339E+00
        -11   -1    0    0    0    0  0.00000000000E+00  0.00000000000E+00  0.45593999997E+02  0.45594000000E+02  0.51100000000E-03 0.  1.
         11   -1    0    0    0    0 -0.00000000000E+00 -0.00000000000E+00 -0.45593999997E+02  0.45594000000E+02  0.51100000000E-03 0. -1.
    9900012    2    1    2    0    0 -0.16137337296E+00  0.99508689092E+00 -0.61384075190E+00  0.90007728949E+02  0.89999990171E+02 0.  0.
        -12    1    1    2    0    0  0.16137337296E+00 -0.99508689092E+00  0.61384075190E+00  0.11802710514E+01  0.00000000000E+00 0.  1.
         11    1    3    3    0    0  0.25788554598E+02  0.76111608413E+01  0.27755938768E+02  0.38644164563E+02  0.51100000000E-03 0. -1.
        -11    1    3    3    0    0  0.38471229828E+01  0.81945960101E+01 -0.30568530820E+01  0.95548997922E+01  0.51100000000E-03 0.  1.
        -12    1    3    3    0    0 -0.29797050954E+02 -0.14810669960E+02 -0.25312926438E+02  0.41808664593E+02  0.00000000000E+00 0.  1.
</event>
<event>
 7    1  0.1910099E-015  0.9000767E+02  0.7816164E-02  0.1186339E+00
        -11   -1    0    0    0    0  0.00000000000E+00  0.00000000000E+00  0.45593999997E+02  0.45594000000E+02  0.51100000000E-03 0.  1.
         11   -1    0    0    0    0 -0.00000000000E+00 -0.00000000000E+00 -0.45593999997E+02  0.45594000000E+02  0.51100000000E-03 0. -1.
    9900012    2    1    2    0    0  0.11115063261E+01 -0.12370925322E+00 -0.37740957930E+00  0.90007666029E+02  0.89999926421E+02 0.  0.
        -12    1    1    2    0    0 -0.11115063261E+01  0.12370925322E+00  0.37740957930E+00  0.11803339709E+01  0.00000000000E+00 0.  1.
         11    1    3    3    0    0 -0.47887960833E+01  0.40749593997E+01 -0.64273895070E+01  0.89916182176E+01  0.51100000000E-03 0. -1.
        -11    1    3    3    0    0  0.29545136654E+01  0.35683287825E+02 -0.11124171413E+02  0.37493644407E+02  0.51100000000E-03 0.  1.
         12    1    3    3    0    0  0.29457887441E+01 -0.39881956478E+02  0.17174151341E+02  0.43522403405E+02  0.00000000000E+00 0. -1.
</event>
<event>
 7    1  0.1910099E-015  0.9000761E+02  0.7816164E-02  0.1186339E+00
        -11   -1    0    0    0    0  0.00000000000E+00  0.00000000000E+00  0.45593999997E+02  0.45594000000E+02  0.51100000000E-03 0.  1.
         11   -1    0    0    0    0 -0.00000000000E+00 -0.00000000000E+00 -0.45593999997E+02  0.45594000000E+02  0.51100000000E-03 0. -1.
    9900012    2    1    2    0    0 -0.45312940140E+00  0.27480965309E+00 -0.10547401244E+01  0.90007608823E+02  0.89999868460E+02 0.  0.
        -12    1    1    2    0    0  0.45312940140E+00 -0.27480965309E+00  0.10547401244E+01  0.11803911766E+01  0.00000000000E+00 0.  1.
         11    1    3    3    0    0 -0.37906517706E+02 -0.81512179066E+01 -0.40103780669E+01  0.38979861089E+02  0.51100000000E-03 0. -1.
        -11    1    3    3    0    0 -0.43922338844E+00  0.15091214424E+01  0.11471667540E+02  0.11578839368E+02  0.51100000000E-03 0.  1.
        -12    1    3    3    0    0  0.37892611693E+02  0.69169061173E+01 -0.85160295974E+01  0.39448908366E+02  0.00000000000E+00 0.  1.
</event>
<event>
 7    1  0.1910099E-015  0.9000756E+02  0.7816164E-02  0.1186339E+00
        -11   -1    0    0    0    0  0.00000000000E+00  0.00000000000E+00  0.45593999997E+02  0.45594000000E+02  0.51100000000E-03 0. -1.
         11   -1    0    0    0    0 -0.00000000000E+00 -0.00000000000E+00 -0.45593999997E+02  0.45594000000E+02  0.51100000000E-03 0.  1.
    9900012    2    1    2    0    0  0.24823769219E+00 -0.29511561528E+00  0.11156672850E+01  0.90007564204E+02  0.89999823251E+02 0.  0.
        -12    1    1    2    0    0 -0.24823769219E+00  0.29511561528E+00 -0.11156672850E+01  0.11804357962E+01  0.00000000000E+00 0.  1.
         11    1    3    3    0    0  0.21150527412E+02 -0.16934580550E+02 -0.62195954278E+01  0.27799427975E+02  0.51100000000E-03 0. -1.
        -11    1    3    3    0    0  0.94487223489E+01 -0.14947884494E+02 -0.57849626589E+00  0.17693282993E+02  0.51100000000E-03 0.  1.
        -12    1    3    3    0    0 -0.30351012069E+02  0.31587349428E+02  0.79137589787E+01  0.44514853236E+02  0.00000000000E+00 0.  1.
</event>
<event>
 7    1  0.1910099E-015  0.9000768E+02  0.7816164E-02  0.1186339E+00
        -11   -1    0    0    0    0  0.00000000000E+00  0.00000000000E+00  0.45593999997E+02  0.45594000000E+02  0.51100000000E-03 0.  1.
         11   -1    0    0    0    0 -0.00000000000E+00 -0.00000000000E+00 -0.45593999997E+02  0.45594000000E+02  0.51100000000E-03 0. -1.
    9900012    2    1    2    0    0 -0.64671440231E+00  0.33305237928E+00 -0.92950976483E+00  0.90007681480E+02  0.89999942076E+02 0.  0.
        -12    1    1    2    0    0  0.64671440231E+00 -0.33305237928E+00  0.92950976483E+00  0.11803185199E+01  0.00000000000E+00 0.  1.
         11    1    3    3    0    0  0.27543659122E+00 -0.22379971885E+02 -0.27788615567E+02  0.35681173780E+02  0.51100000000E-03 0. -1.
        -11    1    3    3    0    0 -0.93874177576E+00 -0.44876585012E+01 -0.85345573641E+01  0.96880846718E+01  0.51100000000E-03 0.  1.
        -12    1    3    3    0    0  0.16590782231E-01  0.27200682765E+02  0.35393663167E+02  0.44638423029E+02  0.00000000000E+00 0.  1.
</event>
<event>
 7    1  0.1910099E-015  0.9000781E+02  0.7816164E-02  0.1186339E+00
        -11   -1    0    0    0    0  0.00000000000E+00  0.00000000000E+00  0.45593999997E+02  0.45594000000E+02  0.51100000000E-03 0.  1.
         11   -1    0    0    0    0 -0.00000000000E+00 -0.00000000000E+00 -0.45593999997E+02  0.45594000000E+02  0.51100000000E-03 0. -1.
    9900012    2    1    2    0    0 -0.79512704635E+00  0.81015170869E-01 -0.86836681863E+00  0.90007808740E+02  0.90000071016E+02 0.  0.
        -12    1    1    2    0    0  0.79512704635E+00 -0.81015170869E-01  0.86836681863E+00  0.11801912597E+01  0.00000000000E+00 0.  1.
         11    1    3    3    0    0 -0.29048775705E+02  0.19970854600E+02  0.79011432673E+01  0.36126091245E+02  0.51100000000E-03 0. -1.
        -11    1    3    3    0    0 -0.60500591363E+01 -0.62728478687E+01  0.93367139756E+01  0.12772081430E+02  0.51100000000E-03 0.  1.
        -12    1    3    3    0    0  0.34303707795E+02 -0.13616991560E+02 -0.18106224061E+02  0.41109636065E+02  0.00000000000E+00 0.  1.
</event>
<event>
 7    1  0.1910099E-015  0.9000778E+02  0.7816164E-02  0.1186339E+00
        -11   -1    0    0    0    0  0.00000000000E+00  0.00000000000E+00  0.45593999997E+02  0.45594000000E+02  0.51100000000E-03 0. -1.
         11   -1    0    0    0    0 -0.00000000000E+00 -0.00000000000E+00 -0.45593999997E+02  0.45594000000E+02  0.51100000000E-03 0.  1.
    9900012    2    1    2    0    0  0.63992383722E+00  0.77764839129E+00  0.61537299099E+00  0.90007778217E+02  0.90000040090E+02 0.  0.
        -12    1    1    2    0    0 -0.63992383722E+00 -0.77764839129E+00 -0.61537299099E+00  0.11802217825E+01  0.00000000000E+00 0.  1.
         11    1    3    3    0    0  0.81174514799E+01  0.48852013274E+01  0.18625495966E+01  0.96554286181E+01  0.51100000000E-03 0. -1.
        -11    1    3    3    0    0  0.30213987260E+01 -0.37216424127E+02  0.17102836128E+02  0.41069429981E+02  0.51100000000E-03 0.  1.
         12    1    3    3    0    0 -0.10498926369E+02  0.33108871191E+02 -0.18350012733E+02  0.39282919619E+02  0.00000000000E+00 0. -1.
</event>
<event>
 8    1  0.1910099E-015  0.9000780E+02  0.7816164E-02  0.1186339E+00
        -11   -1    0    0    0    0  0.00000000000E+00  0.00000000000E+00  0.45593999997E+02  0.45594000000E+02  0.51100000000E-03 0.  1.
         11   -1    0    0    0    0 -0.00000000000E+00 -0.00000000000E+00 -0.45593999997E+02  0.45594000000E+02  0.51100000000E-03 0. -1.
    9900012    2    1    2    0    0  0.25361719218E+00 -0.12351389308E+00 -0.11459919201E+01  0.90007798813E+02  0.90000060957E+02 0.  0.
         23    2    3    3    0    0  0.57415644420E+01  0.42418389576E+01 -0.24353826021E+02  0.65763677171E+02  0.60669544527E+02 0.  0.
        -12    1    1    2    0    0 -0.25361719218E+00  0.12351389308E+00  0.11459919201E+01  0.11802011875E+01  0.00000000000E+00 0.  1.
         11    1    4    4    0    0  0.22289464703E+02  0.24739052001E+02 -0.20595249153E+02  0.39153610543E+02  0.51100000000E-03 0. -1.
        -11    1    4    4    0    0 -0.16547900261E+02 -0.20497213043E+02 -0.37585768681E+01  0.26610066627E+02  0.51100000000E-03 0.  1.
        -12    1    3    3    0    0 -0.54879472498E+01 -0.43653528507E+01  0.23207834101E+02  0.24244121642E+02  0.00000000000E+00 0.  1.
</event>
<event>
 7    1  0.1910099E-015  0.9000776E+02  0.7816164E-02  0.1186339E+00
        -11   -1    0    0    0    0  0.00000000000E+00  0.00000000000E+00  0.45593999997E+02  0.45594000000E+02  0.51100000000E-03 0. -1.
         11   -1    0    0    0    0 -0.00000000000E+00 -0.00000000000E+00 -0.45593999997E+02  0.45594000000E+02  0.51100000000E-03 0.  1.
    9900012    2    1    2    0    0  0.14933909088E+00 -0.78248750536E+00  0.87084656227E+00  0.90007761636E+02  0.90000023290E+02 0.  0.
        -12    1    1    2    0    0 -0.14933909088E+00  0.78248750536E+00 -0.87084656227E+00  0.11802383637E+01  0.00000000000E+00 0.  1.
         11    1    3    3    0    0 -0.71347445469E+00  0.22612390642E+02  0.30171169433E+02  0.37711121988E+02  0.51100000000E-03 0. -1.
        -11    1    3    3    0    0 -0.77258305289E+01  0.30969508082E+01  0.37058307924E+01  0.91111329587E+01  0.51100000000E-03 0.  1.
        -12    1    3    3    0    0  0.85886440744E+01 -0.26491828956E+02 -0.33006153663E+02  0.43185506690E+02  0.00000000000E+00 0.  1.
</event>
<event>
 7    1  0.1910099E-015  0.9000773E+02  0.7816164E-02  0.1186339E+00
        -11   -1    0    0    0    0  0.00000000000E+00  0.00000000000E+00  0.45593999997E+02  0.45594000000E+02  0.51100000000E-03 0. -1.
         11   -1    0    0    0    0 -0.00000000000E+00 -0.00000000000E+00 -0.45593999997E+02  0.45594000000E+02  0.51100000000E-03 0.  1.
    9900012    2    1    2    0    0  0.88214241509E+00  0.36486176094E+00  0.69406569930E+00  0.90007734547E+02  0.89999995843E+02 0.  0.
        -12    1    1    2    0    0 -0.88214241509E+00 -0.36486176094E+00 -0.69406569930E+00  0.11802654532E+01  0.00000000000E+00 0.  1.
         11    1    3    3    0    0  0.34254329109E+02  0.11287463729E+02  0.26106940208E+01  0.36160498112E+02  0.51100000000E-03 0. -1.
        -11    1    3    3    0    0  0.86950343126E+01  0.13760314890E+01  0.39117928734E+01  0.96332345607E+01  0.51100000000E-03 0.  1.
        -12    1    3    3    0    0 -0.42067221007E+02 -0.12298633457E+02 -0.58284211949E+01  0.44214001874E+02  0.00000000000E+00 0.  1.
</event>
<event>
 7    1  0.1910099E-015  0.9000783E+02  0.7816164E-02  0.1186339E+00
        -11   -1    0    0    0    0  0.00000000000E+00  0.00000000000E+00  0.45593999997E+02  0.45594000000E+02  0.51100000000E-03 0.  1.
         11   -1    0    0    0    0 -0.00000000000E+00 -0.00000000000E+00 -0.45593999997E+02  0.45594000000E+02  0.51100000000E-03 0. -1.
    9900012    2    1    2    0    0 -0.55357908310E+00 -0.82931367064E+00 -0.63133128070E+00  0.90007834693E+02  0.90000097311E+02 0.  0.
        -12    1    1    2    0    0  0.55357908310E+00  0.82931367064E+00  0.63133128070E+00  0.11801653069E+01  0.00000000000E+00 0.  1.
         11    1    3    3    0    0 -0.13103621346E+02  0.12288598530E+02 -0.30233098709E+02  0.35167524850E+02  0.51100000000E-03 0. -1.
        -11    1    3    3    0    0 -0.12704174408E+02  0.63227753080E+01  0.74464702962E+01  0.16025712312E+02  0.51100000000E-03 0.  1.
        -12    1    3    3    0    0  0.25254216671E+02 -0.19440687508E+02  0.22155297132E+02  0.38814597531E+02  0.00000000000E+00 0.  1.
</event>
<event>
 7    1  0.1910099E-015  0.9000771E+02  0.7816164E-02  0.1186339E+00
        -11   -1    0    0    0    0  0.00000000000E+00  0.00000000000E+00  0.45593999997E+02  0.45594000000E+02  0.51100000000E-03 0.  1.
         11   -1    0    0    0    0 -0.00000000000E+00 -0.00000000000E+00 -0.45593999997E+02  0.45594000000E+02  0.51100000000E-03 0. -1.
    9900012    2    1    2    0    0 -0.11723508014E+00 -0.10203257991E+01  0.58161562769E+00  0.90007709553E+02  0.89999970519E+02 0.  0.
        -12    1    1    2    0    0  0.11723508014E+00  0.10203257991E+01 -0.58161562769E+00  0.11802904467E+01  0.00000000000E+00 0.  1.
         11    1    3    3    0    0  0.48315292656E+01  0.12384855008E+02  0.85043288035E+00  0.13321093985E+02  0.51100000000E-03 0. -1.
        -11    1    3    3    0    0  0.11322978041E+02  0.22655233559E+02 -0.20192340556E+02  0.32391357747E+02  0.51100000000E-03 0.  1.
         12    1    3    3    0    0 -0.16271742387E+02 -0.36060414367E+02  0.19923523303E+02  0.44295257821E+02  0.00000000000E+00 0. -1.
</event>
<event>
 7    1  0.2393018E-015  0.9000771E+02  0.7816164E-02  0.1186339E+00
        -11   -1    0    0    0    0  0.00000000000E+00  0.00000000000E+00  0.45593999997E+02  0.45594000000E+02  0.51100000000E-03 0. -1.
         11   -1    0    0    0    0 -0.00000000000E+00 -0.00000000000E+00 -0.45593999997E+02  0.45594000000E+02  0.51100000000E-03 0.  1.
    9900012    2    1    2    0    0  0.94227054675E+00  0.66405242559E+00  0.25344763443E+00  0.90007713971E+02  0.89999974995E+02 0.  0.
        -12    1    1    2    0    0 -0.94227054675E+00 -0.66405242559E+00 -0.25344763443E+00  0.11802860291E+01  0.00000000000E+00 0.  1.
         11    1    3    3    0    0  0.19410670401E+01 -0.68688664165E+01  0.65030422473E+01  0.96560150080E+01  0.51100000000E-03 0. -1.
        -11    1    3    3    0    0 -0.14360010680E+02 -0.33766439164E+02 -0.22864254941E+01  0.36764249786E+02  0.51100000000E-03 0.  1.
         12    1    3    3    0    0  0.13361214187E+02  0.41299358006E+02 -0.39631691188E+01  0.43587449177E+02  0.00000000000E+00 0. -1.
</event>
<event>
 7    1  0.1910099E-015  0.9000751E+02  0.7816164E-02  0.1186340E+00
        -11   -1    0    0    0    0  0.00000000000E+00  0.00000000000E+00  0.45593999997E+02  0.45594000000E+02  0.51100000000E-03 0. -1.
         11   -1    0    0    0    0 -0.00000000000E+00 -0.00000000000E+00 -0.45593999997E+02  0.45594000000E+02  0.51100000000E-03 0.  1.
    9900012    2    1    2    0    0  0.29515897961E+00 -0.47668379406E+00  0.10388559161E+01  0.90007505241E+02  0.89999763509E+02 0.  0.
        -12    1    1    2    0    0 -0.29515897961E+00  0.47668379406E+00 -0.10388559161E+01  0.11804947595E+01  0.00000000000E+00 0.  1.
         11    1    3    3    0    0 -0.48418664724E+01  0.11964882211E+02  0.35827393720E+02  0.38081546952E+02  0.51100000000E-03 0. -1.
        -11    1    3    3    0    0  0.44395195108E+01  0.82159179062E+01  0.21635098408E+01  0.95860010234E+01  0.51100000000E-03 0.  1.
        -12    1    3    3    0    0  0.69750594120E+00 -0.20657483911E+02 -0.36952047644E+02  0.42339957265E+02  0.00000000000E+00 0.  1.
</event>
<event>
 7    1  0.1910099E-015  0.9000772E+02  0.7816164E-02  0.1186339E+00
        -11   -1    0    0    0    0  0.00000000000E+00  0.00000000000E+00  0.45593999997E+02  0.45594000000E+02  0.51100000000E-03 0.  1.
         11   -1    0    0    0    0 -0.00000000000E+00 -0.00000000000E+00 -0.45593999997E+02  0.45594000000E+02  0.51100000000E-03 0. -1.
    9900012    2    1    2    0    0 -0.56401148113E+00 -0.90891222403E+00 -0.49883619459E+00  0.90007717012E+02  0.89999978077E+02 0.  0.
        -12    1    1    2    0    0  0.56401148113E+00  0.90891222403E+00  0.49883619459E+00  0.11802829876E+01  0.00000000000E+00 0.  1.
         11    1    3    3    0    0  0.16340614144E+02 -0.32189684436E+02 -0.20105459577E+02  0.41320950615E+02  0.51100000000E-03 0. -1.
        -11    1    3    3    0    0  0.32493630640E+01  0.74378357190E+01 -0.44657763000E+01  0.92640659933E+01  0.51100000000E-03 0.  1.
        -12    1    3    3    0    0 -0.20153988689E+02  0.23842936493E+02  0.24072399682E+02  0.39422700404E+02  0.00000000000E+00 0.  1.
</event>
<event>
 7    1  0.1910099E-015  0.9000771E+02  0.7816164E-02  0.1186339E+00
        -11   -1    0    0    0    0  0.00000000000E+00  0.00000000000E+00  0.45593999997E+02  0.45594000000E+02  0.51100000000E-03 0. -1.
         11   -1    0    0    0    0 -0.00000000000E+00 -0.00000000000E+00 -0.45593999997E+02  0.45594000000E+02  0.51100000000E-03 0.  1.
    9900012    2    1    2    0    0  0.74204761623E-01 -0.10970214357E+01  0.42909525879E+00  0.90007709731E+02  0.89999970700E+02 0.  0.
        -12    1    1    2    0    0 -0.74204761623E-01  0.10970214357E+01 -0.42909525879E+00  0.11802902686E+01  0.00000000000E+00 0.  1.
         11    1    3    3    0    0  0.22953567879E+01 -0.88985440182E+01  0.40205328159E+02  0.41242225462E+02  0.51100000000E-03 0. -1.
        -11    1    3    3    0    0  0.96730129877E+00 -0.85471794569E+01 -0.43950018300E+01  0.96595025658E+01  0.51100000000E-03 0.  1.
        -12    1    3    3    0    0 -0.31884533251E+01  0.16348702039E+02 -0.35381231070E+02  0.39105981704E+02  0.00000000000E+00 0.  1.
</event>
<event>
 7    1  0.1910099E-015  0.9000771E+02  0.7816164E-02  0.1186339E+00
        -11   -1    0    0    0    0  0.00000000000E+00  0.00000000000E+00  0.45593999997E+02  0.45594000000E+02  0.51100000000E-03 0.  1.
         11   -1    0    0    0    0 -0.00000000000E+00 -0.00000000000E+00 -0.45593999997E+02  0.45594000000E+02  0.51100000000E-03 0. -1.
    9900012    2    1    2    0    0  0.89757293519E+00  0.52218545676E+00 -0.56103476917E+00  0.90007714087E+02  0.89999975113E+02 0.  0.
        -12    1    1    2    0    0 -0.89757293519E+00 -0.52218545676E+00  0.56103476917E+00  0.11802859134E+01  0.00000000000E+00 0.  1.
         11    1    3    3    0    0 -0.13887371768E+02 -0.21815897053E+02  0.14187859833E+02  0.29497251156E+02  0.51100000000E-03 0. -1.
        -11    1    3    3    0    0 -0.11400443368E+02 -0.82400912468E+01  0.59142369136E+01  0.15259338494E+02  0.51100000000E-03 0.  1.
        -12    1    3    3    0    0  0.26185388071E+02  0.30578173757E+02 -0.20663131516E+02  0.45251124437E+02  0.00000000000E+00 0.  1.
</event>
<event>
 7    1  0.1910099E-015  0.9000816E+02  0.7816164E-02  0.1186338E+00
        -11   -1    0    0    0    0  0.00000000000E+00  0.00000000000E+00  0.45593999997E+02  0.45594000000E+02  0.51100000000E-03 0. -1.
         11   -1    0    0    0    0 -0.00000000000E+00 -0.00000000000E+00 -0.45593999997E+02  0.45594000000E+02  0.51100000000E-03 0.  1.
    9900012    2    1    2    0    0 -0.78600939969E+00 -0.82324027616E+00 -0.31063649029E+00  0.90008156638E+02  0.90000423505E+02 0.  0.
        -12    1    1    2    0    0  0.78600939969E+00  0.82324027616E+00  0.31063649029E+00  0.11798433615E+01  0.00000000000E+00 0.  1.
         11    1    3    3    0    0  0.50778198562E+01 -0.32566226922E+01  0.60105328321E+01  0.85156532949E+01  0.51100000000E-03 0. -1.
        -11    1    3    3    0    0 -0.23338879217E+02  0.34794489509E+02 -0.13504350435E+02  0.44019623626E+02  0.51100000000E-03 0.  1.
         12    1    3    3    0    0  0.17475049961E+02 -0.32361107093E+02  0.71831811121E+01  0.37472879717E+02  0.00000000000E+00 0. -1.
</event>
<event>
 7    1  0.1910099E-015  0.9000775E+02  0.7816164E-02  0.1186339E+00
        -11   -1    0    0    0    0  0.00000000000E+00  0.00000000000E+00  0.45593999997E+02  0.45594000000E+02  0.51100000000E-03 0.  1.
         11   -1    0    0    0    0 -0.00000000000E+00 -0.00000000000E+00 -0.45593999997E+02  0.45594000000E+02  0.51100000000E-03 0. -1.
    9900012    2    1    2    0    0 -0.54377093572E+00  0.10438762336E+01  0.87377543779E-01  0.90007746105E+02  0.90000007554E+02 0.  0.
        -12    1    1    2    0    0  0.54377093572E+00 -0.10438762336E+01 -0.87377543779E-01  0.11802538951E+01  0.00000000000E+00 0.  1.
         11    1    3    3    0    0 -0.15691813250E+02 -0.67371710926E+01  0.25487425164E+01  0.17266110335E+02  0.51100000000E-03 0. -1.
        -11    1    3    3    0    0  0.57608079575E+01 -0.24574500086E+02  0.20039769976E+02  0.32228641668E+02  0.51100000000E-03 0.  1.
         12    1    3    3    0    0  0.93872343569E+01  0.32355547412E+02 -0.22501134949E+02  0.40512994103E+02  0.00000000000E+00 0. -1.
</event>
<event>
 7    1  0.1942689E-015  0.9000778E+02  0.7816164E-02  0.1186339E+00
        -11   -1    0    0    0    0  0.00000000000E+00  0.00000000000E+00  0.45593999997E+02  0.45594000000E+02  0.51100000000E-03 0.  1.
         11   -1    0    0    0    0 -0.00000000000E+00 -0.00000000000E+00 -0.45593999997E+02  0.45594000000E+02  0.51100000000E-03 0. -1.
    9900012    2    1    2    0    0  0.31334954764E+00 -0.64457337649E+00 -0.93768632991E+00  0.90007780347E+02  0.90000042247E+02 0.  0.
        -12    1    1    2    0    0 -0.31334954764E+00  0.64457337649E+00  0.93768632991E+00  0.11802196533E+01  0.00000000000E+00 0.  1.
         11    1    3    3    0    0 -0.88570293354E+01 -0.38065189841E+01  0.13274942703E+01  0.97313306759E+01  0.51100000000E-03 0. -1.
        -11    1    3    3    0    0 -0.20094868359E+02  0.32740522730E+02  0.18774301839E+01  0.38461283226E+02  0.51100000000E-03 0.  1.
         12    1    3    3    0    0  0.29265247242E+02 -0.29578577123E+02 -0.41426107841E+01  0.41815166445E+02  0.00000000000E+00 0. -1.
</event>
<event>
 7    1  0.1910099E-015  0.9000777E+02  0.7816164E-02  0.1186339E+00
        -11   -1    0    0    0    0  0.00000000000E+00  0.00000000000E+00  0.45593999997E+02  0.45594000000E+02  0.51100000000E-03 0.  1.
         11   -1    0    0    0    0 -0.00000000000E+00 -0.00000000000E+00 -0.45593999997E+02  0.45594000000E+02  0.51100000000E-03 0. -1.
    9900012    2    1    2    0    0  0.51957515416E+00 -0.74066386213E-01 -0.10571200285E+01  0.90007768275E+02  0.90000030016E+02 0.  0.
        -12    1    1    2    0    0 -0.51957515416E+00  0.74066386213E-01  0.10571200285E+01  0.11802317251E+01  0.00000000000E+00 0.  1.
         11    1    3    3    0    0  0.31807030624E+02  0.17279144375E+02 -0.15023566454E+02  0.39191371202E+02  0.51100000000E-03 0. -1.
        -11    1    3    3    0    0 -0.20391525504E+01  0.90485904891E+01  0.96888997651E+00  0.93259788232E+01  0.51100000000E-03 0.  1.
        -12    1    3    3    0    0 -0.29248302919E+02 -0.26401801250E+02  0.12997556449E+02  0.41490418250E+02  0.00000000000E+00 0.  1.
</event>
<event>
 7    1  0.2926950E-015  0.9000771E+02  0.7816164E-02  0.1186339E+00
        -11   -1    0    0    0    0  0.00000000000E+00  0.00000000000E+00  0.45593999997E+02  0.45594000000E+02  0.51100000000E-03 0. -1.
         11   -1    0    0    0    0 -0.00000000000E+00 -0.00000000000E+00 -0.45593999997E+02  0.45594000000E+02  0.51100000000E-03 0.  1.
    9900012    2    1    2    0    0  0.73426041456E-01 -0.89309214919E+00  0.76816205511E+00  0.90007712784E+02  0.89999973792E+02 0.  0.
        -12    1    1    2    0    0 -0.73426041456E-01  0.89309214919E+00 -0.76816205511E+00  0.11802872165E+01  0.00000000000E+00 0.  1.
         11    1    3    3    0    0  0.20917528069E+01 -0.24112279195E+01 -0.88158653069E+01  0.93759762828E+01  0.51100000000E-03 0. -1.
        -11    1    3    3    0    0  0.57430615850E+01 -0.15862546008E+02 -0.31287027938E+02  0.35545481283E+02  0.51100000000E-03 0.  1.
         12    1    3    3    0    0 -0.77613883504E+01  0.17380681778E+02  0.40871055300E+02  0.45086255217E+02  0.00000000000E+00 0. -1.
</event>
<event>
 7    1  0.1910099E-015  0.9000792E+02  0.7816164E-02  0.1186339E+00
        -11   -1    0    0    0    0  0.00000000000E+00  0.00000000000E+00  0.45593999997E+02  0.45594000000E+02  0.51100000000E-03 0. -1.
         11   -1    0    0    0    0 -0.00000000000E+00 -0.00000000000E+00 -0.45593999997E+02  0.45594000000E+02  0.51100000000E-03 0.  1.
    9900012    2    1    2    0    0  0.64559865906E+00 -0.98753349975E+00 -0.23886281956E-01  0.90007919242E+02  0.90000182975E+02 0.  0.
        -12    1    1    2    0    0 -0.64559865906E+00  0.98753349975E+00  0.23886281956E-01  0.11800807583E+01  0.00000000000E+00 0.  1.
         11    1    3    3    0    0  0.12896873251E+02 -0.24558013785E+01  0.34343845311E+02  0.36767648974E+02  0.51100000000E-03 0. -1.
        -11    1    3    3    0    0  0.77527135940E+01 -0.15201539255E+01  0.47390132519E+01  0.92126914032E+01  0.51100000000E-03 0.  1.
        -12    1    3    3    0    0 -0.20003988186E+02  0.29884218043E+01 -0.39106744845E+02  0.44027578864E+02  0.00000000000E+00 0.  1.
</event>
<event>
 7    1  0.1910099E-015  0.9000784E+02  0.7816164E-02  0.1186339E+00
        -11   -1    0    0    0    0  0.00000000000E+00  0.00000000000E+00  0.45593999997E+02  0.45594000000E+02  0.51100000000E-03 0. -1.
         11   -1    0    0    0    0 -0.00000000000E+00 -0.00000000000E+00 -0.45593999997E+02  0.45594000000E+02  0.51100000000E-03 0.  1.
    9900012    2    1    2    0    0  0.38489274230E+00  0.36944358251E+00 -0.10526892606E+01  0.90007836595E+02  0.90000099238E+02 0.  0.
        -12    1    1    2    0    0 -0.38489274230E+00 -0.36944358251E+00  0.10526892606E+01  0.11801634053E+01  0.00000000000E+00 0.  1.
         11    1    3    3    0    0 -0.17828871711E+02  0.89585949395E+01  0.18439866320E+01  0.20038098132E+02  0.51100000000E-03 0. -1.
        -11    1    3    3    0    0 -0.77877325364E+01  0.20972171190E+02 -0.17055902676E+02  0.28131558059E+02  0.51100000000E-03 0.  1.
        -12    1    3    3    0    0  0.26001496990E+02 -0.29561322547E+02  0.14159226783E+02  0.41838180404E+02  0.00000000000E+00 0.  1.
</event>
<event>
 7    1  0.1910099E-015  0.9000779E+02  0.7816164E-02  0.1186339E+00
        -11   -1    0    0    0    0  0.00000000000E+00  0.00000000000E+00  0.45593999997E+02  0.45594000000E+02  0.51100000000E-03 0.  1.
         11   -1    0    0    0    0 -0.00000000000E+00 -0.00000000000E+00 -0.45593999997E+02  0.45594000000E+02  0.51100000000E-03 0. -1.
    9900012    2    1    2    0    0  0.11446552888E+01  0.14284856671E+00  0.24949077274E+00  0.90007793624E+02  0.90000055700E+02 0.  0.
        -12    1    1    2    0    0 -0.11446552888E+01 -0.14284856671E+00 -0.24949077274E+00  0.11802063755E+01  0.00000000000E+00 0.  1.
         11    1    3    3    0    0  0.41787521911E+01 -0.16568454016E+02 -0.34847721692E+02  0.38811587777E+02  0.51100000000E-03 0. -1.
        -11    1    3    3    0    0  0.51313700449E+01 -0.85884273293E+01  0.55163657185E+01  0.11424637129E+02  0.51100000000E-03 0.  1.
        -12    1    3    3    0    0 -0.81654669472E+01  0.25299729912E+02  0.29580846746E+02  0.39771568719E+02  0.00000000000E+00 0.  1.
</event>
<event>
 7    1  0.1910099E-015  0.9000776E+02  0.7816164E-02  0.1186339E+00
        -11   -1    0    0    0    0  0.00000000000E+00  0.00000000000E+00  0.45593999997E+02  0.45594000000E+02  0.51100000000E-03 0. -1.
         11   -1    0    0    0    0 -0.00000000000E+00 -0.00000000000E+00 -0.45593999997E+02  0.45594000000E+02  0.51100000000E-03 0.  1.
    9900012    2    1    2    0    0  0.49408662814E+00  0.94906978982E+00  0.49810949018E+00  0.90007759293E+02  0.90000020916E+02 0.  0.
        -12    1    1    2    0    0 -0.49408662814E+00 -0.94906978982E+00 -0.49810949018E+00  0.11802407069E+01  0.00000000000E+00 0.  1.
         11    1    3    3    0    0 -0.22263034463E+02  0.29006822386E+02  0.12134614382E+02  0.38526449550E+02  0.51100000000E-03 0. -1.
        -11    1    3    3    0    0 -0.38248521542E+00  0.61607334328E+01 -0.78701631455E+01  0.10002019774E+02  0.51100000000E-03 0.  1.
        -12    1    3    3    0    0  0.23139606307E+02 -0.34218486029E+02 -0.37663417462E+01  0.41479289969E+02  0.00000000000E+00 0.  1.
</event>
<event>
 7    1  0.1910099E-015  0.9000773E+02  0.7816164E-02  0.1186339E+00
        -11   -1    0    0    0    0  0.00000000000E+00  0.00000000000E+00  0.45593999997E+02  0.45594000000E+02  0.51100000000E-03 0. -1.
         11   -1    0    0    0    0 -0.00000000000E+00 -0.00000000000E+00 -0.45593999997E+02  0.45594000000E+02  0.51100000000E-03 0.  1.
    9900012    2    1    2    0    0 -0.11615178185E+01 -0.20909240013E+00  0.14076620610E-01  0.90007728241E+02  0.89999989454E+02 0.  0.
        -12    1    1    2    0    0  0.11615178185E+01  0.20909240013E+00 -0.14076620610E-01  0.11802717592E+01  0.00000000000E+00 0.  1.
         11    1    3    3    0    0  0.81383178886E+01  0.13638150437E+01 -0.10595732639E+02  0.13429883095E+02  0.51100000000E-03 0. -1.
        -11    1    3    3    0    0 -0.15851317244E+02 -0.35157330768E+02 -0.51456077745E+01  0.38907318653E+02  0.51100000000E-03 0.  1.
         12    1    3    3    0    0  0.65514815368E+01  0.33584423324E+02  0.15755417034E+02  0.37670526493E+02  0.00000000000E+00 0. -1.
</event>
<event>
 7    1  0.1910099E-015  0.9000777E+02  0.7816164E-02  0.1186339E+00
        -11   -1    0    0    0    0  0.00000000000E+00  0.00000000000E+00  0.45593999997E+02  0.45594000000E+02  0.51100000000E-03 0.  1.
         11   -1    0    0    0    0 -0.00000000000E+00 -0.00000000000E+00 -0.45593999997E+02  0.45594000000E+02  0.51100000000E-03 0. -1.
    9900012    2    1    2    0    0  0.94781430100E+00  0.69315302497E+00 -0.11886792042E+00  0.90007770087E+02  0.90000031852E+02 0.  0.
        -12    1    1    2    0    0 -0.94781430100E+00 -0.69315302497E+00  0.11886792042E+00  0.11802299131E+01  0.00000000000E+00 0.  1.
         11    1    3    3    0    0  0.27063955588E+02  0.14368135598E+02 -0.26557150269E+02  0.40548529484E+02  0.51100000000E-03 0. -1.
        -11    1    3    3    0    0  0.78505994613E+00  0.73734750050E+01  0.67888293269E+01  0.10053489775E+02  0.51100000000E-03 0.  1.
        -12    1    3    3    0    0 -0.26901201233E+02 -0.21048457578E+02  0.19649453022E+02  0.39405750828E+02  0.00000000000E+00 0.  1.
</event>
<event>
 7    1  0.1910099E-015  0.9000774E+02  0.7816164E-02  0.1186339E+00
        -11   -1    0    0    0    0  0.00000000000E+00  0.00000000000E+00  0.45593999997E+02  0.45594000000E+02  0.51100000000E-03 0.  1.
         11   -1    0    0    0    0 -0.00000000000E+00 -0.00000000000E+00 -0.45593999997E+02  0.45594000000E+02  0.51100000000E-03 0. -1.
    9900012    2    1    2    0    0 -0.41398637519E+00  0.45654531543E+00 -0.10065711059E+01  0.90007744208E+02  0.90000005631E+02 0.  0.
        -12    1    1    2    0    0  0.41398637519E+00 -0.45654531543E+00  0.10065711059E+01  0.11802557922E+01  0.00000000000E+00 0.  1.
         11    1    3    3    0    0 -0.68487835241E+01 -0.46163963238E+01  0.39622920906E+01  0.91606064019E+01  0.51100000000E-03 0. -1.
        -11    1    3    3    0    0 -0.68133024098E+01 -0.36179014561E+02 -0.69910847583E+01  0.37472889543E+02  0.51100000000E-03 0.  1.
         12    1    3    3    0    0  0.13248099559E+02  0.41251956201E+02  0.20222215617E+01  0.43374248263E+02  0.00000000000E+00 0. -1.
</event>
<event>
 7    1  0.1910099E-015  0.9000776E+02  0.7816164E-02  0.1186339E+00
        -11   -1    0    0    0    0  0.00000000000E+00  0.00000000000E+00  0.45593999997E+02  0.45594000000E+02  0.51100000000E-03 0. -1.
         11   -1    0    0    0    0 -0.00000000000E+00 -0.00000000000E+00 -0.45593999997E+02  0.45594000000E+02  0.51100000000E-03 0.  1.
    9900012    2    1    2    0    0 -0.65404537425E+00  0.81618455189E+00 -0.54684820267E+00  0.90007756156E+02  0.90000017737E+02 0.  0.
        -12    1    1    2    0    0  0.65404537425E+00 -0.81618455189E+00  0.54684820267E+00  0.11802438439E+01  0.00000000000E+00 0.  1.
         11    1    3    3    0    0 -0.26532959171E+02  0.99357304950E+01  0.25383351511E+02  0.38039863262E+02  0.51100000000E-03 0. -1.
        -11    1    3    3    0    0 -0.35029140769E+01  0.90353489366E+01 -0.18545310103E+01  0.98664696303E+01  0.51100000000E-03 0.  1.
        -12    1    3    3    0    0  0.29381827874E+02 -0.18154894880E+02 -0.24075668703E+02  0.42101423263E+02  0.00000000000E+00 0.  1.
</event>
<event>
 7    1  0.1910099E-015  0.9000780E+02  0.7816164E-02  0.1186339E+00
        -11   -1    0    0    0    0  0.00000000000E+00  0.00000000000E+00  0.45593999997E+02  0.45594000000E+02  0.51100000000E-03 0. -1.
         11   -1    0    0    0    0 -0.00000000000E+00 -0.00000000000E+00 -0.45593999997E+02  0.45594000000E+02  0.51100000000E-03 0.  1.
    9900012    2    1    2    0    0  0.37083142983E+00 -0.10952298869E+01  0.23626855005E+00  0.90007802016E+02  0.90000064202E+02 0.  0.
        -12    1    1    2    0    0 -0.37083142983E+00  0.10952298869E+01 -0.23626855005E+00  0.11801979843E+01  0.00000000000E+00 0.  1.
         11    1    3    3    0    0 -0.18221570600E+02  0.33297699661E+02  0.10635455891E+02  0.39419225768E+02  0.51100000000E-03 0. -1.
        -11    1    3    3    0    0 -0.30779849555E+01 -0.16650460658E+01 -0.10780971490E+02  0.11334712891E+02  0.51100000000E-03 0.  1.
        -12    1    3    3    0    0  0.21670386985E+02 -0.32727883482E+02  0.38178414942E+00  0.39253863357E+02  0.00000000000E+00 0.  1.
</event>
<event>
 7    1  0.1910099E-015  0.9000782E+02  0.7816164E-02  0.1186339E+00
        -11   -1    0    0    0    0  0.00000000000E+00  0.00000000000E+00  0.45593999997E+02  0.45594000000E+02  0.51100000000E-03 0.  1.
         11   -1    0    0    0    0 -0.00000000000E+00 -0.00000000000E+00 -0.45593999997E+02  0.45594000000E+02  0.51100000000E-03 0. -1.
    9900012    2    1    2    0    0 -0.16714306769E+00 -0.12226987389E+00 -0.11618695708E+01  0.90007818816E+02  0.90000081224E+02 0.  0.
        -12    1    1    2    0    0  0.16714306769E+00  0.12226987389E+00  0.11618695708E+01  0.11801811839E+01  0.00000000000E+00 0.  1.
         11    1    3    3    0    0 -0.53980613808E+01  0.72153151156E+01 -0.11382636825E+00  0.90118142231E+01  0.51100000000E-03 0. -1.
        -11    1    3    3    0    0 -0.26413771240E+02  0.23421726622E+02  0.73852719853E+01  0.36066699760E+02  0.51100000000E-03 0.  1.
         12    1    3    3    0    0  0.31644689553E+02 -0.30759311611E+02 -0.84333151878E+01  0.44929304833E+02  0.00000000000E+00 0. -1.
</event>
<event>
 7    1  0.1910099E-015  0.9000767E+02  0.7816164E-02  0.1186339E+00
        -11   -1    0    0    0    0  0.00000000000E+00  0.00000000000E+00  0.45593999997E+02  0.45594000000E+02  0.51100000000E-03 0.  1.
         11   -1    0    0    0    0 -0.00000000000E+00 -0.00000000000E+00 -0.45593999997E+02  0.45594000000E+02  0.51100000000E-03 0. -1.
    9900012    2    1    2    0    0 -0.28149689499E+00  0.10917028423E+01  0.34946562999E+00  0.90007668765E+02  0.89999929193E+02 0.  0.
        -12    1    1    2    0    0  0.28149689499E+00 -0.10917028423E+01 -0.34946562999E+00  0.11803312350E+01  0.00000000000E+00 0.  1.
         11    1    3    3    0    0  0.43153563591E+00 -0.83136833092E+01  0.42233114863E+01  0.93348761825E+01  0.51100000000E-03 0. -1.
        -11    1    3    3    0    0  0.29424365137E+01 -0.24700213313E+02  0.25419560561E+02  0.35565608806E+02  0.51100000000E-03 0.  1.
         12    1    3    3    0    0 -0.36554690446E+01  0.34105599464E+02 -0.29293406417E+02  0.45107183777E+02  0.00000000000E+00 0. -1.
</event>
<event>
 7    1  0.1910099E-015  0.9000777E+02  0.7816164E-02  0.1186339E+00
        -11   -1    0    0    0    0  0.00000000000E+00  0.00000000000E+00  0.45593999997E+02  0.45594000000E+02  0.51100000000E-03 0.  1.
         11   -1    0    0    0    0 -0.00000000000E+00 -0.00000000000E+00 -0.45593999997E+02  0.45594000000E+02  0.51100000000E-03 0. -1.
    9900012    2    1    2    0    0 -0.92855926562E+00 -0.72803603654E+00  0.26236559666E-01  0.90007768185E+02  0.90000029925E+02 0.  0.
        -12    1    1    2    0    0  0.92855926562E+00  0.72803603654E+00 -0.26236559666E-01  0.11802318151E+01  0.00000000000E+00 0.  1.
         11    1    3    3    0    0 -0.11441790880E+02  0.39999799950E+02  0.63266679322E+01  0.42082363312E+02  0.51100000000E-03 0. -1.
        -11    1    3    3    0    0 -0.31255338712E+01 -0.66707132316E+01 -0.84076612205E+01  0.11178378436E+02  0.51100000000E-03 0.  1.
        -12    1    3    3    0    0  0.13638765486E+02 -0.34057122755E+02  0.21072298479E+01  0.36747026437E+02  0.00000000000E+00 0.  1.
</event>
<event>
 7    1  0.1910099E-015  0.9000772E+02  0.7816164E-02  0.1186339E+00
        -11   -1    0    0    0    0  0.00000000000E+00  0.00000000000E+00  0.45593999997E+02  0.45594000000E+02  0.51100000000E-03 0. -1.
         11   -1    0    0    0    0 -0.00000000000E+00 -0.00000000000E+00 -0.45593999997E+02  0.45594000000E+02  0.51100000000E-03 0.  1.
    9900012    2    1    2    0    0 -0.11160271845E+01  0.19032007562E+00 -0.33365458696E+00  0.90007718766E+02  0.89999979854E+02 0.  0.
        -12    1    1    2    0    0  0.11160271845E+01 -0.19032007562E+00  0.33365458696E+00  0.11802812339E+01  0.00000000000E+00 0.  1.
         11    1    3    3    0    0 -0.10859572649E+02  0.69908677419E+01  0.31748769619E+01  0.13299714053E+02  0.51100000000E-03 0. -1.
        -11    1    3    3    0    0 -0.85418715908E+01 -0.38429688328E+02 -0.70813210880E+01  0.39999370293E+02  0.51100000000E-03 0.  1.
         12    1    3    3    0    0  0.18285417056E+02  0.31629140661E+02  0.35727895391E+01  0.36708634420E+02  0.00000000000E+00 0. -1.
</event>
<event>
 7    1  0.1910099E-015  0.9000793E+02  0.7816164E-02  0.1186339E+00
        -11   -1    0    0    0    0  0.00000000000E+00  0.00000000000E+00  0.45593999997E+02  0.45594000000E+02  0.51100000000E-03 0. -1.
         11   -1    0    0    0    0 -0.00000000000E+00 -0.00000000000E+00 -0.45593999997E+02  0.45594000000E+02  0.51100000000E-03 0.  1.
    9900012    2    1    2    0    0 -0.23986312299E+00 -0.40108393193E+00  0.10835909844E+01  0.90007927096E+02  0.90000190933E+02 0.  0.
        -12    1    1    2    0    0  0.23986312299E+00  0.40108393193E+00 -0.10835909844E+01  0.11800729044E+01  0.00000000000E+00 0.  1.
         11    1    3    3    0    0  0.39400444227E+01 -0.14398400645E+02 -0.68655309178E+00  0.14943535278E+02  0.51100000000E-03 0. -1.
        -11    1    3    3    0    0 -0.17579008890E+02 -0.19545644319E+02 -0.19874731304E+02  0.32955404869E+02  0.51100000000E-03 0.  1.
         12    1    3    3    0    0  0.13399101344E+02  0.33542961032E+02  0.21644875380E+02  0.42108986949E+02  0.00000000000E+00 0. -1.
</event>
<event>
 7    1  0.1910099E-015  0.9000784E+02  0.7816164E-02  0.1186339E+00
        -11   -1    0    0    0    0  0.00000000000E+00  0.00000000000E+00  0.45593999997E+02  0.45594000000E+02  0.51100000000E-03 0.  1.
         11   -1    0    0    0    0 -0.00000000000E+00 -0.00000000000E+00 -0.45593999997E+02  0.45594000000E+02  0.51100000000E-03 0. -1.
    9900012    2    1    2    0    0 -0.33281419097E+00  0.76829961345E+00  0.83169548835E+00  0.90007844516E+02  0.90000107263E+02 0.  0.
        -12    1    1    2    0    0  0.33281419097E+00 -0.76829961345E+00 -0.83169548835E+00  0.11801554843E+01  0.00000000000E+00 0.  1.
         11    1    3    3    0    0  0.34801953283E+02 -0.79705907810E+01  0.97828150708E+01  0.37019045648E+02  0.51100000000E-03 0. -1.
        -11    1    3    3    0    0  0.63575886802E+01 -0.28483307350E+01 -0.69832486443E+01  0.98639588245E+01  0.51100000000E-03 0.  1.
        -12    1    3    3    0    0 -0.41492356154E+02  0.11587221129E+02 -0.19678709382E+01  0.43124840043E+02  0.00000000000E+00 0.  1.
</event>
<event>
 7    1  0.1910099E-015  0.9000779E+02  0.7816164E-02  0.1186339E+00
        -11   -1    0    0    0    0  0.00000000000E+00  0.00000000000E+00  0.45593999997E+02  0.45594000000E+02  0.51100000000E-03 0. -1.
         11   -1    0    0    0    0 -0.00000000000E+00 -0.00000000000E+00 -0.45593999997E+02  0.45594000000E+02  0.51100000000E-03 0.  1.
    9900012    2    1    2    0    0  0.80567341759E+00 -0.81513506721E+00 -0.28166346107E+00  0.90007792756E+02  0.90000054820E+02 0.  0.
        -12    1    1    2    0    0 -0.80567341759E+00  0.81513506721E+00  0.28166346107E+00  0.11802072441E+01  0.00000000000E+00 0.  1.
         11    1    3    3    0    0 -0.58585365054E+01  0.24629020082E+01 -0.12646219450E+01  0.64797843492E+01  0.51100000000E-03 0. -1.
        -11    1    3    3    0    0 -0.35202382200E+01  0.35448412618E+02 -0.17190555785E+02  0.39553726028E+02  0.51100000000E-03 0.  1.
         12    1    3    3    0    0  0.10184448143E+02 -0.38726449693E+02  0.18173514269E+02  0.43974282379E+02  0.00000000000E+00 0. -1.
</event>
<event>
 7    1  0.1910099E-015  0.9000780E+02  0.7816164E-02  0.1186339E+00
        -11   -1    0    0    0    0  0.00000000000E+00  0.00000000000E+00  0.45593999997E+02  0.45594000000E+02  0.51100000000E-03 0.  1.
         11   -1    0    0    0    0 -0.00000000000E+00 -0.00000000000E+00 -0.45593999997E+02  0.45594000000E+02  0.51100000000E-03 0. -1.
    9900012    2    1    2    0    0  0.72484852192E-01  0.11724778394E+01  0.11361691633E+00  0.90007802075E+02  0.90000064263E+02 0.  0.
        -12    1    1    2    0    0 -0.72484852192E-01 -0.11724778394E+01 -0.11361691633E+00  0.11801979246E+01  0.00000000000E+00 0.  1.
         11    1    3    3    0    0 -0.77815122052E-01  0.16574226086E+02 -0.30935522896E+01  0.16860637342E+02  0.51100000000E-03 0. -1.
        -11    1    3    3    0    0  0.31643582281E+02 -0.52770475456E+01  0.18137899839E+02  0.36853045209E+02  0.51100000000E-03 0.  1.
         12    1    3    3    0    0 -0.31493282307E+02 -0.10124700701E+02 -0.14930730634E+02  0.36294119524E+02  0.00000000000E+00 0. -1.
</event>
<event>
 7    1  0.1910099E-015  0.9000765E+02  0.7816164E-02  0.1186339E+00
        -11   -1    0    0    0    0  0.00000000000E+00  0.00000000000E+00  0.45593999997E+02  0.45594000000E+02  0.51100000000E-03 0.  1.
         11   -1    0    0    0    0 -0.00000000000E+00 -0.00000000000E+00 -0.45593999997E+02  0.45594000000E+02  0.51100000000E-03 0. -1.
    9900012    2    1    2    0    0 -0.95774771674E-01 -0.11714214959E+01 -0.10871541344E+00  0.90007652522E+02  0.89999912735E+02 0.  0.
        -12    1    1    2    0    0  0.95774771674E-01  0.11714214959E+01  0.10871541344E+00  0.11803474781E+01  0.00000000000E+00 0.  1.
         11    1    3    3    0    0  0.61347433843E+01 -0.56682394049E+01 -0.57194595095E+01  0.10123054464E+02  0.51100000000E-03 0. -1.
        -11    1    3    3    0    0 -0.18757652346E+02 -0.19284237742E+02  0.32279698779E+02  0.42020355786E+02  0.51100000000E-03 0.  1.
         12    1    3    3    0    0  0.12527134190E+02  0.23781055651E+02 -0.26668954683E+02  0.37864242272E+02  0.00000000000E+00 0. -1.
</event>
<event>
 7    1  0.1910099E-015  0.9000751E+02  0.7816164E-02  0.1186340E+00
        -11   -1    0    0    0    0  0.00000000000E+00  0.00000000000E+00  0.45593999997E+02  0.45594000000E+02  0.51100000000E-03 0.  1.
         11   -1    0    0    0    0 -0.00000000000E+00 -0.00000000000E+00 -0.45593999997E+02  0.45594000000E+02  0.51100000000E-03 0. -1.
    9900012    2    1    2    0    0 -0.62582501104E+00  0.77227796063E+00  0.63678470841E+00  0.90007506477E+02  0.89999764762E+02 0.  0.
        -12    1    1    2    0    0  0.62582501104E+00 -0.77227796063E+00 -0.63678470841E+00  0.11804935230E+01  0.00000000000E+00 0.  1.
         11    1    3    3    0    0  0.35540961006E+00  0.83414593744E+01 -0.48576757534E+01  0.96593620116E+01  0.51100000000E-03 0. -1.
        -11    1    3    3    0    0  0.25647195673E+02 -0.22092743983E+02  0.26888744880E+02  0.43230458985E+02  0.51100000000E-03 0.  1.
         12    1    3    3    0    0 -0.26628430294E+02  0.14523562569E+02 -0.21394284418E+02  0.37117685480E+02  0.00000000000E+00 0. -1.
</event>
<event>
 7    1  0.2151201E-015  0.9000778E+02  0.7816164E-02  0.1186339E+00
        -11   -1    0    0    0    0  0.00000000000E+00  0.00000000000E+00  0.45593999997E+02  0.45594000000E+02  0.51100000000E-03 0.  1.
         11   -1    0    0    0    0 -0.00000000000E+00 -0.00000000000E+00 -0.45593999997E+02  0.45594000000E+02  0.51100000000E-03 0. -1.
    9900012    2    1    2    0    0  0.11465822010E+01  0.78496090508E-01 -0.26852142861E+00  0.90007781318E+02  0.90000043231E+02 0.  0.
        -12    1    1    2    0    0 -0.11465822010E+01 -0.78496090508E-01  0.26852142861E+00  0.11802186821E+01  0.00000000000E+00 0.  1.
         11    1    3    3    0    0 -0.42656381050E+01 -0.82371793190E+01 -0.27401989695E+01  0.96724082952E+01  0.51100000000E-03 0. -1.
        -11    1    3    3    0    0 -0.30721985118E+02 -0.10626133517E+02  0.17424979930E+02  0.36883397470E+02  0.51100000000E-03 0.  1.
         12    1    3    3    0    0  0.36134205424E+02  0.18941808926E+02 -0.14953302389E+02  0.43451975552E+02  0.00000000000E+00 0. -1.
</event>
<event>
 7    1  0.1910099E-015  0.9000771E+02  0.7816164E-02  0.1186339E+00
        -11   -1    0    0    0    0  0.00000000000E+00  0.00000000000E+00  0.45593999997E+02  0.45594000000E+02  0.51100000000E-03 0. -1.
         11   -1    0    0    0    0 -0.00000000000E+00 -0.00000000000E+00 -0.45593999997E+02  0.45594000000E+02  0.51100000000E-03 0.  1.
    9900012    2    1    2    0    0  0.43397767993E+00 -0.10593636551E+01 -0.28722788303E+00  0.90007708580E+02  0.89999969533E+02 0.  0.
        -12    1    1    2    0    0 -0.43397767993E+00  0.10593636551E+01  0.28722788303E+00  0.11802914204E+01  0.00000000000E+00 0.  1.
         11    1    3    3    0    0 -0.75810519196E+00  0.99819189554E+01 -0.11646586973E+01  0.10078187320E+02  0.51100000000E-03 0. -1.
        -11    1    3    3    0    0  0.49224534010E+01  0.33216776723E+02 -0.82687026029E+01  0.34582600341E+02  0.51100000000E-03 0.  1.
         12    1    3    3    0    0 -0.37303705291E+01 -0.44258059334E+02  0.91461334172E+01  0.45346920918E+02  0.00000000000E+00 0. -1.
</event>
<event>
 7    1  0.1910099E-015  0.9000764E+02  0.7816164E-02  0.1186339E+00
        -11   -1    0    0    0    0  0.00000000000E+00  0.00000000000E+00  0.45593999997E+02  0.45594000000E+02  0.51100000000E-03 0.  1.
         11   -1    0    0    0    0 -0.00000000000E+00 -0.00000000000E+00 -0.45593999997E+02  0.45594000000E+02  0.51100000000E-03 0. -1.
    9900012    2    1    2    0    0 -0.91731830127E+00 -0.25043887326E+00 -0.69932814861E+00  0.90007638888E+02  0.89999898921E+02 0.  0.
        -12    1    1    2    0    0  0.91731830127E+00  0.25043887326E+00  0.69932814861E+00  0.11803611119E+01  0.00000000000E+00 0.  1.
         11    1    3    3    0    0 -0.37388738909E+02  0.30919047883E+00 -0.83821122525E+01  0.38318053213E+02  0.51100000000E-03 0. -1.
        -11    1    3    3    0    0 -0.33231539352E+01  0.94119303775E+01  0.28547910832E+01  0.10381599968E+02  0.51100000000E-03 0.  1.
        -12    1    3    3    0    0  0.39794574543E+02 -0.99715597296E+01  0.48279930207E+01  0.41307985707E+02  0.00000000000E+00 0.  1.
</event>
<event>
 7    1  0.1910099E-015  0.9000772E+02  0.7816164E-02  0.1186339E+00
        -11   -1    0    0    0    0  0.00000000000E+00  0.00000000000E+00  0.45593999997E+02  0.45594000000E+02  0.51100000000E-03 0.  1.
         11   -1    0    0    0    0 -0.00000000000E+00 -0.00000000000E+00 -0.45593999997E+02  0.45594000000E+02  0.51100000000E-03 0. -1.
    9900012    2    1    2    0    0  0.75112227423E+00  0.80550689161E+00 -0.42429416552E+00  0.90007723947E+02  0.89999985103E+02 0.  0.
        -12    1    1    2    0    0 -0.75112227423E+00 -0.80550689161E+00  0.42429416552E+00  0.11802760534E+01  0.00000000000E+00 0.  1.
         11    1    3    3    0    0 -0.42932881567E+01 -0.31499300950E+01 -0.37889929928E+02  0.38262268268E+02  0.51100000000E-03 0. -1.
        -11    1    3    3    0    0  0.56821428299E+01 -0.57764070505E+01 -0.40789620985E+01  0.90714694297E+01  0.51100000000E-03 0.  1.
        -12    1    3    3    0    0 -0.63773239897E+00  0.97318440371E+01  0.41544597861E+02  0.42673986249E+02  0.00000000000E+00 0.  1.
</event>
<event>
 7    1  0.1910099E-015  0.9000779E+02  0.7816164E-02  0.1186339E+00
        -11   -1    0    0    0    0  0.00000000000E+00  0.00000000000E+00  0.45593999997E+02  0.45594000000E+02  0.51100000000E-03 0.  1.
         11   -1    0    0    0    0 -0.00000000000E+00 -0.00000000000E+00 -0.45593999997E+02  0.45594000000E+02  0.51100000000E-03 0. -1.
    9900012    2    1    2    0    0  0.46655219081E+00  0.11228603986E+00 -0.10782470784E+01  0.90007789907E+02  0.90000051934E+02 0.  0.
        -12    1    1    2    0    0 -0.46655219081E+00 -0.11228603986E+00  0.10782470784E+01  0.11802100930E+01  0.00000000000E+00 0.  1.
         11    1    3    3    0    0  0.29853366948E+02 -0.27272794557E+02 -0.88198772057E+01  0.41386218422E+02  0.51100000000E-03 0. -1.
        -11    1    3    3    0    0  0.22501046840E+01  0.35836013002E+01  0.79776543582E+01  0.90304008044E+01  0.51100000000E-03 0.  1.
        -12    1    3    3    0    0 -0.31636919441E+02  0.23801479297E+02 -0.23602423088E+00  0.39591170681E+02  0.00000000000E+00 0.  1.
</event>
<event>
 7    1  0.1910099E-015  0.9000771E+02  0.7816164E-02  0.1186339E+00
        -11   -1    0    0    0    0  0.00000000000E+00  0.00000000000E+00  0.45593999997E+02  0.45594000000E+02  0.51100000000E-03 0.  1.
         11   -1    0    0    0    0 -0.00000000000E+00 -0.00000000000E+00 -0.45593999997E+02  0.45594000000E+02  0.51100000000E-03 0. -1.
    9900012    2    1    2    0    0 -0.55753450902E+00  0.80997362617E+00 -0.65281864258E+00  0.90007714363E+02  0.89999975393E+02 0.  0.
        -12    1    1    2    0    0  0.55753450902E+00 -0.80997362617E+00  0.65281864258E+00  0.11802856366E+01  0.00000000000E+00 0.  1.
         11    1    3    3    0    0 -0.17475686836E+01 -0.10289722809E+02 -0.59555412960E+01  0.12016691066E+02  0.51100000000E-03 0. -1.
        -11    1    3    3    0    0 -0.35275088511E+02 -0.84416168976E+01 -0.80251611100E-01  0.36271189751E+02  0.51100000000E-03 0.  1.
         12    1    3    3    0    0  0.36465122686E+02  0.19541313332E+02  0.53829742645E+01  0.41719833547E+02  0.00000000000E+00 0. -1.
</event>
<event>
 7    1  0.1910099E-015  0.9000779E+02  0.7816164E-02  0.1186339E+00
        -11   -1    0    0    0    0  0.00000000000E+00  0.00000000000E+00  0.45593999997E+02  0.45594000000E+02  0.51100000000E-03 0. -1.
         11   -1    0    0    0    0 -0.00000000000E+00 -0.00000000000E+00 -0.45593999997E+02  0.45594000000E+02  0.51100000000E-03 0.  1.
    9900012    2    1    2    0    0  0.10795254054E+01  0.31142625477E+00  0.36129977028E+00  0.90007788605E+02  0.90000050615E+02 0.  0.
        -12    1    1    2    0    0 -0.10795254054E+01 -0.31142625477E+00 -0.36129977028E+00  0.11802113951E+01  0.00000000000E+00 0.  1.
         11    1    3    3    0    0 -0.86925050965E+01 -0.28585291368E+01 -0.19747883696E+01  0.93611229585E+01  0.51100000000E-03 0. -1.
        -11    1    3    3    0    0  0.17393028357E+02  0.32861850587E+02 -0.20466191711E+02  0.42441532287E+02  0.51100000000E-03 0.  1.
         12    1    3    3    0    0 -0.76209978552E+01 -0.29691895196E+02  0.22802279851E+02  0.38205133359E+02  0.00000000000E+00 0. -1.
</event>
<event>
 7    1  0.1910099E-015  0.9000775E+02  0.7816164E-02  0.1186339E+00
        -11   -1    0    0    0    0  0.00000000000E+00  0.00000000000E+00  0.45593999997E+02  0.45594000000E+02  0.51100000000E-03 0.  1.
         11   -1    0    0    0    0 -0.00000000000E+00 -0.00000000000E+00 -0.45593999997E+02  0.45594000000E+02  0.51100000000E-03 0. -1.
    9900012    2    1    2    0    0 -0.11311692148E+01 -0.51550196101E-01 -0.33285769162E+00  0.90007747714E+02  0.90000009184E+02 0.  0.
        -12    1    1    2    0    0  0.11311692148E+01  0.51550196101E-01  0.33285769162E+00  0.11802522858E+01  0.00000000000E+00 0.  1.
         11    1    3    3    0    0 -0.59037530494E+01 -0.73480462537E+01  0.17842265266E+01  0.95933074784E+01  0.51100000000E-03 0. -1.
        -11    1    3    3    0    0 -0.26704294460E+02  0.21579460948E+02 -0.21768539497E+02  0.40652943184E+02  0.51100000000E-03 0.  1.
         12    1    3    3    0    0  0.31476878294E+02 -0.14282964891E+02  0.19651455279E+02  0.39761497052E+02  0.00000000000E+00 0. -1.
</event>
<event>
 7    1  0.1910099E-015  0.9000727E+02  0.7816164E-02  0.1186340E+00
        -11   -1    0    0    0    0  0.00000000000E+00  0.00000000000E+00  0.45593999997E+02  0.45594000000E+02  0.51100000000E-03 0.  1.
         11   -1    0    0    0    0 -0.00000000000E+00 -0.00000000000E+00 -0.45593999997E+02  0.45594000000E+02  0.51100000000E-03 0. -1.
    9900012    2    1    2    0    0  0.48115737069E+00  0.56305258543E+00 -0.91955926496E+00  0.90007267231E+02  0.89999522357E+02 0.  0.
        -12    1    1    2    0    0 -0.48115737069E+00 -0.56305258543E+00  0.91955926496E+00  0.11807327687E+01  0.00000000000E+00 0.  1.
         11    1    3    3    0    0 -0.16731986234E+02  0.20500298871E+02 -0.31066014934E+01  0.26643434280E+02  0.51100000000E-03 0. -1.
        -11    1    3    3    0    0 -0.19865268973E+01  0.11607648373E+02  0.19342209333E+02  0.22645194899E+02  0.51100000000E-03 0.  1.
         12    1    3    3    0    0  0.19199670502E+02 -0.31544894659E+02 -0.17155167105E+02  0.40718638052E+02  0.00000000000E+00 0. -1.
</event>
<event>
 7    1  0.1910099E-015  0.9000767E+02  0.7816164E-02  0.1186339E+00
        -11   -1    0    0    0    0  0.00000000000E+00  0.00000000000E+00  0.45593999997E+02  0.45594000000E+02  0.51100000000E-03 0.  1.
         11   -1    0    0    0    0 -0.00000000000E+00 -0.00000000000E+00 -0.45593999997E+02  0.45594000000E+02  0.51100000000E-03 0. -1.
    9900012    2    1    2    0    0  0.83617198216E+00  0.80753879447E+00  0.20464015799E+00  0.90007669503E+02  0.89999929940E+02 0.  0.
        -12    1    1    2    0    0 -0.83617198216E+00 -0.80753879447E+00 -0.20464015799E+00  0.11803304972E+01  0.00000000000E+00 0.  1.
         11    1    3    3    0    0 -0.26989513861E+01 -0.36153312212E+01 -0.10168287858E+02  0.11124254431E+02  0.51100000000E-03 0. -1.
        -11    1    3    3    0    0 -0.25059799258E+02 -0.23886909084E+02 -0.65443295397E+01  0.35233594960E+02  0.51100000000E-03 0.  1.
         12    1    3    3    0    0  0.28594922626E+02  0.28309779099E+02  0.16917257555E+02  0.43649820112E+02  0.00000000000E+00 0. -1.
</event>
<event>
 7    1  0.1910099E-015  0.9000783E+02  0.7816164E-02  0.1186339E+00
        -11   -1    0    0    0    0  0.00000000000E+00  0.00000000000E+00  0.45593999997E+02  0.45594000000E+02  0.51100000000E-03 0.  1.
         11   -1    0    0    0    0 -0.00000000000E+00 -0.00000000000E+00 -0.45593999997E+02  0.45594000000E+02  0.51100000000E-03 0. -1.
    9900012    2    1    2    0    0 -0.75025439695E+00 -0.86521823407E-01  0.90687701725E+00  0.90007833228E+02  0.90000095826E+02 0.  0.
        -12    1    1    2    0    0  0.75025439695E+00  0.86521823407E-01 -0.90687701725E+00  0.11801667723E+01  0.00000000000E+00 0.  1.
         11    1    3    3    0    0 -0.32952876804E+02 -0.25607068549E+02  0.70789323341E+01  0.42328776649E+02  0.51100000000E-03 0. -1.
        -11    1    3    3    0    0  0.61586006735E+01  0.27107227072E+01  0.78390035939E+01  0.10330844954E+02  0.51100000000E-03 0.  1.
        -12    1    3    3    0    0  0.26044021734E+02  0.22809824018E+02 -0.14011058911E+02  0.37348211625E+02  0.00000000000E+00 0.  1.
</event>
<event>
 7    1  0.1910099E-015  0.9000771E+02  0.7816164E-02  0.1186339E+00
        -11   -1    0    0    0    0  0.00000000000E+00  0.00000000000E+00  0.45593999997E+02  0.45594000000E+02  0.51100000000E-03 0.  1.
         11   -1    0    0    0    0 -0.00000000000E+00 -0.00000000000E+00 -0.45593999997E+02  0.45594000000E+02  0.51100000000E-03 0. -1.
    9900012    2    1    2    0    0  0.46039480278E+00 -0.10301659753E+01 -0.34625110386E+00  0.90007705487E+02  0.89999966399E+02 0.  0.
        -12    1    1    2    0    0 -0.46039480278E+00  0.10301659753E+01  0.34625110386E+00  0.11802945132E+01  0.00000000000E+00 0.  1.
         11    1    3    3    0    0  0.10588684285E+02  0.17123685264E+01  0.27316654646E+01  0.11068624004E+02  0.51100000000E-03 0. -1.
        -11    1    3    3    0    0 -0.71369157946E+01  0.26163015233E+02  0.26185688720E+02  0.37697867674E+02  0.51100000000E-03 0.  1.
         12    1    3    3    0    0 -0.29913736878E+01 -0.28905549734E+02 -0.29263605289E+02  0.41241213810E+02  0.00000000000E+00 0. -1.
</event>
<event>
 7    1  0.1910099E-015  0.9000764E+02  0.7816164E-02  0.1186339E+00
        -11   -1    0    0    0    0  0.00000000000E+00  0.00000000000E+00  0.45593999997E+02  0.45594000000E+02  0.51100000000E-03 0. -1.
         11   -1    0    0    0    0 -0.00000000000E+00 -0.00000000000E+00 -0.45593999997E+02  0.45594000000E+02  0.51100000000E-03 0.  1.
    9900012    2    1    2    0    0 -0.90665491470E+00 -0.57480258131E+00  0.49073109285E+00  0.90007644906E+02  0.89999905019E+02 0.  0.
        -12    1    1    2    0    0  0.90665491470E+00  0.57480258131E+00 -0.49073109285E+00  0.11803550937E+01  0.00000000000E+00 0.  1.
         11    1    3    3    0    0 -0.31259547664E+02 -0.12055033206E+02  0.22445790249E+02  0.40327368448E+02  0.51100000000E-03 0. -1.
        -11    1    3    3    0    0 -0.57938299637E+01  0.53740818137E+01 -0.41621037393E+01  0.89315356343E+01  0.51100000000E-03 0.  1.
        -12    1    3    3    0    0  0.36146722713E+02  0.61061488114E+01 -0.17792955417E+02  0.40748740824E+02  0.00000000000E+00 0.  1.
</event>
<event>
 7    1  0.1910099E-015  0.9000767E+02  0.7816164E-02  0.1186339E+00
        -11   -1    0    0    0    0  0.00000000000E+00  0.00000000000E+00  0.45593999997E+02  0.45594000000E+02  0.51100000000E-03 0.  1.
         11   -1    0    0    0    0 -0.00000000000E+00 -0.00000000000E+00 -0.45593999997E+02  0.45594000000E+02  0.51100000000E-03 0. -1.
    9900012    2    1    2    0    0  0.14352423086E+00  0.35721038986E+00 -0.11157903077E+01  0.90007666794E+02  0.89999927195E+02 0.  0.
        -12    1    1    2    0    0 -0.14352423086E+00 -0.35721038986E+00  0.11157903077E+01  0.11803332064E+01  0.00000000000E+00 0.  1.
         11    1    3    3    0    0  0.78285903031E+01 -0.16805235220E+01  0.58397850156E+01  0.99103014451E+01  0.51100000000E-03 0. -1.
        -11    1    3    3    0    0 -0.97422903731E+01 -0.31614380358E+02  0.18453143397E+02  0.37880070863E+02  0.51100000000E-03 0.  1.
         12    1    3    3    0    0  0.20572243008E+01  0.33652114269E+02 -0.25408718721E+02  0.42217294485E+02  0.00000000000E+00 0. -1.
</event>
<event>
 7    1  0.1910099E-015  0.9000794E+02  0.7816164E-02  0.1186339E+00
        -11   -1    0    0    0    0  0.00000000000E+00  0.00000000000E+00  0.45593999997E+02  0.45594000000E+02  0.51100000000E-03 0. -1.
         11   -1    0    0    0    0 -0.00000000000E+00 -0.00000000000E+00 -0.45593999997E+02  0.45594000000E+02  0.51100000000E-03 0.  1.
    9900012    2    1    2    0    0 -0.68224180768E+00 -0.27673318363E+00  0.92222842746E+00  0.90007940505E+02  0.90000204520E+02 0.  0.
        -12    1    1    2    0    0  0.68224180768E+00  0.27673318363E+00 -0.92222842746E+00  0.11800594949E+01  0.00000000000E+00 0.  1.
         11    1    3    3    0    0  0.33323358323E+02  0.18227569598E+02 -0.16723901142E+01  0.38019565915E+02  0.51100000000E-03 0. -1.
        -11    1    3    3    0    0  0.35435957752E+01 -0.25557813662E+01 -0.86331189331E+01  0.96757341935E+01  0.51100000000E-03 0.  1.
        -12    1    3    3    0    0 -0.37549195906E+02 -0.15948521415E+02  0.11227737475E+02  0.42312640397E+02  0.00000000000E+00 0.  1.
</event>
<event>
 7    1  0.1910099E-015  0.9000776E+02  0.7816164E-02  0.1186339E+00
        -11   -1    0    0    0    0  0.00000000000E+00  0.00000000000E+00  0.45593999997E+02  0.45594000000E+02  0.51100000000E-03 0.  1.
         11   -1    0    0    0    0 -0.00000000000E+00 -0.00000000000E+00 -0.45593999997E+02  0.45594000000E+02  0.51100000000E-03 0. -1.
    9900012    2    1    2    0    0  0.33441004799E+00 -0.10932345839E+01 -0.29320873967E+00  0.90007761337E+02  0.90000022987E+02 0.  0.
        -12    1    1    2    0    0 -0.33441004799E+00  0.10932345839E+01  0.29320873967E+00  0.11802386626E+01  0.00000000000E+00 0.  1.
         11    1    3    3    0    0  0.28036440444E+01  0.26955620881E+01  0.92594095123E+01  0.10043064257E+02  0.51100000000E-03 0. -1.
        -11    1    3    3    0    0  0.11435441001E+02 -0.70286037119E+01  0.32709310988E+02  0.35356323432E+02  0.51100000000E-03 0.  1.
         12    1    3    3    0    0 -0.13904674997E+02  0.32398070399E+01 -0.42261929240E+02  0.44608373648E+02  0.00000000000E+00 0. -1.
</event>
<event>
 7    1  0.1910099E-015  0.9000784E+02  0.7816164E-02  0.1186339E+00
        -11   -1    0    0    0    0  0.00000000000E+00  0.00000000000E+00  0.45593999997E+02  0.45594000000E+02  0.51100000000E-03 0. -1.
         11   -1    0    0    0    0 -0.00000000000E+00 -0.00000000000E+00 -0.45593999997E+02  0.45594000000E+02  0.51100000000E-03 0.  1.
    9900012    2    1    2    0    0 -0.29364792353E+00  0.85324393614E-01  0.11398562120E+01  0.90007838342E+02  0.90000101008E+02 0.  0.
        -12    1    1    2    0    0  0.29364792353E+00 -0.85324393614E-01 -0.11398562120E+01  0.11801616581E+01  0.00000000000E+00 0.  1.
         11    1    3    3    0    0 -0.18278455404E+02 -0.20954063207E+02  0.15553138371E+02  0.31860238704E+02  0.51100000000E-03 0. -1.
        -11    1    3    3    0    0  0.21395637251E+02 -0.75434479749E+01  0.52513045045E+01  0.23286328607E+02  0.51100000000E-03 0.  1.
        -12    1    3    3    0    0 -0.34108297711E+01  0.28582835576E+02 -0.19664586663E+02  0.34861271031E+02  0.00000000000E+00 0.  1.
</event>
<event>
 7    1  0.1910099E-015  0.9000772E+02  0.7816164E-02  0.1186339E+00
        -11   -1    0    0    0    0  0.00000000000E+00  0.00000000000E+00  0.45593999997E+02  0.45594000000E+02  0.51100000000E-03 0.  1.
         11   -1    0    0    0    0 -0.00000000000E+00 -0.00000000000E+00 -0.45593999997E+02  0.45594000000E+02  0.51100000000E-03 0. -1.
    9900012    2    1    2    0    0 -0.50919752950E+00  0.29487530226E+00 -0.10231462580E+01  0.90007719596E+02  0.89999980694E+02 0.  0.
        -12    1    1    2    0    0  0.50919752950E+00 -0.29487530226E+00  0.10231462580E+01  0.11802804044E+01  0.00000000000E+00 0.  1.
         11    1    3    3    0    0  0.39269042019E+01  0.39828876511E+01 -0.29890993386E+01  0.63418203829E+01  0.51100000000E-03 0. -1.
        -11    1    3    3    0    0 -0.22542175340E+01 -0.19745484658E+02 -0.36703281107E+02  0.41738429598E+02  0.51100000000E-03 0.  1.
         12    1    3    3    0    0 -0.21818841974E+01  0.16057472310E+02  0.38669234187E+02  0.41927469614E+02  0.00000000000E+00 0. -1.
</event>
<event>
 7    1  0.1910099E-015  0.9000774E+02  0.7816164E-02  0.1186339E+00
        -11   -1    0    0    0    0  0.00000000000E+00  0.00000000000E+00  0.45593999997E+02  0.45594000000E+02  0.51100000000E-03 0. -1.
         11   -1    0    0    0    0 -0.00000000000E+00 -0.00000000000E+00 -0.45593999997E+02  0.45594000000E+02  0.51100000000E-03 0.  1.
    9900012    2    1    2    0    0  0.47075648861E+00 -0.77104794402E+00 -0.75952904289E+00  0.90007741143E+02  0.90000002526E+02 0.  0.
        -12    1    1    2    0    0 -0.47075648861E+00  0.77104794402E+00  0.75952904289E+00  0.11802588574E+01  0.00000000000E+00 0.  1.
         11    1    3    3    0    0  0.16509850681E+01 -0.80193666473E+01 -0.18030562514E+02  0.19802453837E+02  0.51100000000E-03 0. -1.
        -11    1    3    3    0    0 -0.11721719843E+02 -0.17495711410E+02 -0.16699132117E+02  0.26876749200E+02  0.51100000000E-03 0.  1.
         12    1    3    3    0    0  0.10541491264E+02  0.24744030113E+02  0.33970165589E+02  0.43328538106E+02  0.00000000000E+00 0. -1.
</event>
<event>
 7    1  0.1910099E-015  0.9000772E+02  0.7816164E-02  0.1186339E+00
        -11   -1    0    0    0    0  0.00000000000E+00  0.00000000000E+00  0.45593999997E+02  0.45594000000E+02  0.51100000000E-03 0. -1.
         11   -1    0    0    0    0 -0.00000000000E+00 -0.00000000000E+00 -0.45593999997E+02  0.45594000000E+02  0.51100000000E-03 0.  1.
    9900012    2    1    2    0    0  0.80862859818E+00 -0.24987111029E+00  0.82264511110E+00  0.90007720050E+02  0.89999981155E+02 0.  0.
        -12    1    1    2    0    0 -0.80862859818E+00  0.24987111029E+00 -0.82264511110E+00  0.11802799500E+01  0.00000000000E+00 0.  1.
         11    1    3    3    0    0 -0.26967553982E+02 -0.11740964171E+02  0.25337939571E+02  0.38821519669E+02  0.51100000000E-03 0. -1.
        -11    1    3    3    0    0 -0.47291433115E+01 -0.62200556915E+01 -0.29956701648E+01  0.83682691916E+01  0.51100000000E-03 0.  1.
        -12    1    3    3    0    0  0.32505325892E+02  0.17711148753E+02 -0.21519624295E+02  0.42817931189E+02  0.00000000000E+00 0.  1.
</event>
<event>
 7    1  0.1910099E-015  0.9000774E+02  0.7816164E-02  0.1186339E+00
        -11   -1    0    0    0    0  0.00000000000E+00  0.00000000000E+00  0.45593999997E+02  0.45594000000E+02  0.51100000000E-03 0.  1.
         11   -1    0    0    0    0 -0.00000000000E+00 -0.00000000000E+00 -0.45593999997E+02  0.45594000000E+02  0.51100000000E-03 0. -1.
    9900012    2    1    2    0    0 -0.61001193400E+00 -0.53398021723E+00 -0.85776738177E+00  0.90007739726E+02  0.90000001091E+02 0.  0.
        -12    1    1    2    0    0  0.61001193400E+00  0.53398021723E+00  0.85776738177E+00  0.11802602735E+01  0.00000000000E+00 0.  1.
         11    1    3    3    0    0  0.11273288123E+02  0.68846534484E+01 -0.36478503633E+02  0.38796478007E+02  0.51100000000E-03 0. -1.
        -11    1    3    3    0    0 -0.52310792276E+01  0.68374867562E+01 -0.33089576991E+01  0.92230481048E+01  0.51100000000E-03 0.  1.
        -12    1    3    3    0    0 -0.66522208294E+01 -0.14256120422E+02  0.38929693950E+02  0.41988213614E+02  0.00000000000E+00 0.  1.
</event>
<event>
 7    1  0.1910099E-015  0.9000768E+02  0.7816164E-02  0.1186339E+00
        -11   -1    0    0    0    0  0.00000000000E+00  0.00000000000E+00  0.45593999997E+02  0.45594000000E+02  0.51100000000E-03 0. -1.
         11   -1    0    0    0    0 -0.00000000000E+00 -0.00000000000E+00 -0.45593999997E+02  0.45594000000E+02  0.51100000000E-03 0.  1.
    9900012    2    1    2    0    0 -0.45622470270E+00  0.10658587743E+01 -0.22125501592E+00  0.90007682378E+02  0.89999942986E+02 0.  0.
        -12    1    1    2    0    0  0.45622470270E+00 -0.10658587743E+01  0.22125501592E+00  0.11803176217E+01  0.00000000000E+00 0.  1.
         11    1    3    3    0    0  0.42769707713E+01  0.68287267803E+01  0.49104331160E+01  0.94359070612E+01  0.51100000000E-03 0. -1.
        -11    1    3    3    0    0 -0.42157101604E+02  0.17710194620E+01 -0.14378870950E+01  0.42218778348E+02  0.51100000000E-03 0.  1.
         12    1    3    3    0    0  0.37423906130E+02 -0.75338874680E+01 -0.36938010369E+01  0.38352996969E+02  0.00000000000E+00 0. -1.
</event>
<event>
 7    1  0.1910099E-015  0.9000782E+02  0.7816164E-02  0.1186339E+00
        -11   -1    0    0    0    0  0.00000000000E+00  0.00000000000E+00  0.45593999997E+02  0.45594000000E+02  0.51100000000E-03 0.  1.
         11   -1    0    0    0    0 -0.00000000000E+00 -0.00000000000E+00 -0.45593999997E+02  0.45594000000E+02  0.51100000000E-03 0. -1.
    9900012    2    1    2    0    0  0.97722971066E+00 -0.61793628116E+00 -0.23664544246E+00  0.90007820259E+02  0.90000082687E+02 0.  0.
        -12    1    1    2    0    0 -0.97722971066E+00  0.61793628116E+00  0.23664544246E+00  0.11801797407E+01  0.00000000000E+00 0.  1.
         11    1    3    3    0    0 -0.32419574840E+02  0.19090086128E+02  0.37857933607E+00  0.37624507223E+02  0.51100000000E-03 0. -1.
        -11    1    3    3    0    0 -0.91392441986E+00  0.79821276179E+01 -0.19690640730E+01  0.82720513018E+01  0.51100000000E-03 0.  1.
        -12    1    3    3    0    0  0.34310728970E+02 -0.27690150027E+02  0.13538392945E+01  0.44111261735E+02  0.00000000000E+00 0.  1.
</event>
<event>
 7    1  0.1910099E-015  0.9000773E+02  0.7816164E-02  0.1186339E+00
        -11   -1    0    0    0    0  0.00000000000E+00  0.00000000000E+00  0.45593999997E+02  0.45594000000E+02  0.51100000000E-03 0.  1.
         11   -1    0    0    0    0 -0.00000000000E+00 -0.00000000000E+00 -0.45593999997E+02  0.45594000000E+02  0.51100000000E-03 0. -1.
    9900012    2    1    2    0    0  0.80560722798E+00 -0.83347842572E+00  0.22212697163E+00  0.90007733215E+02  0.89999994494E+02 0.  0.
        -12    1    1    2    0    0 -0.80560722798E+00  0.83347842572E+00 -0.22212697163E+00  0.11802667849E+01  0.00000000000E+00 0.  1.
         11    1    3    3    0    0  0.22656492110E+01  0.34934206227E+02 -0.56370480112E+01  0.35458542576E+02  0.51100000000E-03 0. -1.
        -11    1    3    3    0    0 -0.96014740338E+00  0.77598596592E+01 -0.55017321562E+01  0.95606674425E+01  0.51100000000E-03 0.  1.
        -12    1    3    3    0    0 -0.49989457964E+00 -0.43527544312E+02  0.11360907139E+02  0.44988523197E+02  0.00000000000E+00 0.  1.
</event>
<event>
 7    1  0.1910099E-015  0.9000773E+02  0.7816164E-02  0.1186339E+00
        -11   -1    0    0    0    0  0.00000000000E+00  0.00000000000E+00  0.45593999997E+02  0.45594000000E+02  0.51100000000E-03 0.  1.
         11   -1    0    0    0    0 -0.00000000000E+00 -0.00000000000E+00 -0.45593999997E+02  0.45594000000E+02  0.51100000000E-03 0. -1.
    9900012    2    1    2    0    0 -0.73877562088E-02  0.46614423417E-01 -0.11793240955E+01  0.90007731892E+02  0.89999993153E+02 0.  0.
        -12    1    1    2    0    0  0.73877562088E-02 -0.46614423417E-01  0.11793240955E+01  0.11802681075E+01  0.00000000000E+00 0.  1.
         11    1    3    3    0    0  0.20956798746E+02  0.25639751437E+02  0.22112934391E+02  0.39819167936E+02  0.51100000000E-03 0. -1.
        -11    1    3    3    0    0  0.75685993138E+01 -0.71410568513E+01 -0.66842585286E+01  0.12367606917E+02  0.51100000000E-03 0.  1.
        -12    1    3    3    0    0 -0.28532785816E+02 -0.18452080163E+02 -0.16607999958E+02  0.37820957039E+02  0.00000000000E+00 0.  1.
</event>
<event>
 7    1  0.1910099E-015  0.9000769E+02  0.7816164E-02  0.1186339E+00
        -11   -1    0    0    0    0  0.00000000000E+00  0.00000000000E+00  0.45593999997E+02  0.45594000000E+02  0.51100000000E-03 0. -1.
         11   -1    0    0    0    0 -0.00000000000E+00 -0.00000000000E+00 -0.45593999997E+02  0.45594000000E+02  0.51100000000E-03 0.  1.
    9900012    2    1    2    0    0  0.99960009238E+00  0.30433082005E-01 -0.62689209439E+00  0.90007694864E+02  0.89999955636E+02 0.  0.
        -12    1    1    2    0    0 -0.99960009238E+00 -0.30433082005E-01  0.62689209439E+00  0.11803051365E+01  0.00000000000E+00 0.  1.
         11    1    3    3    0    0  0.95272319425E+01  0.16661046281E+02  0.31934546997E+02  0.37258205859E+02  0.51100000000E-03 0. -1.
        -11    1    3    3    0    0  0.14426269103E+01 -0.50421547438E+01  0.79079784919E+01  0.94889736512E+01  0.51100000000E-03 0.  1.
        -12    1    3    3    0    0 -0.99702587604E+01 -0.11588458455E+02 -0.40469417583E+02  0.43260515353E+02  0.00000000000E+00 0.  1.
</event>
<event>
 7    1  0.1910099E-015  0.9000768E+02  0.7816164E-02  0.1186339E+00
        -11   -1    0    0    0    0  0.00000000000E+00  0.00000000000E+00  0.45593999997E+02  0.45594000000E+02  0.51100000000E-03 0.  1.
         11   -1    0    0    0    0 -0.00000000000E+00 -0.00000000000E+00 -0.45593999997E+02  0.45594000000E+02  0.51100000000E-03 0. -1.
    9900012    2    1    2    0    0 -0.81186369887E-01 -0.11383222491E+01 -0.30131193625E+00  0.90007679005E+02  0.89999939567E+02 0.  0.
        -12    1    1    2    0    0  0.81186369887E-01  0.11383222491E+01  0.30131193625E+00  0.11803209955E+01  0.00000000000E+00 0.  1.
         11    1    3    3    0    0  0.23865805049E+02  0.19692588519E+02 -0.17608571620E+02  0.35601074253E+02  0.51100000000E-03 0. -1.
        -11    1    3    3    0    0 -0.26180351725E+01  0.56023132763E+01 -0.93635855240E+01  0.11221263580E+02  0.51100000000E-03 0.  1.
        -12    1    3    3    0    0 -0.21328956247E+02 -0.26433224044E+02  0.26670845208E+02  0.43185341171E+02  0.00000000000E+00 0.  1.
</event>
<event>
 7    1  0.1910099E-015  0.9000774E+02  0.7816164E-02  0.1186339E+00
        -11   -1    0    0    0    0  0.00000000000E+00  0.00000000000E+00  0.45593999997E+02  0.45594000000E+02  0.51100000000E-03 0. -1.
         11   -1    0    0    0    0 -0.00000000000E+00 -0.00000000000E+00 -0.45593999997E+02  0.45594000000E+02  0.51100000000E-03 0.  1.
    9900012    2    1    2    0    0  0.25837198843E+00  0.70071966660E+00 -0.91391781242E+00  0.90007741595E+02  0.90000002984E+02 0.  0.
        -12    1    1    2    0    0 -0.25837198843E+00 -0.70071966660E+00  0.91391781242E+00  0.11802584054E+01  0.00000000000E+00 0.  1.
         11    1    3    3    0    0  0.17481977853E+01 -0.58389939428E+01 -0.50340921672E+01  0.79051963903E+01  0.51100000000E-03 0. -1.
        -11    1    3    3    0    0  0.31617612484E+02 -0.45067371708E+01 -0.21765927131E+02  0.38648928617E+02  0.51100000000E-03 0.  1.
         12    1    3    3    0    0 -0.33107438281E+02  0.11046450780E+02  0.25886101485E+02  0.43453616587E+02  0.00000000000E+00 0. -1.
</event>
<event>
 7    1  0.1910099E-015  0.9000817E+02  0.7816164E-02  0.1186338E+00
        -11   -1    0    0    0    0  0.00000000000E+00  0.00000000000E+00  0.45593999997E+02  0.45594000000E+02  0.51100000000E-03 0. -1.
         11   -1    0    0    0    0 -0.00000000000E+00 -0.00000000000E+00 -0.45593999997E+02  0.45594000000E+02  0.51100000000E-03 0.  1.
    9900012    2    1    2    0    0  0.84586068682E+00 -0.55717577590E+00  0.60503912144E+00  0.90008170569E+02  0.90000437620E+02 0.  0.
        -12    1    1    2    0    0 -0.84586068682E+00  0.55717577590E+00 -0.60503912144E+00  0.11798294306E+01  0.00000000000E+00 0.  1.
         11    1    3    3    0    0 -0.42617914836E+01 -0.73209396460E+01  0.10361745700E+01  0.85342065800E+01  0.51100000000E-03 0. -1.
        -11    1    3    3    0    0  0.18460090727E+02 -0.17947407947E+02 -0.30775713930E+02  0.40125166290E+02  0.51100000000E-03 0.  1.
         12    1    3    3    0    0 -0.13352438557E+02  0.24711171817E+02  0.30344578481E+02  0.41348797699E+02  0.00000000000E+00 0. -1.
</event>
<event>
 7    1  0.1910099E-015  0.9000780E+02  0.7816164E-02  0.1186339E+00
        -11   -1    0    0    0    0  0.00000000000E+00  0.00000000000E+00  0.45593999997E+02  0.45594000000E+02  0.51100000000E-03 0.  1.
         11   -1    0    0    0    0 -0.00000000000E+00 -0.00000000000E+00 -0.45593999997E+02  0.45594000000E+02  0.51100000000E-03 0. -1.
    9900012    2    1    2    0    0 -0.67811200030E+00  0.52365301650E+00  0.81168412348E+00  0.90007796847E+02  0.90000058965E+02 0.  0.
        -12    1    1    2    0    0  0.67811200030E+00 -0.52365301650E+00 -0.81168412348E+00  0.11802031533E+01  0.00000000000E+00 0.  1.
         11    1    3    3    0    0 -0.99409502340E+01 -0.10550506822E+01 -0.35244382571E+02  0.36634712044E+02  0.51100000000E-03 0. -1.
        -11    1    3    3    0    0 -0.40360709066E+01 -0.28515751716E+01 -0.67299165017E+01  0.83494386460E+01  0.51100000000E-03 0.  1.
        -12    1    3    3    0    0  0.13298909140E+02  0.44302788704E+01  0.42785983196E+02  0.45023646157E+02  0.00000000000E+00 0.  1.
</event>
<event>
 7    1  0.1910099E-015  0.9000771E+02  0.7816164E-02  0.1186339E+00
        -11   -1    0    0    0    0  0.00000000000E+00  0.00000000000E+00  0.45593999997E+02  0.45594000000E+02  0.51100000000E-03 0. -1.
         11   -1    0    0    0    0 -0.00000000000E+00 -0.00000000000E+00 -0.45593999997E+02  0.45594000000E+02  0.51100000000E-03 0.  1.
    9900012    2    1    2    0    0 -0.57790303325E+00 -0.54687284557E+00  0.87180899777E+00  0.90007706497E+02  0.89999967423E+02 0.  0.
        -12    1    1    2    0    0  0.57790303325E+00  0.54687284557E+00 -0.87180899777E+00  0.11802935032E+01  0.00000000000E+00 0.  1.
         11    1    3    3    0    0 -0.21793488479E+02 -0.12208750117E+02 -0.23791244153E+02  0.34496855191E+02  0.51100000000E-03 0. -1.
        -11    1    3    3    0    0 -0.12260577486E+02  0.47072818054E+01 -0.36527511015E+00  0.13138252869E+02  0.51100000000E-03 0.  1.
        -12    1    3    3    0    0  0.33476162932E+02  0.69545954656E+01  0.25028328261E+02  0.42372598436E+02  0.00000000000E+00 0.  1.
</event>
<event>
 7    1  0.1910099E-015  0.9000779E+02  0.7816164E-02  0.1186339E+00
        -11   -1    0    0    0    0  0.00000000000E+00  0.00000000000E+00  0.45593999997E+02  0.45594000000E+02  0.51100000000E-03 0.  1.
         11   -1    0    0    0    0 -0.00000000000E+00 -0.00000000000E+00 -0.45593999997E+02  0.45594000000E+02  0.51100000000E-03 0. -1.
    9900012    2    1    2    0    0 -0.61650439819E+00 -0.98975595661E+00 -0.18218898117E+00  0.90007793513E+02  0.90000055588E+02 0.  0.
        -12    1    1    2    0    0  0.61650439819E+00  0.98975595661E+00  0.18218898117E+00  0.11802064868E+01  0.00000000000E+00 0.  1.
         11    1    3    3    0    0 -0.29045488909E+01  0.28250012020E+00 -0.83117601461E+01  0.88091751921E+01  0.51100000000E-03 0. -1.
        -11    1    3    3    0    0  0.37900710475E+02  0.12559587964E+02 -0.61785325236E+01  0.40402739619E+02  0.51100000000E-03 0.  1.
         12    1    3    3    0    0 -0.35612665982E+02 -0.13831844041E+02  0.14308103688E+02  0.40795878702E+02  0.00000000000E+00 0. -1.
</event>
<event>
 7    1  0.1910099E-015  0.9000781E+02  0.7816164E-02  0.1186339E+00
        -11   -1    0    0    0    0  0.00000000000E+00  0.00000000000E+00  0.45593999997E+02  0.45594000000E+02  0.51100000000E-03 0.  1.
         11   -1    0    0    0    0 -0.00000000000E+00 -0.00000000000E+00 -0.45593999997E+02  0.45594000000E+02  0.51100000000E-03 0. -1.
    9900012    2    1    2    0    0 -0.27524134798E+00  0.24635242875E+00 -0.11208928750E+01  0.90007810119E+02  0.90000072412E+02 0.  0.
        -12    1    1    2    0    0  0.27524134798E+00 -0.24635242875E+00  0.11208928750E+01  0.11801898814E+01  0.00000000000E+00 0.  1.
         11    1    3    3    0    0  0.77467071353E+00  0.46926100498E+01 -0.94418261959E+01  0.10572075764E+02  0.51100000000E-03 0. -1.
        -11    1    3    3    0    0  0.23045936239E+02 -0.61115654815E+01  0.35697370984E+02  0.42927481934E+02  0.51100000000E-03 0.  1.
         12    1    3    3    0    0 -0.24095848301E+02  0.16653078604E+01 -0.27376437664E+02  0.36508252420E+02  0.00000000000E+00 0. -1.
</event>
<event>
 7    1  0.1934668E-015  0.9000773E+02  0.7816164E-02  0.1186339E+00
        -11   -1    0    0    0    0  0.00000000000E+00  0.00000000000E+00  0.45593999997E+02  0.45594000000E+02  0.51100000000E-03 0.  1.
         11   -1    0    0    0    0 -0.00000000000E+00 -0.00000000000E+00 -0.45593999997E+02  0.45594000000E+02  0.51100000000E-03 0. -1.
    9900012    2    1    2    0    0  0.16031921826E+00 -0.11622757100E+01 -0.12826079954E+00  0.90007729730E+02  0.89999990962E+02 0.  0.
        -12    1    1    2    0    0 -0.16031921826E+00  0.11622757100E+01  0.12826079954E+00  0.11802702701E+01  0.00000000000E+00 0.  1.
         11    1    3    3    0    0  0.81832326220E+01  0.10353463972E+01  0.48511390203E+01  0.95692626864E+01  0.51100000000E-03 0. -1.
        -11    1    3    3    0    0 -0.11587099352E+01 -0.38984247651E+02  0.97840356361E+01  0.40209968008E+02  0.51100000000E-03 0.  1.
         12    1    3    3    0    0 -0.68642034685E+01  0.36786625544E+02 -0.14763435456E+02  0.40228499035E+02  0.00000000000E+00 0. -1.
</event>
<event>
 7    1  0.1910099E-015  0.9000763E+02  0.7816164E-02  0.1186339E+00
        -11   -1    0    0    0    0  0.00000000000E+00  0.00000000000E+00  0.45593999997E+02  0.45594000000E+02  0.51100000000E-03 0. -1.
         11   -1    0    0    0    0 -0.00000000000E+00 -0.00000000000E+00 -0.45593999997E+02  0.45594000000E+02  0.51100000000E-03 0.  1.
    9900012    2    1    2    0    0  0.10629814163E+00 -0.11688922956E+01  0.12511931835E+00  0.90007634236E+02  0.89999894208E+02 0.  0.
        -12    1    1    2    0    0 -0.10629814163E+00  0.11688922956E+01 -0.12511931835E+00  0.11803657643E+01  0.00000000000E+00 0.  1.
         11    1    3    3    0    0  0.40976054556E+00 -0.19045583999E+02  0.34866999822E+02  0.39731723476E+02  0.51100000000E-03 0. -1.
        -11    1    3    3    0    0  0.55771171639E+01 -0.66050146814E+01 -0.18275705046E+01  0.88357494878E+01  0.51100000000E-03 0.  1.
        -12    1    3    3    0    0 -0.58805795678E+01  0.24481706384E+02 -0.32914309999E+02  0.41440161272E+02  0.00000000000E+00 0.  1.
</event>
<event>
 7    1  0.1910099E-015  0.9000771E+02  0.7816164E-02  0.1186339E+00
        -11   -1    0    0    0    0  0.00000000000E+00  0.00000000000E+00  0.45593999997E+02  0.45594000000E+02  0.51100000000E-03 0. -1.
         11   -1    0    0    0    0 -0.00000000000E+00 -0.00000000000E+00 -0.45593999997E+02  0.45594000000E+02  0.51100000000E-03 0.  1.
    9900012    2    1    2    0    0 -0.32139211868E+00 -0.21883979978E+00  0.11144091395E+01  0.90007707035E+02  0.89999967968E+02 0.  0.
        -12    1    1    2    0    0  0.32139211868E+00  0.21883979978E+00 -0.11144091395E+01  0.11802929645E+01  0.00000000000E+00 0.  1.
         11    1    3    3    0    0 -0.91173298178E+01 -0.14761132852E+01 -0.19679961185E+01  0.94433904093E+01  0.51100000000E-03 0. -1.
        -11    1    3    3    0    0  0.39225963224E+02 -0.12675506336E+02  0.16639555656E+02  0.44454690016E+02  0.51100000000E-03 0.  1.
         12    1    3    3    0    0 -0.30430025525E+02  0.13932779821E+02 -0.13557150398E+02  0.36109626610E+02  0.00000000000E+00 0. -1.
</event>
<event>
 7    1  0.1910099E-015  0.9000769E+02  0.7816164E-02  0.1186339E+00
        -11   -1    0    0    0    0  0.00000000000E+00  0.00000000000E+00  0.45593999997E+02  0.45594000000E+02  0.51100000000E-03 0.  1.
         11   -1    0    0    0    0 -0.00000000000E+00 -0.00000000000E+00 -0.45593999997E+02  0.45594000000E+02  0.51100000000E-03 0. -1.
    9900012    2    1    2    0    0 -0.24616686398E+00 -0.38965998669E+00 -0.10865943813E+01  0.90007694794E+02  0.89999955565E+02 0.  0.
        -12    1    1    2    0    0  0.24616686398E+00  0.38965998669E+00  0.10865943813E+01  0.11803052061E+01  0.00000000000E+00 0.  1.
         11    1    3    3    0    0 -0.14882807706E+01  0.39435976943E+01  0.14084017888E+02  0.14701241532E+02  0.51100000000E-03 0. -1.
        -11    1    3    3    0    0 -0.15793616157E+02  0.20887886197E+02  0.16841803574E+02  0.31135003597E+02  0.51100000000E-03 0.  1.
         12    1    3    3    0    0  0.17035730064E+02 -0.25221143878E+02 -0.32012415844E+02  0.44171449665E+02  0.00000000000E+00 0. -1.
</event>
<event>
 7    1  0.1910099E-015  0.9000781E+02  0.7816164E-02  0.1186339E+00
        -11   -1    0    0    0    0  0.00000000000E+00  0.00000000000E+00  0.45593999997E+02  0.45594000000E+02  0.51100000000E-03 0.  1.
         11   -1    0    0    0    0 -0.00000000000E+00 -0.00000000000E+00 -0.45593999997E+02  0.45594000000E+02  0.51100000000E-03 0. -1.
    9900012    2    1    2    0    0 -0.78025926341E+00  0.75356439921E+00  0.46495716436E+00  0.90007809767E+02  0.90000072056E+02 0.  0.
        -12    1    1    2    0    0  0.78025926341E+00 -0.75356439921E+00 -0.46495716436E+00  0.11801902332E+01  0.00000000000E+00 0.  1.
         11    1    3    3    0    0 -0.19334169965E+01  0.17803971634E+02  0.50580852556E+01  0.18609237865E+02  0.51100000000E-03 0. -1.
        -11    1    3    3    0    0 -0.44011707450E+01  0.17864481379E+01  0.30670005574E+02  0.31035639884E+02  0.51100000000E-03 0.  1.
         12    1    3    3    0    0  0.55543284781E+01 -0.18836855372E+02 -0.35263133665E+02  0.40362932017E+02  0.00000000000E+00 0. -1.
</event>
<event>
 7    1  0.1910099E-015  0.9000777E+02  0.7816164E-02  0.1186339E+00
        -11   -1    0    0    0    0  0.00000000000E+00  0.00000000000E+00  0.45593999997E+02  0.45594000000E+02  0.51100000000E-03 0. -1.
         11   -1    0    0    0    0 -0.00000000000E+00 -0.00000000000E+00 -0.45593999997E+02  0.45594000000E+02  0.51100000000E-03 0.  1.
    9900012    2    1    2    0    0  0.31300233273E+00 -0.42389589742E+00  0.10560737643E+01  0.90007766977E+02  0.90000028701E+02 0.  0.
        -12    1    1    2    0    0 -0.31300233273E+00  0.42389589742E+00 -0.10560737643E+01  0.11802330227E+01  0.00000000000E+00 0.  1.
         11    1    3    3    0    0  0.11704963155E+01 -0.55280830045E+01 -0.67592198627E+01  0.88100406777E+01  0.51100000000E-03 0. -1.
        -11    1    3    3    0    0  0.24960778099E+02 -0.23908161988E+02  0.20689418374E+02  0.40282659866E+02  0.51100000000E-03 0.  1.
         12    1    3    3    0    0 -0.25818272081E+02  0.29012349095E+02 -0.12874124747E+02  0.40915066434E+02  0.00000000000E+00 0. -1.
</event>
<event>
 7    1  0.1910099E-015  0.9000781E+02  0.7816164E-02  0.1186339E+00
        -11   -1    0    0    0    0  0.00000000000E+00  0.00000000000E+00  0.45593999997E+02  0.45594000000E+02  0.51100000000E-03 0. -1.
         11   -1    0    0    0    0 -0.00000000000E+00 -0.00000000000E+00 -0.45593999997E+02  0.45594000000E+02  0.51100000000E-03 0.  1.
    9900012    2    1    2    0    0  0.11560746030E+01  0.17532997548E+00  0.15997222916E+00  0.90007813488E+02  0.90000075826E+02 0.  0.
        -12    1    1    2    0    0 -0.11560746030E+01 -0.17532997548E+00 -0.15997222916E+00  0.11801865115E+01  0.00000000000E+00 0.  1.
         11    1    3    3    0    0 -0.36373507894E+01  0.42524912172E+00 -0.77482287727E+01  0.85700762515E+01  0.51100000000E-03 0. -1.
        -11    1    3    3    0    0  0.15801745416E+00  0.37491266482E+02 -0.10860802560E+02  0.39033025305E+02  0.51100000000E-03 0.  1.
         12    1    3    3    0    0  0.46354079382E+01 -0.37741185628E+02  0.18769003562E+02  0.42404711932E+02  0.00000000000E+00 0. -1.
</event>
<event>
 7    1  0.1910099E-015  0.9000768E+02  0.7816164E-02  0.1186339E+00
        -11   -1    0    0    0    0  0.00000000000E+00  0.00000000000E+00  0.45593999997E+02  0.45594000000E+02  0.51100000000E-03 0.  1.
         11   -1    0    0    0    0 -0.00000000000E+00 -0.00000000000E+00 -0.45593999997E+02  0.45594000000E+02  0.51100000000E-03 0. -1.
    9900012    2    1    2    0    0 -0.73331662496E+00 -0.70738785812E+00 -0.59581842821E+00  0.90007682054E+02  0.89999942657E+02 0.  0.
        -12    1    1    2    0    0  0.73331662496E+00  0.70738785812E+00  0.59581842821E+00  0.11803179460E+01  0.00000000000E+00 0.  1.
         11    1    3    3    0    0 -0.79142219172E+01 -0.66546393689E+01 -0.12043307279E+01  0.10410069474E+02  0.51100000000E-03 0. -1.
        -11    1    3    3    0    0 -0.80214720834E+01  0.40774093335E+02  0.15682669036E+01  0.41585215678E+02  0.51100000000E-03 0.  1.
         12    1    3    3    0    0  0.15202377376E+02 -0.34826841824E+02 -0.95975460386E+00  0.38012396902E+02  0.00000000000E+00 0. -1.
</event>
<event>
 7    1  0.1910099E-015  0.9000780E+02  0.7816164E-02  0.1186339E+00
        -11   -1    0    0    0    0  0.00000000000E+00  0.00000000000E+00  0.45593999997E+02  0.45594000000E+02  0.51100000000E-03 0.  1.
         11   -1    0    0    0    0 -0.00000000000E+00 -0.00000000000E+00 -0.45593999997E+02  0.45594000000E+02  0.51100000000E-03 0. -1.
    9900012    2    1    2    0    0 -0.58977683304E+00 -0.61374830546E+00  0.81752442278E+00  0.90007800916E+02  0.90000063088E+02 0.  0.
        -12    1    1    2    0    0  0.58977683304E+00  0.61374830546E+00 -0.81752442278E+00  0.11801990837E+01  0.00000000000E+00 0.  1.
         11    1    3    3    0    0 -0.26815202743E+02  0.30848746351E+02 -0.73834064450E+01  0.41535706814E+02  0.51100000000E-03 0. -1.
        -11    1    3    3    0    0  0.89224765096E+01  0.23276640391E+01 -0.13679049713E+01  0.93220046779E+01  0.51100000000E-03 0.  1.
        -12    1    3    3    0    0  0.17302949400E+02 -0.33790158695E+02  0.95688358392E+01  0.39150089424E+02  0.00000000000E+00 0.  1.
</event>
<event>
 7    1  0.1910099E-015  0.9000778E+02  0.7816164E-02  0.1186339E+00
        -11   -1    0    0    0    0  0.00000000000E+00  0.00000000000E+00  0.45593999997E+02  0.45594000000E+02  0.51100000000E-03 0. -1.
         11   -1    0    0    0    0 -0.00000000000E+00 -0.00000000000E+00 -0.45593999997E+02  0.45594000000E+02  0.51100000000E-03 0.  1.
    9900012    2    1    2    0    0 -0.54541372243E-01 -0.24703121362E+00  0.11527926149E+01  0.90007775447E+02  0.90000037283E+02 0.  0.
        -12    1    1    2    0    0  0.54541372243E-01  0.24703121362E+00 -0.11527926149E+01  0.11802245527E+01  0.00000000000E+00 0.  1.
         11    1    3    3    0    0 -0.28588530570E+01 -0.23920173978E+01 -0.78352619079E+01  0.86767573124E+01  0.51100000000E-03 0. -1.
        -11    1    3    3    0    0 -0.34112713706E+02 -0.43223673547E+01 -0.14262079827E+02  0.37225891758E+02  0.51100000000E-03 0.  1.
         12    1    3    3    0    0  0.36917025390E+02  0.64673535388E+01  0.23250134350E+02  0.44105126377E+02  0.00000000000E+00 0. -1.
</event>
<event>
 7    1  0.1910099E-015  0.9000735E+02  0.7816164E-02  0.1186340E+00
        -11   -1    0    0    0    0  0.00000000000E+00  0.00000000000E+00  0.45593999997E+02  0.45594000000E+02  0.51100000000E-03 0.  1.
         11   -1    0    0    0    0 -0.00000000000E+00 -0.00000000000E+00 -0.45593999997E+02  0.45594000000E+02  0.51100000000E-03 0. -1.
    9900012    2    1    2    0    0  0.36137282826E+00  0.99797641176E+00 -0.51709693172E+00  0.90007349130E+02  0.89999605338E+02 0.  0.
        -12    1    1    2    0    0 -0.36137282826E+00 -0.99797641176E+00  0.51709693172E+00  0.11806508697E+01  0.00000000000E+00 0.  1.
         11    1    3    3    0    0 -0.10563852341E+02  0.29250196662E+01 -0.33061890153E+01  0.11449087405E+02  0.51100000000E-03 0. -1.
        -11    1    3    3    0    0 -0.23097117376E+02  0.27109376439E+01  0.27676989232E+02  0.36150266211E+02  0.51100000000E-03 0.  1.
         12    1    3    3    0    0  0.34022342545E+02 -0.46379808983E+01 -0.24887897148E+02  0.42407995514E+02  0.00000000000E+00 0. -1.
</event>
<event>
 7    1  0.1910099E-015  0.9000773E+02  0.7816164E-02  0.1186339E+00
        -11   -1    0    0    0    0  0.00000000000E+00  0.00000000000E+00  0.45593999997E+02  0.45594000000E+02  0.51100000000E-03 0.  1.
         11   -1    0    0    0    0 -0.00000000000E+00 -0.00000000000E+00 -0.45593999997E+02  0.45594000000E+02  0.51100000000E-03 0. -1.
    9900012    2    1    2    0    0 -0.33216214621E+00  0.38242325355E+00 -0.10660430344E+01  0.90007734357E+02  0.89999995651E+02 0.  0.
        -12    1    1    2    0    0  0.33216214621E+00 -0.38242325355E+00  0.10660430344E+01  0.11802656428E+01  0.00000000000E+00 0.  1.
         11    1    3    3    0    0  0.17992364316E+02  0.29789062598E+02 -0.69635642845E+01  0.35490909427E+02  0.51100000000E-03 0. -1.
        -11    1    3    3    0    0 -0.62231637954E+01  0.51192391757E+01 -0.11470701854E+02  0.14018251626E+02  0.51100000000E-03 0.  1.
        -12    1    3    3    0    0 -0.12101362667E+02 -0.34525878520E+02  0.17368223104E+02  0.40498573305E+02  0.00000000000E+00 0.  1.
</event>
<event>
 7    1  0.1910099E-015  0.9000738E+02  0.7816164E-02  0.1186340E+00
        -11   -1    0    0    0    0  0.00000000000E+00  0.00000000000E+00  0.45593999997E+02  0.45594000000E+02  0.51100000000E-03 0.  1.
         11   -1    0    0    0    0 -0.00000000000E+00 -0.00000000000E+00 -0.45593999997E+02  0.45594000000E+02  0.51100000000E-03 0. -1.
    9900012    2    1    2    0    0  0.31864789729E+00  0.10185406330E+01 -0.50487305366E+00  0.90007382236E+02  0.89999638881E+02 0.  0.
        -12    1    1    2    0    0 -0.31864789729E+00 -0.10185406330E+01  0.50487305366E+00  0.11806177637E+01  0.00000000000E+00 0.  1.
         11    1    3    3    0    0  0.86586569352E+01  0.58259055205E+01  0.27471567623E+01  0.10791681314E+02  0.51100000000E-03 0. -1.
        -11    1    3    3    0    0 -0.17983922092E+02  0.30404909473E+02  0.15024277052E+02  0.38387613563E+02  0.51100000000E-03 0.  1.
         12    1    3    3    0    0  0.96439130541E+01 -0.35212274361E+02 -0.18276306868E+02  0.40828087359E+02  0.00000000000E+00 0. -1.
</event>
<event>
 7    1  0.1910099E-015  0.9000788E+02  0.7816164E-02  0.1186339E+00
        -11   -1    0    0    0    0  0.00000000000E+00  0.00000000000E+00  0.45593999997E+02  0.45594000000E+02  0.51100000000E-03 0.  1.
         11   -1    0    0    0    0 -0.00000000000E+00 -0.00000000000E+00 -0.45593999997E+02  0.45594000000E+02  0.51100000000E-03 0. -1.
    9900012    2    1    2    0    0  0.46728418850E+00  0.22659663880E+00 -0.10597080210E+01  0.90007880667E+02  0.90000143892E+02 0.  0.
        -12    1    1    2    0    0 -0.46728418850E+00 -0.22659663880E+00  0.10597080210E+01  0.11801193327E+01  0.00000000000E+00 0.  1.
         11    1    3    3    0    0 -0.20758747026E+02  0.14390890062E+02 -0.29008338154E+02  0.38464359836E+02  0.51100000000E-03 0. -1.
        -11    1    3    3    0    0 -0.16270708832E+01  0.93733318257E+01  0.20153241275E+01  0.97246203408E+01  0.51100000000E-03 0.  1.
        -12    1    3    3    0    0  0.22853102097E+02 -0.23537625249E+02  0.25933306006E+02  0.41818900490E+02  0.00000000000E+00 0.  1.
</event>
<event>
 7    1  0.1910099E-015  0.9000775E+02  0.7816164E-02  0.1186339E+00
        -11   -1    0    0    0    0  0.00000000000E+00  0.00000000000E+00  0.45593999997E+02  0.45594000000E+02  0.51100000000E-03 0.  1.
         11   -1    0    0    0    0 -0.00000000000E+00 -0.00000000000E+00 -0.45593999997E+02  0.45594000000E+02  0.51100000000E-03 0. -1.
    9900012    2    1    2    0    0  0.60025005693E+00  0.36818867739E+00 -0.94716973623E+00  0.90007748526E+02  0.90000010006E+02 0.  0.
        -12    1    1    2    0    0 -0.60025005693E+00 -0.36818867739E+00  0.94716973623E+00  0.11802514742E+01  0.00000000000E+00 0.  1.
         11    1    3    3    0    0 -0.34410895004E+02 -0.17167964748E+02 -0.14076527201E+02  0.40951157821E+02  0.51100000000E-03 0. -1.
        -11    1    3    3    0    0  0.64696246649E+01 -0.22491837315E+01 -0.62623828909E+01  0.92807494577E+01  0.51100000000E-03 0.  1.
        -12    1    3    3    0    0  0.28541520396E+02  0.19785337157E+02  0.19391740356E+02  0.39775841248E+02  0.00000000000E+00 0.  1.
</event>
<event>
 7    1  0.1910099E-015  0.9000777E+02  0.7816164E-02  0.1186339E+00
        -11   -1    0    0    0    0  0.00000000000E+00  0.00000000000E+00  0.45593999997E+02  0.45594000000E+02  0.51100000000E-03 0.  1.
         11   -1    0    0    0    0 -0.00000000000E+00 -0.00000000000E+00 -0.45593999997E+02  0.45594000000E+02  0.51100000000E-03 0. -1.
    9900012    2    1    2    0    0  0.24891364681E+00 -0.10894579145E+01 -0.37955121291E+00  0.90007773041E+02  0.90000034845E+02 0.  0.
        -12    1    1    2    0    0 -0.24891364681E+00  0.10894579145E+01  0.37955121291E+00  0.11802269588E+01  0.00000000000E+00 0.  1.
         11    1    3    3    0    0 -0.41784431005E+01  0.82688821705E+01  0.21504434425E+01  0.95109519163E+01  0.51100000000E-03 0. -1.
        -11    1    3    3    0    0  0.49241225219E+01  0.14529854233E+02  0.33739945702E+02  0.37064100999E+02  0.51100000000E-03 0.  1.
         12    1    3    3    0    0 -0.49676577459E+00 -0.23888194318E+02 -0.36269940357E+02  0.43432720126E+02  0.00000000000E+00 0. -1.
</event>
<event>
 7    1  0.1910099E-015  0.9000779E+02  0.7816164E-02  0.1186339E+00
        -11   -1    0    0    0    0  0.00000000000E+00  0.00000000000E+00  0.45593999997E+02  0.45594000000E+02  0.51100000000E-03 0. -1.
         11   -1    0    0    0    0 -0.00000000000E+00 -0.00000000000E+00 -0.45593999997E+02  0.45594000000E+02  0.51100000000E-03 0.  1.
    9900012    2    1    2    0    0  0.56828724836E+00  0.10343311782E+01 -0.97115359543E-02  0.90007794214E+02  0.90000056298E+02 0.  0.
        -12    1    1    2    0    0 -0.56828724836E+00 -0.10343311782E+01  0.97115359543E-02  0.11802057858E+01  0.00000000000E+00 0.  1.
         11    1    3    3    0    0  0.66629759244E+01 -0.12304656368E+01 -0.74265217957E+01  0.10052985631E+02  0.51100000000E-03 0. -1.
        -11    1    3    3    0    0  0.30884845914E+02 -0.12690590319E+02 -0.12140588326E+02  0.35529124320E+02  0.51100000000E-03 0.  1.
         12    1    3    3    0    0 -0.36979534590E+02  0.14955387134E+02  0.19557398586E+02  0.44425684263E+02  0.00000000000E+00 0. -1.
</event>
<event>
 7    1  0.1910099E-015  0.9000778E+02  0.7816164E-02  0.1186339E+00
        -11   -1    0    0    0    0  0.00000000000E+00  0.00000000000E+00  0.45593999997E+02  0.45594000000E+02  0.51100000000E-03 0.  1.
         11   -1    0    0    0    0 -0.00000000000E+00 -0.00000000000E+00 -0.45593999997E+02  0.45594000000E+02  0.51100000000E-03 0. -1.
    9900012    2    1    2    0    0  0.19062598825E+00 -0.11066530207E+01  0.36319480772E+00  0.90007775596E+02  0.90000037434E+02 0.  0.
        -12    1    1    2    0    0 -0.19062598825E+00  0.11066530207E+01 -0.36319480772E+00  0.11802244040E+01  0.00000000000E+00 0.  1.
         11    1    3    3    0    0  0.11638256794E+02  0.33085164687E+02  0.57263071065E+01  0.35536850408E+02  0.51100000000E-03 0. -1.
        -11    1    3    3    0    0 -0.43112016585E+00  0.86042620697E+01  0.36728504047E+01  0.93653094299E+01  0.51100000000E-03 0.  1.
        -12    1    3    3    0    0 -0.11016510640E+02 -0.42796079777E+02 -0.90359627035E+01  0.45105615758E+02  0.00000000000E+00 0.  1.
</event>
<event>
 7    1  0.1910099E-015  0.9000773E+02  0.7816164E-02  0.1186339E+00
        -11   -1    0    0    0    0  0.00000000000E+00  0.00000000000E+00  0.45593999997E+02  0.45594000000E+02  0.51100000000E-03 0. -1.
         11   -1    0    0    0    0 -0.00000000000E+00 -0.00000000000E+00 -0.45593999997E+02  0.45594000000E+02  0.51100000000E-03 0.  1.
    9900012    2    1    2    0    0 -0.22956950312E+00  0.11212749705E+01 -0.28823777248E+00  0.90007728536E+02  0.89999989752E+02 0.  0.
        -12    1    1    2    0    0  0.22956950312E+00 -0.11212749705E+01  0.28823777248E+00  0.11802714644E+01  0.00000000000E+00 0.  1.
         11    1    3    3    0    0 -0.35659320608E+01 -0.30533711381E+01  0.88232729691E+01  0.99944531075E+01  0.51100000000E-03 0. -1.
        -11    1    3    3    0    0 -0.31538170717E+02  0.21654306567E+01 -0.26261959695E+02  0.41097881081E+02  0.51100000000E-03 0.  1.
         12    1    3    3    0    0  0.34874533274E+02  0.20092154519E+01  0.17150448954E+02  0.38915394347E+02  0.00000000000E+00 0. -1.
</event>
<event>
 8    1  0.1910099E-015  0.9000797E+02  0.7816164E-02  0.1186339E+00
        -11   -1    0    0    0    0  0.00000000000E+00  0.00000000000E+00  0.45593999997E+02  0.45594000000E+02  0.51100000000E-03 0. -1.
         11   -1    0    0    0    0 -0.00000000000E+00 -0.00000000000E+00 -0.45593999997E+02  0.45594000000E+02  0.51100000000E-03 0.  1.
    9900012    2    1    2    0    0  0.52917133397E-01 -0.13446803499E+00  0.11711477616E+01  0.90007970782E+02  0.90000235196E+02 0.  0.
         23    2    3    3    0    0  0.11786686664E+02 -0.22019927665E+02 -0.10884308018E+02  0.62403827893E+02  0.56142375954E+02 0.  0.
        -12    1    1    2    0    0 -0.52917133397E-01  0.13446803499E+00 -0.11711477616E+01  0.11800292178E+01  0.00000000000E+00 0.  1.
         11    1    4    4    0    0  0.17146636479E+02 -0.36024597245E+02  0.54070474297E+01  0.40261829459E+02  0.51100000000E-03 0.  1.
        -11    1    4    4    0    0 -0.53599498152E+01  0.14004669580E+02 -0.16291355448E+02  0.22141998434E+02  0.51100000000E-03 0. -1.
        -12    1    3    3    0    0 -0.11733769530E+02  0.21885459630E+02  0.12055455780E+02  0.27604142889E+02  0.00000000000E+00 0.  1.
</event>
<event>
 7    1  0.1910099E-015  0.9000774E+02  0.7816164E-02  0.1186339E+00
        -11   -1    0    0    0    0  0.00000000000E+00  0.00000000000E+00  0.45593999997E+02  0.45594000000E+02  0.51100000000E-03 0. -1.
         11   -1    0    0    0    0 -0.00000000000E+00 -0.00000000000E+00 -0.45593999997E+02  0.45594000000E+02  0.51100000000E-03 0.  1.
    9900012    2    1    2    0    0  0.85357812054E+00 -0.41197901757E+00  0.70333737412E+00  0.90007743341E+02  0.90000004753E+02 0.  0.
        -12    1    1    2    0    0 -0.85357812054E+00  0.41197901757E+00 -0.70333737412E+00  0.11802566588E+01  0.00000000000E+00 0.  1.
         11    1    3    3    0    0 -0.39124572896E+02 -0.47655151841E+01  0.13590622345E+01  0.39437157474E+02  0.51100000000E-03 0. -1.
        -11    1    3    3    0    0 -0.11463087889E-01 -0.57334831805E+01  0.65486453632E+01  0.87038909194E+01  0.51100000000E-03 0.  1.
        -12    1    3    3    0    0  0.39989614104E+02  0.10087019347E+02 -0.72043702236E+01  0.41866694947E+02  0.00000000000E+00 0.  1.
</event>
<event>
 7    1  0.1910099E-015  0.9000769E+02  0.7816164E-02  0.1186339E+00
        -11   -1    0    0    0    0  0.00000000000E+00  0.00000000000E+00  0.45593999997E+02  0.45594000000E+02  0.51100000000E-03 0.  1.
         11   -1    0    0    0    0 -0.00000000000E+00 -0.00000000000E+00 -0.45593999997E+02  0.45594000000E+02  0.51100000000E-03 0. -1.
    9900012    2    1    2    0    0  0.58487352940E+00  0.36477981433E+00 -0.95811745051E+00  0.90007690546E+02  0.89999951261E+02 0.  0.
        -12    1    1    2    0    0 -0.58487352940E+00 -0.36477981433E+00  0.95811745051E+00  0.11803094540E+01  0.00000000000E+00 0.  1.
         11    1    3    3    0    0  0.75332162445E+01  0.62404476960E+01 -0.24297453964E+01  0.10079493905E+02  0.51100000000E-03 0. -1.
        -11    1    3    3    0    0 -0.23903749243E-01  0.28015647070E+02 -0.24064543592E+02  0.36932090527E+02  0.51100000000E-03 0.  1.
         12    1    3    3    0    0 -0.69244389658E+01 -0.33891314952E+02  0.25536171538E+02  0.42996106114E+02  0.00000000000E+00 0. -1.
</event>
<event>
 7    1  0.1910099E-015  0.9000779E+02  0.7816164E-02  0.1186339E+00
        -11   -1    0    0    0    0  0.00000000000E+00  0.00000000000E+00  0.45593999997E+02  0.45594000000E+02  0.51100000000E-03 0. -1.
         11   -1    0    0    0    0 -0.00000000000E+00 -0.00000000000E+00 -0.45593999997E+02  0.45594000000E+02  0.51100000000E-03 0.  1.
    9900012    2    1    2    0    0 -0.51866526033E+00  0.65733366008E+00  0.83173855961E+00  0.90007792296E+02  0.90000054354E+02 0.  0.
        -12    1    1    2    0    0  0.51866526033E+00 -0.65733366008E+00 -0.83173855961E+00  0.11802077040E+01  0.00000000000E+00 0.  1.
         11    1    3    3    0    0  0.46421512115E+01  0.27816530983E+02  0.23001319418E+02  0.36391890018E+02  0.51100000000E-03 0. -1.
        -11    1    3    3    0    0 -0.99657199812E-01  0.78181878674E+01  0.47864002789E+01  0.91675308005E+01  0.51100000000E-03 0.  1.
        -12    1    3    3    0    0 -0.50611592720E+01 -0.34977385190E+02 -0.26955981138E+02  0.44448371478E+02  0.00000000000E+00 0.  1.
</event>
<event>
 7    1  0.1910099E-015  0.9000773E+02  0.7816164E-02  0.1186339E+00
        -11   -1    0    0    0    0  0.00000000000E+00  0.00000000000E+00  0.45593999997E+02  0.45594000000E+02  0.51100000000E-03 0. -1.
         11   -1    0    0    0    0 -0.00000000000E+00 -0.00000000000E+00 -0.45593999997E+02  0.45594000000E+02  0.51100000000E-03 0.  1.
    9900012    2    1    2    0    0  0.58213552838E+00  0.79205467183E+00  0.65330660434E+00  0.90007728042E+02  0.89999989252E+02 0.  0.
        -12    1    1    2    0    0 -0.58213552838E+00 -0.79205467183E+00 -0.65330660434E+00  0.11802719584E+01  0.00000000000E+00 0.  1.
         11    1    3    3    0    0  0.75678841441E+01  0.10185905011E+02 -0.46194260200E+01  0.13504244826E+02  0.51100000000E-03 0. -1.
        -11    1    3    3    0    0  0.21026046629E+02  0.24457383642E+02  0.44414400402E+01  0.32557405322E+02  0.51100000000E-03 0.  1.
         12    1    3    3    0    0 -0.28011795244E+02 -0.33851233981E+02  0.83129258411E+00  0.43946077893E+02  0.00000000000E+00 0. -1.
</event>
<event>
 7    1  0.1910099E-015  0.9000769E+02  0.7816164E-02  0.1186339E+00
        -11   -1    0    0    0    0  0.00000000000E+00  0.00000000000E+00  0.45593999997E+02  0.45594000000E+02  0.51100000000E-03 0.  1.
         11   -1    0    0    0    0 -0.00000000000E+00 -0.00000000000E+00 -0.45593999997E+02  0.45594000000E+02  0.51100000000E-03 0. -1.
    9900012    2    1    2    0    0  0.88318362377E+00  0.65021347159E+00 -0.43626865971E+00  0.90007694440E+02  0.89999955206E+02 0.  0.
        -12    1    1    2    0    0 -0.88318362377E+00 -0.65021347159E+00  0.43626865971E+00  0.11803055602E+01  0.00000000000E+00 0.  1.
         11    1    3    3    0    0  0.26679907876E+02 -0.25350985850E+02  0.31997423987E+01  0.36942229488E+02  0.51100000000E-03 0. -1.
        -11    1    3    3    0    0  0.37302372792E+01 -0.38988689056E+01 -0.92110543152E+01  0.10675175444E+02  0.51100000000E-03 0.  1.
        -12    1    3    3    0    0 -0.29526961532E+02  0.29900068227E+02  0.55750432568E+01  0.42390289508E+02  0.00000000000E+00 0.  1.
</event>
<event>
 7    1  0.1910099E-015  0.9000760E+02  0.7816164E-02  0.1186339E+00
        -11   -1    0    0    0    0  0.00000000000E+00  0.00000000000E+00  0.45593999997E+02  0.45594000000E+02  0.51100000000E-03 0. -1.
         11   -1    0    0    0    0 -0.00000000000E+00 -0.00000000000E+00 -0.45593999997E+02  0.45594000000E+02  0.51100000000E-03 0.  1.
    9900012    2    1    2    0    0 -0.48936828067E+00 -0.95211278842E+00 -0.49733435372E+00  0.90007601112E+02  0.89999860646E+02 0.  0.
        -12    1    1    2    0    0  0.48936828067E+00  0.95211278842E+00  0.49733435372E+00  0.11803988883E+01  0.00000000000E+00 0.  1.
         11    1    3    3    0    0  0.20653901669E+02 -0.71094813524E+01  0.27108021016E+02  0.34813405218E+02  0.51100000000E-03 0. -1.
        -11    1    3    3    0    0  0.80619770403E+01  0.45540053985E+00  0.61834175876E+01  0.10170423628E+02  0.51100000000E-03 0.  1.
        -12    1    3    3    0    0 -0.29205246989E+02  0.57019680241E+01 -0.33788772957E+02  0.45023772265E+02  0.00000000000E+00 0.  1.
</event>
<event>
 7    1  0.1910099E-015  0.9000773E+02  0.7816164E-02  0.1186339E+00
        -11   -1    0    0    0    0  0.00000000000E+00  0.00000000000E+00  0.45593999997E+02  0.45594000000E+02  0.51100000000E-03 0. -1.
         11   -1    0    0    0    0 -0.00000000000E+00 -0.00000000000E+00 -0.45593999997E+02  0.45594000000E+02  0.51100000000E-03 0.  1.
    9900012    2    1    2    0    0 -0.64822926217E+00 -0.96359367828E+00  0.21054735241E+00  0.90007727091E+02  0.89999988288E+02 0.  0.
        -12    1    1    2    0    0  0.64822926217E+00  0.96359367828E+00 -0.21054735241E+00  0.11802729094E+01  0.00000000000E+00 0.  1.
         11    1    3    3    0    0  0.19633735045E+02  0.96490059826E+01  0.11272656148E+02  0.24610153294E+02  0.51100000000E-03 0. -1.
        -11    1    3    3    0    0  0.80017091405E+01  0.19779790016E+02  0.30365475453E+01  0.21551985140E+02  0.51100000000E-03 0.  1.
        -12    1    3    3    0    0 -0.28283673448E+02 -0.30392389677E+02 -0.14098656341E+02  0.43845588656E+02  0.00000000000E+00 0.  1.
</event>
<event>
 7    1  0.1910099E-015  0.9000815E+02  0.7816164E-02  0.1186338E+00
        -11   -1    0    0    0    0  0.00000000000E+00  0.00000000000E+00  0.45593999997E+02  0.45594000000E+02  0.51100000000E-03 0. -1.
         11   -1    0    0    0    0 -0.00000000000E+00 -0.00000000000E+00 -0.45593999997E+02  0.45594000000E+02  0.51100000000E-03 0.  1.
    9900012    2    1    2    0    0 -0.11218876534E+01 -0.36525052855E-01  0.36341432037E+00  0.90008154267E+02  0.90000421102E+02 0.  0.
        -12    1    1    2    0    0  0.11218876534E+01  0.36525052855E-01 -0.36341432037E+00  0.11798457334E+01  0.00000000000E+00 0.  1.
         11    1    3    3    0    0  0.39824344055E+01 -0.35252560574E+01 -0.61252450992E+01  0.81120799953E+01  0.51100000000E-03 0. -1.
        -11    1    3    3    0    0 -0.11812602310E+02  0.41118302047E+02 -0.16625979065E+01  0.42813742755E+02  0.51100000000E-03 0.  1.
         12    1    3    3    0    0  0.67082802515E+01 -0.37629571043E+02  0.81512573260E+01  0.39082331517E+02  0.00000000000E+00 0. -1.
</event>
<event>
 7    1  0.1910099E-015  0.9000786E+02  0.7816164E-02  0.1186339E+00
        -11   -1    0    0    0    0  0.00000000000E+00  0.00000000000E+00  0.45593999997E+02  0.45594000000E+02  0.51100000000E-03 0.  1.
         11   -1    0    0    0    0 -0.00000000000E+00 -0.00000000000E+00 -0.45593999997E+02  0.45594000000E+02  0.51100000000E-03 0. -1.
    9900012    2    1    2    0    0  0.14636019490E+00 -0.68195863124E-01 -0.11690368065E+01  0.90007864822E+02  0.90000127838E+02 0.  0.
        -12    1    1    2    0    0 -0.14636019490E+00  0.68195863124E-01  0.11690368065E+01  0.11801351776E+01  0.00000000000E+00 0.  1.
         11    1    3    3    0    0  0.35072311086E+02  0.41408307581E+01  0.18281451728E+02  0.39767134192E+02  0.51100000000E-03 0. -1.
        -11    1    3    3    0    0  0.34353747943E+01  0.11035750801E+01 -0.96354193917E+01  0.10288876763E+02  0.51100000000E-03 0.  1.
        -12    1    3    3    0    0 -0.38361325685E+02 -0.53126017013E+01 -0.98150691430E+01  0.39951853867E+02  0.00000000000E+00 0.  1.
</event>
<event>
 7    1  0.1910099E-015  0.9000772E+02  0.7816164E-02  0.1186339E+00
        -11   -1    0    0    0    0  0.00000000000E+00  0.00000000000E+00  0.45593999997E+02  0.45594000000E+02  0.51100000000E-03 0. -1.
         11   -1    0    0    0    0 -0.00000000000E+00 -0.00000000000E+00 -0.45593999997E+02  0.45594000000E+02  0.51100000000E-03 0.  1.
    9900012    2    1    2    0    0  0.48149377437E+00  0.69411552245E+00  0.82427144495E+00  0.90007722055E+02  0.89999983186E+02 0.  0.
        -12    1    1    2    0    0 -0.48149377437E+00 -0.69411552245E+00 -0.82427144495E+00  0.11802779453E+01  0.00000000000E+00 0.  1.
         11    1    3    3    0    0 -0.33837823865E+02  0.77440651417E+01 -0.59631840231E+01  0.35221136166E+02  0.51100000000E-03 0. -1.
        -11    1    3    3    0    0 -0.54662028217E+01 -0.70522188962E+01 -0.83484026332E+01  0.12219205843E+02  0.51100000000E-03 0.  1.
        -12    1    3    3    0    0  0.39785520461E+02  0.22692769576E-02  0.15135858101E+02  0.42567380046E+02  0.00000000000E+00 0.  1.
</event>
<event>
 7    1  0.1910099E-015  0.9000801E+02  0.7816164E-02  0.1186339E+00
        -11   -1    0    0    0    0  0.00000000000E+00  0.00000000000E+00  0.45593999997E+02  0.45594000000E+02  0.51100000000E-03 0.  1.
         11   -1    0    0    0    0 -0.00000000000E+00 -0.00000000000E+00 -0.45593999997E+02  0.45594000000E+02  0.51100000000E-03 0. -1.
    9900012    2    1    2    0    0  0.10957917117E+01 -0.43515257971E+00 -0.47535175309E-01  0.90008009815E+02  0.90000274744E+02 0.  0.
        -12    1    1    2    0    0 -0.10957917117E+01  0.43515257971E+00  0.47535175309E-01  0.11799901847E+01  0.00000000000E+00 0.  1.
         11    1    3    3    0    0  0.90139089395E+01 -0.28417058303E+01 -0.11593043505E+01  0.95220708480E+01  0.51100000000E-03 0. -1.
        -11    1    3    3    0    0 -0.26829424431E+02 -0.24235390312E+02 -0.20260706512E+02  0.41444763089E+02  0.51100000000E-03 0.  1.
         12    1    3    3    0    0  0.18911307203E+02  0.26641943563E+02  0.21372475687E+02  0.39041175878E+02  0.00000000000E+00 0. -1.
</event>
<event>
 7    1  0.1910099E-015  0.9000852E+02  0.7816164E-02  0.1186337E+00
        -11   -1    0    0    0    0  0.00000000000E+00  0.00000000000E+00  0.45593999997E+02  0.45594000000E+02  0.51100000000E-03 0. -1.
         11   -1    0    0    0    0 -0.00000000000E+00 -0.00000000000E+00 -0.45593999997E+02  0.45594000000E+02  0.51100000000E-03 0.  1.
    9900012    2    1    2    0    0 -0.39348514640E+00  0.20326545360E+00  0.10931686571E+01  0.90008523371E+02  0.90000795076E+02 0.  0.
        -12    1    1    2    0    0  0.39348514640E+00 -0.20326545360E+00 -0.10931686571E+01  0.11794766288E+01  0.00000000000E+00 0.  1.
         11    1    3    3    0    0 -0.25160108236E+02  0.42048541362E+01  0.36936304451E+02  0.44888778458E+02  0.51100000000E-03 0. -1.
        -11    1    3    3    0    0  0.80988299945E+01 -0.39093935455E+00 -0.41013567267E+01  0.90865289368E+01  0.51100000000E-03 0.  1.
        -12    1    3    3    0    0  0.16667793095E+02 -0.36106493281E+01 -0.31741779067E+02  0.36033215976E+02  0.00000000000E+00 0.  1.
</event>
<event>
 7    1  0.1910099E-015  0.9000773E+02  0.7816164E-02  0.1186339E+00
        -11   -1    0    0    0    0  0.00000000000E+00  0.00000000000E+00  0.45593999997E+02  0.45594000000E+02  0.51100000000E-03 0.  1.
         11   -1    0    0    0    0 -0.00000000000E+00 -0.00000000000E+00 -0.45593999997E+02  0.45594000000E+02  0.51100000000E-03 0. -1.
    9900012    2    1    2    0    0  0.51386047241E+00 -0.10399734383E+01  0.21781242820E+00  0.90007729018E+02  0.89999990241E+02 0.  0.
        -12    1    1    2    0    0 -0.51386047241E+00  0.10399734383E+01 -0.21781242820E+00  0.11802709822E+01  0.00000000000E+00 0.  1.
         11    1    3    3    0    0  0.23102462498E+01  0.12080113807E+01 -0.11579401746E+02  0.11869249104E+02  0.51100000000E-03 0. -1.
        -11    1    3    3    0    0 -0.23565187035E+02 -0.31741669745E+02 -0.30809567648E+00  0.39534118953E+02  0.51100000000E-03 0.  1.
         12    1    3    3    0    0  0.21768801257E+02  0.29493684926E+02  0.12105309850E+02  0.38604360962E+02  0.00000000000E+00 0. -1.
</event>
<event>
 7    1  0.1910099E-015  0.9000774E+02  0.7816164E-02  0.1186339E+00
        -11   -1    0    0    0    0  0.00000000000E+00  0.00000000000E+00  0.45593999997E+02  0.45594000000E+02  0.51100000000E-03 0.  1.
         11   -1    0    0    0    0 -0.00000000000E+00 -0.00000000000E+00 -0.45593999997E+02  0.45594000000E+02  0.51100000000E-03 0. -1.
    9900012    2    1    2    0    0 -0.89799041802E+00  0.69595705214E+00 -0.31978111817E+00  0.90007744531E+02  0.90000005958E+02 0.  0.
        -12    1    1    2    0    0  0.89799041802E+00 -0.69595705214E+00  0.31978111817E+00  0.11802554693E+01  0.00000000000E+00 0.  1.
         11    1    3    3    0    0 -0.97013238357E+01  0.37682159361E+02 -0.72339692374E+01  0.39577659474E+02  0.51100000000E-03 0. -1.
        -11    1    3    3    0    0 -0.35197776115E+01  0.41242982118E+01  0.51469973854E+01  0.74759783654E+01  0.51100000000E-03 0.  1.
        -12    1    3    3    0    0  0.12323111029E+02 -0.41110500521E+02  0.17671907339E+01  0.42954106691E+02  0.00000000000E+00 0.  1.
</event>
<event>
 7    1  0.1910099E-015  0.9000794E+02  0.7816164E-02  0.1186339E+00
        -11   -1    0    0    0    0  0.00000000000E+00  0.00000000000E+00  0.45593999997E+02  0.45594000000E+02  0.51100000000E-03 0.  1.
         11   -1    0    0    0    0 -0.00000000000E+00 -0.00000000000E+00 -0.45593999997E+02  0.45594000000E+02  0.51100000000E-03 0. -1.
    9900012    2    1    2    0    0  0.64263144864E+00 -0.88924531786E+00 -0.43453479548E+00  0.90007935213E+02  0.90000199157E+02 0.  0.
        -12    1    1    2    0    0 -0.64263144864E+00  0.88924531786E+00  0.43453479548E+00  0.11800647875E+01  0.00000000000E+00 0.  1.
         11    1    3    3    0    0  0.23868181826E+01 -0.66452948897E+01  0.60167272521E+01  0.92767371578E+01  0.51100000000E-03 0. -1.
        -11    1    3    3    0    0  0.16207609692E+02 -0.17102781254E+02  0.27384157078E+02  0.36125943554E+02  0.51100000000E-03 0.  1.
         12    1    3    3    0    0 -0.17951796426E+02  0.22858830826E+02 -0.33835419126E+02  0.44605254500E+02  0.00000000000E+00 0. -1.
</event>
<event>
 7    1  0.1910099E-015  0.9000778E+02  0.7816164E-02  0.1186339E+00
        -11   -1    0    0    0    0  0.00000000000E+00  0.00000000000E+00  0.45593999997E+02  0.45594000000E+02  0.51100000000E-03 0. -1.
         11   -1    0    0    0    0 -0.00000000000E+00 -0.00000000000E+00 -0.45593999997E+02  0.45594000000E+02  0.51100000000E-03 0.  1.
    9900012    2    1    2    0    0  0.43897555300E+00  0.38228951925E+00  0.10266756936E+01  0.90007784853E+02  0.90000046813E+02 0.  0.
        -12    1    1    2    0    0 -0.43897555300E+00 -0.38228951925E+00 -0.10266756936E+01  0.11802151467E+01  0.00000000000E+00 0.  1.
         11    1    3    3    0    0 -0.16118075599E+02  0.65759787712E+01 -0.28613716629E+01  0.17641522209E+02  0.51100000000E-03 0. -1.
        -11    1    3    3    0    0 -0.92670500583E+01 -0.28497009888E+02 -0.14843475766E+02  0.33440791893E+02  0.51100000000E-03 0.  1.
         12    1    3    3    0    0  0.25824101210E+02  0.22303320636E+02  0.18731523123E+02  0.38925470751E+02  0.00000000000E+00 0. -1.
</event>
<event>
 7    1  0.1910099E-015  0.9000778E+02  0.7816164E-02  0.1186339E+00
        -11   -1    0    0    0    0  0.00000000000E+00  0.00000000000E+00  0.45593999997E+02  0.45594000000E+02  0.51100000000E-03 0.  1.
         11   -1    0    0    0    0 -0.00000000000E+00 -0.00000000000E+00 -0.45593999997E+02  0.45594000000E+02  0.51100000000E-03 0. -1.
    9900012    2    1    2    0    0 -0.15103731514E+00 -0.90075513283E+00  0.74749028626E+00  0.90007782305E+02  0.90000044231E+02 0.  0.
        -12    1    1    2    0    0  0.15103731514E+00  0.90075513283E+00 -0.74749028626E+00  0.11802176951E+01  0.00000000000E+00 0.  1.
         11    1    3    3    0    0 -0.63667486727E+01 -0.81881413229E+01 -0.40141471209E+01  0.11121804006E+02  0.51100000000E-03 0. -1.
        -11    1    3    3    0    0 -0.30772132663E+02 -0.16187435268E+02 -0.41764166689E+00  0.34772570138E+02  0.51100000000E-03 0.  1.
         12    1    3    3    0    0  0.36987844021E+02  0.23474821458E+02  0.51792790741E+01  0.44113408160E+02  0.00000000000E+00 0. -1.
</event>
<event>
 7    1  0.1910099E-015  0.9000776E+02  0.7816164E-02  0.1186339E+00
        -11   -1    0    0    0    0  0.00000000000E+00  0.00000000000E+00  0.45593999997E+02  0.45594000000E+02  0.51100000000E-03 0.  1.
         11   -1    0    0    0    0 -0.00000000000E+00 -0.00000000000E+00 -0.45593999997E+02  0.45594000000E+02  0.51100000000E-03 0. -1.
    9900012    2    1    2    0    0 -0.56459285763E-01 -0.39901052739E+00 -0.11093154793E+01  0.90007755159E+02  0.90000016727E+02 0.  0.
        -12    1    1    2    0    0  0.56459285763E-01  0.39901052739E+00  0.11093154793E+01  0.11802448410E+01  0.00000000000E+00 0.  1.
         11    1    3    3    0    0  0.23430243842E+02 -0.15018387501E+02 -0.52901071934E+01  0.28328669647E+02  0.51100000000E-03 0. -1.
        -11    1    3    3    0    0  0.10801517678E+02 -0.13419094203E+02  0.18467248094E+01  0.17324989644E+02  0.51100000000E-03 0.  1.
        -12    1    3    3    0    0 -0.34288220805E+02  0.28038471177E+02  0.23340669047E+01  0.44354095868E+02  0.00000000000E+00 0.  1.
</event>
<event>
 7    1  0.1910099E-015  0.9000773E+02  0.7816164E-02  0.1186339E+00
        -11   -1    0    0    0    0  0.00000000000E+00  0.00000000000E+00  0.45593999997E+02  0.45594000000E+02  0.51100000000E-03 0. -1.
         11   -1    0    0    0    0 -0.00000000000E+00 -0.00000000000E+00 -0.45593999997E+02  0.45594000000E+02  0.51100000000E-03 0.  1.
    9900012    2    1    2    0    0  0.78835470335E+00 -0.45903605373E-02  0.87836414593E+00  0.90007725548E+02  0.89999986725E+02 0.  0.
        -12    1    1    2    0    0 -0.78835470335E+00  0.45903605373E-02 -0.87836414593E+00  0.11802744522E+01  0.00000000000E+00 0.  1.
         11    1    3    3    0    0 -0.18447493687E+02  0.18810636618E+02 -0.25473683747E+02  0.36647764423E+02  0.51100000000E-03 0. -1.
        -11    1    3    3    0    0  0.71411610930E+01 -0.13529987058E+02 -0.74907699918E+01  0.17034329070E+02  0.51100000000E-03 0.  1.
        -12    1    3    3    0    0  0.12094687297E+02 -0.52852399204E+01  0.33842817884E+02  0.36325632055E+02  0.00000000000E+00 0.  1.
</event>
<event>
 7    1  0.1910099E-015  0.9000775E+02  0.7816164E-02  0.1186339E+00
        -11   -1    0    0    0    0  0.00000000000E+00  0.00000000000E+00  0.45593999997E+02  0.45594000000E+02  0.51100000000E-03 0. -1.
         11   -1    0    0    0    0 -0.00000000000E+00 -0.00000000000E+00 -0.45593999997E+02  0.45594000000E+02  0.51100000000E-03 0.  1.
    9900012    2    1    2    0    0 -0.52234083632E+00 -0.53341882864E+00  0.91412440728E+00  0.90007746202E+02  0.90000007652E+02 0.  0.
        -12    1    1    2    0    0  0.52234083632E+00  0.53341882864E+00 -0.91412440728E+00  0.11802537981E+01  0.00000000000E+00 0.  1.
         11    1    3    3    0    0  0.17505398803E+01  0.86899333156E+01 -0.48316355198E+00  0.88776561198E+01  0.51100000000E-03 0. -1.
        -11    1    3    3    0    0 -0.31109210842E+02  0.20382504778E+02  0.10834640060E+02  0.38737822935E+02  0.51100000000E-03 0.  1.
         12    1    3    3    0    0  0.28836330125E+02 -0.29605856922E+02 -0.94373521012E+01  0.42392267147E+02  0.00000000000E+00 0. -1.
</event>
<event>
 7    1  0.1910099E-015  0.9000805E+02  0.7816164E-02  0.1186338E+00
        -11   -1    0    0    0    0  0.00000000000E+00  0.00000000000E+00  0.45593999997E+02  0.45594000000E+02  0.51100000000E-03 0.  1.
         11   -1    0    0    0    0 -0.00000000000E+00 -0.00000000000E+00 -0.45593999997E+02  0.45594000000E+02  0.51100000000E-03 0. -1.
    9900012    2    1    2    0    0 -0.16381421933E-01  0.11729875642E+01 -0.12692997323E+00  0.90008051105E+02  0.90000316579E+02 0.  0.
        -12    1    1    2    0    0  0.16381421933E-01 -0.11729875642E+01  0.12692997323E+00  0.11799488950E+01  0.00000000000E+00 0.  1.
         11    1    3    3    0    0 -0.53867856363E+01 -0.88781818600E+00  0.83562576266E+01  0.99816192277E+01  0.51100000000E-03 0. -1.
        -11    1    3    3    0    0 -0.81403317549E+01  0.36524888838E+02  0.98813831851E+01  0.38703672172E+02  0.51100000000E-03 0.  1.
         12    1    3    3    0    0  0.13510735969E+02 -0.34464083088E+02 -0.18364570785E+02  0.41322759705E+02  0.00000000000E+00 0. -1.
</event>
<event>
 7    1  0.1910099E-015  0.9000781E+02  0.7816164E-02  0.1186339E+00
        -11   -1    0    0    0    0  0.00000000000E+00  0.00000000000E+00  0.45593999997E+02  0.45594000000E+02  0.51100000000E-03 0.  1.
         11   -1    0    0    0    0 -0.00000000000E+00 -0.00000000000E+00 -0.45593999997E+02  0.45594000000E+02  0.51100000000E-03 0. -1.
    9900012    2    1    2    0    0 -0.11667210342E+01 -0.12672225208E+00  0.12473904515E+00  0.90007806656E+02  0.90000068903E+02 0.  0.
        -12    1    1    2    0    0  0.11667210342E+01  0.12672225208E+00 -0.12473904515E+00  0.11801933444E+01  0.00000000000E+00 0.  1.
         11    1    3    3    0    0 -0.18691280839E+01 -0.33086912264E+01  0.82857650054E+01  0.91156447612E+01  0.51100000000E-03 0. -1.
        -11    1    3    3    0    0  0.28006936955E+02 -0.87153721471E+01  0.23381072483E+02  0.37510275659E+02  0.51100000000E-03 0.  1.
         12    1    3    3    0    0 -0.27304529906E+02  0.11897341121E+02 -0.31542098443E+02  0.43381886235E+02  0.00000000000E+00 0. -1.
</event>
<event>
 7    1  0.1910099E-015  0.9000778E+02  0.7816164E-02  0.1186339E+00
        -11   -1    0    0    0    0  0.00000000000E+00  0.00000000000E+00  0.45593999997E+02  0.45594000000E+02  0.51100000000E-03 0. -1.
         11   -1    0    0    0    0 -0.00000000000E+00 -0.00000000000E+00 -0.45593999997E+02  0.45594000000E+02  0.51100000000E-03 0.  1.
    9900012    2    1    2    0    0 -0.97997594269E+00  0.29924438689E+00  0.58568696099E+00  0.90007775755E+02  0.90000037595E+02 0.  0.
        -12    1    1    2    0    0  0.97997594269E+00 -0.29924438689E+00 -0.58568696099E+00  0.11802242446E+01  0.00000000000E+00 0.  1.
         11    1    3    3    0    0 -0.12861277982E+02  0.35751643975E+02  0.11842116875E+02  0.39797339742E+02  0.51100000000E-03 0. -1.
        -11    1    3    3    0    0 -0.42154956416E+01 -0.63504134885E+01  0.85880546423E+01  0.11482719094E+02  0.51100000000E-03 0.  1.
        -12    1    3    3    0    0  0.16096797681E+02 -0.29101986099E+02 -0.19844484556E+02  0.38727716920E+02  0.00000000000E+00 0.  1.
</event>
<event>
 7    1  0.1910099E-015  0.9000788E+02  0.7816164E-02  0.1186339E+00
        -11   -1    0    0    0    0  0.00000000000E+00  0.00000000000E+00  0.45593999997E+02  0.45594000000E+02  0.51100000000E-03 0.  1.
         11   -1    0    0    0    0 -0.00000000000E+00 -0.00000000000E+00 -0.45593999997E+02  0.45594000000E+02  0.51100000000E-03 0. -1.
    9900012    2    1    2    0    0 -0.42658711854E+00 -0.71372519063E+00 -0.83743181888E+00  0.90007884638E+02  0.90000147915E+02 0.  0.
        -12    1    1    2    0    0  0.42658711854E+00  0.71372519063E+00  0.83743181888E+00  0.11801153625E+01  0.00000000000E+00 0.  1.
         11    1    3    3    0    0  0.36117789323E+00 -0.84231022640E+01  0.56725564994E+01  0.10161545095E+02  0.51100000000E-03 0. -1.
        -11    1    3    3    0    0  0.29636726999E+02  0.22437930689E+02  0.14663647159E+02  0.39960216078E+02  0.51100000000E-03 0.  1.
         12    1    3    3    0    0 -0.30424492010E+02 -0.14728553615E+02 -0.21173635477E+02  0.39886123464E+02  0.00000000000E+00 0. -1.
</event>
<event>
 7    1  0.1910099E-015  0.9000747E+02  0.7816164E-02  0.1186340E+00
        -11   -1    0    0    0    0  0.00000000000E+00  0.00000000000E+00  0.45593999997E+02  0.45594000000E+02  0.51100000000E-03 0. -1.
         11   -1    0    0    0    0 -0.00000000000E+00 -0.00000000000E+00 -0.45593999997E+02  0.45594000000E+02  0.51100000000E-03 0.  1.
    9900012    2    1    2    0    0  0.34932683335E+00 -0.10814748041E+01 -0.31942861922E+00  0.90007469767E+02  0.89999727567E+02 0.  0.
        -12    1    1    2    0    0 -0.34932683335E+00  0.10814748041E+01  0.31942861922E+00  0.11805302331E+01  0.00000000000E+00 0.  1.
         11    1    3    3    0    0 -0.23866067724E+02 -0.11686874733E+02  0.29022837788E+02  0.39350950982E+02  0.51100000000E-03 0. -1.
        -11    1    3    3    0    0  0.58751360707E+01  0.80463801021E+01  0.53668117019E+01  0.11316542082E+02  0.51100000000E-03 0.  1.
        -12    1    3    3    0    0  0.18340258487E+02  0.25590198268E+01 -0.34709078109E+02  0.39339976703E+02  0.00000000000E+00 0.  1.
</event>
<event>
 7    1  0.1910099E-015  0.9000777E+02  0.7816164E-02  0.1186339E+00
        -11   -1    0    0    0    0  0.00000000000E+00  0.00000000000E+00  0.45593999997E+02  0.45594000000E+02  0.51100000000E-03 0. -1.
         11   -1    0    0    0    0 -0.00000000000E+00 -0.00000000000E+00 -0.45593999997E+02  0.45594000000E+02  0.51100000000E-03 0.  1.
    9900012    2    1    2    0    0 -0.11599783674E+01  0.21744321992E+00 -0.10224412145E-01  0.90007772943E+02  0.90000034746E+02 0.  0.
        -12    1    1    2    0    0  0.11599783674E+01 -0.21744321992E+00  0.10224412145E-01  0.11802270567E+01  0.00000000000E+00 0.  1.
         11    1    3    3    0    0 -0.39521293418E+01  0.62691572209E+01  0.66360893044E+01  0.99478309250E+01  0.51100000000E-03 0. -1.
        -11    1    3    3    0    0 -0.90788086446E+01  0.21075542670E+02 -0.33151554313E+02  0.40319087525E+02  0.51100000000E-03 0.  1.
         12    1    3    3    0    0  0.11870959619E+02 -0.27127256671E+02  0.26505240596E+02  0.39740854493E+02  0.00000000000E+00 0. -1.
</event>
<event>
 7    1  0.1910099E-015  0.9000761E+02  0.7816164E-02  0.1186339E+00
        -11   -1    0    0    0    0  0.00000000000E+00  0.00000000000E+00  0.45593999997E+02  0.45594000000E+02  0.51100000000E-03 0.  1.
         11   -1    0    0    0    0 -0.00000000000E+00 -0.00000000000E+00 -0.45593999997E+02  0.45594000000E+02  0.51100000000E-03 0. -1.
    9900012    2    1    2    0    0  0.10378619397E+01  0.16808940811E-01  0.56203072908E+00  0.90007610875E+02  0.89999870538E+02 0.  0.
        -12    1    1    2    0    0 -0.10378619397E+01 -0.16808940811E-01 -0.56203072908E+00  0.11803891252E+01  0.00000000000E+00 0.  1.
         11    1    3    3    0    0  0.34233081183E+02  0.26702071472E+01  0.21299045202E+02  0.40406474485E+02  0.51100000000E-03 0. -1.
        -11    1    3    3    0    0  0.49328885165E+01 -0.38677899765E+01 -0.60863675814E+01  0.87371081609E+01  0.51100000000E-03 0.  1.
        -12    1    3    3    0    0 -0.38128107760E+02  0.12143917700E+01 -0.14650646892E+02  0.40864028229E+02  0.00000000000E+00 0.  1.
</event>
<event>
 7    1  0.1910099E-015  0.9000778E+02  0.7816164E-02  0.1186339E+00
        -11   -1    0    0    0    0  0.00000000000E+00  0.00000000000E+00  0.45593999997E+02  0.45594000000E+02  0.51100000000E-03 0.  1.
         11   -1    0    0    0    0 -0.00000000000E+00 -0.00000000000E+00 -0.45593999997E+02  0.45594000000E+02  0.51100000000E-03 0. -1.
    9900012    2    1    2    0    0 -0.83085889953E+00 -0.64885988821E+00 -0.53063356553E+00  0.90007780679E+02  0.90000042584E+02 0.  0.
        -12    1    1    2    0    0  0.83085889953E+00  0.64885988821E+00  0.53063356553E+00  0.11802193213E+01  0.00000000000E+00 0.  1.
         11    1    3    3    0    0 -0.49118525053E+01  0.11961074793E+02 -0.46611697308E+01  0.13744821162E+02  0.51100000000E-03 0. -1.
        -11    1    3    3    0    0  0.21587590170E+02  0.22548143591E+02  0.16207124855E+02  0.35172627497E+02  0.51100000000E-03 0.  1.
         12    1    3    3    0    0 -0.17506596564E+02 -0.35158078273E+02 -0.12076588690E+02  0.41090332020E+02  0.00000000000E+00 0. -1.
</event>
<event>
 7    1  0.1910099E-015  0.9000779E+02  0.7816164E-02  0.1186339E+00
        -11   -1    0    0    0    0  0.00000000000E+00  0.00000000000E+00  0.45593999997E+02  0.45594000000E+02  0.51100000000E-03 0.  1.
         11   -1    0    0    0    0 -0.00000000000E+00 -0.00000000000E+00 -0.45593999997E+02  0.45594000000E+02  0.51100000000E-03 0. -1.
    9900012    2    1    2    0    0  0.53894716896E+00 -0.28754495093E+00 -0.10098298706E+01  0.90007787088E+02  0.90000049078E+02 0.  0.
        -12    1    1    2    0    0 -0.53894716896E+00  0.28754495093E+00  0.10098298706E+01  0.11802129119E+01  0.00000000000E+00 0.  1.
         11    1    3    3    0    0 -0.67160025336E+01  0.96077182961E+00 -0.25111672655E+01  0.72342058193E+01  0.51100000000E-03 0. -1.
        -11    1    3    3    0    0 -0.20861672657E+02 -0.30478325620E+02  0.15235832160E+02  0.39953326527E+02  0.51100000000E-03 0.  1.
         12    1    3    3    0    0  0.28116622360E+02  0.29230008840E+02 -0.13734494765E+02  0.42820254742E+02  0.00000000000E+00 0. -1.
</event>
<event>
 7    1  0.1910099E-015  0.9000765E+02  0.7816164E-02  0.1186339E+00
        -11   -1    0    0    0    0  0.00000000000E+00  0.00000000000E+00  0.45593999997E+02  0.45594000000E+02  0.51100000000E-03 0. -1.
         11   -1    0    0    0    0 -0.00000000000E+00 -0.00000000000E+00 -0.45593999997E+02  0.45594000000E+02  0.51100000000E-03 0.  1.
    9900012    2    1    2    0    0  0.28464574743E+00  0.10868821390E+01  0.36177485144E+00  0.90007653852E+02  0.89999914083E+02 0.  0.
        -12    1    1    2    0    0 -0.28464574743E+00 -0.10868821390E+01 -0.36177485144E+00  0.11803461478E+01  0.00000000000E+00 0.  1.
         11    1    3    3    0    0  0.22774080867E+02  0.32554911427E+02 -0.13732511875E+02  0.42036447281E+02  0.51100000000E-03 0. -1.
        -11    1    3    3    0    0 -0.25003201577E+01 -0.17548042649E+01 -0.61263124440E+01  0.68456295052E+01  0.51100000000E-03 0.  1.
        -12    1    3    3    0    0 -0.19989114962E+02 -0.29713225023E+02  0.20220599170E+02  0.41125577066E+02  0.00000000000E+00 0.  1.
</event>
<event>
 7    1  0.1910099E-015  0.9000774E+02  0.7816164E-02  0.1186339E+00
        -11   -1    0    0    0    0  0.00000000000E+00  0.00000000000E+00  0.45593999997E+02  0.45594000000E+02  0.51100000000E-03 0.  1.
         11   -1    0    0    0    0 -0.00000000000E+00 -0.00000000000E+00 -0.45593999997E+02  0.45594000000E+02  0.51100000000E-03 0. -1.
    9900012    2    1    2    0    0  0.98909147374E+00 -0.63294928145E+00 -0.11873131486E+00  0.90007735682E+02  0.89999996993E+02 0.  0.
        -12    1    1    2    0    0 -0.98909147374E+00  0.63294928145E+00  0.11873131486E+00  0.11802643185E+01  0.00000000000E+00 0.  1.
         11    1    3    3    0    0 -0.16292101542E+02  0.51943232478E+01 -0.33465783844E+02  0.37581541416E+02  0.51100000000E-03 0. -1.
        -11    1    3    3    0    0 -0.62884463827E+01  0.85350023270E+00 -0.41883063312E+01  0.76036130057E+01  0.51100000000E-03 0.  1.
        -12    1    3    3    0    0  0.23569639398E+02 -0.66807727619E+01  0.37535358860E+02  0.44822581260E+02  0.00000000000E+00 0.  1.
</event>
<event>
 7    1  0.1910099E-015  0.9000784E+02  0.7816164E-02  0.1186339E+00
        -11   -1    0    0    0    0  0.00000000000E+00  0.00000000000E+00  0.45593999997E+02  0.45594000000E+02  0.51100000000E-03 0. -1.
         11   -1    0    0    0    0 -0.00000000000E+00 -0.00000000000E+00 -0.45593999997E+02  0.45594000000E+02  0.51100000000E-03 0.  1.
    9900012    2    1    2    0    0 -0.13713085039E+00  0.77737605409E+00 -0.87730189474E+00  0.90007840259E+02  0.90000102950E+02 0.  0.
        -12    1    1    2    0    0  0.13713085039E+00 -0.77737605409E+00  0.87730189474E+00  0.11801597409E+01  0.00000000000E+00 0.  1.
         11    1    3    3    0    0 -0.73546969713E+00 -0.24749290025E+01 -0.12236442059E+02  0.12505866774E+02  0.51100000000E-03 0. -1.
        -11    1    3    3    0    0  0.24114101736E+02 -0.22321170740E+02 -0.12715894175E+02  0.35233769749E+02  0.51100000000E-03 0.  1.
         12    1    3    3    0    0 -0.23515762889E+02  0.25573475797E+02  0.24075034340E+02  0.42268203736E+02  0.00000000000E+00 0. -1.
</event>
<event>
 7    1  0.1910099E-015  0.9000786E+02  0.7816164E-02  0.1186339E+00
        -11   -1    0    0    0    0  0.00000000000E+00  0.00000000000E+00  0.45593999997E+02  0.45594000000E+02  0.51100000000E-03 0. -1.
         11   -1    0    0    0    0 -0.00000000000E+00 -0.00000000000E+00 -0.45593999997E+02  0.45594000000E+02  0.51100000000E-03 0.  1.
    9900012    2    1    2    0    0  0.67692436745E+00  0.85809411116E+00  0.44518305183E+00  0.90007855919E+02  0.90000118817E+02 0.  0.
        -12    1    1    2    0    0 -0.67692436745E+00 -0.85809411116E+00 -0.44518305183E+00  0.11801440812E+01  0.00000000000E+00 0.  1.
         11    1    3    3    0    0 -0.20560768438E+02 -0.30303229545E+02 -0.58962674980E+01  0.37091736145E+02  0.51100000000E-03 0. -1.
        -11    1    3    3    0    0 -0.85102902473E+01 -0.22749872181E+00 -0.22930544825E+01  0.88167394700E+01  0.51100000000E-03 0.  1.
        -12    1    3    3    0    0  0.29747983053E+02  0.31388822378E+02  0.86345050323E+01  0.44099380303E+02  0.00000000000E+00 0.  1.
</event>
<event>
 7    1  0.1910099E-015  0.9000767E+02  0.7816164E-02  0.1186339E+00
        -11   -1    0    0    0    0  0.00000000000E+00  0.00000000000E+00  0.45593999997E+02  0.45594000000E+02  0.51100000000E-03 0. -1.
         11   -1    0    0    0    0 -0.00000000000E+00 -0.00000000000E+00 -0.45593999997E+02  0.45594000000E+02  0.51100000000E-03 0.  1.
    9900012    2    1    2    0    0 -0.31415280670E+00 -0.55891673882E+00  0.99100478949E+00  0.90007673605E+02  0.89999934096E+02 0.  0.
        -12    1    1    2    0    0  0.31415280670E+00  0.55891673882E+00 -0.99100478949E+00  0.11803263954E+01  0.00000000000E+00 0.  1.
         11    1    3    3    0    0 -0.43346081026E+01 -0.59758159845E+01  0.40429436690E+02  0.41097914247E+02  0.51100000000E-03 0. -1.
        -11    1    3    3    0    0 -0.69955450058E+01  0.75044876024E+01 -0.28585972381E+01  0.10650190728E+02  0.51100000000E-03 0.  1.
        -12    1    3    3    0    0  0.11016000302E+02 -0.20875883568E+01 -0.36579834663E+02  0.38259568630E+02  0.00000000000E+00 0.  1.
</event>
<event>
 7    1  0.1910099E-015  0.9000771E+02  0.7816164E-02  0.1186339E+00
        -11   -1    0    0    0    0  0.00000000000E+00  0.00000000000E+00  0.45593999997E+02  0.45594000000E+02  0.51100000000E-03 0. -1.
         11   -1    0    0    0    0 -0.00000000000E+00 -0.00000000000E+00 -0.45593999997E+02  0.45594000000E+02  0.51100000000E-03 0.  1.
    9900012    2    1    2    0    0  0.10856112085E+01  0.45826872690E+00  0.67213439804E-01  0.90007712082E+02  0.89999973082E+02 0.  0.
        -12    1    1    2    0    0 -0.10856112085E+01 -0.45826872690E+00 -0.67213439804E-01  0.11802879176E+01  0.00000000000E+00 0.  1.
         11    1    3    3    0    0  0.77277600458E-02 -0.38037614608E+02 -0.11562173845E+02  0.39756056760E+02  0.51100000000E-03 0. -1.
        -11    1    3    3    0    0  0.53399423580E+01 -0.24881716819E+01  0.64285720783E+01  0.87196629483E+01  0.51100000000E-03 0.  1.
        -12    1    3    3    0    0 -0.42620589095E+01  0.40984055017E+02  0.52008152066E+01  0.41531992374E+02  0.00000000000E+00 0.  1.
</event>
<event>
 7    1  0.1910099E-015  0.9000768E+02  0.7816164E-02  0.1186339E+00
        -11   -1    0    0    0    0  0.00000000000E+00  0.00000000000E+00  0.45593999997E+02  0.45594000000E+02  0.51100000000E-03 0.  1.
         11   -1    0    0    0    0 -0.00000000000E+00 -0.00000000000E+00 -0.45593999997E+02  0.45594000000E+02  0.51100000000E-03 0. -1.
    9900012    2    1    2    0    0 -0.10455777463E+00 -0.42709265135E+00 -0.10953632830E+01  0.90007677509E+02  0.89999938052E+02 0.  0.
        -12    1    1    2    0    0  0.10455777463E+00  0.42709265135E+00  0.10953632830E+01  0.11803224911E+01  0.00000000000E+00 0.  1.
         11    1    3    3    0    0 -0.25905024693E+02 -0.43035051075E+01 -0.25539205181E+02  0.36631154256E+02  0.51100000000E-03 0. -1.
        -11    1    3    3    0    0 -0.97395292301E+01  0.39504846620E+01  0.49779765546E+00  0.10522003681E+02  0.51100000000E-03 0.  1.
        -12    1    3    3    0    0  0.35539996148E+02 -0.74072205749E-01  0.23946044243E+02  0.42854519573E+02  0.00000000000E+00 0.  1.
</event>
<event>
 7    1  0.1910099E-015  0.9000781E+02  0.7816164E-02  0.1186339E+00
        -11   -1    0    0    0    0  0.00000000000E+00  0.00000000000E+00  0.45593999997E+02  0.45594000000E+02  0.51100000000E-03 0. -1.
         11   -1    0    0    0    0 -0.00000000000E+00 -0.00000000000E+00 -0.45593999997E+02  0.45594000000E+02  0.51100000000E-03 0.  1.
    9900012    2    1    2    0    0 -0.10845201454E+01 -0.29108831037E+00  0.36323791043E+00  0.90007805893E+02  0.90000068131E+02 0.  0.
        -12    1    1    2    0    0  0.10845201454E+01  0.29108831037E+00 -0.36323791043E+00  0.11801941068E+01  0.00000000000E+00 0.  1.
         11    1    3    3    0    0  0.24588122103E+02  0.23772942434E+02  0.24012160746E+02  0.41788902887E+02  0.51100000000E-03 0. -1.
        -11    1    3    3    0    0 -0.82539001984E+01 -0.46888671103E+00  0.27974810372E+01  0.87276929166E+01  0.51100000000E-03 0.  1.
        -12    1    3    3    0    0 -0.17418742050E+02 -0.23595144033E+02 -0.26446403873E+02  0.39491210090E+02  0.00000000000E+00 0.  1.
</event>
<event>
 7    1  0.2249709E-015  0.9000770E+02  0.7816164E-02  0.1186339E+00
        -11   -1    0    0    0    0  0.00000000000E+00  0.00000000000E+00  0.45593999997E+02  0.45594000000E+02  0.51100000000E-03 0. -1.
         11   -1    0    0    0    0 -0.00000000000E+00 -0.00000000000E+00 -0.45593999997E+02  0.45594000000E+02  0.51100000000E-03 0.  1.
    9900012    2    1    2    0    0 -0.18650492176E+00  0.65390119826E+00  0.96475257248E+00  0.90007695637E+02  0.89999956420E+02 0.  0.
        -12    1    1    2    0    0  0.18650492176E+00 -0.65390119826E+00 -0.96475257248E+00  0.11803043629E+01  0.00000000000E+00 0.  1.
         11    1    3    3    0    0 -0.52420695873E+01  0.75199051594E+01 -0.38558490330E+01  0.99446387159E+01  0.51100000000E-03 0. -1.
        -11    1    3    3    0    0  0.35591472445E+02  0.27913791199E+01 -0.18724203085E+02  0.40313031263E+02  0.51100000000E-03 0.  1.
         12    1    3    3    0    0 -0.30535907780E+02 -0.96573830810E+01  0.23544804690E+02  0.39750025658E+02  0.00000000000E+00 0. -1.
</event>
<event>
 7    1  0.1910099E-015  0.9000765E+02  0.7816164E-02  0.1186339E+00
        -11   -1    0    0    0    0  0.00000000000E+00  0.00000000000E+00  0.45593999997E+02  0.45594000000E+02  0.51100000000E-03 0.  1.
         11   -1    0    0    0    0 -0.00000000000E+00 -0.00000000000E+00 -0.45593999997E+02  0.45594000000E+02  0.51100000000E-03 0. -1.
    9900012    2    1    2    0    0 -0.76721842448E+00  0.81938815572E+00  0.36496226350E+00  0.90007653223E+02  0.89999913445E+02 0.  0.
        -12    1    1    2    0    0  0.76721842448E+00 -0.81938815572E+00 -0.36496226350E+00  0.11803467772E+01  0.00000000000E+00 0.  1.
         11    1    3    3    0    0 -0.92217063564E+01  0.27033851128E+01 -0.26458074700E+01  0.99673695939E+01  0.51100000000E-03 0. -1.
        -11    1    3    3    0    0 -0.27887242760E+02 -0.22191642442E+02  0.11703087541E+02  0.37511725651E+02  0.51100000000E-03 0.  1.
         12    1    3    3    0    0  0.36341730692E+02  0.20307645485E+02 -0.86923178078E+01  0.42528557978E+02  0.00000000000E+00 0. -1.
</event>
<event>
 7    1  0.1910099E-015  0.9000754E+02  0.7816164E-02  0.1186339E+00
        -11   -1    0    0    0    0  0.00000000000E+00  0.00000000000E+00  0.45593999997E+02  0.45594000000E+02  0.51100000000E-03 0. -1.
         11   -1    0    0    0    0 -0.00000000000E+00 -0.00000000000E+00 -0.45593999997E+02  0.45594000000E+02  0.51100000000E-03 0.  1.
    9900012    2    1    2    0    0 -0.10248208181E+01  0.53771280933E+00  0.23259263661E+00  0.90007537333E+02  0.89999796025E+02 0.  0.
        -12    1    1    2    0    0  0.10248208181E+01 -0.53771280933E+00 -0.23259263661E+00  0.11804626674E+01  0.00000000000E+00 0.  1.
         11    1    3    3    0    0  0.68003324630E+01  0.42972959652E+02 -0.45585231878E+01  0.43745855995E+02  0.51100000000E-03 0. -1.
        -11    1    3    3    0    0  0.46880661558E+01 -0.14114988740E+02 -0.34421532607E+00  0.14877142060E+02  0.51100000000E-03 0.  1.
        -12    1    3    3    0    0 -0.12513219437E+02 -0.28320258102E+02  0.51353311505E+01  0.31384539277E+02  0.00000000000E+00 0.  1.
</event>
<event>
 7    1  0.1910099E-015  0.9000776E+02  0.7816164E-02  0.1186339E+00
        -11   -1    0    0    0    0  0.00000000000E+00  0.00000000000E+00  0.45593999997E+02  0.45594000000E+02  0.51100000000E-03 0. -1.
         11   -1    0    0    0    0 -0.00000000000E+00 -0.00000000000E+00 -0.45593999997E+02  0.45594000000E+02  0.51100000000E-03 0.  1.
    9900012    2    1    2    0    0 -0.99280156415E+00 -0.60559528046E+00  0.20139422615E+00  0.90007762641E+02  0.90000024308E+02 0.  0.
        -12    1    1    2    0    0  0.99280156415E+00  0.60559528046E+00 -0.20139422615E+00  0.11802373591E+01  0.00000000000E+00 0.  1.
         11    1    3    3    0    0  0.26861454209E+02  0.37737275028E+00  0.12401430111E+02  0.29588436955E+02  0.51100000000E-03 0. -1.
        -11    1    3    3    0    0  0.94503512418E+01 -0.12894479435E+02  0.62061998544E+01  0.17149159028E+02  0.51100000000E-03 0.  1.
        -12    1    3    3    0    0 -0.37304607015E+02  0.11911511404E+02 -0.18406235739E+02  0.43270166657E+02  0.00000000000E+00 0.  1.
</event>
<event>
 7    1  0.1910099E-015  0.9000793E+02  0.7816164E-02  0.1186339E+00
        -11   -1    0    0    0    0  0.00000000000E+00  0.00000000000E+00  0.45593999997E+02  0.45594000000E+02  0.51100000000E-03 0.  1.
         11   -1    0    0    0    0 -0.00000000000E+00 -0.00000000000E+00 -0.45593999997E+02  0.45594000000E+02  0.51100000000E-03 0. -1.
    9900012    2    1    2    0    0  0.11608460223E+01 -0.88854333418E-01 -0.19264384154E+00  0.90007927871E+02  0.90000191719E+02 0.  0.
        -12    1    1    2    0    0 -0.11608460223E+01  0.88854333418E-01  0.19264384154E+00  0.11800721290E+01  0.00000000000E+00 0.  1.
         11    1    3    3    0    0  0.10115582729E+02 -0.25893510238E+01 -0.67069636557E+01  0.12410202029E+02  0.51100000000E-03 0. -1.
        -11    1    3    3    0    0  0.13461178234E+02  0.21945018213E+02  0.30160678864E+02  0.39654176244E+02  0.51100000000E-03 0.  1.
         12    1    3    3    0    0 -0.22415914940E+02 -0.19444521522E+02 -0.23646359049E+02  0.37943549598E+02  0.00000000000E+00 0. -1.
</event>
<event>
 7    1  0.1910099E-015  0.9000768E+02  0.7816164E-02  0.1186339E+00
        -11   -1    0    0    0    0  0.00000000000E+00  0.00000000000E+00  0.45593999997E+02  0.45594000000E+02  0.51100000000E-03 0.  1.
         11   -1    0    0    0    0 -0.00000000000E+00 -0.00000000000E+00 -0.45593999997E+02  0.45594000000E+02  0.51100000000E-03 0. -1.
    9900012    2    1    2    0    0 -0.96283262717E+00  0.68191031939E+00  0.33304301096E-01  0.90007679057E+02  0.89999939621E+02 0.  0.
        -12    1    1    2    0    0  0.96283262717E+00 -0.68191031939E+00 -0.33304301096E-01  0.11803209428E+01  0.00000000000E+00 0.  1.
         11    1    3    3    0    0 -0.92547171248E+01 -0.32201547354E+02 -0.18750749055E+02  0.38395052173E+02  0.51100000000E-03 0. -1.
        -11    1    3    3    0    0  0.52835505059E+00  0.97778973753E+00 -0.87129549923E+01  0.87835537676E+01  0.51100000000E-03 0.  1.
        -12    1    3    3    0    0  0.77635294470E+01  0.31905667936E+02  0.27497008348E+02  0.42829073116E+02  0.00000000000E+00 0.  1.
</event>
<event>
 7    1  0.2089184E-015  0.9000773E+02  0.7816164E-02  0.1186339E+00
        -11   -1    0    0    0    0  0.00000000000E+00  0.00000000000E+00  0.45593999997E+02  0.45594000000E+02  0.51100000000E-03 0. -1.
         11   -1    0    0    0    0 -0.00000000000E+00 -0.00000000000E+00 -0.45593999997E+02  0.45594000000E+02  0.51100000000E-03 0.  1.
    9900012    2    1    2    0    0  0.47577491030E+00  0.10682210941E+01  0.15990324563E+00  0.90007734302E+02  0.89999995594E+02 0.  0.
        -12    1    1    2    0    0 -0.47577491030E+00 -0.10682210941E+01 -0.15990324563E+00  0.11802656985E+01  0.00000000000E+00 0.  1.
         11    1    3    3    0    0  0.93249834953E+01 -0.74587365951E+00  0.11639323849E+01  0.94268968151E+01  0.51100000000E-03 0. -1.
        -11    1    3    3    0    0  0.14085047711E+02  0.32231608063E+02 -0.17237686758E+02  0.39171456092E+02  0.51100000000E-03 0.  1.
         12    1    3    3    0    0 -0.22934256296E+02 -0.30417513310E+02  0.16233657619E+02  0.41409381394E+02  0.00000000000E+00 0. -1.
</event>
<event>
 7    1  0.1910099E-015  0.9000771E+02  0.7816164E-02  0.1186339E+00
        -11   -1    0    0    0    0  0.00000000000E+00  0.00000000000E+00  0.45593999997E+02  0.45594000000E+02  0.51100000000E-03 0.  1.
         11   -1    0    0    0    0 -0.00000000000E+00 -0.00000000000E+00 -0.45593999997E+02  0.45594000000E+02  0.51100000000E-03 0. -1.
    9900012    2    1    2    0    0  0.68310286092E+00  0.87808155461E+00 -0.39425772887E+00  0.90007705167E+02  0.89999966076E+02 0.  0.
        -12    1    1    2    0    0 -0.68310286092E+00 -0.87808155461E+00  0.39425772887E+00  0.11802948326E+01  0.00000000000E+00 0.  1.
         11    1    3    3    0    0  0.32140986586E+01 -0.59988523593E+01 -0.22254220007E+01  0.71602488196E+01  0.51100000000E-03 0. -1.
        -11    1    3    3    0    0  0.18062722432E+02 -0.32000840849E+02  0.10038648990E+02  0.38093178268E+02  0.51100000000E-03 0.  1.
         12    1    3    3    0    0 -0.20593718230E+02  0.38877774763E+02 -0.82074847184E+01  0.44754278080E+02  0.00000000000E+00 0. -1.
</event>
<event>
 7    1  0.2334050E-015  0.9000761E+02  0.7816164E-02  0.1186339E+00
        -11   -1    0    0    0    0  0.00000000000E+00  0.00000000000E+00  0.45593999997E+02  0.45594000000E+02  0.51100000000E-03 0.  1.
         11   -1    0    0    0    0 -0.00000000000E+00 -0.00000000000E+00 -0.45593999997E+02  0.45594000000E+02  0.51100000000E-03 0. -1.
    9900012    2    1    2    0    0 -0.85587411038E+00  0.58126434864E-01 -0.81081574301E+00  0.90007609664E+02  0.89999869312E+02 0.  0.
        -12    1    1    2    0    0  0.85587411038E+00 -0.58126434864E-01  0.81081574301E+00  0.11803903356E+01  0.00000000000E+00 0.  1.
         11    1    3    3    0    0  0.75061487509E+01  0.36868044427E+01 -0.43132401269E+01  0.94095077832E+01  0.51100000000E-03 0. -1.
        -11    1    3    3    0    0  0.25333319946E+01 -0.29693960321E+02  0.29696906404E+02  0.42072025156E+02  0.51100000000E-03 0.  1.
         12    1    3    3    0    0 -0.10895354856E+02  0.26065282313E+02 -0.26194482020E+02  0.38526076725E+02  0.00000000000E+00 0. -1.
</event>
<event>
 7    1  0.1910099E-015  0.9000772E+02  0.7816164E-02  0.1186339E+00
        -11   -1    0    0    0    0  0.00000000000E+00  0.00000000000E+00  0.45593999997E+02  0.45594000000E+02  0.51100000000E-03 0. -1.
         11   -1    0    0    0    0 -0.00000000000E+00 -0.00000000000E+00 -0.45593999997E+02  0.45594000000E+02  0.51100000000E-03 0.  1.
    9900012    2    1    2    0    0 -0.65776743439E+00  0.35234846831E+00  0.91447117349E+00  0.90007718268E+02  0.89999979349E+02 0.  0.
        -12    1    1    2    0    0  0.65776743439E+00 -0.35234846831E+00 -0.91447117349E+00  0.11802817325E+01  0.00000000000E+00 0.  1.
         11    1    3    3    0    0 -0.16971812091E+02 -0.33618836757E+02  0.46419945103E+01  0.37944916707E+02  0.51100000000E-03 0. -1.
        -11    1    3    3    0    0 -0.49913461697E+01 -0.51704864189E+01  0.96861789035E+00  0.72515989459E+01  0.51100000000E-03 0.  1.
        -12    1    3    3    0    0  0.21305390826E+02  0.39141671645E+02 -0.46961412272E+01  0.44811202615E+02  0.00000000000E+00 0.  1.
</event>
<event>
 7    1  0.1910099E-015  0.9000804E+02  0.7816164E-02  0.1186338E+00
        -11   -1    0    0    0    0  0.00000000000E+00  0.00000000000E+00  0.45593999997E+02  0.45594000000E+02  0.51100000000E-03 0.  1.
         11   -1    0    0    0    0 -0.00000000000E+00 -0.00000000000E+00 -0.45593999997E+02  0.45594000000E+02  0.51100000000E-03 0. -1.
    9900012    2    1    2    0    0 -0.35194721370E+00  0.98818532194E+00 -0.54030823476E+00  0.90008038111E+02  0.90000303413E+02 0.  0.
        -12    1    1    2    0    0  0.35194721370E+00 -0.98818532194E+00  0.54030823476E+00  0.11799618893E+01  0.00000000000E+00 0.  1.
         11    1    3    3    0    0  0.10709577233E+02 -0.17749185150E+02 -0.31029805497E+02  0.37317254018E+02  0.51100000000E-03 0. -1.
        -11    1    3    3    0    0  0.50619218839E+01  0.35375332685E+01 -0.68803506321E+01  0.92453458490E+01  0.51100000000E-03 0.  1.
        -12    1    3    3    0    0 -0.16123446331E+02  0.15199837204E+02  0.37369847894E+02  0.43445438244E+02  0.00000000000E+00 0.  1.
</event>
<event>
 7    1  0.1910099E-015  0.9000762E+02  0.7816164E-02  0.1186339E+00
        -11   -1    0    0    0    0  0.00000000000E+00  0.00000000000E+00  0.45593999997E+02  0.45594000000E+02  0.51100000000E-03 0.  1.
         11   -1    0    0    0    0 -0.00000000000E+00 -0.00000000000E+00 -0.45593999997E+02  0.45594000000E+02  0.51100000000E-03 0. -1.
    9900012    2    1    2    0    0 -0.73070371729E+00  0.24738857900E+00 -0.89339991288E+00  0.90007621910E+02  0.89999881719E+02 0.  0.
        -12    1    1    2    0    0  0.73070371729E+00 -0.24738857900E+00  0.89339991288E+00  0.11803780902E+01  0.00000000000E+00 0.  1.
         11    1    3    3    0    0 -0.33480012872E+02 -0.76882214197E+01 -0.18719896810E+02  0.39121024365E+02  0.51100000000E-03 0. -1.
        -11    1    3    3    0    0  0.24885618931E+01 -0.17612256915E+01 -0.88731022884E+01  0.93822598937E+01  0.51100000000E-03 0.  1.
        -12    1    3    3    0    0  0.30260747262E+02  0.96968356902E+01  0.26699599185E+02  0.41504337651E+02  0.00000000000E+00 0.  1.
</event>
<event>
 7    1  0.2611958E-015  0.9000773E+02  0.7816164E-02  0.1186339E+00
        -11   -1    0    0    0    0  0.00000000000E+00  0.00000000000E+00  0.45593999997E+02  0.45594000000E+02  0.51100000000E-03 0.  1.
         11   -1    0    0    0    0 -0.00000000000E+00 -0.00000000000E+00 -0.45593999997E+02  0.45594000000E+02  0.51100000000E-03 0. -1.
    9900012    2    1    2    0    0  0.11790286903E+01 -0.39164431577E-01  0.37474881557E-01  0.90007725934E+02  0.89999987116E+02 0.  0.
        -12    1    1    2    0    0 -0.11790286903E+01  0.39164431577E-01 -0.37474881557E-01  0.11802740664E+01  0.00000000000E+00 0.  1.
         11    1    3    3    0    0 -0.37500916108E+00 -0.47519559837E+01  0.80874108411E+01  0.93876478372E+01  0.51100000000E-03 0. -1.
        -11    1    3    3    0    0 -0.40326274789E+01  0.24997704736E+02  0.28700089958E+02  0.38273260774E+02  0.51100000000E-03 0.  1.
         12    1    3    3    0    0  0.55866653302E+01 -0.20284913184E+02 -0.36750025918E+02  0.42346817322E+02  0.00000000000E+00 0. -1.
</event>
<event>
 7    1  0.1910099E-015  0.9000772E+02  0.7816164E-02  0.1186339E+00
        -11   -1    0    0    0    0  0.00000000000E+00  0.00000000000E+00  0.45593999997E+02  0.45594000000E+02  0.51100000000E-03 0.  1.
         11   -1    0    0    0    0 -0.00000000000E+00 -0.00000000000E+00 -0.45593999997E+02  0.45594000000E+02  0.51100000000E-03 0. -1.
    9900012    2    1    2    0    0 -0.43527097285E+00 -0.19707848945E+00 -0.10792375035E+01  0.90007722770E+02  0.89999983911E+02 0.  0.
        -12    1    1    2    0    0  0.43527097285E+00  0.19707848945E+00  0.10792375035E+01  0.11802772301E+01  0.00000000000E+00 0.  1.
         11    1    3    3    0    0 -0.40267094376E+01 -0.94000413455E+00  0.11359631119E+02  0.12088805404E+02  0.51100000000E-03 0. -1.
        -11    1    3    3    0    0 -0.12312500007E+02 -0.31843659034E+02  0.96266790163E+01  0.35472372718E+02  0.51100000000E-03 0.  1.
         12    1    3    3    0    0  0.15903938471E+02  0.32586584679E+02 -0.22065547639E+02  0.42446544648E+02  0.00000000000E+00 0. -1.
</event>
<event>
 7    1  0.1910099E-015  0.9000773E+02  0.7816164E-02  0.1186339E+00
        -11   -1    0    0    0    0  0.00000000000E+00  0.00000000000E+00  0.45593999997E+02  0.45594000000E+02  0.51100000000E-03 0.  1.
         11   -1    0    0    0    0 -0.00000000000E+00 -0.00000000000E+00 -0.45593999997E+02  0.45594000000E+02  0.51100000000E-03 0. -1.
    9900012    2    1    2    0    0  0.90548167373E+00  0.69264890535E+00 -0.30556094113E+00  0.90007734328E+02  0.89999995621E+02 0.  0.
        -12    1    1    2    0    0 -0.90548167373E+00 -0.69264890535E+00  0.30556094113E+00  0.11802656719E+01  0.00000000000E+00 0.  1.
         11    1    3    3    0    0  0.21147542751E+02 -0.31449300308E+02  0.14484274065E+01  0.37925914576E+02  0.51100000000E-03 0. -1.
        -11    1    3    3    0    0 -0.10006391238E+02 -0.65940023478E+01 -0.64348776422E+00  0.12000950351E+02  0.51100000000E-03 0.  1.
        -12    1    3    3    0    0 -0.10235669839E+02  0.38735951561E+02 -0.11105005834E+01  0.40080869401E+02  0.00000000000E+00 0.  1.
</event>
<event>
 7    1  0.1910099E-015  0.9000774E+02  0.7816164E-02  0.1186339E+00
        -11   -1    0    0    0    0  0.00000000000E+00  0.00000000000E+00  0.45593999997E+02  0.45594000000E+02  0.51100000000E-03 0.  1.
         11   -1    0    0    0    0 -0.00000000000E+00 -0.00000000000E+00 -0.45593999997E+02  0.45594000000E+02  0.51100000000E-03 0. -1.
    9900012    2    1    2    0    0  0.69072910132E+00 -0.79773487139E+00  0.52869937463E+00  0.90007741280E+02  0.90000002665E+02 0.  0.
        -12    1    1    2    0    0 -0.69072910132E+00  0.79773487139E+00 -0.52869937463E+00  0.11802587196E+01  0.00000000000E+00 0.  1.
         11    1    3    3    0    0 -0.38821933970E+01 -0.85634665846E+01  0.75649691033E+00  0.94327447413E+01  0.51100000000E-03 0. -1.
        -11    1    3    3    0    0  0.47364887537E+01 -0.22092692083E+02 -0.30564246457E+02  0.38009137466E+02  0.51100000000E-03 0.  1.
         12    1    3    3    0    0 -0.16356625542E+00  0.29858423796E+02  0.30336448921E+02  0.42565859073E+02  0.00000000000E+00 0. -1.
</event>
<event>
 7    1  0.1910099E-015  0.9000794E+02  0.7816164E-02  0.1186339E+00
        -11   -1    0    0    0    0  0.00000000000E+00  0.00000000000E+00  0.45593999997E+02  0.45594000000E+02  0.51100000000E-03 0. -1.
         11   -1    0    0    0    0 -0.00000000000E+00 -0.00000000000E+00 -0.45593999997E+02  0.45594000000E+02  0.51100000000E-03 0.  1.
    9900012    2    1    2    0    0  0.12788463905E+00 -0.88492593431E+00  0.77013161313E+00  0.90007935980E+02  0.90000199935E+02 0.  0.
        -12    1    1    2    0    0 -0.12788463905E+00  0.88492593431E+00 -0.77013161313E+00  0.11800640202E+01  0.00000000000E+00 0.  1.
         11    1    3    3    0    0  0.23949936580E+02 -0.23376119809E+02  0.19958702245E+02  0.38966552774E+02  0.51100000000E-03 0. -1.
        -11    1    3    3    0    0  0.25504793425E+01  0.21152801090E+01  0.75945911583E+01  0.82859622216E+01  0.51100000000E-03 0.  1.
        -12    1    3    3    0    0 -0.26372531283E+02  0.20375913766E+02 -0.26783161791E+02  0.42755420984E+02  0.00000000000E+00 0.  1.
</event>
<event>
 7    1  0.1910099E-015  0.9000778E+02  0.7816164E-02  0.1186339E+00
        -11   -1    0    0    0    0  0.00000000000E+00  0.00000000000E+00  0.45593999997E+02  0.45594000000E+02  0.51100000000E-03 0. -1.
         11   -1    0    0    0    0 -0.00000000000E+00 -0.00000000000E+00 -0.45593999997E+02  0.45594000000E+02  0.51100000000E-03 0.  1.
    9900012    2    1    2    0    0 -0.47373104532E-01  0.10574231241E+01  0.52203655354E+00  0.90007783902E+02  0.90000045850E+02 0.  0.
        -12    1    1    2    0    0  0.47373104532E-01 -0.10574231241E+01 -0.52203655354E+00  0.11802160978E+01  0.00000000000E+00 0.  1.
         11    1    3    3    0    0 -0.30959834864E+02  0.54828076433E+01  0.20140907248E+02  0.37339371975E+02  0.51100000000E-03 0. -1.
        -11    1    3    3    0    0 -0.29687378401E+01 -0.75981592932E+01  0.59555463899E+01  0.10100196140E+02  0.51100000000E-03 0.  1.
        -12    1    3    3    0    0  0.33881199600E+02  0.31727747740E+01 -0.25574417084E+02  0.42568215787E+02  0.00000000000E+00 0.  1.
</event>
<event>
 7    1  0.1910099E-015  0.9000765E+02  0.7816164E-02  0.1186339E+00
        -11   -1    0    0    0    0  0.00000000000E+00  0.00000000000E+00  0.45593999997E+02  0.45594000000E+02  0.51100000000E-03 0.  1.
         11   -1    0    0    0    0 -0.00000000000E+00 -0.00000000000E+00 -0.45593999997E+02  0.45594000000E+02  0.51100000000E-03 0. -1.
    9900012    2    1    2    0    0 -0.28538834815E+00  0.11109000876E+01  0.27872743662E+00  0.90007646452E+02  0.89999906585E+02 0.  0.
        -12    1    1    2    0    0  0.28538834815E+00 -0.11109000876E+01 -0.27872743662E+00  0.11803535478E+01  0.00000000000E+00 0.  1.
         11    1    3    3    0    0  0.46887039423E+01 -0.43594100017E+01 -0.35569208693E+02  0.36140794229E+02  0.51100000000E-03 0. -1.
        -11    1    3    3    0    0 -0.75145132985E+01 -0.16016789847E+02  0.10633588912E+02  0.20641673395E+02  0.51100000000E-03 0.  1.
         12    1    3    3    0    0  0.25404210081E+01  0.21487099937E+02  0.25214347217E+02  0.33225178828E+02  0.00000000000E+00 0. -1.
</event>
<event>
 7    1  0.1910099E-015  0.9000775E+02  0.7816164E-02  0.1186339E+00
        -11   -1    0    0    0    0  0.00000000000E+00  0.00000000000E+00  0.45593999997E+02  0.45594000000E+02  0.51100000000E-03 0. -1.
         11   -1    0    0    0    0 -0.00000000000E+00 -0.00000000000E+00 -0.45593999997E+02  0.45594000000E+02  0.51100000000E-03 0.  1.
    9900012    2    1    2    0    0  0.89954427966E+00  0.72873520885E+00  0.22969080792E+00  0.90007748848E+02  0.90000010332E+02 0.  0.
        -12    1    1    2    0    0 -0.89954427966E+00 -0.72873520885E+00 -0.22969080792E+00  0.11802511525E+01  0.00000000000E+00 0.  1.
         11    1    3    3    0    0  0.17262198105E+02 -0.34982816850E+02 -0.43915603186E+01  0.39256423174E+02  0.51100000000E-03 0. -1.
        -11    1    3    3    0    0 -0.53960266258E+01 -0.43925992849E+01  0.59478237328E+01  0.91536134527E+01  0.51100000000E-03 0.  1.
        -12    1    3    3    0    0 -0.10966627199E+02  0.40104151343E+02 -0.13265726063E+01  0.41597712221E+02  0.00000000000E+00 0.  1.
</event>
<event>
 7    1  0.1910099E-015  0.9000776E+02  0.7816164E-02  0.1186339E+00
        -11   -1    0    0    0    0  0.00000000000E+00  0.00000000000E+00  0.45593999997E+02  0.45594000000E+02  0.51100000000E-03 0.  1.
         11   -1    0    0    0    0 -0.00000000000E+00 -0.00000000000E+00 -0.45593999997E+02  0.45594000000E+02  0.51100000000E-03 0. -1.
    9900012    2    1    2    0    0  0.98521082153E+00 -0.28861332106E+00 -0.58226890384E+00  0.90007756344E+02  0.90000017927E+02 0.  0.
        -12    1    1    2    0    0 -0.98521082153E+00  0.28861332106E+00  0.58226890384E+00  0.11802436563E+01  0.00000000000E+00 0.  1.
         11    1    3    3    0    0 -0.83500466958E+01 -0.12719807734E+02  0.21369533617E+01  0.15365004346E+02  0.51100000000E-03 0. -1.
        -11    1    3    3    0    0  0.18782865509E+02 -0.21829459277E+02  0.17555223009E+02  0.33726950414E+02  0.51100000000E-03 0.  1.
         12    1    3    3    0    0 -0.94476079917E+01  0.34260653690E+02 -0.20274445275E+02  0.40915801584E+02  0.00000000000E+00 0. -1.
</event>
<event>
 7    1  0.1910099E-015  0.9000769E+02  0.7816164E-02  0.1186339E+00
        -11   -1    0    0    0    0  0.00000000000E+00  0.00000000000E+00  0.45593999997E+02  0.45594000000E+02  0.51100000000E-03 0.  1.
         11   -1    0    0    0    0 -0.00000000000E+00 -0.00000000000E+00 -0.45593999997E+02  0.45594000000E+02  0.51100000000E-03 0. -1.
    9900012    2    1    2    0    0 -0.11618858514E+01 -0.19567869967E+00 -0.69734487179E-01  0.90007689963E+02  0.89999950670E+02 0.  0.
        -12    1    1    2    0    0  0.11618858514E+01  0.19567869967E+00  0.69734487179E-01  0.11803100372E+01  0.00000000000E+00 0.  1.
         11    1    3    3    0    0 -0.58055366868E+01  0.96839463705E+01  0.17523099796E+02  0.20845673418E+02  0.51100000000E-03 0. -1.
        -11    1    3    3    0    0 -0.12756890558E+02  0.16789710989E+02  0.13190036324E+02  0.24871865839E+02  0.51100000000E-03 0.  1.
         12    1    3    3    0    0  0.17400541394E+02 -0.26669336059E+02 -0.30782870608E+02  0.44290150705E+02  0.00000000000E+00 0. -1.
</event>
<event>
 7    1  0.1910099E-015  0.9000766E+02  0.7816164E-02  0.1186339E+00
        -11   -1    0    0    0    0  0.00000000000E+00  0.00000000000E+00  0.45593999997E+02  0.45594000000E+02  0.51100000000E-03 0. -1.
         11   -1    0    0    0    0 -0.00000000000E+00 -0.00000000000E+00 -0.45593999997E+02  0.45594000000E+02  0.51100000000E-03 0.  1.
    9900012    2    1    2    0    0 -0.56010607963E+00  0.27625389254E+00  0.10015878562E+01  0.90007655446E+02  0.89999915697E+02 0.  0.
        -12    1    1    2    0    0  0.56010607963E+00 -0.27625389254E+00 -0.10015878562E+01  0.11803445544E+01  0.00000000000E+00 0.  1.
         11    1    3    3    0    0  0.99107055661E+01 -0.33708181376E+02  0.10176122272E+02  0.36578915255E+02  0.51100000000E-03 0. -1.
        -11    1    3    3    0    0 -0.32432537352E+00 -0.35669597316E+01  0.95930295865E+01  0.10239853787E+02  0.51100000000E-03 0.  1.
        -12    1    3    3    0    0 -0.10146486272E+02  0.37551395000E+02 -0.18767564002E+02  0.43188886403E+02  0.00000000000E+00 0.  1.
</event>
<event>
 7    1  0.1910099E-015  0.9000782E+02  0.7816164E-02  0.1186339E+00
        -11   -1    0    0    0    0  0.00000000000E+00  0.00000000000E+00  0.45593999997E+02  0.45594000000E+02  0.51100000000E-03 0.  1.
         11   -1    0    0    0    0 -0.00000000000E+00 -0.00000000000E+00 -0.45593999997E+02  0.45594000000E+02  0.51100000000E-03 0. -1.
    9900012    2    1    2    0    0 -0.33421392658E+00 -0.15951907600E+00 -0.11205739293E+01  0.90007817296E+02  0.90000079684E+02 0.  0.
        -12    1    1    2    0    0  0.33421392658E+00  0.15951907600E+00  0.11205739293E+01  0.11801827043E+01  0.00000000000E+00 0.  1.
         11    1    3    3    0    0 -0.25782707283E+02 -0.23104638849E+02  0.88229796229E+01  0.35726982813E+02  0.51100000000E-03 0. -1.
        -11    1    3    3    0    0  0.47190857322E+01 -0.11771961564E+02 -0.18031986443E+00  0.12683901795E+02  0.51100000000E-03 0.  1.
        -12    1    3    3    0    0  0.20729407624E+02  0.34717081338E+02 -0.97632336878E+01  0.41596932689E+02  0.00000000000E+00 0.  1.
</event>
<event>
 7    1  0.1910099E-015  0.9000784E+02  0.7816164E-02  0.1186339E+00
        -11   -1    0    0    0    0  0.00000000000E+00  0.00000000000E+00  0.45593999997E+02  0.45594000000E+02  0.51100000000E-03 0.  1.
         11   -1    0    0    0    0 -0.00000000000E+00 -0.00000000000E+00 -0.45593999997E+02  0.45594000000E+02  0.51100000000E-03 0. -1.
    9900012    2    1    2    0    0 -0.45196412996E+00  0.79894592927E+00  0.74175052619E+00  0.90007838987E+02  0.90000101662E+02 0.  0.
        -12    1    1    2    0    0  0.45196412996E+00 -0.79894592927E+00 -0.74175052619E+00  0.11801610126E+01  0.00000000000E+00 0.  1.
         11    1    3    3    0    0 -0.15324006553E+02  0.35935875595E+02  0.11792098956E+02  0.40807669985E+02  0.51100000000E-03 0. -1.
        -11    1    3    3    0    0 -0.59198827109E+01 -0.31181455623E+01  0.44075587219E+01  0.80121418614E+01  0.51100000000E-03 0.  1.
        -12    1    3    3    0    0  0.20791925134E+02 -0.32018784103E+02 -0.15457907152E+02  0.41188027141E+02  0.00000000000E+00 0.  1.
</event>
<event>
 7    1  0.1910099E-015  0.9000769E+02  0.7816164E-02  0.1186339E+00
        -11   -1    0    0    0    0  0.00000000000E+00  0.00000000000E+00  0.45593999997E+02  0.45594000000E+02  0.51100000000E-03 0. -1.
         11   -1    0    0    0    0 -0.00000000000E+00 -0.00000000000E+00 -0.45593999997E+02  0.45594000000E+02  0.51100000000E-03 0.  1.
    9900012    2    1    2    0    0 -0.32225749914E+00  0.11063868554E+01  0.25531297833E+00  0.90007692207E+02  0.89999952944E+02 0.  0.
        -12    1    1    2    0    0  0.32225749914E+00 -0.11063868554E+01 -0.25531297833E+00  0.11803077931E+01  0.00000000000E+00 0.  1.
         11    1    3    3    0    0  0.90930421549E+01  0.38623751540E+02  0.10570290692E+02  0.41063470923E+02  0.51100000000E-03 0. -1.
        -11    1    3    3    0    0  0.33401200772E+01 -0.13843018187E+01  0.62326636952E+01  0.72054694958E+01  0.51100000000E-03 0.  1.
        -12    1    3    3    0    0 -0.12755419731E+02 -0.36133062866E+02 -0.16547641409E+02  0.41738751788E+02  0.00000000000E+00 0.  1.
</event>
<event>
 7    1  0.1910099E-015  0.9000775E+02  0.7816164E-02  0.1186339E+00
        -11   -1    0    0    0    0  0.00000000000E+00  0.00000000000E+00  0.45593999997E+02  0.45594000000E+02  0.51100000000E-03 0. -1.
         11   -1    0    0    0    0 -0.00000000000E+00 -0.00000000000E+00 -0.45593999997E+02  0.45594000000E+02  0.51100000000E-03 0.  1.
    9900012    2    1    2    0    0 -0.96501095664E+00 -0.53488666480E+00  0.41908379837E+00  0.90007753788E+02  0.90000015338E+02 0.  0.
        -12    1    1    2    0    0  0.96501095664E+00  0.53488666480E+00 -0.41908379837E+00  0.11802462119E+01  0.00000000000E+00 0.  1.
         11    1    3    3    0    0 -0.12540447836E+02 -0.30160778332E+01  0.36496778753E+02  0.38708841588E+02  0.51100000000E-03 0. -1.
        -11    1    3    3    0    0 -0.70933027983E+01  0.50020968219E+01  0.19185247554E+01  0.88891312681E+01  0.51100000000E-03 0.  1.
        -12    1    3    3    0    0  0.18668739677E+02 -0.25209056535E+01 -0.37996219710E+02  0.42409780932E+02  0.00000000000E+00 0.  1.
</event>
<event>
 7    1  0.1910099E-015  0.9000774E+02  0.7816164E-02  0.1186339E+00
        -11   -1    0    0    0    0  0.00000000000E+00  0.00000000000E+00  0.45593999997E+02  0.45594000000E+02  0.51100000000E-03 0. -1.
         11   -1    0    0    0    0 -0.00000000000E+00 -0.00000000000E+00 -0.45593999997E+02  0.45594000000E+02  0.51100000000E-03 0.  1.
    9900012    2    1    2    0    0  0.21155346526E+00  0.90050408386E+00  0.73304666328E+00  0.90007737366E+02  0.89999998700E+02 0.  0.
        -12    1    1    2    0    0 -0.21155346526E+00 -0.90050408386E+00 -0.73304666328E+00  0.11802626336E+01  0.00000000000E+00 0.  1.
         11    1    3    3    0    0 -0.90925486691E+01 -0.40285855861E+01 -0.84572269903E+01  0.13054831740E+02  0.51100000000E-03 0. -1.
        -11    1    3    3    0    0 -0.23075390332E+02  0.31351858347E+01 -0.21943942243E+02  0.31997494130E+02  0.51100000000E-03 0.  1.
         12    1    3    3    0    0  0.32379492466E+02  0.17939038352E+01  0.31134215897E+02  0.44955411497E+02  0.00000000000E+00 0. -1.
</event>
<event>
 7    1  0.1910099E-015  0.9000782E+02  0.7816164E-02  0.1186339E+00
        -11   -1    0    0    0    0  0.00000000000E+00  0.00000000000E+00  0.45593999997E+02  0.45594000000E+02  0.51100000000E-03 0.  1.
         11   -1    0    0    0    0 -0.00000000000E+00 -0.00000000000E+00 -0.45593999997E+02  0.45594000000E+02  0.51100000000E-03 0. -1.
    9900012    2    1    2    0    0  0.73606280373E+00  0.27729785890E+00 -0.87984834537E+00  0.90007823884E+02  0.90000086359E+02 0.  0.
        -12    1    1    2    0    0 -0.73606280373E+00 -0.27729785890E+00  0.87984834537E+00  0.11801761159E+01  0.00000000000E+00 0.  1.
         11    1    3    3    0    0  0.16368183953E+02 -0.10158838447E+02 -0.69425023572E+01  0.20477250395E+02  0.51100000000E-03 0. -1.
        -11    1    3    3    0    0  0.12994605544E+02  0.27989703081E+02  0.15661112067E+02  0.34605688597E+02  0.51100000000E-03 0.  1.
         12    1    3    3    0    0 -0.28626726693E+02 -0.17553566776E+02 -0.95984580552E+01  0.34924884892E+02  0.00000000000E+00 0. -1.
</event>
<event>
 7    1  0.1910099E-015  0.9000663E+02  0.7816164E-02  0.1186341E+00
        -11   -1    0    0    0    0  0.00000000000E+00  0.00000000000E+00  0.45593999997E+02  0.45594000000E+02  0.51100000000E-03 0. -1.
         11   -1    0    0    0    0 -0.00000000000E+00 -0.00000000000E+00 -0.45593999997E+02  0.45594000000E+02  0.51100000000E-03 0.  1.
    9900012    2    1    2    0    0  0.63002222945E+00 -0.62244364333E+00  0.78183569347E+00  0.90006631662E+02  0.89998878393E+02 0.  0.
        -12    1    1    2    0    0 -0.63002222945E+00  0.62244364333E+00 -0.78183569347E+00  0.11813683381E+01  0.00000000000E+00 0.  1.
         11    1    3    3    0    0  0.38091460866E+02 -0.26855066808E+01  0.23518561098E+02  0.44847453143E+02  0.51100000000E-03 0. -1.
        -11    1    3    3    0    0 -0.47694655350E+01  0.14408024809E+01 -0.76956561924E+01  0.91677062438E+01  0.51100000000E-03 0.  1.
        -12    1    3    3    0    0 -0.32691973101E+02  0.62226055657E+00 -0.15041069213E+02  0.35991472275E+02  0.00000000000E+00 0.  1.
</event>
<event>
 7    1  0.2009923E-015  0.9000774E+02  0.7816164E-02  0.1186339E+00
        -11   -1    0    0    0    0  0.00000000000E+00  0.00000000000E+00  0.45593999997E+02  0.45594000000E+02  0.51100000000E-03 0. -1.
         11   -1    0    0    0    0 -0.00000000000E+00 -0.00000000000E+00 -0.45593999997E+02  0.45594000000E+02  0.51100000000E-03 0.  1.
    9900012    2    1    2    0    0 -0.53576009165E+00 -0.58759291029E-01  0.10500052595E+01  0.90007744699E+02  0.90000006129E+02 0.  0.
        -12    1    1    2    0    0  0.53576009165E+00  0.58759291029E-01 -0.10500052595E+01  0.11802553008E+01  0.00000000000E+00 0.  1.
         11    1    3    3    0    0 -0.78980023313E+01  0.52270285909E+01  0.34018388941E+01  0.10063437625E+02  0.51100000000E-03 0. -1.
        -11    1    3    3    0    0 -0.32136318432E+02 -0.95974311587E+01 -0.16994665783E+02  0.37598833925E+02  0.51100000000E-03 0.  1.
         12    1    3    3    0    0  0.39498560671E+02  0.43116432768E+01  0.14642832149E+02  0.42345473149E+02  0.00000000000E+00 0. -1.
</event>
<event>
 7    1  0.1910099E-015  0.9000770E+02  0.7816164E-02  0.1186339E+00
        -11   -1    0    0    0    0  0.00000000000E+00  0.00000000000E+00  0.45593999997E+02  0.45594000000E+02  0.51100000000E-03 0.  1.
         11   -1    0    0    0    0 -0.00000000000E+00 -0.00000000000E+00 -0.45593999997E+02  0.45594000000E+02  0.51100000000E-03 0. -1.
    9900012    2    1    2    0    0 -0.16861699380E+00  0.11473333754E+01  0.21979792149E+00  0.90007696356E+02  0.89999957148E+02 0.  0.
        -12    1    1    2    0    0  0.16861699380E+00 -0.11473333754E+01 -0.21979792149E+00  0.11803036437E+01  0.00000000000E+00 0.  1.
         11    1    3    3    0    0  0.11302127231E+02  0.64855194326E+01 -0.34302525026E+02  0.36694185721E+02  0.51100000000E-03 0. -1.
        -11    1    3    3    0    0  0.31948504808E+01 -0.67118156799E+01 -0.64075273376E+01  0.98138649960E+01  0.51100000000E-03 0.  1.
        -12    1    3    3    0    0 -0.14665594706E+02  0.13736296227E+01  0.40929850285E+02  0.43499645640E+02  0.00000000000E+00 0.  1.
</event>
<event>
 7    1  0.1910099E-015  0.9000777E+02  0.7816164E-02  0.1186339E+00
        -11   -1    0    0    0    0  0.00000000000E+00  0.00000000000E+00  0.45593999997E+02  0.45594000000E+02  0.51100000000E-03 0. -1.
         11   -1    0    0    0    0 -0.00000000000E+00 -0.00000000000E+00 -0.45593999997E+02  0.45594000000E+02  0.51100000000E-03 0.  1.
    9900012    2    1    2    0    0 -0.10684999157E+01  0.39652563997E+00  0.30661703101E+00  0.90007771778E+02  0.90000033565E+02 0.  0.
        -12    1    1    2    0    0  0.10684999157E+01 -0.39652563997E+00 -0.30661703101E+00  0.11802282223E+01  0.00000000000E+00 0.  1.
         11    1    3    3    0    0 -0.17729418785E+02 -0.15070388900E+02  0.30507438808E+02  0.38368642599E+02  0.51100000000E-03 0. -1.
        -11    1    3    3    0    0 -0.55554359835E+01  0.96122068856E+00  0.50157596140E+01  0.75461684944E+01  0.51100000000E-03 0.  1.
        -12    1    3    3    0    0  0.22216354853E+02  0.14505693852E+02 -0.35216581391E+02  0.44092960684E+02  0.00000000000E+00 0.  1.
</event>
<event>
 7    1  0.1910099E-015  0.9000754E+02  0.7816164E-02  0.1186339E+00
        -11   -1    0    0    0    0  0.00000000000E+00  0.00000000000E+00  0.45593999997E+02  0.45594000000E+02  0.51100000000E-03 0. -1.
         11   -1    0    0    0    0 -0.00000000000E+00 -0.00000000000E+00 -0.45593999997E+02  0.45594000000E+02  0.51100000000E-03 0.  1.
    9900012    2    1    2    0    0  0.42680602863E-01  0.90202275385E+00  0.76028239360E+00  0.90007535684E+02  0.89999794355E+02 0.  0.
        -12    1    1    2    0    0 -0.42680602863E-01 -0.90202275385E+00 -0.76028239360E+00  0.11804643156E+01  0.00000000000E+00 0.  1.
         11    1    3    3    0    0  0.21725749030E+02  0.78742114572E+01  0.80557130153E+01  0.24472553799E+02  0.51100000000E-03 0. -1.
        -11    1    3    3    0    0  0.18807365096E+02  0.70387049026E+01 -0.10328387424E+02  0.22581761127E+02  0.51100000000E-03 0.  1.
         12    1    3    3    0    0 -0.40490433523E+02 -0.14010893606E+02  0.30329568020E+01  0.42953220758E+02  0.00000000000E+00 0. -1.
</event>
<event>
 7    1  0.1910099E-015  0.9000757E+02  0.7816164E-02  0.1186339E+00
        -11   -1    0    0    0    0  0.00000000000E+00  0.00000000000E+00  0.45593999997E+02  0.45594000000E+02  0.51100000000E-03 0.  1.
         11   -1    0    0    0    0 -0.00000000000E+00 -0.00000000000E+00 -0.45593999997E+02  0.45594000000E+02  0.51100000000E-03 0. -1.
    9900012    2    1    2    0    0 -0.34817881148E+00 -0.78196866113E-01 -0.11251986810E+01  0.90007569864E+02  0.89999828986E+02 0.  0.
        -12    1    1    2    0    0  0.34817881148E+00  0.78196866113E-01  0.11251986810E+01  0.11804301362E+01  0.00000000000E+00 0.  1.
         11    1    3    3    0    0 -0.51975129450E+01 -0.21122615199E+02 -0.32134682552E+02  0.38804855839E+02  0.51100000000E-03 0. -1.
        -11    1    3    3    0    0  0.80591126524E+01  0.41641236241E-01 -0.49337159842E+01  0.94494753511E+01  0.51100000000E-03 0.  1.
        -12    1    3    3    0    0 -0.32097785189E+01  0.21002777097E+02  0.35943199855E+02  0.41753238674E+02  0.00000000000E+00 0.  1.
</event>
<event>
 7    1  0.1910099E-015  0.9000770E+02  0.7816164E-02  0.1186339E+00
        -11   -1    0    0    0    0  0.00000000000E+00  0.00000000000E+00  0.45593999997E+02  0.45594000000E+02  0.51100000000E-03 0.  1.
         11   -1    0    0    0    0 -0.00000000000E+00 -0.00000000000E+00 -0.45593999997E+02  0.45594000000E+02  0.51100000000E-03 0. -1.
    9900012    2    1    2    0    0 -0.90056109824E+00  0.67750414063E+00 -0.35085225357E+00  0.90007695185E+02  0.89999955962E+02 0.  0.
        -12    1    1    2    0    0  0.90056109824E+00 -0.67750414063E+00  0.35085225357E+00  0.11803048149E+01  0.00000000000E+00 0.  1.
         11    1    3    3    0    0  0.12094152093E+02  0.25871435851E+02  0.14722092730E+02  0.32130043922E+02  0.51100000000E-03 0. -1.
        -11    1    3    3    0    0 -0.59040354833E+01 -0.16083613799E+02  0.16789613415E+02  0.23988150965E+02  0.51100000000E-03 0.  1.
        -12    1    3    3    0    0 -0.70906777078E+01 -0.91103179114E+01 -0.31862558398E+02  0.33889500298E+02  0.00000000000E+00 0.  1.
</event>
<event>
 7    1  0.1910099E-015  0.9000763E+02  0.7816164E-02  0.1186339E+00
        -11   -1    0    0    0    0  0.00000000000E+00  0.00000000000E+00  0.45593999997E+02  0.45594000000E+02  0.51100000000E-03 0.  1.
         11   -1    0    0    0    0 -0.00000000000E+00 -0.00000000000E+00 -0.45593999997E+02  0.45594000000E+02  0.51100000000E-03 0. -1.
    9900012    2    1    2    0    0  0.36290551067E+00 -0.10651076119E+01 -0.35654338319E+00  0.90007628102E+02  0.89999887992E+02 0.  0.
        -12    1    1    2    0    0 -0.36290551067E+00  0.10651076119E+01  0.35654338319E+00  0.11803718985E+01  0.00000000000E+00 0.  1.
         11    1    3    3    0    0  0.11205762856E+02 -0.40485019867E+01  0.18124909973E+01  0.12051747317E+02  0.51100000000E-03 0. -1.
        -11    1    3    3    0    0  0.24661173234E+02  0.15761911587E+02  0.18801461312E+02  0.34786581750E+02  0.51100000000E-03 0.  1.
         12    1    3    3    0    0 -0.35504030579E+02 -0.12778517212E+02 -0.20970495693E+02  0.43169299034E+02  0.00000000000E+00 0. -1.
</event>
<event>
 7    1  0.1910099E-015  0.9000780E+02  0.7816164E-02  0.1186339E+00
        -11   -1    0    0    0    0  0.00000000000E+00  0.00000000000E+00  0.45593999997E+02  0.45594000000E+02  0.51100000000E-03 0.  1.
         11   -1    0    0    0    0 -0.00000000000E+00 -0.00000000000E+00 -0.45593999997E+02  0.45594000000E+02  0.51100000000E-03 0. -1.
    9900012    2    1    2    0    0  0.35239661112E+00 -0.10784983173E+01 -0.32483651713E+00  0.90007804781E+02  0.90000067004E+02 0.  0.
        -12    1    1    2    0    0 -0.35239661112E+00  0.10784983173E+01  0.32483651713E+00  0.11801952189E+01  0.00000000000E+00 0.  1.
         11    1    3    3    0    0 -0.26897484077E+02  0.20535821588E+02 -0.15737994768E+02  0.37321295496E+02  0.51100000000E-03 0. -1.
        -11    1    3    3    0    0  0.71991395140E+01  0.93653974516E+01 -0.18315535797E+01  0.11953780488E+02  0.51100000000E-03 0.  1.
        -12    1    3    3    0    0  0.20050741174E+02 -0.30979717357E+02  0.17244711831E+02  0.40732728797E+02  0.00000000000E+00 0.  1.
</event>
<event>
 7    1  0.1910099E-015  0.9000773E+02  0.7816164E-02  0.1186339E+00
        -11   -1    0    0    0    0  0.00000000000E+00  0.00000000000E+00  0.45593999997E+02  0.45594000000E+02  0.51100000000E-03 0.  1.
         11   -1    0    0    0    0 -0.00000000000E+00 -0.00000000000E+00 -0.45593999997E+02  0.45594000000E+02  0.51100000000E-03 0. -1.
    9900012    2    1    2    0    0  0.92117363423E+00  0.71163663233E-01  0.73444856768E+00  0.90007728917E+02  0.89999990138E+02 0.  0.
        -12    1    1    2    0    0 -0.92117363423E+00 -0.71163663233E-01 -0.73444856768E+00  0.11802710832E+01  0.00000000000E+00 0.  1.
         11    1    3    3    0    0 -0.17163389305E+01  0.95771277471E+01 -0.62787858900E+01  0.11579738672E+02  0.51100000000E-03 0. -1.
        -11    1    3    3    0    0  0.36964063753E+02 -0.90474529542E+01 -0.11062326164E+02  0.39630461447E+02  0.51100000000E-03 0.  1.
         12    1    3    3    0    0 -0.34326551189E+02 -0.45851112962E+00  0.18075560622E+02  0.38797528797E+02  0.00000000000E+00 0. -1.
</event>
<event>
 7    1  0.1910099E-015  0.9000750E+02  0.7816164E-02  0.1186340E+00
        -11   -1    0    0    0    0  0.00000000000E+00  0.00000000000E+00  0.45593999997E+02  0.45594000000E+02  0.51100000000E-03 0.  1.
         11   -1    0    0    0    0 -0.00000000000E+00 -0.00000000000E+00 -0.45593999997E+02  0.45594000000E+02  0.51100000000E-03 0. -1.
    9900012    2    1    2    0    0 -0.10032756370E+01  0.86295914191E-01 -0.61610296706E+00  0.90007495085E+02  0.89999753220E+02 0.  0.
        -12    1    1    2    0    0  0.10032756370E+01 -0.86295914191E-01  0.61610296706E+00  0.11805049151E+01  0.00000000000E+00 0.  1.
         11    1    3    3    0    0  0.20924157616E+02 -0.19508743054E+02 -0.25431188282E+02  0.38277366226E+02  0.51100000000E-03 0. -1.
        -11    1    3    3    0    0  0.26528846266E+01 -0.78842105767E+01  0.65345326986E+01  0.10578217766E+02  0.51100000000E-03 0.  1.
        -12    1    3    3    0    0 -0.24580317879E+02  0.27479249545E+02  0.18280552617E+02  0.41151911093E+02  0.00000000000E+00 0.  1.
</event>
<event>
 7    1  0.1910099E-015  0.9000773E+02  0.7816164E-02  0.1186339E+00
        -11   -1    0    0    0    0  0.00000000000E+00  0.00000000000E+00  0.45593999997E+02  0.45594000000E+02  0.51100000000E-03 0.  1.
         11   -1    0    0    0    0 -0.00000000000E+00 -0.00000000000E+00 -0.45593999997E+02  0.45594000000E+02  0.51100000000E-03 0. -1.
    9900012    2    1    2    0    0  0.43672183232E+00  0.92969400742E+00 -0.58135375566E+00  0.90007733464E+02  0.89999994746E+02 0.  0.
        -12    1    1    2    0    0 -0.43672183232E+00 -0.92969400742E+00  0.58135375566E+00  0.11802665358E+01  0.00000000000E+00 0.  1.
         11    1    3    3    0    0 -0.59723496059E+01  0.24045732679E+01 -0.50814402741E+01  0.82019490328E+01  0.51100000000E-03 0. -1.
        -11    1    3    3    0    0 -0.11454432873E+02 -0.23743917173E+02  0.32480014918E+02  0.41832152759E+02  0.51100000000E-03 0.  1.
         12    1    3    3    0    0  0.17863504311E+02  0.22269037913E+02 -0.27979928399E+02  0.39973631672E+02  0.00000000000E+00 0. -1.
</event>
<event>
 7    1  0.1910099E-015  0.9000772E+02  0.7816164E-02  0.1186339E+00
        -11   -1    0    0    0    0  0.00000000000E+00  0.00000000000E+00  0.45593999997E+02  0.45594000000E+02  0.51100000000E-03 0.  1.
         11   -1    0    0    0    0 -0.00000000000E+00 -0.00000000000E+00 -0.45593999997E+02  0.45594000000E+02  0.51100000000E-03 0. -1.
    9900012    2    1    2    0    0 -0.72882299426E+00  0.72845036571E+00 -0.57553898573E+00  0.90007716976E+02  0.89999978040E+02 0.  0.
        -12    1    1    2    0    0  0.72882299426E+00 -0.72845036571E+00  0.57553898573E+00  0.11802830238E+01  0.00000000000E+00 0.  1.
         11    1    3    3    0    0  0.89601878115E+00 -0.97510306033E+01  0.33445531307E+01  0.10347535136E+02  0.51100000000E-03 0. -1.
        -11    1    3    3    0    0  0.38110263070E+02  0.71288489663E+01  0.40935929792E+01  0.38986794464E+02  0.51100000000E-03 0.  1.
         12    1    3    3    0    0 -0.39735104845E+02  0.33506320027E+01 -0.80136850957E+01  0.40673387376E+02  0.00000000000E+00 0. -1.
</event>
<event>
 7    1  0.1910099E-015  0.9000789E+02  0.7816164E-02  0.1186339E+00
        -11   -1    0    0    0    0  0.00000000000E+00  0.00000000000E+00  0.45593999997E+02  0.45594000000E+02  0.51100000000E-03 0.  1.
         11   -1    0    0    0    0 -0.00000000000E+00 -0.00000000000E+00 -0.45593999997E+02  0.45594000000E+02  0.51100000000E-03 0. -1.
    9900012    2    1    2    0    0  0.10382445814E+01  0.33106531424E+00  0.45287483787E+00  0.90007893364E+02  0.90000156757E+02 0.  0.
        -12    1    1    2    0    0 -0.10382445814E+01 -0.33106531424E+00 -0.45287483787E+00  0.11801066358E+01  0.00000000000E+00 0.  1.
         11    1    3    3    0    0  0.67858202989E+01  0.50654285450E+01 -0.16302200214E+01  0.86234297732E+01  0.51100000000E-03 0. -1.
        -11    1    3    3    0    0  0.19267153456E+02 -0.19260103995E+02  0.30458348386E+02  0.40864236135E+02  0.51100000000E-03 0.  1.
         12    1    3    3    0    0 -0.25014729174E+02  0.14525740764E+02 -0.28375253527E+02  0.40520227456E+02  0.00000000000E+00 0. -1.
</event>
<event>
 7    1  0.1910099E-015  0.9000774E+02  0.7816164E-02  0.1186339E+00
        -11   -1    0    0    0    0  0.00000000000E+00  0.00000000000E+00  0.45593999997E+02  0.45594000000E+02  0.51100000000E-03 0. -1.
         11   -1    0    0    0    0 -0.00000000000E+00 -0.00000000000E+00 -0.45593999997E+02  0.45594000000E+02  0.51100000000E-03 0.  1.
    9900012    2    1    2    0    0  0.14945861629E+00  0.11376332477E+01  0.27650445486E+00  0.90007744944E+02  0.90000006377E+02 0.  0.
        -12    1    1    2    0    0 -0.14945861629E+00 -0.11376332477E+01 -0.27650445486E+00  0.11802550563E+01  0.00000000000E+00 0.  1.
         11    1    3    3    0    0 -0.51389113128E+01 -0.93371061323E+01  0.95826559762E+00  0.10700852005E+02  0.51100000000E-03 0. -1.
        -11    1    3    3    0    0  0.36838210496E+02  0.10643874004E+02 -0.19031775899E+02  0.42808343819E+02  0.51100000000E-03 0.  1.
         12    1    3    3    0    0 -0.31549840567E+02 -0.16913462418E+00  0.18350014756E+02  0.36498549120E+02  0.00000000000E+00 0. -1.
</event>
<event>
 7    1  0.1910099E-015  0.9000770E+02  0.7816164E-02  0.1186339E+00
        -11   -1    0    0    0    0  0.00000000000E+00  0.00000000000E+00  0.45593999997E+02  0.45594000000E+02  0.51100000000E-03 0.  1.
         11   -1    0    0    0    0 -0.00000000000E+00 -0.00000000000E+00 -0.45593999997E+02  0.45594000000E+02  0.51100000000E-03 0. -1.
    9900012    2    1    2    0    0 -0.53861555839E+00 -0.91595015032E-01 -0.10462417513E+01  0.90007695730E+02  0.89999956514E+02 0.  0.
        -12    1    1    2    0    0  0.53861555839E+00  0.91595015032E-01  0.10462417513E+01  0.11803042696E+01  0.00000000000E+00 0.  1.
         11    1    3    3    0    0  0.97852263318E+01  0.92630710852E+01 -0.39043486124E+02  0.41303134860E+02  0.51100000000E-03 0. -1.
        -11    1    3    3    0    0 -0.32095322853E+01 -0.84229313149E+01 -0.98512067545E+00  0.90673773734E+01  0.51100000000E-03 0.  1.
        -12    1    3    3    0    0 -0.71143096049E+01 -0.93173478536E+00  0.38982365048E+02  0.39637183497E+02  0.00000000000E+00 0.  1.
</event>
<event>
 7    1  0.1910099E-015  0.9000774E+02  0.7816164E-02  0.1186339E+00
        -11   -1    0    0    0    0  0.00000000000E+00  0.00000000000E+00  0.45593999997E+02  0.45594000000E+02  0.51100000000E-03 0.  1.
         11   -1    0    0    0    0 -0.00000000000E+00 -0.00000000000E+00 -0.45593999997E+02  0.45594000000E+02  0.51100000000E-03 0. -1.
    9900012    2    1    2    0    0  0.13593232584E+00 -0.59833943676E+00 -0.10082240649E+01  0.90007744331E+02  0.90000005756E+02 0.  0.
        -12    1    1    2    0    0 -0.13593232584E+00  0.59833943676E+00  0.10082240649E+01  0.11802556688E+01  0.00000000000E+00 0.  1.
         11    1    3    3    0    0  0.37238695688E+01 -0.27409651795E+02 -0.15666934295E+02  0.31790077801E+02  0.51100000000E-03 0. -1.
        -11    1    3    3    0    0 -0.74769859414E+01 -0.12270141974E+02 -0.37395050954E+01  0.14847410597E+02  0.51100000000E-03 0.  1.
        -12    1    3    3    0    0  0.38890486984E+01  0.39081454333E+02  0.18398215326E+02  0.43370255933E+02  0.00000000000E+00 0.  1.
</event>
<event>
 7    1  0.2285016E-015  0.9000780E+02  0.7816164E-02  0.1186339E+00
        -11   -1    0    0    0    0  0.00000000000E+00  0.00000000000E+00  0.45593999997E+02  0.45594000000E+02  0.51100000000E-03 0. -1.
         11   -1    0    0    0    0 -0.00000000000E+00 -0.00000000000E+00 -0.45593999997E+02  0.45594000000E+02  0.51100000000E-03 0.  1.
    9900012    2    1    2    0    0  0.96387239037E+00 -0.34632144155E+00  0.58641974918E+00  0.90007798048E+02  0.90000060182E+02 0.  0.
        -12    1    1    2    0    0 -0.96387239037E+00  0.34632144155E+00 -0.58641974918E+00  0.11802019522E+01  0.00000000000E+00 0.  1.
         11    1    3    3    0    0 -0.18020261689E+01  0.92659077818E+01 -0.25006893026E+00  0.94428216157E+01  0.51100000000E-03 0. -1.
        -11    1    3    3    0    0  0.73768687914E+01  0.34926435575E+02 -0.14879628780E+01  0.35727974039E+02  0.51100000000E-03 0.  1.
         12    1    3    3    0    0 -0.46109702322E+01 -0.44538664799E+02  0.23244515574E+01  0.44837002393E+02  0.00000000000E+00 0. -1.
</event>
<event>
 7    1  0.1910099E-015  0.9000771E+02  0.7816164E-02  0.1186339E+00
        -11   -1    0    0    0    0  0.00000000000E+00  0.00000000000E+00  0.45593999997E+02  0.45594000000E+02  0.51100000000E-03 0.  1.
         11   -1    0    0    0    0 -0.00000000000E+00 -0.00000000000E+00 -0.45593999997E+02  0.45594000000E+02  0.51100000000E-03 0. -1.
    9900012    2    1    2    0    0 -0.95345085075E+00 -0.65975700789E+00 -0.22074014243E+00  0.90007714422E+02  0.89999975453E+02 0.  0.
        -12    1    1    2    0    0  0.95345085075E+00  0.65975700789E+00  0.22074014243E+00  0.11802855776E+01  0.00000000000E+00 0.  1.
         11    1    3    3    0    0  0.27542603435E+02 -0.95404443035E+01 -0.18987141742E+02  0.34786874439E+02  0.51100000000E-03 0. -1.
        -11    1    3    3    0    0  0.42849753756E+01 -0.11079583836E+02  0.10731833415E+02  0.16009073698E+02  0.51100000000E-03 0.  1.
        -12    1    3    3    0    0 -0.32781029661E+02  0.19960271132E+02  0.80345681845E+01  0.39211766285E+02  0.00000000000E+00 0.  1.
</event>
<event>
 7    1  0.1910099E-015  0.9000771E+02  0.7816164E-02  0.1186339E+00
        -11   -1    0    0    0    0  0.00000000000E+00  0.00000000000E+00  0.45593999997E+02  0.45594000000E+02  0.51100000000E-03 0.  1.
         11   -1    0    0    0    0 -0.00000000000E+00 -0.00000000000E+00 -0.45593999997E+02  0.45594000000E+02  0.51100000000E-03 0. -1.
    9900012    2    1    2    0    0  0.10145036058E+00  0.91180871241E+00 -0.74255523176E+00  0.90007713774E+02  0.89999974796E+02 0.  0.
        -12    1    1    2    0    0 -0.10145036058E+00 -0.91180871241E+00  0.74255523176E+00  0.11802862263E+01  0.00000000000E+00 0.  1.
         11    1    3    3    0    0 -0.32507256921E+02  0.26051216954E+02  0.77514564046E+01  0.42373018938E+02  0.51100000000E-03 0. -1.
        -11    1    3    3    0    0  0.78080879377E+01  0.20936741236E+01  0.36238488161E+01  0.88590061002E+01  0.51100000000E-03 0.  1.
        -12    1    3    3    0    0  0.24800619344E+02 -0.27233082365E+02 -0.12117860452E+02  0.38775688735E+02  0.00000000000E+00 0.  1.
</event>
<event>
 7    1  0.1910099E-015  0.9000782E+02  0.7816164E-02  0.1186339E+00
        -11   -1    0    0    0    0  0.00000000000E+00  0.00000000000E+00  0.45593999997E+02  0.45594000000E+02  0.51100000000E-03 0.  1.
         11   -1    0    0    0    0 -0.00000000000E+00 -0.00000000000E+00 -0.45593999997E+02  0.45594000000E+02  0.51100000000E-03 0. -1.
    9900012    2    1    2    0    0 -0.10471529621E+00 -0.11710192581E+01  0.10285982219E+00  0.90007817159E+02  0.90000079545E+02 0.  0.
        -12    1    1    2    0    0  0.10471529621E+00  0.11710192581E+01 -0.10285982219E+00  0.11801828414E+01  0.00000000000E+00 0.  1.
         11    1    3    3    0    0 -0.89061199189E+01  0.95332242966E+01  0.40192855964E+00  0.13052313371E+02  0.51100000000E-03 0. -1.
        -11    1    3    3    0    0  0.19122319443E+02 -0.23754445186E+02 -0.30085124107E+02  0.42837500625E+02  0.51100000000E-03 0.  1.
         12    1    3    3    0    0 -0.10320914820E+02  0.13050201631E+02  0.29786055370E+02  0.34118003163E+02  0.00000000000E+00 0. -1.
</event>
<event>
 7    1  0.1910099E-015  0.9000779E+02  0.7816164E-02  0.1186339E+00
        -11   -1    0    0    0    0  0.00000000000E+00  0.00000000000E+00  0.45593999997E+02  0.45594000000E+02  0.51100000000E-03 0.  1.
         11   -1    0    0    0    0 -0.00000000000E+00 -0.00000000000E+00 -0.45593999997E+02  0.45594000000E+02  0.51100000000E-03 0. -1.
    9900012    2    1    2    0    0  0.58228721511E+00  0.45821759836E+00 -0.91862196009E+00  0.90007793207E+02  0.90000055277E+02 0.  0.
        -12    1    1    2    0    0 -0.58228721511E+00 -0.45821759836E+00  0.91862196009E+00  0.11802067928E+01  0.00000000000E+00 0.  1.
         11    1    3    3    0    0  0.76836515212E+00 -0.74026022436E+01  0.51367930114E+01  0.90429833400E+01  0.51100000000E-03 0. -1.
        -11    1    3    3    0    0  0.34745836276E+02 -0.21970462715E+01  0.16138772314E+02  0.38373951099E+02  0.51100000000E-03 0.  1.
         12    1    3    3    0    0 -0.34931914213E+02  0.10057866113E+02 -0.22194187286E+02  0.42590858768E+02  0.00000000000E+00 0. -1.
</event>
<event>
 7    1  0.1910099E-015  0.9000790E+02  0.7816164E-02  0.1186339E+00
        -11   -1    0    0    0    0  0.00000000000E+00  0.00000000000E+00  0.45593999997E+02  0.45594000000E+02  0.51100000000E-03 0.  1.
         11   -1    0    0    0    0 -0.00000000000E+00 -0.00000000000E+00 -0.45593999997E+02  0.45594000000E+02  0.51100000000E-03 0. -1.
    9900012    2    1    2    0    0 -0.73981569319E+00 -0.87641394187E+00 -0.27786032317E+00  0.90007900421E+02  0.90000163906E+02 0.  0.
        -12    1    1    2    0    0  0.73981569319E+00  0.87641394187E+00  0.27786032317E+00  0.11800995791E+01  0.00000000000E+00 0.  1.
         11    1    3    3    0    0  0.51254474606E+01  0.33395569624E+02  0.10667167907E+02  0.35430534199E+02  0.51100000000E-03 0. -1.
        -11    1    3    3    0    0 -0.23799395320E+01  0.34695110307E+01  0.10300711634E+02  0.11126827014E+02  0.51100000000E-03 0.  1.
        -12    1    3    3    0    0 -0.34853236218E+01 -0.37741494597E+02 -0.21245739864E+02  0.43450539209E+02  0.00000000000E+00 0.  1.
</event>
<event>
 7    1  0.1910099E-015  0.9000771E+02  0.7816164E-02  0.1186339E+00
        -11   -1    0    0    0    0  0.00000000000E+00  0.00000000000E+00  0.45593999997E+02  0.45594000000E+02  0.51100000000E-03 0. -1.
         11   -1    0    0    0    0 -0.00000000000E+00 -0.00000000000E+00 -0.45593999997E+02  0.45594000000E+02  0.51100000000E-03 0.  1.
    9900012    2    1    2    0    0 -0.37946279995E+00  0.94307139983E+00  0.59975594894E+00  0.90007710680E+02  0.89999971660E+02 0.  0.
        -12    1    1    2    0    0  0.37946279995E+00 -0.94307139983E+00 -0.59975594894E+00  0.11802893205E+01  0.00000000000E+00 0.  1.
         11    1    3    3    0    0  0.72742955655E+01 -0.25614725482E+02  0.28030476528E+02  0.38661830688E+02  0.51100000000E-03 0. -1.
        -11    1    3    3    0    0 -0.35717985008E+00 -0.80259874060E+01 -0.57741157432E+01  0.98936577747E+01  0.51100000000E-03 0.  1.
        -12    1    3    3    0    0 -0.72965785154E+01  0.34583784288E+02 -0.21656604835E+02  0.41452222217E+02  0.00000000000E+00 0.  1.
</event>
<event>
 7    1  0.1910099E-015  0.9000764E+02  0.7816164E-02  0.1186339E+00
        -11   -1    0    0    0    0  0.00000000000E+00  0.00000000000E+00  0.45593999997E+02  0.45594000000E+02  0.51100000000E-03 0. -1.
         11   -1    0    0    0    0 -0.00000000000E+00 -0.00000000000E+00 -0.45593999997E+02  0.45594000000E+02  0.51100000000E-03 0.  1.
    9900012    2    1    2    0    0  0.22244480588E+00 -0.14382147358E+00  0.11502551964E+01  0.90007638477E+02  0.89999898505E+02 0.  0.
        -12    1    1    2    0    0 -0.22244480588E+00  0.14382147358E+00 -0.11502551964E+01  0.11803615229E+01  0.00000000000E+00 0.  1.
         11    1    3    3    0    0 -0.47177125652E+01 -0.31849149563E+01 -0.92677515519E+01  0.10876199438E+02  0.51100000000E-03 0. -1.
        -11    1    3    3    0    0  0.13247491088E+00 -0.44651053513E+01 -0.33764497607E+02  0.34058714220E+02  0.51100000000E-03 0.  1.
         12    1    3    3    0    0  0.48076824602E+01  0.75061988340E+01  0.44182504355E+02  0.45072724819E+02  0.00000000000E+00 0. -1.
</event>
<event>
 7    1  0.1910099E-015  0.9000777E+02  0.7816164E-02  0.1186339E+00
        -11   -1    0    0    0    0  0.00000000000E+00  0.00000000000E+00  0.45593999997E+02  0.45594000000E+02  0.51100000000E-03 0.  1.
         11   -1    0    0    0    0 -0.00000000000E+00 -0.00000000000E+00 -0.45593999997E+02  0.45594000000E+02  0.51100000000E-03 0. -1.
    9900012    2    1    2    0    0 -0.94757667594E+00  0.60776251835E+00  0.35450006554E+00  0.90007768187E+02  0.90000029927E+02 0.  0.
        -12    1    1    2    0    0  0.94757667594E+00 -0.60776251835E+00 -0.35450006554E+00  0.11802318128E+01  0.00000000000E+00 0.  1.
         11    1    3    3    0    0 -0.35587151666E+01 -0.21865648879E+02  0.35162203124E+02  0.41559013262E+02  0.51100000000E-03 0. -1.
        -11    1    3    3    0    0  0.42149151168E+01 -0.47187283924E+01 -0.83377689718E+01  0.10466627861E+02  0.51100000000E-03 0.  1.
        -12    1    3    3    0    0 -0.16037766261E+01  0.27192139789E+02 -0.26469934087E+02  0.37982127065E+02  0.00000000000E+00 0.  1.
</event>
<event>
 7    1  0.1910099E-015  0.9000769E+02  0.7816164E-02  0.1186339E+00
        -11   -1    0    0    0    0  0.00000000000E+00  0.00000000000E+00  0.45593999997E+02  0.45594000000E+02  0.51100000000E-03 0.  1.
         11   -1    0    0    0    0 -0.00000000000E+00 -0.00000000000E+00 -0.45593999997E+02  0.45594000000E+02  0.51100000000E-03 0. -1.
    9900012    2    1    2    0    0 -0.11012547283E+00  0.11744461488E+01  0.41038826141E-01  0.90007688363E+02  0.89999949049E+02 0.  0.
        -12    1    1    2    0    0  0.11012547283E+00 -0.11744461488E+01 -0.41038826141E-01  0.11803116374E+01  0.00000000000E+00 0.  1.
         11    1    3    3    0    0 -0.31663207424E+02 -0.16134801206E+02 -0.83163393597E+01  0.36497287775E+02  0.51100000000E-03 0. -1.
        -11    1    3    3    0    0 -0.51882758414E+01 -0.64592736173E+01 -0.20410445542E+01  0.85326599020E+01  0.51100000000E-03 0.  1.
        -12    1    3    3    0    0  0.36741357793E+02  0.23768520973E+02  0.10398422740E+02  0.44977740685E+02  0.00000000000E+00 0.  1.
</event>
<event>
 7    1  0.1910099E-015  0.9000757E+02  0.7816164E-02  0.1186339E+00
        -11   -1    0    0    0    0  0.00000000000E+00  0.00000000000E+00  0.45593999997E+02  0.45594000000E+02  0.51100000000E-03 0. -1.
         11   -1    0    0    0    0 -0.00000000000E+00 -0.00000000000E+00 -0.45593999997E+02  0.45594000000E+02  0.51100000000E-03 0.  1.
    9900012    2    1    2    0    0  0.36933814151E+00  0.24505992170E+00  0.10940551878E+01  0.90007567121E+02  0.89999826207E+02 0.  0.
        -12    1    1    2    0    0 -0.36933814151E+00 -0.24505992170E+00 -0.10940551878E+01  0.11804328790E+01  0.00000000000E+00 0.  1.
         11    1    3    3    0    0 -0.10240840871E+02 -0.29373856822E+02  0.83466037331E+01  0.32208136867E+02  0.51100000000E-03 0. -1.
        -11    1    3    3    0    0 -0.17061219579E+02  0.42923403032E+01 -0.99126945487E+01  0.20193338314E+02  0.51100000000E-03 0.  1.
        -12    1    3    3    0    0  0.27671398591E+02  0.25326576440E+02  0.26601460034E+01  0.37606091939E+02  0.00000000000E+00 0.  1.
</event>
<event>
 7    1  0.1910099E-015  0.9000762E+02  0.7816164E-02  0.1186339E+00
        -11   -1    0    0    0    0  0.00000000000E+00  0.00000000000E+00  0.45593999997E+02  0.45594000000E+02  0.51100000000E-03 0.  1.
         11   -1    0    0    0    0 -0.00000000000E+00 -0.00000000000E+00 -0.45593999997E+02  0.45594000000E+02  0.51100000000E-03 0. -1.
    9900012    2    1    2    0    0 -0.84188483341E+00 -0.45884098892E+00 -0.68846833381E+00  0.90007621344E+02  0.89999881145E+02 0.  0.
        -12    1    1    2    0    0  0.84188483341E+00  0.45884098892E+00  0.68846833381E+00  0.11803786564E+01  0.00000000000E+00 0.  1.
         11    1    3    3    0    0  0.59877373921E+01 -0.63762820364E+01 -0.18313782217E+01  0.89366614648E+01  0.51100000000E-03 0. -1.
        -11    1    3    3    0    0 -0.27256109835E+02 -0.29490207684E+02  0.16494394424E+01  0.40190652188E+02  0.51100000000E-03 0.  1.
         12    1    3    3    0    0  0.20426487609E+02  0.35407648731E+02 -0.50652955452E+00  0.40880307691E+02  0.00000000000E+00 0. -1.
</event>
<event>
 7    1  0.1910099E-015  0.9000784E+02  0.7816164E-02  0.1186339E+00
        -11   -1    0    0    0    0  0.00000000000E+00  0.00000000000E+00  0.45593999997E+02  0.45594000000E+02  0.51100000000E-03 0.  1.
         11   -1    0    0    0    0 -0.00000000000E+00 -0.00000000000E+00 -0.45593999997E+02  0.45594000000E+02  0.51100000000E-03 0. -1.
    9900012    2    1    2    0    0 -0.79969853457E+00  0.76911240455E+00  0.40213940505E+00  0.90007844189E+02  0.90000106932E+02 0.  0.
        -12    1    1    2    0    0  0.79969853457E+00 -0.76911240455E+00 -0.40213940505E+00  0.11801558109E+01  0.00000000000E+00 0.  1.
         11    1    3    3    0    0  0.45682693219E+01 -0.34517661071E+00  0.83852438366E+01  0.95551319170E+01  0.51100000000E-03 0. -1.
        -11    1    3    3    0    0  0.10746962227E+02  0.25136035633E+02  0.24674843631E+02  0.36826150938E+02  0.51100000000E-03 0.  1.
         12    1    3    3    0    0 -0.16114930084E+02 -0.24021746618E+02 -0.32657948062E+02  0.43626561334E+02  0.00000000000E+00 0. -1.
</event>
<event>
 7    1  0.1910099E-015  0.9000776E+02  0.7816164E-02  0.1186339E+00
        -11   -1    0    0    0    0  0.00000000000E+00  0.00000000000E+00  0.45593999997E+02  0.45594000000E+02  0.51100000000E-03 0. -1.
         11   -1    0    0    0    0 -0.00000000000E+00 -0.00000000000E+00 -0.45593999997E+02  0.45594000000E+02  0.51100000000E-03 0.  1.
    9900012    2    1    2    0    0 -0.22825163165E+00  0.94413852675E+00  0.67042910054E+00  0.90007757845E+02  0.90000019449E+02 0.  0.
        -12    1    1    2    0    0  0.22825163165E+00 -0.94413852675E+00 -0.67042910054E+00  0.11802421548E+01  0.00000000000E+00 0.  1.
         11    1    3    3    0    0  0.48298229970E+01  0.79274516546E+01 -0.10556255460E+01  0.93426990464E+01  0.51100000000E-03 0. -1.
        -11    1    3    3    0    0  0.18925996740E+02  0.28720143337E+02 -0.10477906913E+02  0.35955896866E+02  0.51100000000E-03 0.  1.
         12    1    3    3    0    0 -0.23984071369E+02 -0.35703456465E+02  0.12203961560E+02  0.44709161933E+02  0.00000000000E+00 0. -1.
</event>
<event>
 7    1  0.1910099E-015  0.9000780E+02  0.7816164E-02  0.1186339E+00
        -11   -1    0    0    0    0  0.00000000000E+00  0.00000000000E+00  0.45593999997E+02  0.45594000000E+02  0.51100000000E-03 0. -1.
         11   -1    0    0    0    0 -0.00000000000E+00 -0.00000000000E+00 -0.45593999997E+02  0.45594000000E+02  0.51100000000E-03 0.  1.
    9900012    2    1    2    0    0  0.10870454629E+01  0.42196880070E+00  0.18206326901E+00  0.90007799788E+02  0.90000061945E+02 0.  0.
        -12    1    1    2    0    0 -0.10870454629E+01 -0.42196880070E+00 -0.18206326901E+00  0.11802002123E+01  0.00000000000E+00 0.  1.
         11    1    3    3    0    0 -0.28925288972E+01  0.59105824730E+01 -0.86060532882E+01  0.10833552605E+02  0.51100000000E-03 0. -1.
        -11    1    3    3    0    0  0.34807357638E+02 -0.17895750377E+02 -0.10798382415E+02  0.40600678447E+02  0.51100000000E-03 0.  1.
         12    1    3    3    0    0 -0.30827783278E+02  0.12407136705E+02  0.19586498973E+02  0.38573568736E+02  0.00000000000E+00 0. -1.
</event>
<event>
 7    1  0.1910099E-015  0.9000777E+02  0.7816164E-02  0.1186339E+00
        -11   -1    0    0    0    0  0.00000000000E+00  0.00000000000E+00  0.45593999997E+02  0.45594000000E+02  0.51100000000E-03 0. -1.
         11   -1    0    0    0    0 -0.00000000000E+00 -0.00000000000E+00 -0.45593999997E+02  0.45594000000E+02  0.51100000000E-03 0.  1.
    9900012    2    1    2    0    0 -0.64545838219E+00  0.68829969347E+00 -0.70891991490E+00  0.90007771024E+02  0.90000032801E+02 0.  0.
        -12    1    1    2    0    0  0.64545838219E+00 -0.68829969347E+00  0.70891991490E+00  0.11802289765E+01  0.00000000000E+00 0.  1.
         11    1    3    3    0    0  0.26623811209E+01  0.30371212589E+01  0.35241367365E+01  0.53602162991E+01  0.51100000000E-03 0. -1.
        -11    1    3    3    0    0  0.39365787055E+02  0.21998771766E+01 -0.11613791702E+02  0.41102126563E+02  0.51100000000E-03 0.  1.
         12    1    3    3    0    0 -0.42673626558E+02 -0.45486987421E+01  0.73807350504E+01  0.43545428161E+02  0.00000000000E+00 0. -1.
</event>
<event>
 7    1  0.1910099E-015  0.9000777E+02  0.7816164E-02  0.1186339E+00
        -11   -1    0    0    0    0  0.00000000000E+00  0.00000000000E+00  0.45593999997E+02  0.45594000000E+02  0.51100000000E-03 0. -1.
         11   -1    0    0    0    0 -0.00000000000E+00 -0.00000000000E+00 -0.45593999997E+02  0.45594000000E+02  0.51100000000E-03 0.  1.
    9900012    2    1    2    0    0 -0.11308327129E+01 -0.32848284688E+00  0.79140958852E-01  0.90007768287E+02  0.90000030028E+02 0.  0.
        -12    1    1    2    0    0  0.11308327129E+01  0.32848284688E+00 -0.79140958852E-01  0.11802317131E+01  0.00000000000E+00 0.  1.
         11    1    3    3    0    0  0.52210207734E+01 -0.30904970702E+01 -0.92838037097E+01  0.11090502317E+02  0.51100000000E-03 0. -1.
        -11    1    3    3    0    0  0.64673636983E+01 -0.91052717476E+01 -0.32066344563E+02  0.33955606617E+02  0.51100000000E-03 0.  1.
         12    1    3    3    0    0 -0.12819217185E+02  0.11867285971E+02  0.41429289232E+02  0.44961659353E+02  0.00000000000E+00 0. -1.
</event>
<event>
 7    1  0.1910099E-015  0.9000778E+02  0.7816164E-02  0.1186339E+00
        -11   -1    0    0    0    0  0.00000000000E+00  0.00000000000E+00  0.45593999997E+02  0.45594000000E+02  0.51100000000E-03 0.  1.
         11   -1    0    0    0    0 -0.00000000000E+00 -0.00000000000E+00 -0.45593999997E+02  0.45594000000E+02  0.51100000000E-03 0. -1.
    9900012    2    1    2    0    0 -0.48518965177E+00 -0.10726000232E+00 -0.10705131749E+01  0.90007783001E+02  0.90000044937E+02 0.  0.
        -12    1    1    2    0    0  0.48518965177E+00  0.10726000232E+00  0.10705131749E+01  0.11802169986E+01  0.00000000000E+00 0.  1.
         11    1    3    3    0    0 -0.11233311516E+02 -0.35284246230E+02 -0.35665672376E+01  0.37200614535E+02  0.51100000000E-03 0. -1.
        -11    1    3    3    0    0  0.36622819891E+01  0.50467778783E+01 -0.15706737931E+02  0.16899227586E+02  0.51100000000E-03 0.  1.
        -12    1    3    3    0    0  0.70858398754E+01  0.30130208350E+02  0.18202791993E+02  0.35907940881E+02  0.00000000000E+00 0.  1.
</event>
<event>
 7    1  0.1910099E-015  0.9000778E+02  0.7816164E-02  0.1186339E+00
        -11   -1    0    0    0    0  0.00000000000E+00  0.00000000000E+00  0.45593999997E+02  0.45594000000E+02  0.51100000000E-03 0. -1.
         11   -1    0    0    0    0 -0.00000000000E+00 -0.00000000000E+00 -0.45593999997E+02  0.45594000000E+02  0.51100000000E-03 0.  1.
    9900012    2    1    2    0    0 -0.45445237199E+00 -0.64993813074E+00  0.87405958009E+00  0.90007776851E+02  0.90000038705E+02 0.  0.
        -12    1    1    2    0    0  0.45445237199E+00  0.64993813074E+00 -0.87405958009E+00  0.11802231491E+01  0.00000000000E+00 0.  1.
         11    1    3    3    0    0  0.32001316012E+01  0.31842509448E+02 -0.23604887094E+02  0.39766530465E+02  0.51100000000E-03 0. -1.
        -11    1    3    3    0    0  0.22867938791E+01  0.45472718876E+01  0.75010413962E+01  0.90649175481E+01  0.51100000000E-03 0.  1.
        -12    1    3    3    0    0 -0.59413778523E+01 -0.37039719466E+02  0.16977905278E+02  0.41176328838E+02  0.00000000000E+00 0.  1.
</event>
<event>
 7    1  0.1910099E-015  0.9000772E+02  0.7816164E-02  0.1186339E+00
        -11   -1    0    0    0    0  0.00000000000E+00  0.00000000000E+00  0.45593999997E+02  0.45594000000E+02  0.51100000000E-03 0.  1.
         11   -1    0    0    0    0 -0.00000000000E+00 -0.00000000000E+00 -0.45593999997E+02  0.45594000000E+02  0.51100000000E-03 0. -1.
    9900012    2    1    2    0    0  0.11503487021E+01 -0.32138355852E-01  0.26217145404E+00  0.90007716610E+02  0.89999977669E+02 0.  0.
        -12    1    1    2    0    0 -0.11503487021E+01  0.32138355852E-01 -0.26217145404E+00  0.11802833904E+01  0.00000000000E+00 0.  1.
         11    1    3    3    0    0  0.57885246640E+01 -0.12506043881E+01 -0.33765140746E+01  0.68170284346E+01  0.51100000000E-03 0. -1.
        -11    1    3    3    0    0  0.59769867190E+01  0.13440316458E+01  0.42482703862E+02  0.42922149515E+02  0.51100000000E-03 0.  1.
         12    1    3    3    0    0 -0.10615162681E+02 -0.12556561355E+00 -0.38844018334E+02  0.40268538660E+02  0.00000000000E+00 0. -1.
</event>
<event>
 7    1  0.1910099E-015  0.9000774E+02  0.7816164E-02  0.1186339E+00
        -11   -1    0    0    0    0  0.00000000000E+00  0.00000000000E+00  0.45593999997E+02  0.45594000000E+02  0.51100000000E-03 0.  1.
         11   -1    0    0    0    0 -0.00000000000E+00 -0.00000000000E+00 -0.45593999997E+02  0.45594000000E+02  0.51100000000E-03 0. -1.
    9900012    2    1    2    0    0 -0.11188222664E+01 -0.22509546151E-01 -0.37515373395E+00  0.90007741440E+02  0.90000002827E+02 0.  0.
        -12    1    1    2    0    0  0.11188222664E+01  0.22509546151E-01  0.37515373395E+00  0.11802585596E+01  0.00000000000E+00 0.  1.
         11    1    3    3    0    0 -0.46833164870E+01 -0.13730387913E+02 -0.32578322627E+01  0.14868438952E+02  0.51100000000E-03 0. -1.
        -11    1    3    3    0    0  0.29215655213E+02 -0.12521891024E+02  0.16736598221E+02  0.35923056449E+02  0.51100000000E-03 0.  1.
         12    1    3    3    0    0 -0.25651160992E+02  0.26229769392E+02 -0.13853919693E+02  0.39216246039E+02  0.00000000000E+00 0. -1.
</event>
<event>
 7    1  0.1910099E-015  0.9000772E+02  0.7816164E-02  0.1186339E+00
        -11   -1    0    0    0    0  0.00000000000E+00  0.00000000000E+00  0.45593999997E+02  0.45594000000E+02  0.51100000000E-03 0. -1.
         11   -1    0    0    0    0 -0.00000000000E+00 -0.00000000000E+00 -0.45593999997E+02  0.45594000000E+02  0.51100000000E-03 0.  1.
    9900012    2    1    2    0    0 -0.82980414631E+00 -0.16595751779E+00  0.82276877288E+00  0.90007718138E+02  0.89999979218E+02 0.  0.
        -12    1    1    2    0    0  0.82980414631E+00  0.16595751779E+00 -0.82276877288E+00  0.11802818615E+01  0.00000000000E+00 0.  1.
         11    1    3    3    0    0 -0.18456285763E+01  0.40472927345E+01  0.95923838275E+01  0.10573587427E+02  0.51100000000E-03 0. -1.
        -11    1    3    3    0    0  0.33674491223E+02 -0.23130534907E+02 -0.80635077103E+00  0.40861267797E+02  0.51100000000E-03 0.  1.
         12    1    3    3    0    0 -0.32658666793E+02  0.18917284654E+02 -0.79632642836E+01  0.38572862914E+02  0.00000000000E+00 0. -1.
</event>
<event>
 7    1  0.1910099E-015  0.9000785E+02  0.7816164E-02  0.1186339E+00
        -11   -1    0    0    0    0  0.00000000000E+00  0.00000000000E+00  0.45593999997E+02  0.45594000000E+02  0.51100000000E-03 0.  1.
         11   -1    0    0    0    0 -0.00000000000E+00 -0.00000000000E+00 -0.45593999997E+02  0.45594000000E+02  0.51100000000E-03 0. -1.
    9900012    2    1    2    0    0  0.48361254918E+00 -0.87634733420E+00  0.62521901825E+00  0.90007845532E+02  0.90000108293E+02 0.  0.
        -12    1    1    2    0    0 -0.48361254918E+00  0.87634733420E+00 -0.62521901825E+00  0.11801544681E+01  0.00000000000E+00 0.  1.
         11    1    3    3    0    0 -0.21044212095E+02  0.25720853875E+02 -0.20370498386E+02  0.38979204603E+02  0.51100000000E-03 0. -1.
        -11    1    3    3    0    0 -0.29357212630E+01  0.52161941523E+01  0.50993629272E+01  0.78632463584E+01  0.51100000000E-03 0.  1.
        -12    1    3    3    0    0  0.24463545907E+02 -0.31813395362E+02  0.15896354477E+02  0.43165394570E+02  0.00000000000E+00 0.  1.
</event>
<event>
 7    1  0.1910099E-015  0.9000790E+02  0.7816164E-02  0.1186339E+00
        -11   -1    0    0    0    0  0.00000000000E+00  0.00000000000E+00  0.45593999997E+02  0.45594000000E+02  0.51100000000E-03 0. -1.
         11   -1    0    0    0    0 -0.00000000000E+00 -0.00000000000E+00 -0.45593999997E+02  0.45594000000E+02  0.51100000000E-03 0.  1.
    9900012    2    1    2    0    0 -0.15721796102E+00  0.71117787890E+00  0.92851399017E+00  0.90007902677E+02  0.90000166192E+02 0.  0.
        -12    1    1    2    0    0  0.15721796102E+00 -0.71117787890E+00 -0.92851399017E+00  0.11800973234E+01  0.00000000000E+00 0.  1.
         11    1    3    3    0    0  0.23903845856E+01 -0.37108485276E+01  0.33125433251E+01  0.55188113579E+01  0.51100000000E-03 0. -1.
        -11    1    3    3    0    0 -0.20835177827E+02 -0.12029339186E+02  0.33340740233E+02  0.41114651839E+02  0.51100000000E-03 0.  1.
         12    1    3    3    0    0  0.18287575280E+02  0.16451365593E+02 -0.35724769568E+02  0.43374439480E+02  0.00000000000E+00 0. -1.
</event>
<event>
 7    1  0.1910099E-015  0.9000776E+02  0.7816164E-02  0.1186339E+00
        -11   -1    0    0    0    0  0.00000000000E+00  0.00000000000E+00  0.45593999997E+02  0.45594000000E+02  0.51100000000E-03 0.  1.
         11   -1    0    0    0    0 -0.00000000000E+00 -0.00000000000E+00 -0.45593999997E+02  0.45594000000E+02  0.51100000000E-03 0. -1.
    9900012    2    1    2    0    0 -0.22343463662E+00 -0.11585143470E+01  0.29915223692E-01  0.90007757038E+02  0.90000018631E+02 0.  0.
        -12    1    1    2    0    0  0.22343463662E+00  0.11585143470E+01 -0.29915223692E-01  0.11802429621E+01  0.00000000000E+00 0.  1.
         11    1    3    3    0    0 -0.10296266607E+02 -0.19790301615E+01 -0.30352234918E+01  0.10915230109E+02  0.51100000000E-03 0. -1.
        -11    1    3    3    0    0 -0.33368250484E+02 -0.87694575967E+01  0.26587385659E+01  0.34603647466E+02  0.51100000000E-03 0.  1.
         12    1    3    3    0    0  0.43441082454E+02  0.95899734112E+01  0.40640014964E+00  0.44488879463E+02  0.00000000000E+00 0. -1.
</event>
<event>
 7    1  0.1910099E-015  0.9000769E+02  0.7816164E-02  0.1186339E+00
        -11   -1    0    0    0    0  0.00000000000E+00  0.00000000000E+00  0.45593999997E+02  0.45594000000E+02  0.51100000000E-03 0. -1.
         11   -1    0    0    0    0 -0.00000000000E+00 -0.00000000000E+00 -0.45593999997E+02  0.45594000000E+02  0.51100000000E-03 0.  1.
    9900012    2    1    2    0    0 -0.29188983703E+00 -0.10177444609E+01  0.52165563256E+00  0.90007691539E+02  0.89999952267E+02 0.  0.
        -12    1    1    2    0    0  0.29188983703E+00  0.10177444609E+01 -0.52165563256E+00  0.11803084612E+01  0.00000000000E+00 0.  1.
         11    1    3    3    0    0  0.36555221251E+01  0.74540983449E+01 -0.48982449067E+01  0.96394619958E+01  0.51100000000E-03 0. -1.
        -11    1    3    3    0    0  0.25194719271E+02  0.23000981395E+02 -0.87077733316E+01  0.35208583342E+02  0.51100000000E-03 0.  1.
         12    1    3    3    0    0 -0.29142131233E+02 -0.31472824201E+02  0.14127673871E+02  0.45159646201E+02  0.00000000000E+00 0. -1.
</event>
<event>
 7    1  0.1910099E-015  0.9000795E+02  0.7816164E-02  0.1186339E+00
        -11   -1    0    0    0    0  0.00000000000E+00  0.00000000000E+00  0.45593999997E+02  0.45594000000E+02  0.51100000000E-03 0. -1.
         11   -1    0    0    0    0 -0.00000000000E+00 -0.00000000000E+00 -0.45593999997E+02  0.45594000000E+02  0.51100000000E-03 0.  1.
    9900012    2    1    2    0    0  0.64320392786E+00 -0.98610529297E+00  0.79948853045E-01  0.90007954763E+02  0.90000218966E+02 0.  0.
        -12    1    1    2    0    0 -0.64320392786E+00  0.98610529297E+00 -0.79948853045E-01  0.11800452367E+01  0.00000000000E+00 0.  1.
         11    1    3    3    0    0  0.40263358102E+01 -0.18664249356E+01 -0.88904299106E+01  0.99365319077E+01  0.51100000000E-03 0. -1.
        -11    1    3    3    0    0 -0.35518378420E+02 -0.41259386157E+01 -0.15896208400E+02  0.39131419815E+02  0.51100000000E-03 0.  1.
         12    1    3    3    0    0  0.32135246537E+02  0.50062582583E+01  0.24866587164E+02  0.40940003040E+02  0.00000000000E+00 0. -1.
</event>
<event>
 7    1  0.1910099E-015  0.9000762E+02  0.7816164E-02  0.1186339E+00
        -11   -1    0    0    0    0  0.00000000000E+00  0.00000000000E+00  0.45593999997E+02  0.45594000000E+02  0.51100000000E-03 0. -1.
         11   -1    0    0    0    0 -0.00000000000E+00 -0.00000000000E+00 -0.45593999997E+02  0.45594000000E+02  0.51100000000E-03 0.  1.
    9900012    2    1    2    0    0  0.43770425896E+00 -0.83239915724E+00  0.71331081816E+00  0.90007624764E+02  0.89999884610E+02 0.  0.
        -12    1    1    2    0    0 -0.43770425896E+00  0.83239915724E+00 -0.71331081816E+00  0.11803752364E+01  0.00000000000E+00 0.  1.
         11    1    3    3    0    0 -0.20952551326E+02 -0.11961213973E+02  0.25992949138E+02  0.35464255976E+02  0.51100000000E-03 0. -1.
        -11    1    3    3    0    0 -0.68521844943E+01 -0.44635068588E+01  0.55795483759E+01  0.98998326331E+01  0.51100000000E-03 0.  1.
        -12    1    3    3    0    0  0.28242440079E+02  0.15592321674E+02 -0.30859186696E+02  0.44643536154E+02  0.00000000000E+00 0.  1.
</event>
<event>
 7    1  0.1910099E-015  0.9000773E+02  0.7816164E-02  0.1186339E+00
        -11   -1    0    0    0    0  0.00000000000E+00  0.00000000000E+00  0.45593999997E+02  0.45594000000E+02  0.51100000000E-03 0. -1.
         11   -1    0    0    0    0 -0.00000000000E+00 -0.00000000000E+00 -0.45593999997E+02  0.45594000000E+02  0.51100000000E-03 0.  1.
    9900012    2    1    2    0    0  0.10444380107E+00  0.11328441234E+01  0.31431649200E+00  0.90007729195E+02  0.89999990421E+02 0.  0.
        -12    1    1    2    0    0 -0.10444380107E+00 -0.11328441234E+01 -0.31431649200E+00  0.11802708048E+01  0.00000000000E+00 0.  1.
         11    1    3    3    0    0 -0.21325550668E+02  0.21319826330E+02  0.26329749343E+02  0.40032109696E+02  0.51100000000E-03 0. -1.
        -11    1    3    3    0    0 -0.22778781853E+01  0.60885268007E+01 -0.78608187138E+01  0.10200556786E+02  0.51100000000E-03 0.  1.
        -12    1    3    3    0    0  0.23707872654E+02 -0.26275509007E+02 -0.18154614137E+02  0.39775062713E+02  0.00000000000E+00 0.  1.
</event>
<event>
 7    1  0.1910099E-015  0.9000786E+02  0.7816164E-02  0.1186339E+00
        -11   -1    0    0    0    0  0.00000000000E+00  0.00000000000E+00  0.45593999997E+02  0.45594000000E+02  0.51100000000E-03 0. -1.
         11   -1    0    0    0    0 -0.00000000000E+00 -0.00000000000E+00 -0.45593999997E+02  0.45594000000E+02  0.51100000000E-03 0.  1.
    9900012    2    1    2    0    0  0.30512440517E+00 -0.10279496042E+01 -0.49290972323E+00  0.90007855396E+02  0.90000118287E+02 0.  0.
        -12    1    1    2    0    0 -0.30512440517E+00  0.10279496042E+01  0.49290972323E+00  0.11801446041E+01  0.00000000000E+00 0.  1.
         11    1    3    3    0    0 -0.91199064644E+01  0.12087671810E+00 -0.32305655483E+01  0.96759422861E+01  0.51100000000E-03 0. -1.
        -11    1    3    3    0    0 -0.29447645990E+02  0.15891585924E+00 -0.19699425633E+02  0.35429598913E+02  0.51100000000E-03 0.  1.
         12    1    3    3    0    0  0.38872676860E+02 -0.13077421815E+01  0.22437081458E+02  0.44902314197E+02  0.00000000000E+00 0. -1.
</event>
<event>
 7    1  0.1910099E-015  0.9000777E+02  0.7816164E-02  0.1186339E+00
        -11   -1    0    0    0    0  0.00000000000E+00  0.00000000000E+00  0.45593999997E+02  0.45594000000E+02  0.51100000000E-03 0. -1.
         11   -1    0    0    0    0 -0.00000000000E+00 -0.00000000000E+00 -0.45593999997E+02  0.45594000000E+02  0.51100000000E-03 0.  1.
    9900012    2    1    2    0    0  0.74632783381E+00 -0.65548376329E+00 -0.63739138260E+00  0.90007774609E+02  0.90000036434E+02 0.  0.
        -12    1    1    2    0    0 -0.74632783381E+00  0.65548376329E+00  0.63739138260E+00  0.11802253912E+01  0.00000000000E+00 0.  1.
         11    1    3    3    0    0  0.34370418993E+01 -0.81441646693E+01 -0.30107808267E+01  0.93383872604E+01  0.51100000000E-03 0. -1.
        -11    1    3    3    0    0  0.16253213060E+02  0.15521897628E+02  0.35296934642E+02  0.41844591480E+02  0.51100000000E-03 0.  1.
         12    1    3    3    0    0 -0.18943927126E+02 -0.80332167219E+01 -0.32923545198E+02  0.38824795868E+02  0.00000000000E+00 0. -1.
</event>
<event>
 7    1  0.1910099E-015  0.9000775E+02  0.7816164E-02  0.1186339E+00
        -11   -1    0    0    0    0  0.00000000000E+00  0.00000000000E+00  0.45593999997E+02  0.45594000000E+02  0.51100000000E-03 0. -1.
         11   -1    0    0    0    0 -0.00000000000E+00 -0.00000000000E+00 -0.45593999997E+02  0.45594000000E+02  0.51100000000E-03 0.  1.
    9900012    2    1    2    0    0  0.66091697856E+00 -0.97653245870E+00  0.50715511545E-01  0.90007746231E+02  0.90000007682E+02 0.  0.
        -12    1    1    2    0    0 -0.66091697856E+00  0.97653245870E+00 -0.50715511545E-01  0.11802537687E+01  0.00000000000E+00 0.  1.
         11    1    3    3    0    0 -0.41826607861E+01 -0.45203701030E+01 -0.48080609451E+01  0.78131842058E+01  0.51100000000E-03 0. -1.
        -11    1    3    3    0    0 -0.35527305769E+01 -0.34095334330E+02 -0.16572083693E+02  0.38075552206E+02  0.51100000000E-03 0.  1.
         12    1    3    3    0    0  0.83963083416E+01  0.37639171974E+02  0.21430860150E+02  0.44119009819E+02  0.00000000000E+00 0. -1.
</event>
<event>
 7    1  0.1910099E-015  0.9000774E+02  0.7816164E-02  0.1186339E+00
        -11   -1    0    0    0    0  0.00000000000E+00  0.00000000000E+00  0.45593999997E+02  0.45594000000E+02  0.51100000000E-03 0. -1.
         11   -1    0    0    0    0 -0.00000000000E+00 -0.00000000000E+00 -0.45593999997E+02  0.45594000000E+02  0.51100000000E-03 0.  1.
    9900012    2    1    2    0    0 -0.40423931250E+00  0.26498519435E+00  0.10767447488E+01  0.90007743321E+02  0.90000004733E+02 0.  0.
        -12    1    1    2    0    0  0.40423931250E+00 -0.26498519435E+00 -0.10767447488E+01  0.11802566793E+01  0.00000000000E+00 0.  1.
         11    1    3    3    0    0 -0.13980189761E+02 -0.36766838873E+02  0.12309030166E+02  0.41215996534E+02  0.51100000000E-03 0. -1.
        -11    1    3    3    0    0  0.84323223413E+01 -0.95332420859E+00 -0.52958998635E+01  0.10002971695E+02  0.51100000000E-03 0.  1.
        -12    1    3    3    0    0  0.51436281072E+01  0.37985148276E+02 -0.59363855533E+01  0.38788775091E+02  0.00000000000E+00 0.  1.
</event>
<event>
 7    1  0.1910099E-015  0.9000812E+02  0.7816164E-02  0.1186338E+00
        -11   -1    0    0    0    0  0.00000000000E+00  0.00000000000E+00  0.45593999997E+02  0.45594000000E+02  0.51100000000E-03 0.  1.
         11   -1    0    0    0    0 -0.00000000000E+00 -0.00000000000E+00 -0.45593999997E+02  0.45594000000E+02  0.51100000000E-03 0. -1.
    9900012    2    1    2    0    0 -0.14198134214E+00 -0.76595652497E+00 -0.88615778549E+00  0.90008117073E+02  0.90000383418E+02 0.  0.
        -12    1    1    2    0    0  0.14198134214E+00  0.76595652497E+00  0.88615778549E+00  0.11798829266E+01  0.00000000000E+00 0.  1.
         11    1    3    3    0    0  0.12792461630E+02 -0.38863936192E+02  0.44789564473E+01  0.41159612025E+02  0.51100000000E-03 0. -1.
        -11    1    3    3    0    0  0.59195772074E+01  0.63224156481E+01  0.55926233165E+01  0.10309789996E+02  0.51100000000E-03 0.  1.
        -12    1    3    3    0    0 -0.18854020180E+02  0.31775564019E+02 -0.10957737549E+02  0.38538715052E+02  0.00000000000E+00 0.  1.
</event>
<event>
 7    1  0.1910099E-015  0.9000774E+02  0.7816164E-02  0.1186339E+00
        -11   -1    0    0    0    0  0.00000000000E+00  0.00000000000E+00  0.45593999997E+02  0.45594000000E+02  0.51100000000E-03 0.  1.
         11   -1    0    0    0    0 -0.00000000000E+00 -0.00000000000E+00 -0.45593999997E+02  0.45594000000E+02  0.51100000000E-03 0. -1.
    9900012    2    1    2    0    0  0.41832659179E-02  0.74377218462E+00 -0.91641032064E+00  0.90007736285E+02  0.89999997603E+02 0.  0.
        -12    1    1    2    0    0 -0.41832659179E-02 -0.74377218462E+00  0.91641032064E+00  0.11802637155E+01  0.00000000000E+00 0.  1.
         11    1    3    3    0    0  0.47532615099E+01 -0.28394747980E+02 -0.34215931218E+02  0.44716721226E+02  0.51100000000E-03 0. -1.
        -11    1    3    3    0    0 -0.32582873505E+01  0.35731217960E+01  0.76184217850E+01  0.90235240667E+01  0.51100000000E-03 0.  1.
        -12    1    3    3    0    0 -0.14907908935E+01  0.25565398369E+02  0.25681099112E+02  0.36267490992E+02  0.00000000000E+00 0.  1.
</event>
<event>
 7    1  0.1910099E-015  0.9000774E+02  0.7816164E-02  0.1186339E+00
        -11   -1    0    0    0    0  0.00000000000E+00  0.00000000000E+00  0.45593999997E+02  0.45594000000E+02  0.51100000000E-03 0. -1.
         11   -1    0    0    0    0 -0.00000000000E+00 -0.00000000000E+00 -0.45593999997E+02  0.45594000000E+02  0.51100000000E-03 0.  1.
    9900012    2    1    2    0    0 -0.96652058906E+00  0.83075176652E-01  0.67227907492E+00  0.90007736178E+02  0.89999997496E+02 0.  0.
        -12    1    1    2    0    0  0.96652058906E+00 -0.83075176652E-01 -0.67227907492E+00  0.11802638216E+01  0.00000000000E+00 0.  1.
         11    1    3    3    0    0 -0.13889958013E+02 -0.11200699561E+02  0.31052244965E+02  0.35813803510E+02  0.51100000000E-03 0. -1.
        -11    1    3    3    0    0 -0.49403230028E-01 -0.10512039666E+02  0.41904542914E+01  0.11316595162E+02  0.51100000000E-03 0.  1.
        -12    1    3    3    0    0  0.12972840654E+02  0.21795814404E+02 -0.34570420181E+02  0.42877337507E+02  0.00000000000E+00 0.  1.
</event>
<event>
 7    1  0.1910099E-015  0.9000771E+02  0.7816164E-02  0.1186339E+00
        -11   -1    0    0    0    0  0.00000000000E+00  0.00000000000E+00  0.45593999997E+02  0.45594000000E+02  0.51100000000E-03 0.  1.
         11   -1    0    0    0    0 -0.00000000000E+00 -0.00000000000E+00 -0.45593999997E+02  0.45594000000E+02  0.51100000000E-03 0. -1.
    9900012    2    1    2    0    0 -0.10120412209E+01  0.51868427388E+00  0.31596195932E+00  0.90007706491E+02  0.89999967416E+02 0.  0.
        -12    1    1    2    0    0  0.10120412209E+01 -0.51868427388E+00 -0.31596195932E+00  0.11802935094E+01  0.00000000000E+00 0.  1.
         11    1    3    3    0    0 -0.84270780911E+01  0.18872640069E+02 -0.30216540567E+02  0.36609172518E+02  0.51100000000E-03 0. -1.
        -11    1    3    3    0    0 -0.62676002255E+01 -0.25884028028E+01 -0.74398511973E+01  0.10066480406E+02  0.51100000000E-03 0.  1.
        -12    1    3    3    0    0  0.13682637096E+02 -0.15765552992E+02  0.37972353724E+02  0.43332053567E+02  0.00000000000E+00 0.  1.
</event>
<event>
 7    1  0.1910099E-015  0.9000772E+02  0.7816164E-02  0.1186339E+00
        -11   -1    0    0    0    0  0.00000000000E+00  0.00000000000E+00  0.45593999997E+02  0.45594000000E+02  0.51100000000E-03 0. -1.
         11   -1    0    0    0    0 -0.00000000000E+00 -0.00000000000E+00 -0.45593999997E+02  0.45594000000E+02  0.51100000000E-03 0.  1.
    9900012    2    1    2    0    0 -0.70768339912E+00  0.65145328251E-02  0.94457045463E+00  0.90007715468E+02  0.89999976512E+02 0.  0.
        -12    1    1    2    0    0  0.70768339912E+00 -0.65145328251E-02 -0.94457045463E+00  0.11802845319E+01  0.00000000000E+00 0.  1.
         11    1    3    3    0    0 -0.65957528614E+01  0.34839822262E+02 -0.17506199536E+02  0.39544711321E+02  0.51100000000E-03 0. -1.
        -11    1    3    3    0    0 -0.50161550924E+01 -0.30212147793E+01 -0.63801852177E+01  0.86600412427E+01  0.51100000000E-03 0.  1.
         12    1    3    3    0    0  0.10904224555E+02 -0.31812092950E+02  0.24830955208E+02  0.41802962904E+02  0.00000000000E+00 0. -1.
</event>
<event>
 7    1  0.1910099E-015  0.9000775E+02  0.7816164E-02  0.1186339E+00
        -11   -1    0    0    0    0  0.00000000000E+00  0.00000000000E+00  0.45593999997E+02  0.45594000000E+02  0.51100000000E-03 0.  1.
         11   -1    0    0    0    0 -0.00000000000E+00 -0.00000000000E+00 -0.45593999997E+02  0.45594000000E+02  0.51100000000E-03 0. -1.
    9900012    2    1    2    0    0 -0.85605347636E+00 -0.80748040868E+00 -0.90175811343E-01  0.90007752635E+02  0.90000014170E+02 0.  0.
        -12    1    1    2    0    0  0.85605347636E+00  0.80748040868E+00  0.90175811343E-01  0.11802473646E+01  0.00000000000E+00 0.  1.
         11    1    3    3    0    0  0.69958469776E+01 -0.47359777502E+01 -0.58803368300E+01  0.10293188120E+02  0.51100000000E-03 0. -1.
        -11    1    3    3    0    0  0.25287528407E+02 -0.22718997452E+02 -0.81611994609E+01  0.34960221897E+02  0.51100000000E-03 0.  1.
         12    1    3    3    0    0 -0.33139428861E+02  0.26647494794E+02  0.13951360480E+02  0.44754342619E+02  0.00000000000E+00 0. -1.
</event>
<event>
 7    1  0.1910099E-015  0.9000775E+02  0.7816164E-02  0.1186339E+00
        -11   -1    0    0    0    0  0.00000000000E+00  0.00000000000E+00  0.45593999997E+02  0.45594000000E+02  0.51100000000E-03 0.  1.
         11   -1    0    0    0    0 -0.00000000000E+00 -0.00000000000E+00 -0.45593999997E+02  0.45594000000E+02  0.51100000000E-03 0. -1.
    9900012    2    1    2    0    0 -0.10358540738E+01 -0.10878735692E-01 -0.56557796872E+00  0.90007749837E+02  0.90000011335E+02 0.  0.
        -12    1    1    2    0    0  0.10358540738E+01  0.10878735692E-01  0.56557796872E+00  0.11802501632E+01  0.00000000000E+00 0.  1.
         11    1    3    3    0    0 -0.34468415281E+02 -0.16057092819E+02  0.67231244847E+01  0.38614793602E+02  0.51100000000E-03 0. -1.
        -11    1    3    3    0    0  0.97638801498E+01  0.79344979811E+01  0.13797464518E+02  0.18672429975E+02  0.51100000000E-03 0.  1.
        -12    1    3    3    0    0  0.23668681058E+02  0.81117161026E+01 -0.21086166972E+02  0.32720526260E+02  0.00000000000E+00 0.  1.
</event>
<event>
 7    1  0.1910099E-015  0.9000727E+02  0.7816164E-02  0.1186340E+00
        -11   -1    0    0    0    0  0.00000000000E+00  0.00000000000E+00  0.45593999997E+02  0.45594000000E+02  0.51100000000E-03 0.  1.
         11   -1    0    0    0    0 -0.00000000000E+00 -0.00000000000E+00 -0.45593999997E+02  0.45594000000E+02  0.51100000000E-03 0. -1.
    9900012    2    1    2    0    0 -0.21610818418E+00 -0.95093438153E+00 -0.66568481460E+00  0.90007273437E+02  0.89999528645E+02 0.  0.
        -12    1    1    2    0    0  0.21610818418E+00  0.95093438153E+00  0.66568481460E+00  0.11807265635E+01  0.00000000000E+00 0.  1.
         11    1    3    3    0    0 -0.41950216235E+02  0.28437599377E+01 -0.58075913095E+01  0.42445679755E+02  0.51100000000E-03 0. -1.
        -11    1    3    3    0    0  0.53308985461E+01  0.40155754627E+01 -0.57071364590E+01  0.87814994408E+01  0.51100000000E-03 0.  1.
        -12    1    3    3    0    0  0.36403209505E+02 -0.78102697819E+01  0.10849042954E+02  0.38780094241E+02  0.00000000000E+00 0.  1.
</event>
<event>
 7    1  0.1910099E-015  0.9000766E+02  0.7816164E-02  0.1186339E+00
        -11   -1    0    0    0    0  0.00000000000E+00  0.00000000000E+00  0.45593999997E+02  0.45594000000E+02  0.51100000000E-03 0.  1.
         11   -1    0    0    0    0 -0.00000000000E+00 -0.00000000000E+00 -0.45593999997E+02  0.45594000000E+02  0.51100000000E-03 0. -1.
    9900012    2    1    2    0    0 -0.27910727175E+00 -0.11468622529E+01 -0.38266581538E-02  0.90007657448E+02  0.89999917726E+02 0.  0.
        -12    1    1    2    0    0  0.27910727175E+00  0.11468622529E+01  0.38266581538E-02  0.11803425518E+01  0.00000000000E+00 0.  1.
         11    1    3    3    0    0  0.25857179095E+02  0.11696277244E+02 -0.21728016455E+02  0.35742178326E+02  0.51100000000E-03 0. -1.
        -11    1    3    3    0    0  0.10250794428E+02  0.17009970873E+01  0.28732926569E+01  0.10780908517E+02  0.51100000000E-03 0.  1.
        -12    1    3    3    0    0 -0.36387080795E+02 -0.14544136585E+02  0.18850897140E+02  0.43484570606E+02  0.00000000000E+00 0.  1.
</event>
<event>
 7    1  0.1910099E-015  0.9000775E+02  0.7816164E-02  0.1186339E+00
        -11   -1    0    0    0    0  0.00000000000E+00  0.00000000000E+00  0.45593999997E+02  0.45594000000E+02  0.51100000000E-03 0.  1.
         11   -1    0    0    0    0 -0.00000000000E+00 -0.00000000000E+00 -0.45593999997E+02  0.45594000000E+02  0.51100000000E-03 0. -1.
    9900012    2    1    2    0    0 -0.33257172589E+00 -0.11225727887E+01 -0.14908547601E+00  0.90007745749E+02  0.90000007192E+02 0.  0.
        -12    1    1    2    0    0  0.33257172589E+00  0.11225727887E+01  0.14908547601E+00  0.11802542514E+01  0.00000000000E+00 0.  1.
         11    1    3    3    0    0  0.26293292958E+02 -0.18000078841E+02 -0.28718836467E+02  0.42896522717E+02  0.51100000000E-03 0. -1.
        -11    1    3    3    0    0 -0.35758374077E+01 -0.42119571538E+01  0.79375111491E+01  0.96711571043E+01  0.51100000000E-03 0.  1.
        -12    1    3    3    0    0 -0.23050027276E+02  0.21089463206E+02  0.20632239842E+02  0.37440065928E+02  0.00000000000E+00 0.  1.
</event>
<event>
 7    1  0.1910099E-015  0.9000789E+02  0.7816164E-02  0.1186339E+00
        -11   -1    0    0    0    0  0.00000000000E+00  0.00000000000E+00  0.45593999997E+02  0.45594000000E+02  0.51100000000E-03 0.  1.
         11   -1    0    0    0    0 -0.00000000000E+00 -0.00000000000E+00 -0.45593999997E+02  0.45594000000E+02  0.51100000000E-03 0. -1.
    9900012    2    1    2    0    0 -0.83051101322E+00  0.79559749138E+00 -0.26444832337E+00  0.90007891180E+02  0.90000154543E+02 0.  0.
        -12    1    1    2    0    0  0.83051101322E+00 -0.79559749138E+00  0.26444832337E+00  0.11801088200E+01  0.00000000000E+00 0.  1.
         11    1    3    3    0    0 -0.18045639722E+02 -0.31407048390E+02 -0.55488603305E+01  0.36644749321E+02  0.51100000000E-03 0. -1.
        -11    1    3    3    0    0 -0.41698708302E+01 -0.59506048606E+01  0.62949599959E+01  0.96137423804E+01  0.51100000000E-03 0.  1.
        -12    1    3    3    0    0  0.21384999539E+02  0.38153250742E+02 -0.10105479887E+01  0.43749399478E+02  0.00000000000E+00 0.  1.
</event>
<event>
 7    1  0.1910099E-015  0.9000775E+02  0.7816164E-02  0.1186339E+00
        -11   -1    0    0    0    0  0.00000000000E+00  0.00000000000E+00  0.45593999997E+02  0.45594000000E+02  0.51100000000E-03 0. -1.
         11   -1    0    0    0    0 -0.00000000000E+00 -0.00000000000E+00 -0.45593999997E+02  0.45594000000E+02  0.51100000000E-03 0.  1.
    9900012    2    1    2    0    0  0.97832205180E+00  0.52486254774E+00 -0.40048466322E+00  0.90007753121E+02  0.90000014662E+02 0.  0.
        -12    1    1    2    0    0 -0.97832205180E+00 -0.52486254774E+00  0.40048466322E+00  0.11802468795E+01  0.00000000000E+00 0.  1.
         11    1    3    3    0    0  0.63851996133E+01  0.40147486543E+01  0.65859487585E+01  0.10013176428E+02  0.51100000000E-03 0. -1.
        -11    1    3    3    0    0  0.22209137082E+02 -0.63442951880E+00 -0.34417242940E+02  0.40965776968E+02  0.51100000000E-03 0.  1.
         12    1    3    3    0    0 -0.27616014644E+02 -0.28554565878E+01  0.27430809518E+02  0.39028799725E+02  0.00000000000E+00 0. -1.
</event>
<event>
 7    1  0.1910099E-015  0.9000775E+02  0.7816164E-02  0.1186339E+00
        -11   -1    0    0    0    0  0.00000000000E+00  0.00000000000E+00  0.45593999997E+02  0.45594000000E+02  0.51100000000E-03 0.  1.
         11   -1    0    0    0    0 -0.00000000000E+00 -0.00000000000E+00 -0.45593999997E+02  0.45594000000E+02  0.51100000000E-03 0. -1.
    9900012    2    1    2    0    0 -0.98414912107E-01  0.87003279792E+00 -0.79142828928E+00  0.90007745239E+02  0.90000006676E+02 0.  0.
        -12    1    1    2    0    0  0.98414912107E-01 -0.87003279792E+00  0.79142828928E+00  0.11802547612E+01  0.00000000000E+00 0.  1.
         11    1    3    3    0    0 -0.21170542916E+02 -0.12442999262E+02 -0.32247894612E+02  0.40533280463E+02  0.51100000000E-03 0. -1.
        -11    1    3    3    0    0  0.57050399401E+00  0.10353895541E+02 -0.15718144135E+01  0.10488051702E+02  0.51100000000E-03 0.  1.
        -12    1    3    3    0    0  0.20501624010E+02  0.29591365183E+01  0.33028280736E+02  0.38986413074E+02  0.00000000000E+00 0.  1.
</event>
<event>
 7    1  0.1910099E-015  0.9000760E+02  0.7816164E-02  0.1186339E+00
        -11   -1    0    0    0    0  0.00000000000E+00  0.00000000000E+00  0.45593999997E+02  0.45594000000E+02  0.51100000000E-03 0. -1.
         11   -1    0    0    0    0 -0.00000000000E+00 -0.00000000000E+00 -0.45593999997E+02  0.45594000000E+02  0.51100000000E-03 0.  1.
    9900012    2    1    2    0    0  0.29481594472E+00  0.11429866500E+01  0.38003692125E-02  0.90007597795E+02  0.89999857286E+02 0.  0.
        -12    1    1    2    0    0 -0.29481594472E+00 -0.11429866500E+01 -0.38003692125E-02  0.11804022053E+01  0.00000000000E+00 0.  1.
         11    1    3    3    0    0  0.56292880366E+01 -0.57447133413E+01 -0.21331594564E+01  0.83211167941E+01  0.51100000000E-03 0. -1.
        -11    1    3    3    0    0  0.96671670628E+01  0.24252725740E+02 -0.31533925484E+02  0.40939434309E+02  0.51100000000E-03 0.  1.
         12    1    3    3    0    0 -0.15001639155E+02 -0.17365025749E+02  0.33670885309E+02  0.40747046692E+02  0.00000000000E+00 0. -1.
</event>
<event>
 7    1  0.1910099E-015  0.9000773E+02  0.7816164E-02  0.1186339E+00
        -11   -1    0    0    0    0  0.00000000000E+00  0.00000000000E+00  0.45593999997E+02  0.45594000000E+02  0.51100000000E-03 0.  1.
         11   -1    0    0    0    0 -0.00000000000E+00 -0.00000000000E+00 -0.45593999997E+02  0.45594000000E+02  0.51100000000E-03 0. -1.
    9900012    2    1    2    0    0 -0.61090951229E+00  0.98418143477E+00 -0.22630225768E+00  0.90007730437E+02  0.89999991679E+02 0.  0.
        -12    1    1    2    0    0  0.61090951229E+00 -0.98418143477E+00  0.22630225768E+00  0.11802695627E+01  0.00000000000E+00 0.  1.
         11    1    3    3    0    0  0.35321491961E+02 -0.10180299840E+02 -0.63004614730E+01  0.37295336360E+02  0.51100000000E-03 0. -1.
        -11    1    3    3    0    0  0.63511192999E+01 -0.17933561679E+01 -0.34901811889E+01  0.74655346559E+01  0.51100000000E-03 0.  1.
        -12    1    3    3    0    0 -0.42283520773E+02  0.12957837442E+02  0.95643404042E+01  0.45246859422E+02  0.00000000000E+00 0.  1.
</event>
<event>
 7    1  0.1910099E-015  0.9000798E+02  0.7816164E-02  0.1186339E+00
        -11   -1    0    0    0    0  0.00000000000E+00  0.00000000000E+00  0.45593999997E+02  0.45594000000E+02  0.51100000000E-03 0.  1.
         11   -1    0    0    0    0 -0.00000000000E+00 -0.00000000000E+00 -0.45593999997E+02  0.45594000000E+02  0.51100000000E-03 0. -1.
    9900012    2    1    2    0    0 -0.80966621306E+00 -0.73902171334E+00 -0.43672542204E+00  0.90007982388E+02  0.90000246956E+02 0.  0.
        -12    1    1    2    0    0  0.80966621306E+00  0.73902171334E+00  0.43672542204E+00  0.11800176116E+01  0.00000000000E+00 0.  1.
         11    1    3    3    0    0  0.86308399982E+01  0.25116698066E+01 -0.12962021307E+01  0.90818513815E+01  0.51100000000E-03 0. -1.
        -11    1    3    3    0    0  0.33663273597E+02  0.67229025821E+01  0.99880950388E+01  0.35751579701E+02  0.51100000000E-03 0.  1.
         12    1    3    3    0    0 -0.43103779808E+02 -0.99735941020E+01 -0.91286183301E+01  0.45174551306E+02  0.00000000000E+00 0. -1.
</event>
<event>
 7    1  0.1910099E-015  0.9000802E+02  0.7816164E-02  0.1186338E+00
        -11   -1    0    0    0    0  0.00000000000E+00  0.00000000000E+00  0.45593999997E+02  0.45594000000E+02  0.51100000000E-03 0. -1.
         11   -1    0    0    0    0 -0.00000000000E+00 -0.00000000000E+00 -0.45593999997E+02  0.45594000000E+02  0.51100000000E-03 0.  1.
    9900012    2    1    2    0    0 -0.49882366211E+00 -0.93413723225E+00  0.52049434080E+00  0.90008020435E+02  0.90000285504E+02 0.  0.
        -12    1    1    2    0    0  0.49882366211E+00  0.93413723225E+00 -0.52049434080E+00  0.11799795648E+01  0.00000000000E+00 0.  1.
         11    1    3    3    0    0 -0.36206156986E+02 -0.57154524175E+00  0.11873631882E+02  0.38107684291E+02  0.51100000000E-03 0. -1.
        -11    1    3    3    0    0  0.26147984459E+01  0.13254948772E+02 -0.85878965304E+01  0.16008835215E+02  0.51100000000E-03 0.  1.
        -12    1    3    3    0    0  0.33092534878E+02 -0.13617540763E+02 -0.27652410109E+01  0.35891500929E+02  0.00000000000E+00 0.  1.
</event>
<event>
 7    1  0.1910099E-015  0.9000785E+02  0.7816164E-02  0.1186339E+00
        -11   -1    0    0    0    0  0.00000000000E+00  0.00000000000E+00  0.45593999997E+02  0.45594000000E+02  0.51100000000E-03 0. -1.
         11   -1    0    0    0    0 -0.00000000000E+00 -0.00000000000E+00 -0.45593999997E+02  0.45594000000E+02  0.51100000000E-03 0.  1.
    9900012    2    1    2    0    0  0.59141886113E+00  0.20654377963E+00  0.10001644419E+01  0.90007845132E+02  0.90000107887E+02 0.  0.
        -12    1    1    2    0    0 -0.59141886113E+00 -0.20654377963E+00 -0.10001644419E+01  0.11801548683E+01  0.00000000000E+00 0.  1.
         11    1    3    3    0    0  0.13374564644E+02  0.26824630811E+02  0.29886446633E+02  0.42327762641E+02  0.51100000000E-03 0. -1.
        -11    1    3    3    0    0  0.59546064722E+01 -0.80957307901E+00 -0.53016602628E+01  0.80137599547E+01  0.51100000000E-03 0.  1.
        -12    1    3    3    0    0 -0.18737752256E+02 -0.25808513952E+02 -0.23584621928E+02  0.39666322536E+02  0.00000000000E+00 0.  1.
</event>
<event>
 7    1  0.1910099E-015  0.9000779E+02  0.7816164E-02  0.1186339E+00
        -11   -1    0    0    0    0  0.00000000000E+00  0.00000000000E+00  0.45593999997E+02  0.45594000000E+02  0.51100000000E-03 0.  1.
         11   -1    0    0    0    0 -0.00000000000E+00 -0.00000000000E+00 -0.45593999997E+02  0.45594000000E+02  0.51100000000E-03 0. -1.
    9900012    2    1    2    0    0 -0.19962446988E+00  0.95567151673E+00 -0.66313537080E+00  0.90007785402E+02  0.90000047369E+02 0.  0.
        -12    1    1    2    0    0  0.19962446988E+00 -0.95567151673E+00  0.66313537080E+00  0.11802145978E+01  0.00000000000E+00 0.  1.
         11    1    3    3    0    0 -0.29395981459E+02 -0.21244858227E+02  0.21199011875E+01  0.36331277274E+02  0.51100000000E-03 0. -1.
        -11    1    3    3    0    0 -0.34830364588E+01 -0.69226369312E+01 -0.59772434293E+01  0.97868219729E+01  0.51100000000E-03 0.  1.
        -12    1    3    3    0    0  0.32679393448E+02  0.29123166675E+02  0.31942068710E+01  0.43889686156E+02  0.00000000000E+00 0.  1.
</event>
<event>
 7    1  0.2109072E-015  0.9000769E+02  0.7816164E-02  0.1186339E+00
        -11   -1    0    0    0    0  0.00000000000E+00  0.00000000000E+00  0.45593999997E+02  0.45594000000E+02  0.51100000000E-03 0.  1.
         11   -1    0    0    0    0 -0.00000000000E+00 -0.00000000000E+00 -0.45593999997E+02  0.45594000000E+02  0.51100000000E-03 0. -1.
    9900012    2    1    2    0    0 -0.32991605044E+00  0.84160853438E+00 -0.75892835838E+00  0.90007694201E+02  0.89999954965E+02 0.  0.
        -12    1    1    2    0    0  0.32991605044E+00 -0.84160853438E+00  0.75892835838E+00  0.11803057988E+01  0.00000000000E+00 0.  1.
         11    1    3    3    0    0  0.33483437614E+01 -0.81929033551E+01  0.30077738969E+01  0.93478219606E+01  0.51100000000E-03 0. -1.
        -11    1    3    3    0    0 -0.29414969934E+01 -0.28877570001E+02  0.20593418104E+02  0.35590101478E+02  0.51100000000E-03 0.  1.
         12    1    3    3    0    0 -0.73676281843E+00  0.37912081890E+02 -0.24360120359E+02  0.45069770763E+02  0.00000000000E+00 0. -1.
</event>
<event>
 7    1  0.1910099E-015  0.9000820E+02  0.7816164E-02  0.1186338E+00
        -11   -1    0    0    0    0  0.00000000000E+00  0.00000000000E+00  0.45593999997E+02  0.45594000000E+02  0.51100000000E-03 0.  1.
         11   -1    0    0    0    0 -0.00000000000E+00 -0.00000000000E+00 -0.45593999997E+02  0.45594000000E+02  0.51100000000E-03 0. -1.
    9900012    2    1    2    0    0  0.86760593414E+00  0.68357197392E+00 -0.41461569752E+00  0.90008204731E+02  0.90000472232E+02 0.  0.
        -12    1    1    2    0    0 -0.86760593414E+00 -0.68357197392E+00  0.41461569752E+00  0.11797952692E+01  0.00000000000E+00 0.  1.
         11    1    3    3    0    0 -0.18147342139E+02 -0.22618215096E+02 -0.25006293876E+02  0.38291309909E+02  0.51100000000E-03 0. -1.
        -11    1    3    3    0    0 -0.88121369901E+01  0.11828619454E+01  0.76683673743E+00  0.89241783688E+01  0.51100000000E-03 0.  1.
        -12    1    3    3    0    0  0.27827085063E+02  0.22118925124E+02  0.23824841441E+02  0.42792716454E+02  0.00000000000E+00 0.  1.
</event>
<event>
 7    1  0.1910099E-015  0.9000762E+02  0.7816164E-02  0.1186339E+00
        -11   -1    0    0    0    0  0.00000000000E+00  0.00000000000E+00  0.45593999997E+02  0.45594000000E+02  0.51100000000E-03 0.  1.
         11   -1    0    0    0    0 -0.00000000000E+00 -0.00000000000E+00 -0.45593999997E+02  0.45594000000E+02  0.51100000000E-03 0. -1.
    9900012    2    1    2    0    0 -0.40916718634E+00 -0.10313707558E+01 -0.40267995402E+00  0.90007621007E+02  0.89999880804E+02 0.  0.
        -12    1    1    2    0    0  0.40916718634E+00  0.10313707558E+01  0.40267995402E+00  0.11803789932E+01  0.00000000000E+00 0.  1.
         11    1    3    3    0    0 -0.39441186879E+01  0.32705115288E+02  0.12853632681E+02  0.35360946135E+02  0.51100000000E-03 0. -1.
        -11    1    3    3    0    0 -0.88750271915E+00  0.84238873022E+01  0.33629426378E+01  0.91136667595E+01  0.51100000000E-03 0.  1.
        -12    1    3    3    0    0  0.44224542207E+01 -0.42160373346E+02 -0.16619255272E+02  0.45533008113E+02  0.00000000000E+00 0.  1.
</event>
<event>
 7    1  0.1910099E-015  0.9000781E+02  0.7816164E-02  0.1186339E+00
        -11   -1    0    0    0    0  0.00000000000E+00  0.00000000000E+00  0.45593999997E+02  0.45594000000E+02  0.51100000000E-03 0.  1.
         11   -1    0    0    0    0 -0.00000000000E+00 -0.00000000000E+00 -0.45593999997E+02  0.45594000000E+02  0.51100000000E-03 0. -1.
    9900012    2    1    2    0    0 -0.48325969983E+00 -0.14640076409E+00 -0.10667168211E+01  0.90007805992E+02  0.90000068231E+02 0.  0.
        -12    1    1    2    0    0  0.48325969983E+00  0.14640076409E+00  0.10667168211E+01  0.11801940085E+01  0.00000000000E+00 0.  1.
         11    1    3    3    0    0 -0.30739710983E+02  0.98969957004E+01 -0.24496177616E+02  0.40533234182E+02  0.51100000000E-03 0. -1.
        -11    1    3    3    0    0  0.30829540856E+01  0.55814729232E+01 -0.42453631235E+01  0.76603233742E+01  0.51100000000E-03 0.  1.
        -12    1    3    3    0    0  0.27173497197E+02 -0.15624869388E+02  0.27674823918E+02  0.41814248435E+02  0.00000000000E+00 0.  1.
</event>
<event>
 7    1  0.1910099E-015  0.9000773E+02  0.7816164E-02  0.1186339E+00
        -11   -1    0    0    0    0  0.00000000000E+00  0.00000000000E+00  0.45593999997E+02  0.45594000000E+02  0.51100000000E-03 0.  1.
         11   -1    0    0    0    0 -0.00000000000E+00 -0.00000000000E+00 -0.45593999997E+02  0.45594000000E+02  0.51100000000E-03 0. -1.
    9900012    2    1    2    0    0 -0.11583935416E+01 -0.14763542247E+00 -0.17136230330E+00  0.90007730177E+02  0.89999991416E+02 0.  0.
        -12    1    1    2    0    0  0.11583935416E+01  0.14763542247E+00  0.17136230330E+00  0.11802698227E+01  0.00000000000E+00 0.  1.
         11    1    3    3    0    0  0.70095510051E+01  0.57091693903E+01 -0.45582675602E+01  0.10124535734E+02  0.51100000000E-03 0. -1.
        -11    1    3    3    0    0  0.20569739532E+02  0.26942927840E+02  0.11298138137E+02  0.35730707670E+02  0.51100000000E-03 0.  1.
         12    1    3    3    0    0 -0.28737684079E+02 -0.32799732652E+02 -0.69112328806E+01  0.44152486773E+02  0.00000000000E+00 0. -1.
</event>
<event>
 7    1  0.1910099E-015  0.9000771E+02  0.7816164E-02  0.1186339E+00
        -11   -1    0    0    0    0  0.00000000000E+00  0.00000000000E+00  0.45593999997E+02  0.45594000000E+02  0.51100000000E-03 0.  1.
         11   -1    0    0    0    0 -0.00000000000E+00 -0.00000000000E+00 -0.45593999997E+02  0.45594000000E+02  0.51100000000E-03 0. -1.
    9900012    2    1    2    0    0  0.13409384199E+00 -0.54376907619E-01 -0.11713848826E+01  0.90007711667E+02  0.89999972661E+02 0.  0.
        -12    1    1    2    0    0 -0.13409384199E+00  0.54376907619E-01  0.11713848826E+01  0.11802883333E+01  0.00000000000E+00 0.  1.
         11    1    3    3    0    0 -0.84387948246E+01  0.36541963318E+01  0.11269096774E+02  0.14545066218E+02  0.51100000000E-03 0. -1.
        -11    1    3    3    0    0  0.19416620712E+02  0.49595447675E+01  0.27014799334E+02  0.33636314119E+02  0.51100000000E-03 0.  1.
         12    1    3    3    0    0 -0.10843732046E+02 -0.86681180069E+01 -0.39455280991E+02  0.41826331330E+02  0.00000000000E+00 0. -1.
</event>
<event>
 7    1  0.1910099E-015  0.9000777E+02  0.7816164E-02  0.1186339E+00
        -11   -1    0    0    0    0  0.00000000000E+00  0.00000000000E+00  0.45593999997E+02  0.45594000000E+02  0.51100000000E-03 0. -1.
         11   -1    0    0    0    0 -0.00000000000E+00 -0.00000000000E+00 -0.45593999997E+02  0.45594000000E+02  0.51100000000E-03 0.  1.
    9900012    2    1    2    0    0  0.73293714663E+00  0.58282364716E+00 -0.71837826765E+00  0.90007767989E+02  0.90000029726E+02 0.  0.
        -12    1    1    2    0    0 -0.73293714663E+00 -0.58282364716E+00  0.71837826765E+00  0.11802320111E+01  0.00000000000E+00 0.  1.
         11    1    3    3    0    0  0.80500763108E+01 -0.33371691092E+00  0.48165031363E+00  0.80713742864E+01  0.51100000000E-03 0. -1.
        -11    1    3    3    0    0 -0.27320708668E+02 -0.12452404233E+02 -0.31319799985E+02  0.43386787905E+02  0.51100000000E-03 0.  1.
         12    1    3    3    0    0  0.20003569504E+02  0.13368944791E+02  0.30119771404E+02  0.38549605798E+02  0.00000000000E+00 0. -1.
</event>
<event>
 7    1  0.1910099E-015  0.9000776E+02  0.7816164E-02  0.1186339E+00
        -11   -1    0    0    0    0  0.00000000000E+00  0.00000000000E+00  0.45593999997E+02  0.45594000000E+02  0.51100000000E-03 0.  1.
         11   -1    0    0    0    0 -0.00000000000E+00 -0.00000000000E+00 -0.45593999997E+02  0.45594000000E+02  0.51100000000E-03 0. -1.
    9900012    2    1    2    0    0  0.96266733429E+00  0.27018221858E+00 -0.62708473463E+00  0.90007761849E+02  0.90000023506E+02 0.  0.
        -12    1    1    2    0    0 -0.96266733429E+00 -0.27018221858E+00  0.62708473463E+00  0.11802381506E+01  0.00000000000E+00 0.  1.
         11    1    3    3    0    0  0.20364722632E+02 -0.26524294790E+02  0.11151951584E+02  0.35250903058E+02  0.51100000000E-03 0. -1.
        -11    1    3    3    0    0  0.73723643229E+01 -0.73933661966E+00  0.85410987932E+01  0.11307021854E+02  0.51100000000E-03 0.  1.
        -12    1    3    3    0    0 -0.26774419621E+02  0.27533813629E+02 -0.20320135111E+02  0.43449836938E+02  0.00000000000E+00 0.  1.
</event>
<event>
 7    1  0.2684069E-015  0.9000779E+02  0.7816164E-02  0.1186339E+00
        -11   -1    0    0    0    0  0.00000000000E+00  0.00000000000E+00  0.45593999997E+02  0.45594000000E+02  0.51100000000E-03 0. -1.
         11   -1    0    0    0    0 -0.00000000000E+00 -0.00000000000E+00 -0.45593999997E+02  0.45594000000E+02  0.51100000000E-03 0.  1.
    9900012    2    1    2    0    0 -0.18812306910E+00  0.26394890671E+00  0.11348301119E+01  0.90007788707E+02  0.90000050717E+02 0.  0.
        -12    1    1    2    0    0  0.18812306910E+00 -0.26394890671E+00 -0.11348301119E+01  0.11802112935E+01  0.00000000000E+00 0.  1.
         11    1    3    3    0    0 -0.60978727030E+00 -0.83648389000E+01 -0.33038146794E+01  0.90142976451E+01  0.51100000000E-03 0. -1.
        -11    1    3    3    0    0 -0.13649830216E+02  0.68215178160E+01 -0.35483470205E+02  0.38625479004E+02  0.51100000000E-03 0.  1.
         12    1    3    3    0    0  0.14071494418E+02  0.18072699907E+01  0.39922114996E+02  0.42368012058E+02  0.00000000000E+00 0. -1.
</event>
<event>
 7    1  0.1910099E-015  0.9000770E+02  0.7816164E-02  0.1186339E+00
        -11   -1    0    0    0    0  0.00000000000E+00  0.00000000000E+00  0.45593999997E+02  0.45594000000E+02  0.51100000000E-03 0.  1.
         11   -1    0    0    0    0 -0.00000000000E+00 -0.00000000000E+00 -0.45593999997E+02  0.45594000000E+02  0.51100000000E-03 0. -1.
    9900012    2    1    2    0    0  0.74011175646E+00 -0.94854285817E-01 -0.91452111653E+00  0.90007698505E+02  0.89999959325E+02 0.  0.
        -12    1    1    2    0    0 -0.74011175646E+00  0.94854285817E-01  0.91452111653E+00  0.11803014955E+01  0.00000000000E+00 0.  1.
         11    1    3    3    0    0  0.99248439763E+01 -0.57224463835E+00  0.35273771612E+01  0.10548572500E+02  0.51100000000E-03 0. -1.
        -11    1    3    3    0    0  0.57102088017E+01  0.30968049272E+02  0.20296886713E+02  0.37464518825E+02  0.51100000000E-03 0.  1.
         12    1    3    3    0    0 -0.14894941022E+02 -0.30490658920E+02 -0.24738784990E+02  0.41994607180E+02  0.00000000000E+00 0. -1.
</event>
<event>
 7    1  0.1910099E-015  0.9000778E+02  0.7816164E-02  0.1186339E+00
        -11   -1    0    0    0    0  0.00000000000E+00  0.00000000000E+00  0.45593999997E+02  0.45594000000E+02  0.51100000000E-03 0.  1.
         11   -1    0    0    0    0 -0.00000000000E+00 -0.00000000000E+00 -0.45593999997E+02  0.45594000000E+02  0.51100000000E-03 0. -1.
    9900012    2    1    2    0    0  0.91375957418E+00 -0.63506670987E+00 -0.39326973575E+00  0.90007776559E+02  0.90000038410E+02 0.  0.
        -12    1    1    2    0    0 -0.91375957418E+00  0.63506670987E+00  0.39326973575E+00  0.11802234409E+01  0.00000000000E+00 0.  1.
         11    1    3    3    0    0  0.21705776023E+02 -0.90456064955E+01 -0.31041326796E+02  0.38942620343E+02  0.51100000000E-03 0. -1.
        -11    1    3    3    0    0 -0.43620134132E+01 -0.43899215285E+01 -0.61861121558E+01  0.87502317631E+01  0.51100000000E-03 0.  1.
        -12    1    3    3    0    0 -0.16430003036E+02  0.12800461314E+02  0.36834169216E+02  0.42314924453E+02  0.00000000000E+00 0.  1.
</event>
<event>
 7    1  0.1910099E-015  0.9000769E+02  0.7816164E-02  0.1186339E+00
        -11   -1    0    0    0    0  0.00000000000E+00  0.00000000000E+00  0.45593999997E+02  0.45594000000E+02  0.51100000000E-03 0.  1.
         11   -1    0    0    0    0 -0.00000000000E+00 -0.00000000000E+00 -0.45593999997E+02  0.45594000000E+02  0.51100000000E-03 0. -1.
    9900012    2    1    2    0    0 -0.37924113502E+00  0.11167685376E+01 -0.46225322214E-01  0.90007689623E+02  0.89999950326E+02 0.  0.
        -12    1    1    2    0    0  0.37924113502E+00 -0.11167685376E+01  0.46225322214E-01  0.11803103768E+01  0.00000000000E+00 0.  1.
         11    1    3    3    0    0  0.36029923474E+02 -0.22370210647E+02  0.84119627505E+01  0.43235897441E+02  0.51100000000E-03 0. -1.
        -11    1    3    3    0    0 -0.77132590313E+01 -0.61158622708E+00  0.17515065864E+01  0.79332325177E+01  0.51100000000E-03 0.  1.
        -12    1    3    3    0    0 -0.28695905578E+02  0.24098565411E+02 -0.10209694659E+02  0.38838559665E+02  0.00000000000E+00 0.  1.
</event>
<event>
 7    1  0.1993138E-015  0.9000756E+02  0.7816164E-02  0.1186339E+00
        -11   -1    0    0    0    0  0.00000000000E+00  0.00000000000E+00  0.45593999997E+02  0.45594000000E+02  0.51100000000E-03 0.  1.
         11   -1    0    0    0    0 -0.00000000000E+00 -0.00000000000E+00 -0.45593999997E+02  0.45594000000E+02  0.51100000000E-03 0. -1.
    9900012    2    1    2    0    0 -0.16646035777E+00 -0.11163380101E+01 -0.34569948355E+00  0.90007564599E+02  0.89999823651E+02 0.  0.
        -12    1    1    2    0    0  0.16646035777E+00  0.11163380101E+01  0.34569948355E+00  0.11804354013E+01  0.00000000000E+00 0.  1.
         11    1    3    3    0    0  0.62325395313E+01 -0.20050245179E+01  0.68958618036E+01  0.95088160463E+01  0.51100000000E-03 0. -1.
        -11    1    3    3    0    0  0.27650794430E+02 -0.24975968970E+02 -0.58456740778E+01  0.37716539665E+02  0.51100000000E-03 0.  1.
         12    1    3    3    0    0 -0.34049794319E+02  0.25864655478E+02 -0.13958872093E+01  0.42782208887E+02  0.00000000000E+00 0. -1.
</event>
<event>
 7    1  0.1910099E-015  0.9000772E+02  0.7816164E-02  0.1186339E+00
        -11   -1    0    0    0    0  0.00000000000E+00  0.00000000000E+00  0.45593999997E+02  0.45594000000E+02  0.51100000000E-03 0.  1.
         11   -1    0    0    0    0 -0.00000000000E+00 -0.00000000000E+00 -0.45593999997E+02  0.45594000000E+02  0.51100000000E-03 0. -1.
    9900012    2    1    2    0    0 -0.16746883404E+00  0.11674094811E+01 -0.46642667594E-01  0.90007717726E+02  0.89999978800E+02 0.  0.
        -12    1    1    2    0    0  0.16746883404E+00 -0.11674094811E+01  0.46642667594E-01  0.11802822736E+01  0.00000000000E+00 0.  1.
         11    1    3    3    0    0  0.62228044410E+00  0.63760273341E+01  0.78619940962E+01  0.10141593018E+02  0.51100000000E-03 0. -1.
        -11    1    3    3    0    0 -0.20614308198E+01 -0.37728570741E+01  0.35829216108E+02  0.36086239409E+02  0.51100000000E-03 0.  1.
         12    1    3    3    0    0  0.12716815417E+01 -0.14357607789E+01 -0.43737852872E+02  0.43779885299E+02  0.00000000000E+00 0. -1.
</event>
<event>
 7    1  0.1910099E-015  0.9000773E+02  0.7816164E-02  0.1186339E+00
        -11   -1    0    0    0    0  0.00000000000E+00  0.00000000000E+00  0.45593999997E+02  0.45594000000E+02  0.51100000000E-03 0. -1.
         11   -1    0    0    0    0 -0.00000000000E+00 -0.00000000000E+00 -0.45593999997E+02  0.45594000000E+02  0.51100000000E-03 0.  1.
    9900012    2    1    2    0    0 -0.53616916067E+00  0.10302456860E+01 -0.21011609696E+00  0.90007732100E+02  0.89999993363E+02 0.  0.
        -12    1    1    2    0    0  0.53616916067E+00 -0.10302456860E+01  0.21011609696E+00  0.11802679003E+01  0.00000000000E+00 0.  1.
         11    1    3    3    0    0  0.27287759336E+02 -0.71008589799E+01  0.27786823323E+02  0.39587265104E+02  0.51100000000E-03 0. -1.
        -11    1    3    3    0    0  0.52249189235E+01  0.71665384869E+01 -0.60845670069E+01  0.10755510567E+02  0.51100000000E-03 0.  1.
        -12    1    3    3    0    0 -0.33048847420E+02  0.96456617898E+00 -0.21912372413E+02  0.39664956428E+02  0.00000000000E+00 0.  1.
</event>
<event>
 7    1  0.1930904E-015  0.9000726E+02  0.7816164E-02  0.1186340E+00
        -11   -1    0    0    0    0  0.00000000000E+00  0.00000000000E+00  0.45593999997E+02  0.45594000000E+02  0.51100000000E-03 0. -1.
         11   -1    0    0    0    0 -0.00000000000E+00 -0.00000000000E+00 -0.45593999997E+02  0.45594000000E+02  0.51100000000E-03 0.  1.
    9900012    2    1    2    0    0  0.10049556816E+00 -0.59681762636E+00  0.10138328492E+01  0.90007259688E+02  0.89999514715E+02 0.  0.
        -12    1    1    2    0    0 -0.10049556816E+00  0.59681762636E+00 -0.10138328492E+01  0.11807403121E+01  0.00000000000E+00 0.  1.
         11    1    3    3    0    0  0.14117362359E+01  0.84182265974E+00 -0.92347402930E+01  0.93798770317E+01  0.51100000000E-03 0. -1.
        -11    1    3    3    0    0 -0.15040855081E+02  0.11747176824E+00 -0.32440440201E+02  0.35757842243E+02  0.51100000000E-03 0.  1.
         12    1    3    3    0    0  0.13729614413E+02 -0.15561120543E+01  0.42689013343E+02  0.44869540413E+02  0.00000000000E+00 0. -1.
</event>
<event>
 7    1  0.1910099E-015  0.9000773E+02  0.7816164E-02  0.1186339E+00
        -11   -1    0    0    0    0  0.00000000000E+00  0.00000000000E+00  0.45593999997E+02  0.45594000000E+02  0.51100000000E-03 0.  1.
         11   -1    0    0    0    0 -0.00000000000E+00 -0.00000000000E+00 -0.45593999997E+02  0.45594000000E+02  0.51100000000E-03 0. -1.
    9900012    2    1    2    0    0 -0.94633871695E+00  0.34330260807E+00  0.61614282231E+00  0.90007726462E+02  0.89999987651E+02 0.  0.
        -12    1    1    2    0    0  0.94633871695E+00 -0.34330260807E+00 -0.61614282231E+00  0.11802735384E+01  0.00000000000E+00 0.  1.
         11    1    3    3    0    0 -0.26215729462E+02  0.25599213044E+02 -0.22287284422E+02  0.42887145240E+02  0.51100000000E-03 0. -1.
        -11    1    3    3    0    0  0.26963151261E+01 -0.92284342221E+01 -0.20722830937E+01  0.98350633416E+01  0.51100000000E-03 0.  1.
        -12    1    3    3    0    0  0.22573075619E+02 -0.16027476214E+02  0.24975710338E+02  0.37285517880E+02  0.00000000000E+00 0.  1.
</event>
<event>
 7    1  0.1910099E-015  0.9000775E+02  0.7816164E-02  0.1186339E+00
        -11   -1    0    0    0    0  0.00000000000E+00  0.00000000000E+00  0.45593999997E+02  0.45594000000E+02  0.51100000000E-03 0. -1.
         11   -1    0    0    0    0 -0.00000000000E+00 -0.00000000000E+00 -0.45593999997E+02  0.45594000000E+02  0.51100000000E-03 0.  1.
    9900012    2    1    2    0    0  0.96432463803E+00 -0.60243373122E+00  0.31646446851E+00  0.90007746566E+02  0.90000008021E+02 0.  0.
        -12    1    1    2    0    0 -0.96432463803E+00  0.60243373122E+00 -0.31646446851E+00  0.11802534337E+01  0.00000000000E+00 0.  1.
         11    1    3    3    0    0 -0.10573025973E+02 -0.38652385793E+01  0.24776068748E+00  0.11260121363E+02  0.51100000000E-03 0. -1.
        -11    1    3    3    0    0 -0.20249187811E+02 -0.14473464801E+02 -0.24426137171E+02  0.34873298779E+02  0.51100000000E-03 0.  1.
         12    1    3    3    0    0  0.31786538422E+02  0.17736269649E+02  0.24494840952E+02  0.43874326424E+02  0.00000000000E+00 0. -1.
</event>
<event>
 7    1  0.1910099E-015  0.9000775E+02  0.7816164E-02  0.1186339E+00
        -11   -1    0    0    0    0  0.00000000000E+00  0.00000000000E+00  0.45593999997E+02  0.45594000000E+02  0.51100000000E-03 0.  1.
         11   -1    0    0    0    0 -0.00000000000E+00 -0.00000000000E+00 -0.45593999997E+02  0.45594000000E+02  0.51100000000E-03 0. -1.
    9900012    2    1    2    0    0  0.27561385693E+00  0.11118868751E+01  0.28412354790E+00  0.90007753580E+02  0.90000015127E+02 0.  0.
        -12    1    1    2    0    0 -0.27561385693E+00 -0.11118868751E+01 -0.28412354790E+00  0.11802464198E+01  0.00000000000E+00 0.  1.
         11    1    3    3    0    0  0.55898966020E+01 -0.12932207189E+02 -0.33962208448E+02  0.36768471952E+02  0.51100000000E-03 0. -1.
        -11    1    3    3    0    0 -0.12722681130E+02  0.10056382203E+02 -0.17142920067E+01  0.16307551487E+02  0.51100000000E-03 0.  1.
        -12    1    3    3    0    0  0.74083983853E+01  0.39877118609E+01  0.35960624002E+02  0.36931730140E+02  0.00000000000E+00 0.  1.
</event>
<event>
 7    1  0.1910099E-015  0.9000685E+02  0.7816164E-02  0.1186341E+00
        -11   -1    0    0    0    0  0.00000000000E+00  0.00000000000E+00  0.45593999997E+02  0.45594000000E+02  0.51100000000E-03 0.  1.
         11   -1    0    0    0    0 -0.00000000000E+00 -0.00000000000E+00 -0.45593999997E+02  0.45594000000E+02  0.51100000000E-03 0. -1.
    9900012    2    1    2    0    0 -0.23696002448E+00 -0.13924326656E+00 -0.11487256195E+01  0.90006852554E+02  0.89999102203E+02 0.  0.
        -12    1    1    2    0    0  0.23696002448E+00  0.13924326656E+00  0.11487256195E+01  0.11811474461E+01  0.00000000000E+00 0.  1.
         11    1    3    3    0    0 -0.34460643297E+02  0.75587819214E+01  0.44845979878E+01  0.35563784106E+02  0.51100000000E-03 0. -1.
        -11    1    3    3    0    0 -0.89061670196E+01  0.32460173581E+01 -0.26685019002E+01  0.98477074653E+01  0.51100000000E-03 0.  1.
        -12    1    3    3    0    0  0.43129850292E+02 -0.10944042546E+02 -0.29648217072E+01  0.44595360983E+02  0.00000000000E+00 0.  1.
</event>
<event>
 8    1  0.1910099E-015  0.9000748E+02  0.7816164E-02  0.1186340E+00
        -11   -1    0    0    0    0  0.00000000000E+00  0.00000000000E+00  0.45593999997E+02  0.45594000000E+02  0.51100000000E-03 0. -1.
         11   -1    0    0    0    0 -0.00000000000E+00 -0.00000000000E+00 -0.45593999997E+02  0.45594000000E+02  0.51100000000E-03 0.  1.
    9900012    2    1    2    0    0 -0.93538929578E+00  0.71382262636E+00  0.95577341433E-01  0.90007478545E+02  0.89999736462E+02 0.  0.
         23    2    3    3    0    0 -0.16299048576E+02 -0.17162156762E+01  0.51049803005E+01  0.73666082319E+02  0.71638163570E+02 0.  0.
        -12    1    1    2    0    0  0.93538929578E+00 -0.71382262636E+00 -0.95577341433E-01  0.11805214546E+01  0.00000000000E+00 0.  1.
         11    1    4    4    0    0 -0.38642469749E-01  0.34039965991E+02  0.48622785011E+01  0.34385498839E+02  0.51100000000E-03 0.  1.
        -11    1    4    4    0    0 -0.16260406106E+02 -0.35756181667E+02  0.24270179942E+00  0.39280583480E+02  0.51100000000E-03 0. -1.
         12    1    3    3    0    0  0.15363659280E+02  0.24300383026E+01 -0.50094029591E+01  0.16341396226E+02  0.00000000000E+00 0. -1.
</event>
<event>
 7    1  0.1910099E-015  0.9000822E+02  0.7816164E-02  0.1186338E+00
        -11   -1    0    0    0    0  0.00000000000E+00  0.00000000000E+00  0.45593999997E+02  0.45594000000E+02  0.51100000000E-03 0.  1.
         11   -1    0    0    0    0 -0.00000000000E+00 -0.00000000000E+00 -0.45593999997E+02  0.45594000000E+02  0.51100000000E-03 0. -1.
    9900012    2    1    2    0    0  0.66374241359E+00 -0.23013548644E+00 -0.94782032774E+00  0.90008220484E+02  0.90000488193E+02 0.  0.
        -12    1    1    2    0    0 -0.66374241359E+00  0.23013548644E+00  0.94782032774E+00  0.11797795164E+01  0.00000000000E+00 0.  1.
         11    1    3    3    0    0 -0.57863413753E+01  0.10753311992E+02 -0.27570938520E+01  0.12518667345E+02  0.51100000000E-03 0. -1.
        -11    1    3    3    0    0  0.28184913237E+02 -0.21596395912E+02  0.25435411330E+02  0.43677841068E+02  0.51100000000E-03 0.  1.
         12    1    3    3    0    0 -0.21734829448E+02  0.10612948433E+02 -0.23626137805E+02  0.33811712071E+02  0.00000000000E+00 0. -1.
</event>
<event>
 7    1  0.1910099E-015  0.9000779E+02  0.7816164E-02  0.1186339E+00
        -11   -1    0    0    0    0  0.00000000000E+00  0.00000000000E+00  0.45593999997E+02  0.45594000000E+02  0.51100000000E-03 0.  1.
         11   -1    0    0    0    0 -0.00000000000E+00 -0.00000000000E+00 -0.45593999997E+02  0.45594000000E+02  0.51100000000E-03 0. -1.
    9900012    2    1    2    0    0  0.49296180075E+00  0.89153546515E+00 -0.59585562733E+00  0.90007792073E+02  0.90000054128E+02 0.  0.
        -12    1    1    2    0    0 -0.49296180075E+00 -0.89153546515E+00  0.59585562733E+00  0.11802079271E+01  0.00000000000E+00 0.  1.
         11    1    3    3    0    0 -0.15133750230E+01 -0.81097641105E+01  0.14669302896E+01  0.83791683731E+01  0.51100000000E-03 0. -1.
        -11    1    3    3    0    0 -0.22860767776E+02 -0.13876343421E+02 -0.28234124736E+02  0.38888731143E+02  0.51100000000E-03 0.  1.
         12    1    3    3    0    0  0.24867104600E+02  0.22877642996E+02  0.26171338819E+02  0.42739892557E+02  0.00000000000E+00 0. -1.
</event>
<event>
 7    1  0.1910099E-015  0.9000767E+02  0.7816164E-02  0.1186339E+00
        -11   -1    0    0    0    0  0.00000000000E+00  0.00000000000E+00  0.45593999997E+02  0.45594000000E+02  0.51100000000E-03 0.  1.
         11   -1    0    0    0    0 -0.00000000000E+00 -0.00000000000E+00 -0.45593999997E+02  0.45594000000E+02  0.51100000000E-03 0. -1.
    9900012    2    1    2    0    0 -0.52386448919E+00 -0.81807861308E+00  0.67044633800E+00  0.90007667457E+02  0.89999927867E+02 0.  0.
        -12    1    1    2    0    0  0.52386448919E+00  0.81807861308E+00 -0.67044633800E+00  0.11803325431E+01  0.00000000000E+00 0.  1.
         11    1    3    3    0    0 -0.38061972038E+02  0.15097040610E+02 -0.38014922391E+01  0.41122812333E+02  0.51100000000E-03 0. -1.
        -11    1    3    3    0    0  0.34274761691E+01  0.67401027043E+01  0.21916654767E+01  0.78727361938E+01  0.51100000000E-03 0.  1.
        -12    1    3    3    0    0  0.34110631380E+02 -0.22655221928E+02  0.22802731005E+01  0.41012118930E+02  0.00000000000E+00 0.  1.
</event>
<event>
 7    1  0.1910099E-015  0.9000775E+02  0.7816164E-02  0.1186339E+00
        -11   -1    0    0    0    0  0.00000000000E+00  0.00000000000E+00  0.45593999997E+02  0.45594000000E+02  0.51100000000E-03 0. -1.
         11   -1    0    0    0    0 -0.00000000000E+00 -0.00000000000E+00 -0.45593999997E+02  0.45594000000E+02  0.51100000000E-03 0.  1.
    9900012    2    1    2    0    0 -0.27161120025E+00 -0.15594704548E+00  0.11379369275E+01  0.90007748935E+02  0.90000010421E+02 0.  0.
        -12    1    1    2    0    0  0.27161120025E+00  0.15594704548E+00 -0.11379369275E+01  0.11802510649E+01  0.00000000000E+00 0.  1.
         11    1    3    3    0    0  0.17803535260E+01 -0.75038583037E+01  0.50394825422E+01  0.92127049596E+01  0.51100000000E-03 0. -1.
        -11    1    3    3    0    0  0.38528673010E+02  0.44174842979E+00  0.44658188339E+01  0.38789139249E+02  0.51100000000E-03 0.  1.
         12    1    3    3    0    0 -0.40580637736E+02  0.69061628284E+01 -0.83673644485E+01  0.42005904726E+02  0.00000000000E+00 0. -1.
</event>
<event>
 7    1  0.1910099E-015  0.9000734E+02  0.7816164E-02  0.1186340E+00
        -11   -1    0    0    0    0  0.00000000000E+00  0.00000000000E+00  0.45593999997E+02  0.45594000000E+02  0.51100000000E-03 0.  1.
         11   -1    0    0    0    0 -0.00000000000E+00 -0.00000000000E+00 -0.45593999997E+02  0.45594000000E+02  0.51100000000E-03 0. -1.
    9900012    2    1    2    0    0 -0.88639073153E+00 -0.53469813025E+00 -0.56777531796E+00  0.90007339409E+02  0.89999595488E+02 0.  0.
        -12    1    1    2    0    0  0.88639073153E+00  0.53469813025E+00  0.56777531796E+00  0.11806605910E+01  0.00000000000E+00 0.  1.
         11    1    3    3    0    0 -0.28259359554E+02 -0.24141609235E+02 -0.14853848511E+02  0.40025560767E+02  0.51100000000E-03 0. -1.
        -11    1    3    3    0    0 -0.58261186860E+01  0.13111561548E+01  0.72227201263E+01  0.93717914877E+01  0.51100000000E-03 0.  1.
        -12    1    3    3    0    0  0.33199087508E+02  0.22295754950E+02  0.70633530662E+01  0.40609987155E+02  0.00000000000E+00 0.  1.
</event>
<event>
 7    1  0.2978515E-015  0.9000772E+02  0.7816164E-02  0.1186339E+00
        -11   -1    0    0    0    0  0.00000000000E+00  0.00000000000E+00  0.45593999997E+02  0.45594000000E+02  0.51100000000E-03 0.  1.
         11   -1    0    0    0    0 -0.00000000000E+00 -0.00000000000E+00 -0.45593999997E+02  0.45594000000E+02  0.51100000000E-03 0. -1.
    9900012    2    1    2    0    0  0.81305726569E+00 -0.15634493858E+00 -0.84116797331E+00  0.90007716383E+02  0.89999977439E+02 0.  0.
        -12    1    1    2    0    0 -0.81305726569E+00  0.15634493858E+00  0.84116797331E+00  0.11802836169E+01  0.00000000000E+00 0.  1.
         11    1    3    3    0    0 -0.60773297243E+01  0.69023349345E+01  0.24926316532E+01  0.95283459711E+01  0.51100000000E-03 0. -1.
        -11    1    3    3    0    0  0.11038831898E+02 -0.25197600283E+02  0.30988669352E+02  0.41437573507E+02  0.51100000000E-03 0.  1.
         12    1    3    3    0    0 -0.41484449083E+01  0.18138920410E+02 -0.34322468978E+02  0.39041796905E+02  0.00000000000E+00 0. -1.
</event>
<event>
 7    1  0.1910099E-015  0.9000762E+02  0.7816164E-02  0.1186339E+00
        -11   -1    0    0    0    0  0.00000000000E+00  0.00000000000E+00  0.45593999997E+02  0.45594000000E+02  0.51100000000E-03 0.  1.
         11   -1    0    0    0    0 -0.00000000000E+00 -0.00000000000E+00 -0.45593999997E+02  0.45594000000E+02  0.51100000000E-03 0. -1.
    9900012    2    1    2    0    0 -0.98795522795E+00 -0.15149483628E+00 -0.62793264272E+00  0.90007616324E+02  0.89999876060E+02 0.  0.
        -12    1    1    2    0    0  0.98795522795E+00  0.15149483628E+00  0.62793264272E+00  0.11803836756E+01  0.00000000000E+00 0.  1.
         11    1    3    3    0    0 -0.83941985521E+01  0.54980074463E+00 -0.39203180046E+01  0.92808266717E+01  0.51100000000E-03 0. -1.
        -11    1    3    3    0    0  0.31081943858E+02  0.25690397999E+02  0.15540699818E+02  0.43215704720E+02  0.51100000000E-03 0.  1.
         12    1    3    3    0    0 -0.23675700534E+02 -0.26391693580E+02 -0.12248314456E+02  0.37511084933E+02  0.00000000000E+00 0. -1.
</event>
<event>
 7    1  0.1910099E-015  0.9000772E+02  0.7816164E-02  0.1186339E+00
        -11   -1    0    0    0    0  0.00000000000E+00  0.00000000000E+00  0.45593999997E+02  0.45594000000E+02  0.51100000000E-03 0. -1.
         11   -1    0    0    0    0 -0.00000000000E+00 -0.00000000000E+00 -0.45593999997E+02  0.45594000000E+02  0.51100000000E-03 0.  1.
    9900012    2    1    2    0    0  0.80264977455E+00 -0.53073851465E+00  0.68347329462E+00  0.90007717925E+02  0.89999979002E+02 0.  0.
        -12    1    1    2    0    0 -0.80264977455E+00  0.53073851465E+00 -0.68347329462E+00  0.11802820747E+01  0.00000000000E+00 0.  1.
         11    1    3    3    0    0  0.70606568428E+01  0.33488499780E+01 -0.76491220616E+01  0.10935114988E+02  0.51100000000E-03 0. -1.
        -11    1    3    3    0    0 -0.10661240078E+02  0.18565989497E+02 -0.28542426605E+02  0.35679519654E+02  0.51100000000E-03 0.  1.
         12    1    3    3    0    0  0.44032330095E+01 -0.22445577989E+02  0.36875021961E+02  0.43393083283E+02  0.00000000000E+00 0. -1.
</event>
<event>
 7    1  0.1910099E-015  0.9000814E+02  0.7816164E-02  0.1186338E+00
        -11   -1    0    0    0    0  0.00000000000E+00  0.00000000000E+00  0.45593999997E+02  0.45594000000E+02  0.51100000000E-03 0.  1.
         11   -1    0    0    0    0 -0.00000000000E+00 -0.00000000000E+00 -0.45593999997E+02  0.45594000000E+02  0.51100000000E-03 0. -1.
    9900012    2    1    2    0    0 -0.10462531620E+01  0.34887027258E+00 -0.41919586970E+00  0.90008135040E+02  0.90000401622E+02 0.  0.
        -12    1    1    2    0    0  0.10462531620E+01 -0.34887027258E+00  0.41919586970E+00  0.11798649597E+01  0.00000000000E+00 0.  1.
         11    1    3    3    0    0  0.26410011651E+02  0.14801780903E+02 -0.12767470987E+02  0.32857111087E+02  0.51100000000E-03 0. -1.
        -11    1    3    3    0    0  0.64120110553E+00  0.10185373140E+01 -0.14970321979E+02  0.15018625021E+02  0.51100000000E-03 0.  1.
        -12    1    3    3    0    0 -0.28097465918E+02 -0.15471447945E+02  0.27318597096E+02  0.42132398933E+02  0.00000000000E+00 0.  1.
</event>
<event>
 7    1  0.1910099E-015  0.9000769E+02  0.7816164E-02  0.1186339E+00
        -11   -1    0    0    0    0  0.00000000000E+00  0.00000000000E+00  0.45593999997E+02  0.45594000000E+02  0.51100000000E-03 0.  1.
         11   -1    0    0    0    0 -0.00000000000E+00 -0.00000000000E+00 -0.45593999997E+02  0.45594000000E+02  0.51100000000E-03 0. -1.
    9900012    2    1    2    0    0 -0.97262462654E+00 -0.66647710118E+00 -0.54207483826E-01  0.90007691209E+02  0.89999951933E+02 0.  0.
        -12    1    1    2    0    0  0.97262462654E+00  0.66647710118E+00  0.54207483826E-01  0.11803087909E+01  0.00000000000E+00 0.  1.
         11    1    3    3    0    0  0.30980626903E+02 -0.99290502695E+01 -0.16313469301E+02  0.36393880852E+02  0.51100000000E-03 0. -1.
        -11    1    3    3    0    0 -0.18644876342E+01 -0.80842010478E+01 -0.77809829851E+01  0.11374283151E+02  0.51100000000E-03 0.  1.
        -12    1    3    3    0    0 -0.30088763895E+02  0.17346774216E+02  0.24040244803E+02  0.42239527206E+02  0.00000000000E+00 0.  1.
</event>
<event>
 7    1  0.1910099E-015  0.9000783E+02  0.7816164E-02  0.1186339E+00
        -11   -1    0    0    0    0  0.00000000000E+00  0.00000000000E+00  0.45593999997E+02  0.45594000000E+02  0.51100000000E-03 0. -1.
         11   -1    0    0    0    0 -0.00000000000E+00 -0.00000000000E+00 -0.45593999997E+02  0.45594000000E+02  0.51100000000E-03 0.  1.
    9900012    2    1    2    0    0 -0.34797263513E+00 -0.21597785063E+00  0.11068272050E+01  0.90007831432E+02  0.90000094007E+02 0.  0.
        -12    1    1    2    0    0  0.34797263513E+00  0.21597785063E+00 -0.11068272050E+01  0.11801685679E+01  0.00000000000E+00 0.  1.
         11    1    3    3    0    0 -0.11347653579E+02 -0.44650186219E+00  0.35233414205E+02  0.37018401944E+02  0.51100000000E-03 0. -1.
        -11    1    3    3    0    0 -0.85133929838E+01 -0.85129805867E+01  0.76873312837E+00  0.12063981492E+02  0.51100000000E-03 0.  1.
        -12    1    3    3    0    0  0.19513073928E+02  0.87435045983E+01 -0.34895320129E+02  0.40925447996E+02  0.00000000000E+00 0.  1.
</event>
<event>
 7    1  0.1910099E-015  0.9000777E+02  0.7816164E-02  0.1186339E+00
        -11   -1    0    0    0    0  0.00000000000E+00  0.00000000000E+00  0.45593999997E+02  0.45594000000E+02  0.51100000000E-03 0.  1.
         11   -1    0    0    0    0 -0.00000000000E+00 -0.00000000000E+00 -0.45593999997E+02  0.45594000000E+02  0.51100000000E-03 0. -1.
    9900012    2    1    2    0    0  0.94644670805E+00 -0.70452616251E+00 -0.28628548589E-01  0.90007772023E+02  0.90000033813E+02 0.  0.
        -12    1    1    2    0    0 -0.94644670805E+00  0.70452616251E+00  0.28628548589E-01  0.11802279774E+01  0.00000000000E+00 0.  1.
         11    1    3    3    0    0  0.42614042332E+00  0.96830425952E+01 -0.77933570503E+00  0.97236965174E+01  0.51100000000E-03 0. -1.
        -11    1    3    3    0    0  0.38033213750E+02  0.71993632772E+01  0.27399791921E+01  0.38805459229E+02  0.51100000000E-03 0.  1.
         12    1    3    3    0    0 -0.37512907466E+02 -0.17586932035E+02 -0.19892720357E+01  0.41478616276E+02  0.00000000000E+00 0. -1.
</event>
<event>
 7    1  0.1910099E-015  0.9000742E+02  0.7816164E-02  0.1186340E+00
        -11   -1    0    0    0    0  0.00000000000E+00  0.00000000000E+00  0.45593999997E+02  0.45594000000E+02  0.51100000000E-03 0.  1.
         11   -1    0    0    0    0 -0.00000000000E+00 -0.00000000000E+00 -0.45593999997E+02  0.45594000000E+02  0.51100000000E-03 0. -1.
    9900012    2    1    2    0    0 -0.59652531351E+00 -0.93192445148E+00 -0.41164817626E+00  0.90007415461E+02  0.89999672544E+02 0.  0.
        -12    1    1    2    0    0  0.59652531351E+00  0.93192445148E+00  0.41164817626E+00  0.11805845391E+01  0.00000000000E+00 0.  1.
         11    1    3    3    0    0  0.29665899766E+00 -0.30281439581E+02 -0.26875634988E+02  0.40488928684E+02  0.51100000000E-03 0. -1.
        -11    1    3    3    0    0  0.52308813293E+01 -0.44846686719E+01  0.15641449784E+01  0.70654739651E+01  0.51100000000E-03 0.  1.
        -12    1    3    3    0    0 -0.61240656404E+01  0.33834183802E+02  0.24899841833E+02  0.42453012812E+02  0.00000000000E+00 0.  1.
</event>
<event>
 7    1  0.1910099E-015  0.9000772E+02  0.7816164E-02  0.1186339E+00
        -11   -1    0    0    0    0  0.00000000000E+00  0.00000000000E+00  0.45593999997E+02  0.45594000000E+02  0.51100000000E-03 0.  1.
         11   -1    0    0    0    0 -0.00000000000E+00 -0.00000000000E+00 -0.45593999997E+02  0.45594000000E+02  0.51100000000E-03 0. -1.
    9900012    2    1    2    0    0 -0.14367983307E+00 -0.92633051326E+00 -0.71717045593E+00  0.90007718010E+02  0.89999979087E+02 0.  0.
        -12    1    1    2    0    0  0.14367983307E+00  0.92633051326E+00  0.71717045593E+00  0.11802819905E+01  0.00000000000E+00 0.  1.
         11    1    3    3    0    0 -0.10584234715E+00 -0.11078799358E+02  0.20108825085E+01  0.11260312897E+02  0.51100000000E-03 0. -1.
        -11    1    3    3    0    0 -0.26203368575E+02  0.12212716751E+02  0.26673556729E+02  0.39335042951E+02  0.51100000000E-03 0.  1.
         12    1    3    3    0    0  0.26165531089E+02 -0.20602479062E+01 -0.29401609694E+02  0.39412362162E+02  0.00000000000E+00 0. -1.
</event>
<event>
 7    1  0.1910099E-015  0.9000797E+02  0.7816164E-02  0.1186339E+00
        -11   -1    0    0    0    0  0.00000000000E+00  0.00000000000E+00  0.45593999997E+02  0.45594000000E+02  0.51100000000E-03 0.  1.
         11   -1    0    0    0    0 -0.00000000000E+00 -0.00000000000E+00 -0.45593999997E+02  0.45594000000E+02  0.51100000000E-03 0. -1.
    9900012    2    1    2    0    0  0.21805005422E+00 -0.10527368393E+01 -0.48649807086E+00  0.90007965656E+02  0.90000230003E+02 0.  0.
        -12    1    1    2    0    0 -0.21805005422E+00  0.10527368393E+01  0.48649807086E+00  0.11800343435E+01  0.00000000000E+00 0.  1.
         11    1    3    3    0    0 -0.33133637323E+02  0.22170077574E+02  0.11314512353E+02  0.41441144434E+02  0.51100000000E-03 0. -1.
        -11    1    3    3    0    0  0.56081802770E+01  0.50149752520E+01 -0.20301501251E+01  0.77925074648E+01  0.51100000000E-03 0.  1.
        -12    1    3    3    0    0  0.27743507101E+02 -0.28237789666E+02 -0.97708602992E+01  0.40774313758E+02  0.00000000000E+00 0.  1.
</event>
<event>
 7    1  0.1910099E-015  0.9000781E+02  0.7816164E-02  0.1186339E+00
        -11   -1    0    0    0    0  0.00000000000E+00  0.00000000000E+00  0.45593999997E+02  0.45594000000E+02  0.51100000000E-03 0.  1.
         11   -1    0    0    0    0 -0.00000000000E+00 -0.00000000000E+00 -0.45593999997E+02  0.45594000000E+02  0.51100000000E-03 0. -1.
    9900012    2    1    2    0    0 -0.10406717365E+01 -0.52239193594E+00 -0.19226388462E+00  0.90007806626E+02  0.90000068874E+02 0.  0.
        -12    1    1    2    0    0  0.10406717365E+01  0.52239193594E+00  0.19226388462E+00  0.11801933737E+01  0.00000000000E+00 0.  1.
         11    1    3    3    0    0 -0.37015406165E+02 -0.22129395099E+01 -0.12771729220E+02  0.39219312364E+02  0.51100000000E-03 0. -1.
        -11    1    3    3    0    0 -0.39402727232E+01 -0.66319840033E+01  0.53278550085E+01  0.93752333414E+01  0.51100000000E-03 0.  1.
        -12    1    3    3    0    0  0.39915007151E+02  0.83225315773E+01  0.72516103270E+01  0.41413260921E+02  0.00000000000E+00 0.  1.
</event>
<event>
 7    1  0.1910099E-015  0.9000763E+02  0.7816164E-02  0.1186339E+00
        -11   -1    0    0    0    0  0.00000000000E+00  0.00000000000E+00  0.45593999997E+02  0.45594000000E+02  0.51100000000E-03 0.  1.
         11   -1    0    0    0    0 -0.00000000000E+00 -0.00000000000E+00 -0.45593999997E+02  0.45594000000E+02  0.51100000000E-03 0. -1.
    9900012    2    1    2    0    0 -0.61232931973E+00  0.30300609988E+00 -0.96255165005E+00  0.90007633289E+02  0.89999893249E+02 0.  0.
        -12    1    1    2    0    0  0.61232931973E+00 -0.30300609988E+00  0.96255165005E+00  0.11803667106E+01  0.00000000000E+00 0.  1.
         11    1    3    3    0    0 -0.61879023295E+01  0.21390641488E+01 -0.65717151220E+01  0.92764848179E+01  0.51100000000E-03 0. -1.
        -11    1    3    3    0    0  0.96917213147E+01 -0.40459094870E+02  0.48136732447E+01  0.41881252012E+02  0.51100000000E-03 0.  1.
         12    1    3    3    0    0 -0.41161483050E+01  0.38623036821E+02  0.79549022721E+00  0.38849896459E+02  0.00000000000E+00 0. -1.
</event>
<event>
 7    1  0.1910099E-015  0.9000779E+02  0.7816164E-02  0.1186339E+00
        -11   -1    0    0    0    0  0.00000000000E+00  0.00000000000E+00  0.45593999997E+02  0.45594000000E+02  0.51100000000E-03 0.  1.
         11   -1    0    0    0    0 -0.00000000000E+00 -0.00000000000E+00 -0.45593999997E+02  0.45594000000E+02  0.51100000000E-03 0. -1.
    9900012    2    1    2    0    0 -0.84780676038E+00  0.78766303919E+00 -0.23174144253E+00  0.90007790924E+02  0.90000052964E+02 0.  0.
        -12    1    1    2    0    0  0.84780676038E+00 -0.78766303919E+00  0.23174144253E+00  0.11802090757E+01  0.00000000000E+00 0.  1.
         11    1    3    3    0    0  0.10628144124E+02  0.32537542671E+02 -0.26145465512E+02  0.43072433152E+02  0.51100000000E-03 0. -1.
        -11    1    3    3    0    0 -0.21125911712E-01 -0.12427960639E+01  0.11048471996E+02  0.11118170806E+02  0.51100000000E-03 0.  1.
        -12    1    3    3    0    0 -0.11454824973E+02 -0.30507083568E+02  0.14865252073E+02  0.35817186966E+02  0.00000000000E+00 0.  1.
</event>
<event>
 7    1  0.1910099E-015  0.9000781E+02  0.7816164E-02  0.1186339E+00
        -11   -1    0    0    0    0  0.00000000000E+00  0.00000000000E+00  0.45593999997E+02  0.45594000000E+02  0.51100000000E-03 0.  1.
         11   -1    0    0    0    0 -0.00000000000E+00 -0.00000000000E+00 -0.45593999997E+02  0.45594000000E+02  0.51100000000E-03 0. -1.
    9900012    2    1    2    0    0  0.11550566369E+01 -0.85001103112E-01 -0.22685843618E+00  0.90007811129E+02  0.90000073435E+02 0.  0.
        -12    1    1    2    0    0 -0.11550566369E+01  0.85001103113E-01  0.22685843618E+00  0.11801888714E+01  0.00000000000E+00 0.  1.
         11    1    3    3    0    0  0.39218514945E+01  0.88869371211E+01 -0.67945637208E+00  0.97375680619E+01  0.51100000000E-03 0. -1.
        -11    1    3    3    0    0 -0.29919936196E+02 -0.22870443376E+02  0.21354161577E+02  0.43292724320E+02  0.51100000000E-03 0.  1.
         12    1    3    3    0    0  0.27153141338E+02  0.13898505151E+02 -0.20901563641E+02  0.36977518746E+02  0.00000000000E+00 0. -1.
</event>
<event>
 7    1  0.1910099E-015  0.9000771E+02  0.7816164E-02  0.1186339E+00
        -11   -1    0    0    0    0  0.00000000000E+00  0.00000000000E+00  0.45593999997E+02  0.45594000000E+02  0.51100000000E-03 0.  1.
         11   -1    0    0    0    0 -0.00000000000E+00 -0.00000000000E+00 -0.45593999997E+02  0.45594000000E+02  0.51100000000E-03 0. -1.
    9900012    2    1    2    0    0  0.81647682345E+00  0.81858348425E+00 -0.23744552500E+00  0.90007706095E+02  0.89999967016E+02 0.  0.
        -12    1    1    2    0    0 -0.81647682345E+00 -0.81858348425E+00  0.23744552500E+00  0.11802939046E+01  0.00000000000E+00 0.  1.
         11    1    3    3    0    0 -0.25653363117E+01 -0.43977990249E+01 -0.88606550099E+01  0.10219236474E+02  0.51100000000E-03 0. -1.
        -11    1    3    3    0    0  0.14423958771E+02 -0.29020930820E+02  0.24340868270E+02  0.40530764620E+02  0.51100000000E-03 0.  1.
         12    1    3    3    0    0 -0.11042145636E+02  0.34237313329E+02 -0.15717658786E+02  0.39257705001E+02  0.00000000000E+00 0. -1.
</event>
<event>
 7    1  0.1910099E-015  0.9000783E+02  0.7816164E-02  0.1186339E+00
        -11   -1    0    0    0    0  0.00000000000E+00  0.00000000000E+00  0.45593999997E+02  0.45594000000E+02  0.51100000000E-03 0. -1.
         11   -1    0    0    0    0 -0.00000000000E+00 -0.00000000000E+00 -0.45593999997E+02  0.45594000000E+02  0.51100000000E-03 0.  1.
    9900012    2    1    2    0    0  0.25242245440E+00  0.11242680578E+01 -0.25516203300E+00  0.90007829070E+02  0.90000091614E+02 0.  0.
        -12    1    1    2    0    0 -0.25242245440E+00 -0.11242680578E+01  0.25516203300E+00  0.11801709301E+01  0.00000000000E+00 0.  1.
         11    1    3    3    0    0 -0.79246870470E+01 -0.41177889819E+01 -0.50011396627E+01  0.10235636232E+02  0.51100000000E-03 0. -1.
        -11    1    3    3    0    0  0.59520535751E+01 -0.36728236412E+02  0.61868769522E+01  0.37718267966E+02  0.51100000000E-03 0.  1.
         12    1    3    3    0    0  0.22250559263E+01  0.41970293451E+02 -0.14408993225E+01  0.42053924872E+02  0.00000000000E+00 0. -1.
</event>
<event>
 7    1  0.1910099E-015  0.9000774E+02  0.7816164E-02  0.1186339E+00
        -11   -1    0    0    0    0  0.00000000000E+00  0.00000000000E+00  0.45593999997E+02  0.45594000000E+02  0.51100000000E-03 0. -1.
         11   -1    0    0    0    0 -0.00000000000E+00 -0.00000000000E+00 -0.45593999997E+02  0.45594000000E+02  0.51100000000E-03 0.  1.
    9900012    2    1    2    0    0 -0.49466565780E+00 -0.10681713302E+01  0.85562070606E-01  0.90007743684E+02  0.90000005101E+02 0.  0.
        -12    1    1    2    0    0  0.49466565780E+00  0.10681713302E+01 -0.85562070606E-01  0.11802563161E+01  0.00000000000E+00 0.  1.
         11    1    3    3    0    0 -0.41657158680E+01 -0.11326674465E+02  0.35220279141E+02  0.37230562797E+02  0.51100000000E-03 0. -1.
        -11    1    3    3    0    0 -0.16073860450E+01  0.13334710015E+01  0.80750122833E+01  0.83407228971E+01  0.51100000000E-03 0.  1.
        -12    1    3    3    0    0  0.52784362552E+01  0.89250321333E+01 -0.43209729354E+02  0.44436457990E+02  0.00000000000E+00 0.  1.
</event>
<event>
 7    1  0.2653832E-015  0.9000777E+02  0.7816164E-02  0.1186339E+00
        -11   -1    0    0    0    0  0.00000000000E+00  0.00000000000E+00  0.45593999997E+02  0.45594000000E+02  0.51100000000E-03 0.  1.
         11   -1    0    0    0    0 -0.00000000000E+00 -0.00000000000E+00 -0.45593999997E+02  0.45594000000E+02  0.51100000000E-03 0. -1.
    9900012    2    1    2    0    0 -0.67486357641E+00  0.23689523706E+00 -0.93881746984E+00  0.90007771869E+02  0.90000033657E+02 0.  0.
        -12    1    1    2    0    0  0.67486357641E+00 -0.23689523706E+00  0.93881746984E+00  0.11802281312E+01  0.00000000000E+00 0.  1.
         11    1    3    3    0    0 -0.65455046351E+01  0.34438055384E+01 -0.63087660102E+01  0.97213145380E+01  0.51100000000E-03 0. -1.
        -11    1    3    3    0    0 -0.11272795147E+02 -0.37494572666E+02  0.12892842546E+02  0.41220677809E+02  0.51100000000E-03 0.  1.
         12    1    3    3    0    0  0.17143436206E+02  0.34287662365E+02 -0.75228940058E+01  0.39065779522E+02  0.00000000000E+00 0. -1.
</event>
<event>
 7    1  0.1910099E-015  0.9000776E+02  0.7816164E-02  0.1186339E+00
        -11   -1    0    0    0    0  0.00000000000E+00  0.00000000000E+00  0.45593999997E+02  0.45594000000E+02  0.51100000000E-03 0.  1.
         11   -1    0    0    0    0 -0.00000000000E+00 -0.00000000000E+00 -0.45593999997E+02  0.45594000000E+02  0.51100000000E-03 0. -1.
    9900012    2    1    2    0    0 -0.68087473389E+00 -0.61511448153E+00  0.74229333495E+00  0.90007764590E+02  0.90000026282E+02 0.  0.
        -12    1    1    2    0    0  0.68087473389E+00  0.61511448153E+00 -0.74229333495E+00  0.11802354103E+01  0.00000000000E+00 0.  1.
         11    1    3    3    0    0  0.26298984089E+02 -0.14915103511E+02 -0.23727267322E+02  0.38432799686E+02  0.51100000000E-03 0. -1.
        -11    1    3    3    0    0  0.62542371294E+01 -0.34949850054E+01  0.11752356317E+01  0.72602741897E+01  0.51100000000E-03 0.  1.
        -12    1    3    3    0    0 -0.33234095953E+02  0.17794974035E+02  0.23294325025E+02  0.44314690714E+02  0.00000000000E+00 0.  1.
</event>
<event>
 7    1  0.1910099E-015  0.9000773E+02  0.7816164E-02  0.1186339E+00
        -11   -1    0    0    0    0  0.00000000000E+00  0.00000000000E+00  0.45593999997E+02  0.45594000000E+02  0.51100000000E-03 0.  1.
         11   -1    0    0    0    0 -0.00000000000E+00 -0.00000000000E+00 -0.45593999997E+02  0.45594000000E+02  0.51100000000E-03 0. -1.
    9900012    2    1    2    0    0 -0.46545559311E+00 -0.46865908500E+00 -0.97813393784E+00  0.90007730434E+02  0.89999991676E+02 0.  0.
        -12    1    1    2    0    0  0.46545559311E+00  0.46865908500E+00  0.97813393784E+00  0.11802695656E+01  0.00000000000E+00 0.  1.
         11    1    3    3    0    0  0.35469339544E+02  0.35453591482E+01  0.21715535618E+02  0.41739766490E+02  0.51100000000E-03 0. -1.
        -11    1    3    3    0    0 -0.36455839787E+01  0.74797646986E+01 -0.41244782803E+01  0.92870061827E+01  0.51100000000E-03 0.  1.
        -12    1    3    3    0    0 -0.32289211159E+02 -0.11493782932E+02 -0.18569191276E+02  0.38980957761E+02  0.00000000000E+00 0.  1.
</event>
<event>
 7    1  0.1910099E-015  0.9000776E+02  0.7816164E-02  0.1186339E+00
        -11   -1    0    0    0    0  0.00000000000E+00  0.00000000000E+00  0.45593999997E+02  0.45594000000E+02  0.51100000000E-03 0. -1.
         11   -1    0    0    0    0 -0.00000000000E+00 -0.00000000000E+00 -0.45593999997E+02  0.45594000000E+02  0.51100000000E-03 0.  1.
    9900012    2    1    2    0    0 -0.65335568879E+00  0.27969454675E+00  0.94226443040E+00  0.90007760638E+02  0.90000022278E+02 0.  0.
        -12    1    1    2    0    0  0.65335568879E+00 -0.27969454675E+00 -0.94226443040E+00  0.11802393623E+01  0.00000000000E+00 0.  1.
         11    1    3    3    0    0 -0.42801364600E+01 -0.95799600380E+01 -0.20331470970E+01  0.10687791625E+02  0.51100000000E-03 0. -1.
        -11    1    3    3    0    0 -0.63233896261E+01  0.28721700974E+02 -0.28727475323E+02  0.41111910706E+02  0.51100000000E-03 0.  1.
         12    1    3    3    0    0  0.99501703973E+01 -0.18862046390E+02  0.31702886850E+02  0.38208058307E+02  0.00000000000E+00 0. -1.
</event>
<event>
 7    1  0.1910099E-015  0.9000750E+02  0.7816164E-02  0.1186340E+00
        -11   -1    0    0    0    0  0.00000000000E+00  0.00000000000E+00  0.45593999997E+02  0.45594000000E+02  0.51100000000E-03 0.  1.
         11   -1    0    0    0    0 -0.00000000000E+00 -0.00000000000E+00 -0.45593999997E+02  0.45594000000E+02  0.51100000000E-03 0. -1.
    9900012    2    1    2    0    0  0.35735441486E+00 -0.99633814282E+00 -0.52267168301E+00  0.90007501139E+02  0.89999759354E+02 0.  0.
        -12    1    1    2    0    0 -0.35735441486E+00  0.99633814282E+00  0.52267168301E+00  0.11804988610E+01  0.00000000000E+00 0.  1.
         11    1    3    3    0    0  0.27620856329E+02 -0.21862967512E+02 -0.46974416079E+01  0.35538247153E+02  0.51100000000E-03 0. -1.
        -11    1    3    3    0    0 -0.44620950829E+01 -0.12255053913E+02 -0.35633940178E+01  0.13520148524E+02  0.51100000000E-03 0.  1.
        -12    1    3    3    0    0 -0.22801406832E+02  0.33121683282E+02  0.77381639427E+01  0.40949105462E+02  0.00000000000E+00 0.  1.
</event>
<event>
 7    1  0.1910099E-015  0.9000758E+02  0.7816164E-02  0.1186339E+00
        -11   -1    0    0    0    0  0.00000000000E+00  0.00000000000E+00  0.45593999997E+02  0.45594000000E+02  0.51100000000E-03 0.  1.
         11   -1    0    0    0    0 -0.00000000000E+00 -0.00000000000E+00 -0.45593999997E+02  0.45594000000E+02  0.51100000000E-03 0. -1.
    9900012    2    1    2    0    0 -0.44428420977E-01 -0.94577596579E+00 -0.70493687383E+00  0.90007575475E+02  0.89999834672E+02 0.  0.
        -12    1    1    2    0    0  0.44428420977E-01  0.94577596579E+00  0.70493687383E+00  0.11804245245E+01  0.00000000000E+00 0.  1.
         11    1    3    3    0    0 -0.32827732216E+02  0.18705189615E+02 -0.54145260191E+01  0.38168851348E+02  0.51100000000E-03 0. -1.
        -11    1    3    3    0    0 -0.48057419767E+01 -0.29358217581E+01  0.88532665234E+01  0.10492594233E+02  0.51100000000E-03 0.  1.
        -12    1    3    3    0    0  0.37589045772E+02 -0.16715143823E+02 -0.41436773781E+01  0.41346129894E+02  0.00000000000E+00 0.  1.
</event>
<event>
 7    1  0.1924347E-015  0.9000765E+02  0.7816164E-02  0.1186339E+00
        -11   -1    0    0    0    0  0.00000000000E+00  0.00000000000E+00  0.45593999997E+02  0.45594000000E+02  0.51100000000E-03 0. -1.
         11   -1    0    0    0    0 -0.00000000000E+00 -0.00000000000E+00 -0.45593999997E+02  0.45594000000E+02  0.51100000000E-03 0.  1.
    9900012    2    1    2    0    0  0.84549043829E+00 -0.21762546562E+00  0.79436772149E+00  0.90007646239E+02  0.89999906369E+02 0.  0.
        -12    1    1    2    0    0 -0.84549043829E+00  0.21762546562E+00 -0.79436772149E+00  0.11803537612E+01  0.00000000000E+00 0.  1.
         11    1    3    3    0    0 -0.55861754394E+01 -0.41275668933E+01 -0.53180857704E+01  0.87478112131E+01  0.51100000000E-03 0. -1.
        -11    1    3    3    0    0 -0.16504465700E+02  0.21487492462E+02 -0.26353017805E+02  0.37796709751E+02  0.51100000000E-03 0.  1.
         12    1    3    3    0    0  0.22936131577E+02 -0.17577551034E+02  0.32465471297E+02  0.43463125274E+02  0.00000000000E+00 0. -1.
</event>
<event>
 7    1  0.1910099E-015  0.9000771E+02  0.7816164E-02  0.1186339E+00
        -11   -1    0    0    0    0  0.00000000000E+00  0.00000000000E+00  0.45593999997E+02  0.45594000000E+02  0.51100000000E-03 0.  1.
         11   -1    0    0    0    0 -0.00000000000E+00 -0.00000000000E+00 -0.45593999997E+02  0.45594000000E+02  0.51100000000E-03 0. -1.
    9900012    2    1    2    0    0 -0.11727890819E+01 -0.12280360321E+00 -0.50643737564E-01  0.90007712008E+02  0.89999973007E+02 0.  0.
        -12    1    1    2    0    0  0.11727890819E+01  0.12280360321E+00  0.50643737564E-01  0.11802879918E+01  0.00000000000E+00 0.  1.
         11    1    3    3    0    0 -0.13152708491E+02  0.35514663627E+02  0.88833224795E+01  0.38899852079E+02  0.51100000000E-03 0. -1.
        -11    1    3    3    0    0 -0.98643720218E+01 -0.18082519760E+01 -0.11629876691E+01  0.10095947265E+02  0.51100000000E-03 0.  1.
        -12    1    3    3    0    0  0.21844291431E+02 -0.33829215254E+02 -0.77709785479E+01  0.41011912665E+02  0.00000000000E+00 0.  1.
</event>
<event>
 7    1  0.1910099E-015  0.9000767E+02  0.7816164E-02  0.1186339E+00
        -11   -1    0    0    0    0  0.00000000000E+00  0.00000000000E+00  0.45593999997E+02  0.45594000000E+02  0.51100000000E-03 0. -1.
         11   -1    0    0    0    0 -0.00000000000E+00 -0.00000000000E+00 -0.45593999997E+02  0.45594000000E+02  0.51100000000E-03 0.  1.
    9900012    2    1    2    0    0  0.10237484682E+01  0.80985346615E-01 -0.58185916333E+00  0.90007669691E+02  0.89999930131E+02 0.  0.
        -12    1    1    2    0    0 -0.10237484682E+01 -0.80985346615E-01  0.58185916333E+00  0.11803303091E+01  0.00000000000E+00 0.  1.
         11    1    3    3    0    0  0.37873528718E+01  0.27056426183E+02  0.22247348958E+02  0.35232637930E+02  0.51100000000E-03 0. -1.
        -11    1    3    3    0    0  0.36391845666E+01  0.58571236777E+01  0.70940966994E+01  0.98932184008E+01  0.51100000000E-03 0.  1.
        -12    1    3    3    0    0 -0.64027889702E+01 -0.32832564514E+02 -0.29923304820E+02  0.44881813361E+02  0.00000000000E+00 0.  1.
</event>
<event>
 7    1  0.1910099E-015  0.9000778E+02  0.7816164E-02  0.1186339E+00
        -11   -1    0    0    0    0  0.00000000000E+00  0.00000000000E+00  0.45593999997E+02  0.45594000000E+02  0.51100000000E-03 0.  1.
         11   -1    0    0    0    0 -0.00000000000E+00 -0.00000000000E+00 -0.45593999997E+02  0.45594000000E+02  0.51100000000E-03 0. -1.
    9900012    2    1    2    0    0 -0.66361694743E+00  0.60455730061E+00 -0.76617998831E+00  0.90007784445E+02  0.90000046399E+02 0.  0.
        -12    1    1    2    0    0  0.66361694743E+00 -0.60455730061E+00  0.76617998831E+00  0.11802155554E+01  0.00000000000E+00 0.  1.
         11    1    3    3    0    0 -0.28781129788E+02 -0.14798956461E+02 -0.28934778126E+02  0.43411794823E+02  0.51100000000E-03 0. -1.
        -11    1    3    3    0    0  0.37253075794E+01  0.66528448425E+01 -0.87153087999E+00  0.76744919959E+01  0.51100000000E-03 0.  1.
        -12    1    3    3    0    0  0.24392205261E+02  0.87506689195E+01  0.29040129018E+02  0.38921497626E+02  0.00000000000E+00 0.  1.
</event>
<event>
 7    1  0.1910099E-015  0.9000769E+02  0.7816164E-02  0.1186339E+00
        -11   -1    0    0    0    0  0.00000000000E+00  0.00000000000E+00  0.45593999997E+02  0.45594000000E+02  0.51100000000E-03 0.  1.
         11   -1    0    0    0    0 -0.00000000000E+00 -0.00000000000E+00 -0.45593999997E+02  0.45594000000E+02  0.51100000000E-03 0. -1.
    9900012    2    1    2    0    0  0.31222361979E+00  0.10409819433E+01  0.46043709638E+00  0.90007691009E+02  0.89999951730E+02 0.  0.
        -12    1    1    2    0    0 -0.31222361979E+00 -0.10409819433E+01 -0.46043709638E+00  0.11803089912E+01  0.00000000000E+00 0.  1.
         11    1    3    3    0    0  0.27053947858E+02 -0.27150194738E+02 -0.10395368635E+02  0.39712880257E+02  0.51100000000E-03 0. -1.
        -11    1    3    3    0    0 -0.75983863020E+01 -0.60592313875E+01  0.58753569308E+00  0.97362702229E+01  0.51100000000E-03 0.  1.
        -12    1    3    3    0    0 -0.19143337936E+02  0.34250408069E+02  0.10268270038E+02  0.40558540528E+02  0.00000000000E+00 0.  1.
</event>
<event>
 7    1  0.1910099E-015  0.9000774E+02  0.7816164E-02  0.1186339E+00
        -11   -1    0    0    0    0  0.00000000000E+00  0.00000000000E+00  0.45593999997E+02  0.45594000000E+02  0.51100000000E-03 0. -1.
         11   -1    0    0    0    0 -0.00000000000E+00 -0.00000000000E+00 -0.45593999997E+02  0.45594000000E+02  0.51100000000E-03 0.  1.
    9900012    2    1    2    0    0 -0.61595141533E+00  0.22958439854E+00  0.98026032704E+00  0.90007739245E+02  0.90000000603E+02 0.  0.
        -12    1    1    2    0    0  0.61595141533E+00 -0.22958439854E+00 -0.98026032704E+00  0.11802607555E+01  0.00000000000E+00 0.  1.
         11    1    3    3    0    0  0.11329435751E+02  0.26050778141E+02  0.26459808747E+02  0.38821651631E+02  0.51100000000E-03 0. -1.
        -11    1    3    3    0    0  0.65882822325E+01  0.31824504186E+01  0.14803068230E+01  0.74649020083E+01  0.51100000000E-03 0.  1.
        -12    1    3    3    0    0 -0.18533669399E+02 -0.29003644161E+02 -0.26959855243E+02  0.43721185605E+02  0.00000000000E+00 0.  1.
</event>
<event>
 7    1  0.1910099E-015  0.9000776E+02  0.7816164E-02  0.1186339E+00
        -11   -1    0    0    0    0  0.00000000000E+00  0.00000000000E+00  0.45593999997E+02  0.45594000000E+02  0.51100000000E-03 0.  1.
         11   -1    0    0    0    0 -0.00000000000E+00 -0.00000000000E+00 -0.45593999997E+02  0.45594000000E+02  0.51100000000E-03 0. -1.
    9900012    2    1    2    0    0  0.42247986056E+00  0.15214913700E+00 -0.10914824131E+01  0.90007757461E+02  0.90000019060E+02 0.  0.
        -12    1    1    2    0    0 -0.42247986056E+00 -0.15214913700E+00  0.10914824131E+01  0.11802425389E+01  0.00000000000E+00 0.  1.
         11    1    3    3    0    0 -0.29316117006E+02 -0.19011574076E+02 -0.26415663337E+02  0.43802533431E+02  0.51100000000E-03 0. -1.
        -11    1    3    3    0    0  0.13145731006E+01  0.20592329901E+01  0.88214908878E+01  0.91535372774E+01  0.51100000000E-03 0.  1.
        -12    1    3    3    0    0  0.28424023766E+02  0.17104490222E+02  0.16502690036E+02  0.37051686753E+02  0.00000000000E+00 0.  1.
</event>
<event>
 7    1  0.1910099E-015  0.9000772E+02  0.7816164E-02  0.1186339E+00
        -11   -1    0    0    0    0  0.00000000000E+00  0.00000000000E+00  0.45593999997E+02  0.45594000000E+02  0.51100000000E-03 0.  1.
         11   -1    0    0    0    0 -0.00000000000E+00 -0.00000000000E+00 -0.45593999997E+02  0.45594000000E+02  0.51100000000E-03 0. -1.
    9900012    2    1    2    0    0 -0.10422499176E+00  0.10846810450E+01 -0.45349881776E+00  0.90007721645E+02  0.89999982770E+02 0.  0.
        -12    1    1    2    0    0  0.10422499176E+00 -0.10846810450E+01  0.45349881776E+00  0.11802783553E+01  0.00000000000E+00 0.  1.
         11    1    3    3    0    0 -0.23424047821E+02  0.13495891901E+02 -0.25901071976E+02  0.37439159236E+02  0.51100000000E-03 0. -1.
        -11    1    3    3    0    0  0.15093731490E+01  0.37715303214E+01 -0.83056300288E+01  0.92458714411E+01  0.51100000000E-03 0.  1.
        -12    1    3    3    0    0  0.21810449681E+02 -0.16182741178E+02  0.33753203187E+02  0.43322690968E+02  0.00000000000E+00 0.  1.
</event>
<event>
 7    1  0.1910099E-015  0.9000781E+02  0.7816164E-02  0.1186339E+00
        -11   -1    0    0    0    0  0.00000000000E+00  0.00000000000E+00  0.45593999997E+02  0.45594000000E+02  0.51100000000E-03 0.  1.
         11   -1    0    0    0    0 -0.00000000000E+00 -0.00000000000E+00 -0.45593999997E+02  0.45594000000E+02  0.51100000000E-03 0. -1.
    9900012    2    1    2    0    0  0.86588284752E-01  0.11404611499E+01  0.29104597888E+00  0.90007806403E+02  0.90000068647E+02 0.  0.
        -12    1    1    2    0    0 -0.86588284752E-01 -0.11404611499E+01 -0.29104597888E+00  0.11801935974E+01  0.00000000000E+00 0.  1.
         11    1    3    3    0    0  0.17816623570E+01 -0.94118823243E+00  0.73249647170E+01  0.75970562990E+01  0.51100000000E-03 0. -1.
        -11    1    3    3    0    0  0.86074009937E+01 -0.76783268196E+01  0.35628916140E+02  0.37449482242E+02  0.51100000000E-03 0.  1.
         12    1    3    3    0    0 -0.10302475066E+02  0.97599762020E+01 -0.42662834878E+02  0.44961267862E+02  0.00000000000E+00 0. -1.
</event>
<event>
 7    1  0.1910099E-015  0.9000761E+02  0.7816164E-02  0.1186339E+00
        -11   -1    0    0    0    0  0.00000000000E+00  0.00000000000E+00  0.45593999997E+02  0.45594000000E+02  0.51100000000E-03 0.  1.
         11   -1    0    0    0    0 -0.00000000000E+00 -0.00000000000E+00 -0.45593999997E+02  0.45594000000E+02  0.51100000000E-03 0. -1.
    9900012    2    1    2    0    0  0.76960607774E+00 -0.87879734360E+00 -0.16953052940E+00  0.90007610706E+02  0.89999870367E+02 0.  0.
        -12    1    1    2    0    0 -0.76960607774E+00  0.87879734360E+00  0.16953052940E+00  0.11803892944E+01  0.00000000000E+00 0.  1.
         11    1    3    3    0    0 -0.20923133319E+02  0.77327329345E+01  0.28208504946E+02  0.35962375034E+02  0.51100000000E-03 0. -1.
        -11    1    3    3    0    0 -0.18360692239E+01  0.78523217045E+00  0.88174228166E+01  0.90407237069E+01  0.51100000000E-03 0.  1.
        -12    1    3    3    0    0  0.23528808620E+02 -0.93967624485E+01 -0.37195458292E+02  0.45004511965E+02  0.00000000000E+00 0.  1.
</event>
<event>
 7    1  0.1910099E-015  0.9000769E+02  0.7816164E-02  0.1186339E+00
        -11   -1    0    0    0    0  0.00000000000E+00  0.00000000000E+00  0.45593999997E+02  0.45594000000E+02  0.51100000000E-03 0. -1.
         11   -1    0    0    0    0 -0.00000000000E+00 -0.00000000000E+00 -0.45593999997E+02  0.45594000000E+02  0.51100000000E-03 0.  1.
    9900012    2    1    2    0    0 -0.16574390280E+00  0.58240539694E+00  0.10131409490E+01  0.90007694247E+02  0.89999955011E+02 0.  0.
        -12    1    1    2    0    0  0.16574390280E+00 -0.58240539694E+00 -0.10131409490E+01  0.11803057528E+01  0.00000000000E+00 0.  1.
         11    1    3    3    0    0  0.21362091117E+01  0.72630769255E+01  0.32095963936E+01  0.82229669259E+01  0.51100000000E-03 0. -1.
        -11    1    3    3    0    0 -0.29614651384E+02 -0.30216423872E+02  0.10443416570E+02  0.43578949025E+02  0.51100000000E-03 0.  1.
         12    1    3    3    0    0  0.27312698370E+02  0.23535752344E+02 -0.12639872015E+02  0.38205778296E+02  0.00000000000E+00 0. -1.
</event>
<event>
 7    1  0.1910099E-015  0.9000774E+02  0.7816164E-02  0.1186339E+00
        -11   -1    0    0    0    0  0.00000000000E+00  0.00000000000E+00  0.45593999997E+02  0.45594000000E+02  0.51100000000E-03 0. -1.
         11   -1    0    0    0    0 -0.00000000000E+00 -0.00000000000E+00 -0.45593999997E+02  0.45594000000E+02  0.51100000000E-03 0.  1.
    9900012    2    1    2    0    0 -0.92899633874E+00 -0.71040771780E+00 -0.15908831826E+00  0.90007736294E+02  0.89999997613E+02 0.  0.
        -12    1    1    2    0    0  0.92899633874E+00  0.71040771780E+00  0.15908831826E+00  0.11802637061E+01  0.00000000000E+00 0.  1.
         11    1    3    3    0    0  0.13254442983E+02  0.29794043975E+02  0.17790258230E+01  0.32657774700E+02  0.51100000000E-03 0. -1.
        -11    1    3    3    0    0  0.92597799924E+01  0.79650932372E+01 -0.14264067745E+01  0.12297189611E+02  0.51100000000E-03 0.  1.
        -12    1    3    3    0    0 -0.23443219314E+02 -0.38469544930E+02 -0.51170736671E+00  0.45052771983E+02  0.00000000000E+00 0.  1.
</event>
<event>
 7    1  0.1910099E-015  0.9000777E+02  0.7816164E-02  0.1186339E+00
        -11   -1    0    0    0    0  0.00000000000E+00  0.00000000000E+00  0.45593999997E+02  0.45594000000E+02  0.51100000000E-03 0.  1.
         11   -1    0    0    0    0 -0.00000000000E+00 -0.00000000000E+00 -0.45593999997E+02  0.45594000000E+02  0.51100000000E-03 0. -1.
    9900012    2    1    2    0    0  0.54890606106E+00 -0.49871231280E+00  0.91811540348E+00  0.90007767934E+02  0.90000029671E+02 0.  0.
        -12    1    1    2    0    0 -0.54890606106E+00  0.49871231280E+00 -0.91811540348E+00  0.11802320657E+01  0.00000000000E+00 0.  1.
         11    1    3    3    0    0  0.32175843199E+02 -0.30886999153E+01 -0.23889920974E+02  0.40193945777E+02  0.51100000000E-03 0. -1.
        -11    1    3    3    0    0  0.48879456915E+01  0.68904297140E+00  0.83860399707E+01  0.97310050843E+01  0.51100000000E-03 0.  1.
        -12    1    3    3    0    0 -0.36514882829E+02  0.19009446311E+01  0.16421996407E+02  0.40082817073E+02  0.00000000000E+00 0.  1.
</event>
<event>
 7    1  0.1910099E-015  0.9000777E+02  0.7816164E-02  0.1186339E+00
        -11   -1    0    0    0    0  0.00000000000E+00  0.00000000000E+00  0.45593999997E+02  0.45594000000E+02  0.51100000000E-03 0. -1.
         11   -1    0    0    0    0 -0.00000000000E+00 -0.00000000000E+00 -0.45593999997E+02  0.45594000000E+02  0.51100000000E-03 0.  1.
    9900012    2    1    2    0    0 -0.12790079630E+00  0.10979362305E+01 -0.41366607251E+00  0.90007770277E+02  0.90000032044E+02 0.  0.
        -12    1    1    2    0    0  0.12790079630E+00 -0.10979362305E+01  0.41366607251E+00  0.11802297232E+01  0.00000000000E+00 0.  1.
         11    1    3    3    0    0  0.81387457490E+01 -0.13613616077E+01 -0.13261665987E+02  0.15619355710E+02  0.51100000000E-03 0. -1.
        -11    1    3    3    0    0 -0.92783924195E+01 -0.24076715077E+02 -0.19640964358E+02  0.32427523124E+02  0.51100000000E-03 0.  1.
         12    1    3    3    0    0  0.10117458742E+01  0.26536012916E+02  0.32488964272E+02  0.41960891442E+02  0.00000000000E+00 0. -1.
</event>
<event>
 7    1  0.1910099E-015  0.9000769E+02  0.7816164E-02  0.1186339E+00
        -11   -1    0    0    0    0  0.00000000000E+00  0.00000000000E+00  0.45593999997E+02  0.45594000000E+02  0.51100000000E-03 0. -1.
         11   -1    0    0    0    0 -0.00000000000E+00 -0.00000000000E+00 -0.45593999997E+02  0.45594000000E+02  0.51100000000E-03 0.  1.
    9900012    2    1    2    0    0 -0.96107206408E+00  0.55384635103E+00  0.40338769016E+00  0.90007692023E+02  0.89999952757E+02 0.  0.
        -12    1    1    2    0    0  0.96107206408E+00 -0.55384635103E+00 -0.40338769016E+00  0.11803079774E+01  0.00000000000E+00 0.  1.
         11    1    3    3    0    0  0.93278565470E+01  0.37031593918E+01  0.11025292653E+02  0.14909036709E+02  0.51100000000E-03 0. -1.
        -11    1    3    3    0    0 -0.24105969197E+02 -0.33592061671E+01  0.26205130517E+02  0.35764380083E+02  0.51100000000E-03 0.  1.
         12    1    3    3    0    0  0.13817040586E+02  0.20989312636E+00 -0.36827035480E+02  0.39334275231E+02  0.00000000000E+00 0. -1.
</event>
<event>
 7    1  0.1910099E-015  0.9000776E+02  0.7816164E-02  0.1186339E+00
        -11   -1    0    0    0    0  0.00000000000E+00  0.00000000000E+00  0.45593999997E+02  0.45594000000E+02  0.51100000000E-03 0. -1.
         11   -1    0    0    0    0 -0.00000000000E+00 -0.00000000000E+00 -0.45593999997E+02  0.45594000000E+02  0.51100000000E-03 0.  1.
    9900012    2    1    2    0    0 -0.26129800932E+00 -0.11413602871E+01  0.14831289372E+00  0.90007755674E+02  0.90000017249E+02 0.  0.
        -12    1    1    2    0    0  0.26129800932E+00  0.11413602871E+01 -0.14831289372E+00  0.11802443260E+01  0.00000000000E+00 0.  1.
         11    1    3    3    0    0  0.28618894060E+02 -0.23574551695E+02 -0.35988023526E+01  0.37252543047E+02  0.51100000000E-03 0. -1.
        -11    1    3    3    0    0 -0.38795437064E+01 -0.90410913574E+01 -0.58283179248E+01  0.11435098705E+02  0.51100000000E-03 0.  1.
        -12    1    3    3    0    0 -0.25000648363E+02  0.31474282765E+02  0.95754331712E+01  0.41320113922E+02  0.00000000000E+00 0.  1.
</event>
<event>
 7    1  0.1910099E-015  0.9000756E+02  0.7816164E-02  0.1186339E+00
        -11   -1    0    0    0    0  0.00000000000E+00  0.00000000000E+00  0.45593999997E+02  0.45594000000E+02  0.51100000000E-03 0. -1.
         11   -1    0    0    0    0 -0.00000000000E+00 -0.00000000000E+00 -0.45593999997E+02  0.45594000000E+02  0.51100000000E-03 0.  1.
    9900012    2    1    2    0    0 -0.32712896731E+00 -0.10149689930E+01 -0.50622812486E+00  0.90007558416E+02  0.89999817387E+02 0.  0.
        -12    1    1    2    0    0  0.32712896731E+00  0.10149689930E+01  0.50622812486E+00  0.11804415837E+01  0.00000000000E+00 0.  1.
         11    1    3    3    0    0  0.37338039267E+01  0.74137808744E+01  0.51546391737E+01  0.97711690135E+01  0.51100000000E-03 0. -1.
        -11    1    3    3    0    0  0.12274019261E+02  0.31142432800E+02 -0.14572767526E+02  0.36508467828E+02  0.51100000000E-03 0.  1.
         12    1    3    3    0    0 -0.16334952155E+02 -0.39571182667E+02  0.89119002273E+01  0.43727921575E+02  0.00000000000E+00 0. -1.
</event>
<event>
 7    1  0.1910099E-015  0.9000776E+02  0.7816164E-02  0.1186339E+00
        -11   -1    0    0    0    0  0.00000000000E+00  0.00000000000E+00  0.45593999997E+02  0.45594000000E+02  0.51100000000E-03 0.  1.
         11   -1    0    0    0    0 -0.00000000000E+00 -0.00000000000E+00 -0.45593999997E+02  0.45594000000E+02  0.51100000000E-03 0. -1.
    9900012    2    1    2    0    0  0.27426875519E+00  0.10281561692E+01  0.51052829305E+00  0.90007759518E+02  0.90000021143E+02 0.  0.
        -12    1    1    2    0    0 -0.27426875519E+00 -0.10281561692E+01 -0.51052829305E+00  0.11802404824E+01  0.00000000000E+00 0.  1.
         11    1    3    3    0    0 -0.53759992330E+01 -0.10722592821E+02  0.43365065741E+01  0.12754632652E+02  0.51100000000E-03 0. -1.
        -11    1    3    3    0    0 -0.13952102611E+02 -0.23835451377E+02  0.16135089410E+02  0.31986419308E+02  0.51100000000E-03 0.  1.
         12    1    3    3    0    0  0.19602370600E+02  0.35586200368E+02 -0.19961067691E+02  0.45266707557E+02  0.00000000000E+00 0. -1.
</event>
<event>
 7    1  0.1910099E-015  0.9000778E+02  0.7816164E-02  0.1186339E+00
        -11   -1    0    0    0    0  0.00000000000E+00  0.00000000000E+00  0.45593999997E+02  0.45594000000E+02  0.51100000000E-03 0. -1.
         11   -1    0    0    0    0 -0.00000000000E+00 -0.00000000000E+00 -0.45593999997E+02  0.45594000000E+02  0.51100000000E-03 0.  1.
    9900012    2    1    2    0    0  0.89770045780E+00  0.76609978691E+00 -0.11787719407E-01  0.90007782246E+02  0.90000044172E+02 0.  0.
        -12    1    1    2    0    0 -0.89770045780E+00 -0.76609978691E+00  0.11787719407E-01  0.11802177535E+01  0.00000000000E+00 0.  1.
         11    1    3    3    0    0  0.15950917819E+01  0.12265225632E+02 -0.50570157125E+01  0.13362390721E+02  0.51100000000E-03 0. -1.
        -11    1    3    3    0    0  0.59671867108E+01  0.16111655917E+02 -0.28136217048E+02  0.32967248652E+02  0.51100000000E-03 0.  1.
         12    1    3    3    0    0 -0.66645780349E+01 -0.27610781763E+02  0.33181445041E+02  0.43678142874E+02  0.00000000000E+00 0. -1.
</event>
<event>
 7    1  0.1910099E-015  0.9000787E+02  0.7816164E-02  0.1186339E+00
        -11   -1    0    0    0    0  0.00000000000E+00  0.00000000000E+00  0.45593999997E+02  0.45594000000E+02  0.51100000000E-03 0.  1.
         11   -1    0    0    0    0 -0.00000000000E+00 -0.00000000000E+00 -0.45593999997E+02  0.45594000000E+02  0.51100000000E-03 0. -1.
    9900012    2    1    2    0    0  0.52140693364E+00 -0.10572375466E+01 -0.55617822999E-01  0.90007868752E+02  0.90000131819E+02 0.  0.
        -12    1    1    2    0    0 -0.52140693364E+00  0.10572375466E+01  0.55617822999E-01  0.11801312480E+01  0.00000000000E+00 0.  1.
         11    1    3    3    0    0  0.90294960258E+00  0.28654799260E+02  0.89140343595E+01  0.30022872072E+02  0.51100000000E-03 0. -1.
        -11    1    3    3    0    0  0.20789176110E+02 -0.28867532037E+01  0.71870682005E+01  0.22185065629E+02  0.51100000000E-03 0.  1.
        -12    1    3    3    0    0 -0.21170718778E+02 -0.26825283603E+02 -0.16156720383E+02  0.37799931052E+02  0.00000000000E+00 0.  1.
</event>
<event>
 7    1  0.1910099E-015  0.9000775E+02  0.7816164E-02  0.1186339E+00
        -11   -1    0    0    0    0  0.00000000000E+00  0.00000000000E+00  0.45593999997E+02  0.45594000000E+02  0.51100000000E-03 0. -1.
         11   -1    0    0    0    0 -0.00000000000E+00 -0.00000000000E+00 -0.45593999997E+02  0.45594000000E+02  0.51100000000E-03 0.  1.
    9900012    2    1    2    0    0 -0.88909600185E+00 -0.74659139553E+00 -0.21236249710E+00  0.90007750771E+02  0.90000012281E+02 0.  0.
        -12    1    1    2    0    0  0.88909600185E+00  0.74659139553E+00  0.21236249710E+00  0.11802492290E+01  0.00000000000E+00 0.  1.
         11    1    3    3    0    0  0.35532689099E+01  0.38256483483E+02 -0.62817151732E+00  0.38426278094E+02  0.51100000000E-03 0. -1.
        -11    1    3    3    0    0 -0.43826152764E+01  0.25489214198E+01 -0.77243665090E+01  0.92395971391E+01  0.51100000000E-03 0.  1.
        -12    1    3    3    0    0 -0.59749635367E-01 -0.41551996299E+02  0.81401755293E+01  0.42341875538E+02  0.00000000000E+00 0.  1.
</event>
<event>
 7    1  0.1910099E-015  0.9000781E+02  0.7816164E-02  0.1186339E+00
        -11   -1    0    0    0    0  0.00000000000E+00  0.00000000000E+00  0.45593999997E+02  0.45594000000E+02  0.51100000000E-03 0. -1.
         11   -1    0    0    0    0 -0.00000000000E+00 -0.00000000000E+00 -0.45593999997E+02  0.45594000000E+02  0.51100000000E-03 0.  1.
    9900012    2    1    2    0    0  0.41962727682E+00 -0.87875204137E+00  0.66675248336E+00  0.90007808882E+02  0.90000071159E+02 0.  0.
        -12    1    1    2    0    0 -0.41962727682E+00  0.87875204137E+00 -0.66675248336E+00  0.11801911183E+01  0.00000000000E+00 0.  1.
         11    1    3    3    0    0 -0.80723987022E+01 -0.95495623255E+00 -0.39203415270E+01  0.90246684240E+01  0.51100000000E-03 0. -1.
        -11    1    3    3    0    0  0.25510146347E+02 -0.28446733839E+02 -0.16521895506E+02  0.41628803300E+02  0.51100000000E-03 0.  1.
         12    1    3    3    0    0 -0.17018120368E+02  0.28522938030E+02  0.21108989516E+02  0.39354337158E+02  0.00000000000E+00 0. -1.
</event>
<event>
 7    1  0.1910099E-015  0.9000699E+02  0.7816164E-02  0.1186341E+00
        -11   -1    0    0    0    0  0.00000000000E+00  0.00000000000E+00  0.45593999997E+02  0.45594000000E+02  0.51100000000E-03 0.  1.
         11   -1    0    0    0    0 -0.00000000000E+00 -0.00000000000E+00 -0.45593999997E+02  0.45594000000E+02  0.51100000000E-03 0. -1.
    9900012    2    1    2    0    0  0.34311850742E-01 -0.10751983329E+01  0.48739567804E+00  0.90006990557E+02  0.89999242029E+02 0.  0.
        -12    1    1    2    0    0 -0.34311850742E-01  0.10751983329E+01 -0.48739567804E+00  0.11810094433E+01  0.00000000000E+00 0.  1.
         11    1    3    3    0    0 -0.51806909681E+01  0.77179232204E+01  0.43050505395E+01  0.10243991319E+02  0.51100000000E-03 0. -1.
        -11    1    3    3    0    0 -0.26871502864E+02  0.32145488947E+00  0.24228676046E+02  0.36183003505E+02  0.51100000000E-03 0.  1.
         12    1    3    3    0    0  0.32086505683E+02 -0.91145764428E+01 -0.28046330907E+02  0.43579995733E+02  0.00000000000E+00 0. -1.
</event>
<event>
 7    1  0.1910099E-015  0.9000765E+02  0.7816164E-02  0.1186339E+00
        -11   -1    0    0    0    0  0.00000000000E+00  0.00000000000E+00  0.45593999997E+02  0.45594000000E+02  0.51100000000E-03 0. -1.
         11   -1    0    0    0    0 -0.00000000000E+00 -0.00000000000E+00 -0.45593999997E+02  0.45594000000E+02  0.51100000000E-03 0.  1.
    9900012    2    1    2    0    0  0.10270870575E+01 -0.56403347649E+00  0.14205833561E+00  0.90007651680E+02  0.89999911882E+02 0.  0.
        -12    1    1    2    0    0 -0.10270870575E+01  0.56403347649E+00 -0.14205833561E+00  0.11803483202E+01  0.00000000000E+00 0.  1.
         11    1    3    3    0    0 -0.97266635694E-01 -0.35608663727E+01  0.36396488521E+02  0.36570392493E+02  0.51100000000E-03 0. -1.
        -11    1    3    3    0    0 -0.32506174461E+01  0.12975153378E+01  0.81059435986E+01  0.88292911220E+01  0.51100000000E-03 0.  1.
        -12    1    3    3    0    0  0.43749711393E+01  0.16993175584E+01 -0.44360373784E+02  0.44607968065E+02  0.00000000000E+00 0.  1.
</event>
<event>
 7    1  0.1910099E-015  0.9000786E+02  0.7816164E-02  0.1186339E+00
        -11   -1    0    0    0    0  0.00000000000E+00  0.00000000000E+00  0.45593999997E+02  0.45594000000E+02  0.51100000000E-03 0.  1.
         11   -1    0    0    0    0 -0.00000000000E+00 -0.00000000000E+00 -0.45593999997E+02  0.45594000000E+02  0.51100000000E-03 0. -1.
    9900012    2    1    2    0    0  0.78887073297E+00 -0.78218537010E+00  0.39823346478E+00  0.90007864042E+02  0.90000127047E+02 0.  0.
        -12    1    1    2    0    0 -0.78887073297E+00  0.78218537010E+00 -0.39823346478E+00  0.11801359579E+01  0.00000000000E+00 0.  1.
         11    1    3    3    0    0 -0.38336870790E+02  0.73768570925E+01  0.12327550817E+01  0.39059613002E+02  0.51100000000E-03 0. -1.
        -11    1    3    3    0    0 -0.17530646992E+00 -0.65174610909E+01 -0.86621797113E+01  0.10841650660E+02  0.51100000000E-03 0.  1.
        -12    1    3    3    0    0  0.39301047993E+02 -0.16415813717E+01  0.78276580944E+01  0.40106600379E+02  0.00000000000E+00 0.  1.
</event>
<event>
 7    1  0.1910099E-015  0.9000775E+02  0.7816164E-02  0.1186339E+00
        -11   -1    0    0    0    0  0.00000000000E+00  0.00000000000E+00  0.45593999997E+02  0.45594000000E+02  0.51100000000E-03 0. -1.
         11   -1    0    0    0    0 -0.00000000000E+00 -0.00000000000E+00 -0.45593999997E+02  0.45594000000E+02  0.51100000000E-03 0.  1.
    9900012    2    1    2    0    0 -0.41201876361E+00 -0.87062232554E+00  0.68209438955E+00  0.90007747717E+02  0.90000009187E+02 0.  0.
        -12    1    1    2    0    0  0.41201876361E+00  0.87062232554E+00 -0.68209438955E+00  0.11802522830E+01  0.00000000000E+00 0.  1.
         11    1    3    3    0    0  0.54248848228E+01 -0.12335689617E+01 -0.70878761304E+01  0.90104969910E+01  0.51100000000E-03 0. -1.
        -11    1    3    3    0    0  0.32033251258E+02  0.45938524594E+01 -0.15984815517E+02  0.36093586603E+02  0.51100000000E-03 0.  1.
         12    1    3    3    0    0 -0.37870154844E+02 -0.42309058232E+01  0.23754786036E+02  0.44903664123E+02  0.00000000000E+00 0. -1.
</event>
<event>
 7    1  0.1910099E-015  0.9000776E+02  0.7816164E-02  0.1186339E+00
        -11   -1    0    0    0    0  0.00000000000E+00  0.00000000000E+00  0.45593999997E+02  0.45594000000E+02  0.51100000000E-03 0. -1.
         11   -1    0    0    0    0 -0.00000000000E+00 -0.00000000000E+00 -0.45593999997E+02  0.45594000000E+02  0.51100000000E-03 0.  1.
    9900012    2    1    2    0    0  0.40827815029E+00  0.10864110919E+01  0.21442589576E+00  0.90007763340E+02  0.90000025016E+02 0.  0.
        -12    1    1    2    0    0 -0.40827815029E+00 -0.10864110919E+01 -0.21442589576E+00  0.11802366599E+01  0.00000000000E+00 0.  1.
         11    1    3    3    0    0 -0.83712210887E+01 -0.18623498893E+02 -0.33034770831E+01  0.20683931315E+02  0.51100000000E-03 0.  1.
        -11    1    3    3    0    0 -0.12827133574E+02 -0.20150701004E+02  0.72638113905E+00  0.23897986034E+02  0.51100000000E-03 0. -1.
        -12    1    3    3    0    0  0.21606632813E+02  0.39860610988E+02  0.27915218398E+01  0.45425845992E+02  0.00000000000E+00 0.  1.
</event>
<event>
 7    1  0.1910099E-015  0.9000776E+02  0.7816164E-02  0.1186339E+00
        -11   -1    0    0    0    0  0.00000000000E+00  0.00000000000E+00  0.45593999997E+02  0.45594000000E+02  0.51100000000E-03 0.  1.
         11   -1    0    0    0    0 -0.00000000000E+00 -0.00000000000E+00 -0.45593999997E+02  0.45594000000E+02  0.51100000000E-03 0. -1.
    9900012    2    1    2    0    0 -0.39804194085E+00  0.28783701256E+00 -0.10731648618E+01  0.90007758350E+02  0.90000019960E+02 0.  0.
        -12    1    1    2    0    0  0.39804194085E+00 -0.28783701256E+00  0.10731648618E+01  0.11802416503E+01  0.00000000000E+00 0.  1.
         11    1    3    3    0    0 -0.15891803148E+02  0.31836815567E+02  0.18035905221E+01  0.35628432070E+02  0.51100000000E-03 0. -1.
        -11    1    3    3    0    0 -0.14229253639E+01  0.95006154999E+01 -0.27055777274E+01  0.99803087412E+01  0.51100000000E-03 0.  1.
        -12    1    3    3    0    0  0.16916686571E+02 -0.41049594054E+02 -0.17117765647E+00  0.44399017538E+02  0.00000000000E+00 0.  1.
</event>
<event>
 7    1  0.1910099E-015  0.9000773E+02  0.7816164E-02  0.1186339E+00
        -11   -1    0    0    0    0  0.00000000000E+00  0.00000000000E+00  0.45593999997E+02  0.45594000000E+02  0.51100000000E-03 0.  1.
         11   -1    0    0    0    0 -0.00000000000E+00 -0.00000000000E+00 -0.45593999997E+02  0.45594000000E+02  0.51100000000E-03 0. -1.
    9900012    2    1    2    0    0 -0.74519506383E+00  0.51162740626E+00 -0.75891892408E+00  0.90007730446E+02  0.89999991688E+02 0.  0.
        -12    1    1    2    0    0  0.74519506383E+00 -0.51162740626E+00  0.75891892408E+00  0.11802695537E+01  0.00000000000E+00 0.  1.
         11    1    3    3    0    0 -0.10369595261E+02  0.10180790976E+01 -0.36047419753E+02  0.37523079059E+02  0.51100000000E-03 0. -1.
        -11    1    3    3    0    0  0.40956394886E+01 -0.17123995738E+00 -0.79224579042E+01  0.89201415599E+01  0.51100000000E-03 0.  1.
        -12    1    3    3    0    0  0.55287607082E+01 -0.33521173401E+00  0.43210958733E+02  0.43564509828E+02  0.00000000000E+00 0.  1.
</event>
<event>
 7    1  0.1910099E-015  0.9000768E+02  0.7816164E-02  0.1186339E+00
        -11   -1    0    0    0    0  0.00000000000E+00  0.00000000000E+00  0.45593999997E+02  0.45594000000E+02  0.51100000000E-03 0.  1.
         11   -1    0    0    0    0 -0.00000000000E+00 -0.00000000000E+00 -0.45593999997E+02  0.45594000000E+02  0.51100000000E-03 0. -1.
    9900012    2    1    2    0    0  0.70387752685E+00  0.13050975662E+00 -0.93843870587E+00  0.90007684968E+02  0.89999945610E+02 0.  0.
        -12    1    1    2    0    0 -0.70387752685E+00 -0.13050975662E+00  0.93843870587E+00  0.11803150317E+01  0.00000000000E+00 0.  1.
         11    1    3    3    0    0  0.32492132068E+02 -0.79455616150E+01 -0.21578813446E+02  0.39805976758E+02  0.51100000000E-03 0. -1.
        -11    1    3    3    0    0  0.21372735762E+01 -0.75633542005E+01  0.67027659419E+01  0.10329537097E+02  0.51100000000E-03 0.  1.
        -12    1    3    3    0    0 -0.33925528117E+02  0.15639425572E+02  0.13937608798E+02  0.39872171113E+02  0.00000000000E+00 0.  1.
</event>
<event>
 7    1  0.1910099E-015  0.9000770E+02  0.7816164E-02  0.1186339E+00
        -11   -1    0    0    0    0  0.00000000000E+00  0.00000000000E+00  0.45593999997E+02  0.45594000000E+02  0.51100000000E-03 0.  1.
         11   -1    0    0    0    0 -0.00000000000E+00 -0.00000000000E+00 -0.45593999997E+02  0.45594000000E+02  0.51100000000E-03 0. -1.
    9900012    2    1    2    0    0  0.46396005432E+00  0.10830142795E+01 -0.70147848872E-01  0.90007703604E+02  0.89999964492E+02 0.  0.
        -12    1    1    2    0    0 -0.46396005432E+00 -0.10830142795E+01  0.70147848872E-01  0.11802963960E+01  0.00000000000E+00 0.  1.
         11    1    3    3    0    0  0.17080505390E+02  0.24832795232E+02 -0.17063186507E+02  0.34634718382E+02  0.51100000000E-03 0. -1.
        -11    1    3    3    0    0  0.37025996415E+01  0.11458508928E+02  0.34706283421E+01  0.12532036240E+02  0.51100000000E-03 0.  1.
        -12    1    3    3    0    0 -0.20319144977E+02 -0.35208289881E+02  0.13522410316E+02  0.42840948982E+02  0.00000000000E+00 0.  1.
</event>
<event>
 7    1  0.1910099E-015  0.9000777E+02  0.7816164E-02  0.1186339E+00
        -11   -1    0    0    0    0  0.00000000000E+00  0.00000000000E+00  0.45593999997E+02  0.45594000000E+02  0.51100000000E-03 0. -1.
         11   -1    0    0    0    0 -0.00000000000E+00 -0.00000000000E+00 -0.45593999997E+02  0.45594000000E+02  0.51100000000E-03 0.  1.
    9900012    2    1    2    0    0 -0.73010914108E+00 -0.35747856652E+00  0.85562716946E+00  0.90007767762E+02  0.90000029496E+02 0.  0.
        -12    1    1    2    0    0  0.73010914108E+00  0.35747856652E+00 -0.85562716946E+00  0.11802322384E+01  0.00000000000E+00 0.  1.
         11    1    3    3    0    0 -0.35420943404E+01  0.80474871168E+01 -0.53060715754E+00  0.88085200476E+01  0.51100000000E-03 0. -1.
        -11    1    3    3    0    0  0.11998847341E+02  0.29165658923E+02  0.20943676469E+02  0.37858230046E+02  0.51100000000E-03 0.  1.
         12    1    3    3    0    0 -0.91868621412E+01 -0.37570624607E+02 -0.19557442142E+02  0.43341017668E+02  0.00000000000E+00 0. -1.
</event>
<event>
 7    1  0.1910099E-015  0.9000777E+02  0.7816164E-02  0.1186339E+00
        -11   -1    0    0    0    0  0.00000000000E+00  0.00000000000E+00  0.45593999997E+02  0.45594000000E+02  0.51100000000E-03 0.  1.
         11   -1    0    0    0    0 -0.00000000000E+00 -0.00000000000E+00 -0.45593999997E+02  0.45594000000E+02  0.51100000000E-03 0. -1.
    9900012    2    1    2    0    0  0.93300304848E+00  0.63457522552E+00  0.34608311804E+00  0.90007765307E+02  0.90000027009E+02 0.  0.
        -12    1    1    2    0    0 -0.93300304848E+00 -0.63457522552E+00 -0.34608311804E+00  0.11802346927E+01  0.00000000000E+00 0.  1.
         11    1    3    3    0    0  0.35897742780E+01  0.71925545369E+01 -0.85056210961E+01  0.11703200871E+02  0.51100000000E-03 0. -1.
        -11    1    3    3    0    0 -0.19529114516E+02  0.30020519897E+02 -0.39649766496E+01  0.36032471033E+02  0.51100000000E-03 0.  1.
         12    1    3    3    0    0  0.16872343286E+02 -0.36578499209E+02  0.12816680864E+02  0.42272093403E+02  0.00000000000E+00 0. -1.
</event>
<event>
 7    1  0.1910099E-015  0.9000762E+02  0.7816164E-02  0.1186339E+00
        -11   -1    0    0    0    0  0.00000000000E+00  0.00000000000E+00  0.45593999997E+02  0.45594000000E+02  0.51100000000E-03 0. -1.
         11   -1    0    0    0    0 -0.00000000000E+00 -0.00000000000E+00 -0.45593999997E+02  0.45594000000E+02  0.51100000000E-03 0.  1.
    9900012    2    1    2    0    0 -0.78514534185E-01 -0.87330809029E+00  0.79023484916E+00  0.90007617575E+02  0.89999877327E+02 0.  0.
        -12    1    1    2    0    0  0.78514534185E-01  0.87330809029E+00 -0.79023484916E+00  0.11803824251E+01  0.00000000000E+00 0.  1.
         11    1    3    3    0    0  0.20754169690E+02 -0.31428404454E+02 -0.68880672328E+01  0.38287408329E+02  0.51100000000E-03 0. -1.
        -11    1    3    3    0    0  0.50617269813E+01 -0.42416166342E+01  0.49630027741E+01  0.82609798754E+01  0.51100000000E-03 0.  1.
        -12    1    3    3    0    0 -0.25894411206E+02  0.34796712998E+02  0.27152993079E+01  0.43459229371E+02  0.00000000000E+00 0.  1.
</event>
<event>
 7    1  0.1910099E-015  0.9000776E+02  0.7816164E-02  0.1186339E+00
        -11   -1    0    0    0    0  0.00000000000E+00  0.00000000000E+00  0.45593999997E+02  0.45594000000E+02  0.51100000000E-03 0. -1.
         11   -1    0    0    0    0 -0.00000000000E+00 -0.00000000000E+00 -0.45593999997E+02  0.45594000000E+02  0.51100000000E-03 0.  1.
    9900012    2    1    2    0    0  0.20016298229E+00 -0.55147441759E+00  0.10241018162E+01  0.90007756897E+02  0.90000018488E+02 0.  0.
        -12    1    1    2    0    0 -0.20016298229E+00  0.55147441759E+00 -0.10241018162E+01  0.11802431032E+01  0.00000000000E+00 0.  1.
         11    1    3    3    0    0 -0.30698076898E+02  0.16359667091E+02  0.24318154094E+01  0.34870106954E+02  0.51100000000E-03 0. -1.
        -11    1    3    3    0    0  0.10362313522E+01  0.91851534157E+01 -0.10968026595E+02  0.14343584850E+02  0.51100000000E-03 0.  1.
        -12    1    3    3    0    0  0.29862008528E+02 -0.26096294924E+02  0.95603130022E+01  0.40794065093E+02  0.00000000000E+00 0.  1.
</event>
<event>
 7    1  0.1910099E-015  0.9000762E+02  0.7816164E-02  0.1186339E+00
        -11   -1    0    0    0    0  0.00000000000E+00  0.00000000000E+00  0.45593999997E+02  0.45594000000E+02  0.51100000000E-03 0. -1.
         11   -1    0    0    0    0 -0.00000000000E+00 -0.00000000000E+00 -0.45593999997E+02  0.45594000000E+02  0.51100000000E-03 0.  1.
    9900012    2    1    2    0    0 -0.39244430758E-01  0.99141951991E+00  0.63940208427E+00  0.90007623867E+02  0.89999883702E+02 0.  0.
        -12    1    1    2    0    0  0.39244430758E-01 -0.99141951991E+00 -0.63940208427E+00  0.11803761329E+01  0.00000000000E+00 0.  1.
         11    1    3    3    0    0  0.14862454115E+01 -0.22186945855E+02  0.36227974233E+02  0.42508065224E+02  0.51100000000E-03 0. -1.
        -11    1    3    3    0    0  0.54031938012E+01  0.74255989333E+01 -0.14886773579E+01  0.93032350990E+01  0.51100000000E-03 0.  1.
        -12    1    3    3    0    0 -0.69286836434E+01  0.15752766442E+02 -0.34099894790E+02  0.38196323544E+02  0.00000000000E+00 0.  1.
</event>
<event>
 7    1  0.1910099E-015  0.9000766E+02  0.7816164E-02  0.1186339E+00
        -11   -1    0    0    0    0  0.00000000000E+00  0.00000000000E+00  0.45593999997E+02  0.45594000000E+02  0.51100000000E-03 0.  1.
         11   -1    0    0    0    0 -0.00000000000E+00 -0.00000000000E+00 -0.45593999997E+02  0.45594000000E+02  0.51100000000E-03 0. -1.
    9900012    2    1    2    0    0 -0.13795659582E+00  0.34926753585E+00 -0.11190141443E+01  0.90007655775E+02  0.89999916031E+02 0.  0.
        -12    1    1    2    0    0  0.13795659582E+00 -0.34926753585E+00  0.11190141443E+01  0.11803442249E+01  0.00000000000E+00 0.  1.
         11    1    3    3    0    0 -0.11371506102E+01 -0.11896433345E+02  0.64669688123E+01  0.13588227394E+02  0.51100000000E-03 0. -1.
        -11    1    3    3    0    0  0.14899017899E+02  0.15042017128E+02  0.29731434416E+02  0.36499331588E+02  0.51100000000E-03 0.  1.
         12    1    3    3    0    0 -0.13899823885E+02 -0.27963162480E+01 -0.37317417373E+02  0.39920096793E+02  0.00000000000E+00 0. -1.
</event>
<event>
 7    1  0.1910099E-015  0.9000774E+02  0.7816164E-02  0.1186339E+00
        -11   -1    0    0    0    0  0.00000000000E+00  0.00000000000E+00  0.45593999997E+02  0.45594000000E+02  0.51100000000E-03 0. -1.
         11   -1    0    0    0    0 -0.00000000000E+00 -0.00000000000E+00 -0.45593999997E+02  0.45594000000E+02  0.51100000000E-03 0.  1.
    9900012    2    1    2    0    0 -0.35770126227E+00 -0.73643399569E+00  0.85013216917E+00  0.90007741584E+02  0.90000002973E+02 0.  0.
        -12    1    1    2    0    0  0.35770126227E+00  0.73643399569E+00 -0.85013216917E+00  0.11802584158E+01  0.00000000000E+00 0.  1.
         11    1    3    3    0    0 -0.33247015767E+02  0.78718384793E+01  0.12384414880E+02  0.36341486357E+02  0.51100000000E-03 0. -1.
        -11    1    3    3    0    0  0.11409792836E+02  0.90096104993E+01  0.10726606844E+02  0.18067001649E+02  0.51100000000E-03 0.  1.
        -12    1    3    3    0    0  0.21479521668E+02 -0.17617882974E+02 -0.22260889555E+02  0.35599253579E+02  0.00000000000E+00 0.  1.
</event>
<event>
 7    1  0.1910099E-015  0.9000771E+02  0.7816164E-02  0.1186339E+00
        -11   -1    0    0    0    0  0.00000000000E+00  0.00000000000E+00  0.45593999997E+02  0.45594000000E+02  0.51100000000E-03 0.  1.
         11   -1    0    0    0    0 -0.00000000000E+00 -0.00000000000E+00 -0.45593999997E+02  0.45594000000E+02  0.51100000000E-03 0. -1.
    9900012    2    1    2    0    0  0.74457700567E+00 -0.32364202698E+00 -0.85670975876E+00  0.90007707371E+02  0.89999968308E+02 0.  0.
        -12    1    1    2    0    0 -0.74457700567E+00  0.32364202698E+00  0.85670975876E+00  0.11802926289E+01  0.00000000000E+00 0.  1.
         11    1    3    3    0    0  0.22212139095E+02 -0.21125028021E+02 -0.24905057018E+02  0.39495668084E+02  0.51100000000E-03 0. -1.
        -11    1    3    3    0    0 -0.54224167474E+01  0.20962435054E+00 -0.76933429081E+01  0.94145669636E+01  0.51100000000E-03 0.  1.
        -12    1    3    3    0    0 -0.16045145342E+02  0.20591761644E+02  0.31741690168E+02  0.41097472323E+02  0.00000000000E+00 0.  1.
</event>
<event>
 7    1  0.1910099E-015  0.9000777E+02  0.7816164E-02  0.1186339E+00
        -11   -1    0    0    0    0  0.00000000000E+00  0.00000000000E+00  0.45593999997E+02  0.45594000000E+02  0.51100000000E-03 0.  1.
         11   -1    0    0    0    0 -0.00000000000E+00 -0.00000000000E+00 -0.45593999997E+02  0.45594000000E+02  0.51100000000E-03 0. -1.
    9900012    2    1    2    0    0 -0.11309652949E+01 -0.31090403083E+00 -0.13110331967E+00  0.90007774642E+02  0.90000036468E+02 0.  0.
        -12    1    1    2    0    0  0.11309652949E+01  0.31090403083E+00  0.13110331967E+00  0.11802253578E+01  0.00000000000E+00 0.  1.
         11    1    3    3    0    0  0.11574212927E+02  0.29360674641E+02 -0.89267456270E+01  0.32797841514E+02  0.51100000000E-03 0. -1.
        -11    1    3    3    0    0  0.50323611135E+01  0.91316997701E+01  0.10111787364E+02  0.14524491145E+02  0.51100000000E-03 0.  1.
        -12    1    3    3    0    0 -0.17737539336E+02 -0.38803278442E+02 -0.13161450563E+01  0.42685441983E+02  0.00000000000E+00 0.  1.
</event>
<event>
 7    1  0.1910099E-015  0.9000773E+02  0.7816164E-02  0.1186339E+00
        -11   -1    0    0    0    0  0.00000000000E+00  0.00000000000E+00  0.45593999997E+02  0.45594000000E+02  0.51100000000E-03 0. -1.
         11   -1    0    0    0    0 -0.00000000000E+00 -0.00000000000E+00 -0.45593999997E+02  0.45594000000E+02  0.51100000000E-03 0.  1.
    9900012    2    1    2    0    0  0.10211391923E+01  0.52206395712E+00  0.27885380639E+00  0.90007730764E+02  0.89999992010E+02 0.  0.
        -12    1    1    2    0    0 -0.10211391923E+01 -0.52206395712E+00 -0.27885380639E+00  0.11802692365E+01  0.00000000000E+00 0.  1.
         11    1    3    3    0    0 -0.23165420198E+01  0.50566569467E+01 -0.70284700069E+01  0.89630093889E+01  0.51100000000E-03 0. -1.
        -11    1    3    3    0    0 -0.19888274606E+02 -0.60073313091E+01 -0.30347943431E+02  0.36778107171E+02  0.51100000000E-03 0.  1.
         12    1    3    3    0    0  0.23225955818E+02  0.14727383195E+01  0.37655267245E+02  0.44266614204E+02  0.00000000000E+00 0. -1.
</event>
<event>
 7    1  0.1910099E-015  0.9000791E+02  0.7816164E-02  0.1186339E+00
        -11   -1    0    0    0    0  0.00000000000E+00  0.00000000000E+00  0.45593999997E+02  0.45594000000E+02  0.51100000000E-03 0.  1.
         11   -1    0    0    0    0 -0.00000000000E+00 -0.00000000000E+00 -0.45593999997E+02  0.45594000000E+02  0.51100000000E-03 0. -1.
    9900012    2    1    2    0    0 -0.75125616709E+00 -0.89273697669E+00 -0.17677613338E+00  0.90007908927E+02  0.90000172525E+02 0.  0.
        -12    1    1    2    0    0  0.75125616709E+00  0.89273697669E+00  0.17677613338E+00  0.11800910725E+01  0.00000000000E+00 0.  1.
         11    1    3    3    0    0 -0.18512030170E+01  0.21316524573E+02  0.28381263595E+02  0.35543175097E+02  0.51100000000E-03 0.  1.
        -11    1    3    3    0    0  0.31516609647E+01 -0.68250059694E+01  0.10225183206E+02  0.12691258613E+02  0.51100000000E-03 0. -1.
         12    1    3    3    0    0 -0.20517141148E+01 -0.15384255580E+02 -0.38783222934E+02  0.41773475217E+02  0.00000000000E+00 0. -1.
</event>
<event>
 7    1  0.1910099E-015  0.9000782E+02  0.7816164E-02  0.1186339E+00
        -11   -1    0    0    0    0  0.00000000000E+00  0.00000000000E+00  0.45593999997E+02  0.45594000000E+02  0.51100000000E-03 0.  1.
         11   -1    0    0    0    0 -0.00000000000E+00 -0.00000000000E+00 -0.45593999997E+02  0.45594000000E+02  0.51100000000E-03 0. -1.
    9900012    2    1    2    0    0  0.45332543888E+00 -0.52836679561E+00 -0.95297309593E+00  0.90007816478E+02  0.90000078855E+02 0.  0.
        -12    1    1    2    0    0 -0.45332543888E+00  0.52836679561E+00  0.95297309593E+00  0.11801835221E+01  0.00000000000E+00 0.  1.
         11    1    3    3    0    0  0.13684665958E+02 -0.26305560868E+02  0.22016183678E+02  0.36931896228E+02  0.51100000000E-03 0. -1.
        -11    1    3    3    0    0  0.40200842535E+01 -0.70477760968E+01  0.20177937307E+01  0.83608442826E+01  0.51100000000E-03 0.  1.
        -12    1    3    3    0    0 -0.17251424772E+02  0.32824970169E+02 -0.24986950504E+02  0.44715075968E+02  0.00000000000E+00 0.  1.
</event>
<event>
 7    1  0.1910099E-015  0.9000773E+02  0.7816164E-02  0.1186339E+00
        -11   -1    0    0    0    0  0.00000000000E+00  0.00000000000E+00  0.45593999997E+02  0.45594000000E+02  0.51100000000E-03 0.  1.
         11   -1    0    0    0    0 -0.00000000000E+00 -0.00000000000E+00 -0.45593999997E+02  0.45594000000E+02  0.51100000000E-03 0. -1.
    9900012    2    1    2    0    0 -0.56910800273E+00 -0.88337782035E+00 -0.53740621281E+00  0.90007726417E+02  0.89999987606E+02 0.  0.
        -12    1    1    2    0    0  0.56910800273E+00  0.88337782035E+00  0.53740621281E+00  0.11802735826E+01  0.00000000000E+00 0.  1.
         11    1    3    3    0    0 -0.58309845086E+01 -0.59389038512E+01  0.55660799996E+01  0.10012602365E+02  0.51100000000E-03 0. -1.
        -11    1    3    3    0    0 -0.12931808617E+02 -0.30561614493E+02 -0.18665026651E+02  0.38073969779E+02  0.51100000000E-03 0.  1.
         12    1    3    3    0    0  0.18193685123E+02  0.35617140524E+02  0.12561540439E+02  0.41921154274E+02  0.00000000000E+00 0. -1.
</event>
<event>
 7    1  0.1910099E-015  0.9000769E+02  0.7816164E-02  0.1186339E+00
        -11   -1    0    0    0    0  0.00000000000E+00  0.00000000000E+00  0.45593999997E+02  0.45594000000E+02  0.51100000000E-03 0.  1.
         11   -1    0    0    0    0 -0.00000000000E+00 -0.00000000000E+00 -0.45593999997E+02  0.45594000000E+02  0.51100000000E-03 0. -1.
    9900012    2    1    2    0    0  0.10861117301E+01 -0.24984807909E+00 -0.38867993557E+00  0.90007688666E+02  0.89999949356E+02 0.  0.
        -12    1    1    2    0    0 -0.10861117301E+01  0.24984807909E+00  0.38867993557E+00  0.11803113340E+01  0.00000000000E+00 0.  1.
         11    1    3    3    0    0  0.86105738070E+00  0.23577049283E+01 -0.42974085837E+02  0.43047325656E+02  0.51100000000E-03 0. -1.
        -11    1    3    3    0    0  0.72632449783E+01  0.20770666076E+01  0.67162823721E+01  0.10108282865E+02  0.51100000000E-03 0.  1.
        -12    1    3    3    0    0 -0.70381906289E+01 -0.46846196150E+01  0.35869123529E+02  0.36852080145E+02  0.00000000000E+00 0.  1.
</event>
<event>
 7    1  0.1910099E-015  0.9000759E+02  0.7816164E-02  0.1186339E+00
        -11   -1    0    0    0    0  0.00000000000E+00  0.00000000000E+00  0.45593999997E+02  0.45594000000E+02  0.51100000000E-03 0.  1.
         11   -1    0    0    0    0 -0.00000000000E+00 -0.00000000000E+00 -0.45593999997E+02  0.45594000000E+02  0.51100000000E-03 0. -1.
    9900012    2    1    2    0    0  0.15011754120E+00  0.11459445503E+01 -0.24010485297E+00  0.90007587136E+02  0.89999846486E+02 0.  0.
        -12    1    1    2    0    0 -0.15011754120E+00 -0.11459445503E+01  0.24010485297E+00  0.11804128637E+01  0.00000000000E+00 0.  1.
         11    1    3    3    0    0  0.20380736856E+01  0.26358475772E+01 -0.36080579682E+02  0.36234095370E+02  0.51100000000E-03 0. -1.
        -11    1    3    3    0    0  0.60971029359E+01 -0.67586324051E+01 -0.59680186511E+01  0.10884439493E+02  0.51100000000E-03 0.  1.
        -12    1    3    3    0    0 -0.79850590803E+01  0.52687293781E+01  0.41808493481E+02  0.42889052273E+02  0.00000000000E+00 0.  1.
</event>
<event>
 7    1  0.1910099E-015  0.9000732E+02  0.7816164E-02  0.1186340E+00
        -11   -1    0    0    0    0  0.00000000000E+00  0.00000000000E+00  0.45593999997E+02  0.45594000000E+02  0.51100000000E-03 0.  1.
         11   -1    0    0    0    0 -0.00000000000E+00 -0.00000000000E+00 -0.45593999997E+02  0.45594000000E+02  0.51100000000E-03 0. -1.
    9900012    2    1    2    0    0  0.33953751861E+00  0.21661609841E+00 -0.11098597270E+01  0.90007323552E+02  0.89999579422E+02 0.  0.
        -12    1    1    2    0    0 -0.33953751861E+00 -0.21661609841E+00  0.11098597270E+01  0.11806764477E+01  0.00000000000E+00 0.  1.
         11    1    3    3    0    0 -0.68550505942E+01  0.17083862429E+01 -0.81663109136E+01  0.10798098740E+02  0.51100000000E-03 0. -1.
        -11    1    3    3    0    0  0.20200501593E+02  0.34741374784E+02  0.71486398430E+00  0.40193711166E+02  0.51100000000E-03 0.  1.
         12    1    3    3    0    0 -0.13005913480E+02 -0.36233144928E+02  0.63415872024E+01  0.39015513646E+02  0.00000000000E+00 0. -1.
</event>
<event>
 7    1  0.1910099E-015  0.9000778E+02  0.7816164E-02  0.1186339E+00
        -11   -1    0    0    0    0  0.00000000000E+00  0.00000000000E+00  0.45593999997E+02  0.45594000000E+02  0.51100000000E-03 0.  1.
         11   -1    0    0    0    0 -0.00000000000E+00 -0.00000000000E+00 -0.45593999997E+02  0.45594000000E+02  0.51100000000E-03 0. -1.
    9900012    2    1    2    0    0  0.25085130617E+00 -0.10372755098E+01 -0.50404151415E+00  0.90007777687E+02  0.90000039552E+02 0.  0.
        -12    1    1    2    0    0 -0.25085130617E+00  0.10372755098E+01  0.50404151415E+00  0.11802223134E+01  0.00000000000E+00 0.  1.
         11    1    3    3    0    0 -0.40793970483E+01  0.94230085634E+01  0.39168773236E+01  0.10989836163E+02  0.51100000000E-03 0. -1.
        -11    1    3    3    0    0 -0.19693376884E+02  0.15309713669E+02 -0.27323409534E+02  0.36997096299E+02  0.51100000000E-03 0.  1.
         12    1    3    3    0    0  0.24023625239E+02 -0.25769997743E+02  0.22902490697E+02  0.42020845224E+02  0.00000000000E+00 0. -1.
</event>
<event>
 7    1  0.2001943E-015  0.9000766E+02  0.7816164E-02  0.1186339E+00
        -11   -1    0    0    0    0  0.00000000000E+00  0.00000000000E+00  0.45593999997E+02  0.45594000000E+02  0.51100000000E-03 0. -1.
         11   -1    0    0    0    0 -0.00000000000E+00 -0.00000000000E+00 -0.45593999997E+02  0.45594000000E+02  0.51100000000E-03 0.  1.
    9900012    2    1    2    0    0 -0.41310400436E+00 -0.59634217711E-01  0.11040788126E+01  0.90007660565E+02  0.89999920884E+02 0.  0.
        -12    1    1    2    0    0  0.41310400436E+00  0.59634217711E-01 -0.11040788126E+01  0.11803394354E+01  0.00000000000E+00 0.  1.
         11    1    3    3    0    0  0.89340765921E+01  0.43892466301E+01 -0.22860441831E+00  0.99566797063E+01  0.51100000000E-03 0. -1.
        -11    1    3    3    0    0  0.25489045272E+02  0.15909988154E+02 -0.18297889263E+02  0.35179992946E+02  0.51100000000E-03 0.  1.
         12    1    3    3    0    0 -0.34836225868E+02 -0.20358869002E+02  0.19630572494E+02  0.44870987912E+02  0.00000000000E+00 0. -1.
</event>
<event>
 7    1  0.1910099E-015  0.9000772E+02  0.7816164E-02  0.1186339E+00
        -11   -1    0    0    0    0  0.00000000000E+00  0.00000000000E+00  0.45593999997E+02  0.45594000000E+02  0.51100000000E-03 0. -1.
         11   -1    0    0    0    0 -0.00000000000E+00 -0.00000000000E+00 -0.45593999997E+02  0.45594000000E+02  0.51100000000E-03 0.  1.
    9900012    2    1    2    0    0 -0.80581385930E+00 -0.50533372579E+00  0.69883296308E+00  0.90007717974E+02  0.89999979051E+02 0.  0.
        -12    1    1    2    0    0  0.80581385930E+00  0.50533372579E+00 -0.69883296308E+00  0.11802820258E+01  0.00000000000E+00 0.  1.
         11    1    3    3    0    0 -0.12539679445E+02 -0.25438829860E+02  0.33337278108E+02  0.43769301309E+02  0.51100000000E-03 0. -1.
        -11    1    3    3    0    0  0.80900822622E+01  0.14418339410E+01 -0.43851626222E+01  0.93143957188E+01  0.51100000000E-03 0.  1.
        -12    1    3    3    0    0  0.36437833231E+01  0.23491662194E+02 -0.28253282522E+02  0.36924020946E+02  0.00000000000E+00 0.  1.
</event>
<event>
 7    1  0.1910099E-015  0.9000789E+02  0.7816164E-02  0.1186339E+00
        -11   -1    0    0    0    0  0.00000000000E+00  0.00000000000E+00  0.45593999997E+02  0.45594000000E+02  0.51100000000E-03 0.  1.
         11   -1    0    0    0    0 -0.00000000000E+00 -0.00000000000E+00 -0.45593999997E+02  0.45594000000E+02  0.51100000000E-03 0. -1.
    9900012    2    1    2    0    0  0.52982131007E+00 -0.88568632684E-01 -0.10507614166E+01  0.90007892133E+02  0.90000155509E+02 0.  0.
        -12    1    1    2    0    0 -0.52982131007E+00  0.88568632684E-01  0.10507614166E+01  0.11801078671E+01  0.00000000000E+00 0.  1.
         11    1    3    3    0    0  0.66074597888E+01 -0.76272032657E+01 -0.53661342698E+00  0.10105479145E+02  0.51100000000E-03 0. -1.
        -11    1    3    3    0    0  0.15162561441E+02  0.79631325300E+01  0.34745584661E+02  0.38737196631E+02  0.51100000000E-03 0.  1.
         12    1    3    3    0    0 -0.21240199920E+02 -0.42449789706E+00 -0.35259732651E+02  0.41165216357E+02  0.00000000000E+00 0. -1.
</event>
<event>
 7    1  0.1910099E-015  0.9000772E+02  0.7816164E-02  0.1186339E+00
        -11   -1    0    0    0    0  0.00000000000E+00  0.00000000000E+00  0.45593999997E+02  0.45594000000E+02  0.51100000000E-03 0.  1.
         11   -1    0    0    0    0 -0.00000000000E+00 -0.00000000000E+00 -0.45593999997E+02  0.45594000000E+02  0.51100000000E-03 0. -1.
    9900012    2    1    2    0    0 -0.39825902707E+00  0.12112708420E+00 -0.11044310996E+01  0.90007724576E+02  0.89999985740E+02 0.  0.
        -12    1    1    2    0    0  0.39825902707E+00 -0.12112708420E+00  0.11044310996E+01  0.11802754242E+01  0.00000000000E+00 0.  1.
         11    1    3    3    0    0  0.51887652335E+01  0.75626827104E+00  0.55288750619E+01  0.76199531532E+01  0.51100000000E-03 0. -1.
        -11    1    3    3    0    0  0.54446975110E+01  0.36261095180E+02 -0.19821286042E+02  0.41682072109E+02  0.51100000000E-03 0.  1.
         12    1    3    3    0    0 -0.11031721772E+02 -0.36896236367E+02  0.13187979880E+02  0.40705699314E+02  0.00000000000E+00 0. -1.
</event>
<event>
 7    1  0.1910099E-015  0.9000771E+02  0.7816164E-02  0.1186339E+00
        -11   -1    0    0    0    0  0.00000000000E+00  0.00000000000E+00  0.45593999997E+02  0.45594000000E+02  0.51100000000E-03 0.  1.
         11   -1    0    0    0    0 -0.00000000000E+00 -0.00000000000E+00 -0.45593999997E+02  0.45594000000E+02  0.51100000000E-03 0. -1.
    9900012    2    1    2    0    0  0.37216460033E+00 -0.90942985722E+00 -0.65385113547E+00  0.90007707467E+02  0.89999968406E+02 0.  0.
        -12    1    1    2    0    0 -0.37216460033E+00  0.90942985722E+00  0.65385113547E+00  0.11802925325E+01  0.00000000000E+00 0.  1.
         11    1    3    3    0    0  0.24793815394E+02 -0.95405872756E+00 -0.20077418176E+02  0.31917804290E+02  0.51100000000E-03 0. -1.
        -11    1    3    3    0    0  0.14661545846E+02 -0.80885992252E+00  0.58620278804E+00  0.14695537245E+02  0.51100000000E-03 0.  1.
        -12    1    3    3    0    0 -0.39083196639E+02  0.85348879286E+00  0.18837364253E+02  0.43394365932E+02  0.00000000000E+00 0.  1.
</event>
<event>
 7    1  0.1910099E-015  0.9000778E+02  0.7816164E-02  0.1186339E+00
        -11   -1    0    0    0    0  0.00000000000E+00  0.00000000000E+00  0.45593999997E+02  0.45594000000E+02  0.51100000000E-03 0.  1.
         11   -1    0    0    0    0 -0.00000000000E+00 -0.00000000000E+00 -0.45593999997E+02  0.45594000000E+02  0.51100000000E-03 0. -1.
    9900012    2    1    2    0    0  0.74439838577E+00 -0.86971643794E+00 -0.28703176205E+00  0.90007778465E+02  0.90000040341E+02 0.  0.
        -12    1    1    2    0    0 -0.74439838577E+00  0.86971643794E+00  0.28703176205E+00  0.11802215350E+01  0.00000000000E+00 0.  1.
         11    1    3    3    0    0  0.22633330861E+02 -0.23272688793E+02 -0.21730392023E+02  0.39065274186E+02  0.51100000000E-03 0. -1.
        -11    1    3    3    0    0  0.77739923747E+01 -0.28602020003E+00 -0.19405919663E+00  0.77816723286E+01  0.51100000000E-03 0.  1.
        -12    1    3    3    0    0 -0.29662924850E+02  0.22688992555E+02  0.21637419458E+02  0.43160831950E+02  0.00000000000E+00 0.  1.
</event>
<event>
 7    1  0.1910099E-015  0.9000774E+02  0.7816164E-02  0.1186339E+00
        -11   -1    0    0    0    0  0.00000000000E+00  0.00000000000E+00  0.45593999997E+02  0.45594000000E+02  0.51100000000E-03 0. -1.
         11   -1    0    0    0    0 -0.00000000000E+00 -0.00000000000E+00 -0.45593999997E+02  0.45594000000E+02  0.51100000000E-03 0.  1.
    9900012    2    1    2    0    0  0.55721259189E+00  0.65432724241E+00  0.80894505362E+00  0.90007736422E+02  0.89999997743E+02 0.  0.
        -12    1    1    2    0    0 -0.55721259189E+00 -0.65432724241E+00 -0.80894505362E+00  0.11802635775E+01  0.00000000000E+00 0.  1.
         11    1    3    3    0    0  0.15063998249E+02  0.39833648871E+00  0.34545205924E+02  0.37688910408E+02  0.51100000000E-03 0. -1.
        -11    1    3    3    0    0 -0.15808142364E+01 -0.62167634813E+01  0.67603917885E+01  0.93193357718E+01  0.51100000000E-03 0.  1.
        -12    1    3    3    0    0 -0.12925971421E+02  0.64727542350E+01 -0.40496652659E+02  0.42999490242E+02  0.00000000000E+00 0.  1.
</event>
<event>
 7    1  0.1910099E-015  0.9000774E+02  0.7816164E-02  0.1186339E+00
        -11   -1    0    0    0    0  0.00000000000E+00  0.00000000000E+00  0.45593999997E+02  0.45594000000E+02  0.51100000000E-03 0. -1.
         11   -1    0    0    0    0 -0.00000000000E+00 -0.00000000000E+00 -0.45593999997E+02  0.45594000000E+02  0.51100000000E-03 0.  1.
    9900012    2    1    2    0    0  0.11400640893E+01 -0.29558300195E+00 -0.76759051654E-01  0.90007742659E+02  0.90000004062E+02 0.  0.
        -12    1    1    2    0    0 -0.11400640893E+01  0.29558300195E+00  0.76759051654E-01  0.11802573409E+01  0.00000000000E+00 0.  1.
         11    1    3    3    0    0 -0.10611424596E+02  0.74508695305E+01  0.33342164773E+02  0.35774540398E+02  0.51100000000E-03 0. -1.
        -11    1    3    3    0    0 -0.84108630067E+01  0.50595854538E+01  0.33636838491E+01  0.10375759769E+02  0.51100000000E-03 0.  1.
        -12    1    3    3    0    0  0.20162351692E+02 -0.12806037986E+02 -0.36782607673E+02  0.43857442492E+02  0.00000000000E+00 0.  1.
</event>
<event>
 7    1  0.1910099E-015  0.9000773E+02  0.7816164E-02  0.1186339E+00
        -11   -1    0    0    0    0  0.00000000000E+00  0.00000000000E+00  0.45593999997E+02  0.45594000000E+02  0.51100000000E-03 0. -1.
         11   -1    0    0    0    0 -0.00000000000E+00 -0.00000000000E+00 -0.45593999997E+02  0.45594000000E+02  0.51100000000E-03 0.  1.
    9900012    2    1    2    0    0  0.69057905024E+00 -0.69251838410E+00 -0.66072216668E+00  0.90007730997E+02  0.89999992247E+02 0.  0.
        -12    1    1    2    0    0 -0.69057905024E+00  0.69251838410E+00  0.66072216668E+00  0.11802690026E+01  0.00000000000E+00 0.  1.
         11    1    3    3    0    0 -0.14659876989E+02  0.30873858759E+02  0.11512931021E+01  0.34196968054E+02  0.51100000000E-03 0. -1.
        -11    1    3    3    0    0  0.60540969551E+01  0.10223928286E+02 -0.49767880574E+01  0.12882127897E+02  0.51100000000E-03 0.  1.
        -12    1    3    3    0    0  0.92963590845E+01 -0.41790305429E+02  0.31647727887E+01  0.42928635046E+02  0.00000000000E+00 0.  1.
</event>
<event>
 7    1  0.1910099E-015  0.9000768E+02  0.7816164E-02  0.1186339E+00
        -11   -1    0    0    0    0  0.00000000000E+00  0.00000000000E+00  0.45593999997E+02  0.45594000000E+02  0.51100000000E-03 0.  1.
         11   -1    0    0    0    0 -0.00000000000E+00 -0.00000000000E+00 -0.45593999997E+02  0.45594000000E+02  0.51100000000E-03 0. -1.
    9900012    2    1    2    0    0  0.77159123048E+00  0.12338224985E-01 -0.89310957762E+00  0.90007682256E+02  0.89999942862E+02 0.  0.
        -12    1    1    2    0    0 -0.77159123048E+00 -0.12338224985E-01  0.89310957762E+00  0.11803177438E+01  0.00000000000E+00 0.  1.
         11    1    3    3    0    0 -0.31596847899E+01  0.54406579753E+01  0.72172303199E+01  0.95745903791E+01  0.51100000000E-03 0. -1.
        -11    1    3    3    0    0  0.32539689300E+02  0.15781643282E+02 -0.21859540098E+02  0.42257912135E+02  0.51100000000E-03 0.  1.
         12    1    3    3    0    0 -0.28608413280E+02 -0.21209963032E+02  0.13749200201E+02  0.38175179742E+02  0.00000000000E+00 0. -1.
</event>
<event>
 7    1  0.1910099E-015  0.9000761E+02  0.7816164E-02  0.1186339E+00
        -11   -1    0    0    0    0  0.00000000000E+00  0.00000000000E+00  0.45593999997E+02  0.45594000000E+02  0.51100000000E-03 0.  1.
         11   -1    0    0    0    0 -0.00000000000E+00 -0.00000000000E+00 -0.45593999997E+02  0.45594000000E+02  0.51100000000E-03 0. -1.
    9900012    2    1    2    0    0  0.92105290957E+00 -0.73210472944E+00  0.94927535993E-01  0.90007607254E+02  0.89999866870E+02 0.  0.
        -12    1    1    2    0    0 -0.92105290957E+00  0.73210472944E+00 -0.94927535993E-01  0.11803927457E+01  0.00000000000E+00 0.  1.
         11    1    3    3    0    0 -0.56818139971E+01 -0.24046926568E+02  0.25195618616E+02  0.35289614412E+02  0.51100000000E-03 0. -1.
        -11    1    3    3    0    0  0.20083321720E+01 -0.11343982228E+02  0.26517236746E+00  0.11523439051E+02  0.51100000000E-03 0.  1.
        -12    1    3    3    0    0  0.45945347347E+01  0.34658804067E+02 -0.25365863447E+02  0.43194553791E+02  0.00000000000E+00 0.  1.
</event>
<event>
 7    1  0.1910099E-015  0.9000776E+02  0.7816164E-02  0.1186339E+00
        -11   -1    0    0    0    0  0.00000000000E+00  0.00000000000E+00  0.45593999997E+02  0.45594000000E+02  0.51100000000E-03 0.  1.
         11   -1    0    0    0    0 -0.00000000000E+00 -0.00000000000E+00 -0.45593999997E+02  0.45594000000E+02  0.51100000000E-03 0. -1.
    9900012    2    1    2    0    0 -0.11460642030E+01 -0.20295127944E+00 -0.19571430172E+00  0.90007764232E+02  0.90000025920E+02 0.  0.
        -12    1    1    2    0    0  0.11460642030E+01  0.20295127944E+00  0.19571430172E+00  0.11802357676E+01  0.00000000000E+00 0.  1.
         11    1    3    3    0    0  0.26200442980E+02  0.17278092767E+02 -0.14881891327E+02  0.34734225077E+02  0.51100000000E-03 0. -1.
        -11    1    3    3    0    0  0.25058490192E+01  0.45853062851E+01 -0.95877145780E+01  0.10919184224E+02  0.51100000000E-03 0.  1.
        -12    1    3    3    0    0 -0.29852356202E+02 -0.22066350331E+02  0.24273891603E+02  0.44354354931E+02  0.00000000000E+00 0.  1.
</event>
<event>
 7    1  0.1910099E-015  0.9000770E+02  0.7816164E-02  0.1186339E+00
        -11   -1    0    0    0    0  0.00000000000E+00  0.00000000000E+00  0.45593999997E+02  0.45594000000E+02  0.51100000000E-03 0. -1.
         11   -1    0    0    0    0 -0.00000000000E+00 -0.00000000000E+00 -0.45593999997E+02  0.45594000000E+02  0.51100000000E-03 0.  1.
    9900012    2    1    2    0    0 -0.25636992785E+00  0.11076205523E+01  0.31710483659E+00  0.90007701603E+02  0.89999962465E+02 0.  0.
        -12    1    1    2    0    0  0.25636992785E+00 -0.11076205523E+01 -0.31710483659E+00  0.11802983966E+01  0.00000000000E+00 0.  1.
         11    1    3    3    0    0  0.11005427543E+02 -0.62743196656E+00  0.73177931590E+01  0.13231145198E+02  0.51100000000E-03 0. -1.
        -11    1    3    3    0    0  0.25627344481E+02  0.19683414801E+02 -0.13899706912E+02  0.35176689098E+02  0.51100000000E-03 0.  1.
         12    1    3    3    0    0 -0.36889141951E+02 -0.17948362282E+02  0.68990185898E+01  0.41599867308E+02  0.00000000000E+00 0. -1.
</event>
<event>
 7    1  0.1910099E-015  0.9000779E+02  0.7816164E-02  0.1186339E+00
        -11   -1    0    0    0    0  0.00000000000E+00  0.00000000000E+00  0.45593999997E+02  0.45594000000E+02  0.51100000000E-03 0.  1.
         11   -1    0    0    0    0 -0.00000000000E+00 -0.00000000000E+00 -0.45593999997E+02  0.45594000000E+02  0.51100000000E-03 0. -1.
    9900012    2    1    2    0    0 -0.21024411616E+00 -0.56985284502E+00 -0.10119097771E+01  0.90007789743E+02  0.90000051768E+02 0.  0.
        -12    1    1    2    0    0  0.21024411616E+00  0.56985284502E+00  0.10119097771E+01  0.11802102568E+01  0.00000000000E+00 0.  1.
         11    1    3    3    0    0  0.29204421498E+02 -0.19023701060E+02  0.12489498872E+02  0.37024141035E+02  0.51100000000E-03 0. -1.
        -11    1    3    3    0    0 -0.23402781439E-01  0.21208958142E+02 -0.93293437770E+01  0.23170177140E+02  0.51100000000E-03 0.  1.
        -12    1    3    3    0    0 -0.29391262833E+02 -0.27551099263E+01 -0.41720648723E+01  0.29813471567E+02  0.00000000000E+00 0.  1.
</event>
<event>
 7    1  0.1910099E-015  0.9000777E+02  0.7816164E-02  0.1186339E+00
        -11   -1    0    0    0    0  0.00000000000E+00  0.00000000000E+00  0.45593999997E+02  0.45594000000E+02  0.51100000000E-03 0. -1.
         11   -1    0    0    0    0 -0.00000000000E+00 -0.00000000000E+00 -0.45593999997E+02  0.45594000000E+02  0.51100000000E-03 0.  1.
    9900012    2    1    2    0    0 -0.10838478948E+01 -0.46322009772E+00  0.60333037721E-01  0.90007771550E+02  0.90000033335E+02 0.  0.
        -12    1    1    2    0    0  0.10838478948E+01  0.46322009772E+00 -0.60333037721E-01  0.11802284497E+01  0.00000000000E+00 0.  1.
         11    1    3    3    0    0  0.34166390797E+01 -0.14162537052E+01 -0.81445006639E+01  0.89449476513E+01  0.51100000000E-03 0. -1.
        -11    1    3    3    0    0  0.14119076098E+02 -0.23813425244E+02 -0.23805867741E+02  0.36512283836E+02  0.51100000000E-03 0.  1.
         12    1    3    3    0    0 -0.18619563072E+02  0.24766458852E+02  0.32010701443E+02  0.44550540063E+02  0.00000000000E+00 0. -1.
</event>
<event>
 7    1  0.1910099E-015  0.9000758E+02  0.7816164E-02  0.1186339E+00
        -11   -1    0    0    0    0  0.00000000000E+00  0.00000000000E+00  0.45593999997E+02  0.45594000000E+02  0.51100000000E-03 0.  1.
         11   -1    0    0    0    0 -0.00000000000E+00 -0.00000000000E+00 -0.45593999997E+02  0.45594000000E+02  0.51100000000E-03 0. -1.
    9900012    2    1    2    0    0  0.12401658653E+00 -0.27397695752E+00  0.11414625318E+01  0.90007584735E+02  0.89999844053E+02 0.  0.
        -12    1    1    2    0    0 -0.12401658653E+00  0.27397695752E+00 -0.11414625318E+01  0.11804152652E+01  0.00000000000E+00 0.  1.
         11    1    3    3    0    0  0.98544233551E+01  0.16961119912E+01  0.19171489451E+01  0.10181449597E+02  0.51100000000E-03 0. -1.
        -11    1    3    3    0    0 -0.14726544991E+02 -0.14970141480E+02  0.35345515888E+02  0.41113036339E+02  0.51100000000E-03 0.  1.
         12    1    3    3    0    0  0.49961382222E+01  0.13000052531E+02 -0.36121202302E+02  0.38713098800E+02  0.00000000000E+00 0. -1.
</event>
<event>
 7    1  0.1910099E-015  0.9000769E+02  0.7816164E-02  0.1186339E+00
        -11   -1    0    0    0    0  0.00000000000E+00  0.00000000000E+00  0.45593999997E+02  0.45594000000E+02  0.51100000000E-03 0.  1.
         11   -1    0    0    0    0 -0.00000000000E+00 -0.00000000000E+00 -0.45593999997E+02  0.45594000000E+02  0.51100000000E-03 0. -1.
    9900012    2    1    2    0    0  0.40975899600E+00 -0.29586477240E+00 -0.10666296645E+01  0.90007687652E+02  0.89999948329E+02 0.  0.
        -12    1    1    2    0    0 -0.40975899600E+00  0.29586477240E+00  0.10666296645E+01  0.11803123483E+01  0.00000000000E+00 0.  1.
         11    1    3    3    0    0  0.92926392953E+01  0.14150294329E+01 -0.45225404029E+01  0.10431146884E+02  0.51100000000E-03 0. -1.
        -11    1    3    3    0    0  0.14499862611E+02  0.18525398533E+02  0.30484108869E+02  0.38506068357E+02  0.51100000000E-03 0.  1.
         12    1    3    3    0    0 -0.23382742910E+02 -0.20236292739E+02 -0.27028198130E+02  0.41070472410E+02  0.00000000000E+00 0. -1.
</event>
<event>
 7    1  0.1910099E-015  0.9000771E+02  0.7816164E-02  0.1186339E+00
        -11   -1    0    0    0    0  0.00000000000E+00  0.00000000000E+00  0.45593999997E+02  0.45594000000E+02  0.51100000000E-03 0. -1.
         11   -1    0    0    0    0 -0.00000000000E+00 -0.00000000000E+00 -0.45593999997E+02  0.45594000000E+02  0.51100000000E-03 0.  1.
    9900012    2    1    2    0    0 -0.81203696941E+00  0.62493092680E+00  0.58578497088E+00  0.90007709046E+02  0.89999970006E+02 0.  0.
        -12    1    1    2    0    0  0.81203696941E+00 -0.62493092680E+00 -0.58578497088E+00  0.11802909536E+01  0.00000000000E+00 0.  1.
         11    1    3    3    0    0  0.14164808546E+01 -0.70364614962E+01 -0.70325746682E+01  0.10048647428E+02  0.51100000000E-03 0. -1.
        -11    1    3    3    0    0  0.23829689709E+02 -0.15889244654E+01 -0.26742138520E+02  0.35854159668E+02  0.51100000000E-03 0.  1.
         12    1    3    3    0    0 -0.26058207533E+02  0.92503168884E+01  0.34360498159E+02  0.44104901951E+02  0.00000000000E+00 0. -1.
</event>
<event>
 7    1  0.1910099E-015  0.9000771E+02  0.7816164E-02  0.1186339E+00
        -11   -1    0    0    0    0  0.00000000000E+00  0.00000000000E+00  0.45593999997E+02  0.45594000000E+02  0.51100000000E-03 0. -1.
         11   -1    0    0    0    0 -0.00000000000E+00 -0.00000000000E+00 -0.45593999997E+02  0.45594000000E+02  0.51100000000E-03 0.  1.
    9900012    2    1    2    0    0 -0.60355349234E+00  0.13380702578E+00  0.10054398483E+01  0.90007707483E+02  0.89999968421E+02 0.  0.
        -12    1    1    2    0    0  0.60355349234E+00 -0.13380702578E+00 -0.10054398483E+01  0.11802925175E+01  0.00000000000E+00 0.  1.
         11    1    3    3    0    0 -0.10458524154E+02  0.48402416038E+01  0.27707967093E+01  0.11852678218E+02  0.51100000000E-03 0. -1.
        -11    1    3    3    0    0 -0.22221092912E+02 -0.27040079965E+02 -0.13240519879E+02  0.37419971428E+02  0.51100000000E-03 0.  1.
         12    1    3    3    0    0  0.32076063574E+02  0.22333645387E+02  0.11475163018E+02  0.40735057837E+02  0.00000000000E+00 0. -1.
</event>
<event>
 7    1  0.1910099E-015  0.9000803E+02  0.7816164E-02  0.1186338E+00
        -11   -1    0    0    0    0  0.00000000000E+00  0.00000000000E+00  0.45593999997E+02  0.45594000000E+02  0.51100000000E-03 0.  1.
         11   -1    0    0    0    0 -0.00000000000E+00 -0.00000000000E+00 -0.45593999997E+02  0.45594000000E+02  0.51100000000E-03 0. -1.
    9900012    2    1    2    0    0  0.73429628770E+00 -0.91144775479E+00  0.14963147248E+00  0.90008034905E+02  0.90000300165E+02 0.  0.
        -12    1    1    2    0    0 -0.73429628770E+00  0.91144775479E+00 -0.14963147248E+00  0.11799650950E+01  0.00000000000E+00 0.  1.
         11    1    3    3    0    0 -0.26770380729E+01 -0.32383989469E+01  0.80171673166E+01  0.90514492004E+01  0.51100000000E-03 0. -1.
        -11    1    3    3    0    0  0.45913477284E+01 -0.24796290316E+02  0.26882097879E+02  0.36858970062E+02  0.51100000000E-03 0.  1.
         12    1    3    3    0    0 -0.11800133677E+01  0.27123241508E+02 -0.34749633723E+02  0.44097615642E+02  0.00000000000E+00 0. -1.
</event>
<event>
 7    1  0.1910099E-015  0.9000771E+02  0.7816164E-02  0.1186339E+00
        -11   -1    0    0    0    0  0.00000000000E+00  0.00000000000E+00  0.45593999997E+02  0.45594000000E+02  0.51100000000E-03 0. -1.
         11   -1    0    0    0    0 -0.00000000000E+00 -0.00000000000E+00 -0.45593999997E+02  0.45594000000E+02  0.51100000000E-03 0.  1.
    9900012    2    1    2    0    0  0.41383653749E+00  0.38182501718E+00  0.10373163664E+01  0.90007713481E+02  0.89999974499E+02 0.  0.
        -12    1    1    2    0    0 -0.41383653749E+00 -0.38182501718E+00 -0.10373163664E+01  0.11802865193E+01  0.00000000000E+00 0.  1.
         11    1    3    3    0    0  0.10512287404E+02 -0.39488557987E+01  0.34974394830E+01  0.11761536115E+02  0.51100000000E-03 0. -1.
        -11    1    3    3    0    0  0.22030369744E+02 -0.25939766071E+02 -0.21897714573E+01  0.34102840852E+02  0.51100000000E-03 0.  1.
         12    1    3    3    0    0 -0.32128820610E+02  0.30270446887E+02 -0.27035165935E+00  0.44143336514E+02  0.00000000000E+00 0. -1.
</event>
<event>
 7    1  0.1910099E-015  0.9000773E+02  0.7816164E-02  0.1186339E+00
        -11   -1    0    0    0    0  0.00000000000E+00  0.00000000000E+00  0.45593999997E+02  0.45594000000E+02  0.51100000000E-03 0.  1.
         11   -1    0    0    0    0 -0.00000000000E+00 -0.00000000000E+00 -0.45593999997E+02  0.45594000000E+02  0.51100000000E-03 0. -1.
    9900012    2    1    2    0    0  0.30957982674E-01 -0.54464352085E+00 -0.10466340736E+01  0.90007729757E+02  0.89999990990E+02 0.  0.
        -12    1    1    2    0    0 -0.30957982674E-01  0.54464352085E+00  0.10466340736E+01  0.11802702426E+01  0.00000000000E+00 0.  1.
         11    1    3    3    0    0 -0.33639740962E+01  0.18570876495E+01  0.80615068194E+01  0.89304528842E+01  0.51100000000E-03 0. -1.
        -11    1    3    3    0    0 -0.12989386096E+02  0.30417976100E+02  0.15882819673E+02  0.36691162181E+02  0.51100000000E-03 0.  1.
         12    1    3    3    0    0  0.16384318175E+02 -0.32819707271E+02 -0.24990960566E+02  0.44386114692E+02  0.00000000000E+00 0. -1.
</event>
<event>
 7    1  0.1910099E-015  0.9000770E+02  0.7816164E-02  0.1186339E+00
        -11   -1    0    0    0    0  0.00000000000E+00  0.00000000000E+00  0.45593999997E+02  0.45594000000E+02  0.51100000000E-03 0.  1.
         11   -1    0    0    0    0 -0.00000000000E+00 -0.00000000000E+00 -0.45593999997E+02  0.45594000000E+02  0.51100000000E-03 0. -1.
    9900012    2    1    2    0    0 -0.92391061524E+00  0.57741392721E+00 -0.45396836797E+00  0.90007701331E+02  0.89999962189E+02 0.  0.
        -12    1    1    2    0    0  0.92391061524E+00 -0.57741392721E+00  0.45396836797E+00  0.11802986687E+01  0.00000000000E+00 0.  1.
         11    1    3    3    0    0 -0.79650105823E+01 -0.46736951893E+01  0.30117351754E+01  0.97136692000E+01  0.51100000000E-03 0. -1.
        -11    1    3    3    0    0 -0.33308340256E+02 -0.60996991650E+01  0.11538105070E+02  0.35774009132E+02  0.51100000000E-03 0.  1.
         12    1    3    3    0    0  0.40349440223E+02  0.11350808281E+02 -0.15003808613E+02  0.44520022999E+02  0.00000000000E+00 0. -1.
</event>
<event>
 7    1  0.1910099E-015  0.9000774E+02  0.7816164E-02  0.1186339E+00
        -11   -1    0    0    0    0  0.00000000000E+00  0.00000000000E+00  0.45593999997E+02  0.45594000000E+02  0.51100000000E-03 0. -1.
         11   -1    0    0    0    0 -0.00000000000E+00 -0.00000000000E+00 -0.45593999997E+02  0.45594000000E+02  0.51100000000E-03 0.  1.
    9900012    2    1    2    0    0 -0.11377960327E+01 -0.80547087670E-01  0.30321810344E+00  0.90007742035E+02  0.90000003430E+02 0.  0.
        -12    1    1    2    0    0  0.11377960327E+01  0.80547087670E-01 -0.30321810344E+00  0.11802579648E+01  0.00000000000E+00 0.  1.
         11    1    3    3    0    0  0.12710561055E+02 -0.18618855139E+02 -0.97690376410E+01  0.24569375770E+02  0.51100000000E-03 0. -1.
        -11    1    3    3    0    0 -0.30540942588E+02 -0.18685746969E+01 -0.10121738268E+02  0.32228719047E+02  0.51100000000E-03 0.  1.
         12    1    3    3    0    0  0.16692585501E+02  0.20406882748E+02  0.20193994012E+02  0.33209647218E+02  0.00000000000E+00 0. -1.
</event>
<event>
 7    1  0.1910099E-015  0.9000775E+02  0.7816164E-02  0.1186339E+00
        -11   -1    0    0    0    0  0.00000000000E+00  0.00000000000E+00  0.45593999997E+02  0.45594000000E+02  0.51100000000E-03 0.  1.
         11   -1    0    0    0    0 -0.00000000000E+00 -0.00000000000E+00 -0.45593999997E+02  0.45594000000E+02  0.51100000000E-03 0. -1.
    9900012    2    1    2    0    0 -0.19796892776E+00 -0.33278766753E+00 -0.11149188436E+01  0.90007752841E+02  0.90000014379E+02 0.  0.
        -12    1    1    2    0    0  0.19796892776E+00  0.33278766753E+00  0.11149188436E+01  0.11802471587E+01  0.00000000000E+00 0.  1.
         11    1    3    3    0    0 -0.54100514569E+01  0.40350611372E+02  0.32174044554E+01  0.40838611467E+02  0.51100000000E-03 0. -1.
        -11    1    3    3    0    0 -0.34254192380E+01 -0.41637144831E+01  0.80177030082E+01  0.96619654854E+01  0.51100000000E-03 0.  1.
        -12    1    3    3    0    0  0.86375017671E+01 -0.36519684557E+02 -0.12350026307E+02  0.39507175889E+02  0.00000000000E+00 0.  1.
</event>
<event>
 7    1  0.1910099E-015  0.9000784E+02  0.7816164E-02  0.1186339E+00
        -11   -1    0    0    0    0  0.00000000000E+00  0.00000000000E+00  0.45593999997E+02  0.45594000000E+02  0.51100000000E-03 0.  1.
         11   -1    0    0    0    0 -0.00000000000E+00 -0.00000000000E+00 -0.45593999997E+02  0.45594000000E+02  0.51100000000E-03 0. -1.
    9900012    2    1    2    0    0  0.75919126177E+00 -0.17374744469E-01 -0.90338665957E+00  0.90007838693E+02  0.90000101364E+02 0.  0.
        -12    1    1    2    0    0 -0.75919126177E+00  0.17374744469E-01  0.90338665957E+00  0.11801613069E+01  0.00000000000E+00 0.  1.
         11    1    3    3    0    0 -0.25417475908E+02  0.24718367250E+02 -0.13961898486E+02  0.38104860198E+02  0.51100000000E-03 0. -1.
        -11    1    3    3    0    0 -0.26608523873E+01  0.37866284114E+01  0.10249162735E+02  0.11245622579E+02  0.51100000000E-03 0.  1.
        -12    1    3    3    0    0  0.28837519557E+02 -0.28522370406E+02  0.28093490915E+01  0.40657355917E+02  0.00000000000E+00 0.  1.
</event>
<event>
 7    1  0.1910099E-015  0.9000768E+02  0.7816164E-02  0.1186339E+00
        -11   -1    0    0    0    0  0.00000000000E+00  0.00000000000E+00  0.45593999997E+02  0.45594000000E+02  0.51100000000E-03 0.  1.
         11   -1    0    0    0    0 -0.00000000000E+00 -0.00000000000E+00 -0.45593999997E+02  0.45594000000E+02  0.51100000000E-03 0. -1.
    9900012    2    1    2    0    0 -0.30154687196E+00  0.11385511460E+01  0.76953942953E-01  0.90007681764E+02  0.89999942364E+02 0.  0.
        -12    1    1    2    0    0  0.30154687196E+00 -0.11385511460E+01 -0.76953942953E-01  0.11803182356E+01  0.00000000000E+00 0.  1.
         11    1    3    3    0    0  0.29941853851E+01 -0.33214420716E+02  0.66302639573E+01  0.34001813040E+02  0.51100000000E-03 0. -1.
        -11    1    3    3    0    0  0.58108745906E+01 -0.89058484937E+01  0.23998943943E+01  0.10901371210E+02  0.51100000000E-03 0.  1.
        -12    1    3    3    0    0 -0.91066068476E+01  0.43258820355E+02 -0.89532044086E+01  0.45104497514E+02  0.00000000000E+00 0.  1.
</event>
<event>
 7    1  0.2144758E-015  0.9000777E+02  0.7816164E-02  0.1186339E+00
        -11   -1    0    0    0    0  0.00000000000E+00  0.00000000000E+00  0.45593999997E+02  0.45594000000E+02  0.51100000000E-03 0. -1.
         11   -1    0    0    0    0 -0.00000000000E+00 -0.00000000000E+00 -0.45593999997E+02  0.45594000000E+02  0.51100000000E-03 0.  1.
    9900012    2    1    2    0    0 -0.44193503862E+00 -0.82816639267E+00  0.71538863126E+00  0.90007768224E+02  0.90000029964E+02 0.  0.
        -12    1    1    2    0    0  0.44193503862E+00  0.82816639267E+00 -0.71538863126E+00  0.11802317764E+01  0.00000000000E+00 0.  1.
         11    1    3    3    0    0 -0.50403305412E+01 -0.48061078859E+01 -0.60695289983E+01  0.92381160145E+01  0.51100000000E-03 0. -1.
        -11    1    3    3    0    0  0.35833388593E+01  0.35935517431E+02 -0.17965641617E+02  0.40335666716E+02  0.51100000000E-03 0.  1.
         12    1    3    3    0    0  0.10150566432E+01 -0.31957575938E+02  0.24750559247E+02  0.40433985493E+02  0.00000000000E+00 0. -1.
</event>
<event>
 7    1  0.1910099E-015  0.9000772E+02  0.7816164E-02  0.1186339E+00
        -11   -1    0    0    0    0  0.00000000000E+00  0.00000000000E+00  0.45593999997E+02  0.45594000000E+02  0.51100000000E-03 0.  1.
         11   -1    0    0    0    0 -0.00000000000E+00 -0.00000000000E+00 -0.45593999997E+02  0.45594000000E+02  0.51100000000E-03 0. -1.
    9900012    2    1    2    0    0  0.35261769161E+00 -0.11098752160E+01 -0.19207523992E+00  0.90007722435E+02  0.89999983572E+02 0.  0.
        -12    1    1    2    0    0 -0.35261769161E+00  0.11098752160E+01  0.19207523992E+00  0.11802775645E+01  0.00000000000E+00 0.  1.
         11    1    3    3    0    0  0.70326316361E+01  0.45945728042E+01  0.61947440805E+01  0.10437569711E+02  0.51100000000E-03 0. -1.
        -11    1    3    3    0    0  0.14351929822E+02  0.26333914384E+02  0.17195710081E+02  0.34570874763E+02  0.51100000000E-03 0.  1.
         12    1    3    3    0    0 -0.21031943766E+02 -0.32038362404E+02 -0.23582529402E+02  0.44999277962E+02  0.00000000000E+00 0. -1.
</event>
<event>
 7    1  0.1910099E-015  0.9000773E+02  0.7816164E-02  0.1186339E+00
        -11   -1    0    0    0    0  0.00000000000E+00  0.00000000000E+00  0.45593999997E+02  0.45594000000E+02  0.51100000000E-03 0. -1.
         11   -1    0    0    0    0 -0.00000000000E+00 -0.00000000000E+00 -0.45593999997E+02  0.45594000000E+02  0.51100000000E-03 0.  1.
    9900012    2    1    2    0    0 -0.11692835523E+00 -0.42926639696E+00  0.10932069122E+01  0.90007727475E+02  0.89999988678E+02 0.  0.
        -12    1    1    2    0    0  0.11692835523E+00  0.42926639696E+00 -0.10932069122E+01  0.11802725247E+01  0.00000000000E+00 0.  1.
         11    1    3    3    0    0  0.82696738588E+01 -0.25770119873E+01 -0.70282956299E+01  0.11154615020E+02  0.51100000000E-03 0. -1.
        -11    1    3    3    0    0  0.32632639312E+02 -0.56101214905E+01 -0.80634696963E+01  0.34079057431E+02  0.51100000000E-03 0.  1.
         12    1    3    3    0    0 -0.41019241526E+02  0.77578670809E+01  0.16184972238E+02  0.44774055025E+02  0.00000000000E+00 0. -1.
</event>
<event>
 7    1  0.1910099E-015  0.9000786E+02  0.7816164E-02  0.1186339E+00
        -11   -1    0    0    0    0  0.00000000000E+00  0.00000000000E+00  0.45593999997E+02  0.45594000000E+02  0.51100000000E-03 0. -1.
         11   -1    0    0    0    0 -0.00000000000E+00 -0.00000000000E+00 -0.45593999997E+02  0.45594000000E+02  0.51100000000E-03 0.  1.
    9900012    2    1    2    0    0 -0.24383549646E+00 -0.67707832866E+00  0.93532627033E+00  0.90007861854E+02  0.90000124830E+02 0.  0.
        -12    1    1    2    0    0  0.24383549646E+00  0.67707832866E+00 -0.93532627033E+00  0.11801381463E+01  0.00000000000E+00 0.  1.
         11    1    3    3    0    0 -0.12200399668E+02  0.26303750782E+02  0.18010791190E+02  0.34133937025E+02  0.51100000000E-03 0. -1.
        -11    1    3    3    0    0 -0.14211849202E+02  0.16903809893E+01 -0.33302078581E+01  0.14694363895E+02  0.51100000000E-03 0.  1.
        -12    1    3    3    0    0  0.26168413373E+02 -0.28671210100E+02 -0.13745257061E+02  0.41179560934E+02  0.00000000000E+00 0.  1.
</event>
<event>
 7    1  0.1910099E-015  0.9000773E+02  0.7816164E-02  0.1186339E+00
        -11   -1    0    0    0    0  0.00000000000E+00  0.00000000000E+00  0.45593999997E+02  0.45594000000E+02  0.51100000000E-03 0. -1.
         11   -1    0    0    0    0 -0.00000000000E+00 -0.00000000000E+00 -0.45593999997E+02  0.45594000000E+02  0.51100000000E-03 0.  1.
    9900012    2    1    2    0    0  0.37940894201E+00  0.79202573040E+00  0.78852413344E+00  0.90007734686E+02  0.89999995984E+02 0.  0.
        -12    1    1    2    0    0 -0.37940894201E+00 -0.79202573040E+00 -0.78852413344E+00  0.11802653142E+01  0.00000000000E+00 0.  1.
         11    1    3    3    0    0 -0.31929943479E+01 -0.52150720298E+01 -0.89138656222E+01  0.10809680373E+02  0.51100000000E-03 0. -1.
        -11    1    3    3    0    0 -0.10011819002E+02  0.35340457030E+02 -0.13792845621E+02  0.39235532536E+02  0.51100000000E-03 0.  1.
         12    1    3    3    0    0  0.13584222292E+02 -0.29333359270E+02  0.23495235376E+02  0.39962521776E+02  0.00000000000E+00 0. -1.
</event>
<event>
 7    1  0.1910099E-015  0.9000783E+02  0.7816164E-02  0.1186339E+00
        -11   -1    0    0    0    0  0.00000000000E+00  0.00000000000E+00  0.45593999997E+02  0.45594000000E+02  0.51100000000E-03 0. -1.
         11   -1    0    0    0    0 -0.00000000000E+00 -0.00000000000E+00 -0.45593999997E+02  0.45594000000E+02  0.51100000000E-03 0.  1.
    9900012    2    1    2    0    0  0.78136325169E+00 -0.69079180091E+00 -0.55233879269E+00  0.90007830527E+02  0.90000093090E+02 0.  0.
        -12    1    1    2    0    0 -0.78136325169E+00  0.69079180091E+00  0.55233879269E+00  0.11801694731E+01  0.00000000000E+00 0.  1.
         11    1    3    3    0    0  0.93180487818E+01  0.43338249655E+01 -0.58723267966E+00  0.10293343209E+02  0.51100000000E-03 0. -1.
        -11    1    3    3    0    0 -0.29153183711E+02  0.28234023784E+02 -0.54875802892E-01  0.40584125359E+02  0.51100000000E-03 0.  1.
         12    1    3    3    0    0  0.20616498180E+02 -0.33258640550E+02  0.89769689869E-01  0.39130361960E+02  0.00000000000E+00 0. -1.
</event>
<event>
 7    1  0.1910099E-015  0.9000774E+02  0.7816164E-02  0.1186339E+00
        -11   -1    0    0    0    0  0.00000000000E+00  0.00000000000E+00  0.45593999997E+02  0.45594000000E+02  0.51100000000E-03 0.  1.
         11   -1    0    0    0    0 -0.00000000000E+00 -0.00000000000E+00 -0.45593999997E+02  0.45594000000E+02  0.51100000000E-03 0. -1.
    9900012    2    1    2    0    0  0.72047047459E+00  0.92331855709E+00  0.14637550360E+00  0.90007737042E+02  0.89999998371E+02 0.  0.
        -12    1    1    2    0    0 -0.72047047459E+00 -0.92331855709E+00 -0.14637550360E+00  0.11802629583E+01  0.00000000000E+00 0.  1.
         11    1    3    3    0    0  0.81808688637E+01  0.56762051664E+01 -0.46367530693E+01  0.10983869980E+02  0.51100000000E-03 0. -1.
        -11    1    3    3    0    0 -0.24280091928E+02  0.15747228621E+02 -0.25641682174E+02  0.38665151470E+02  0.51100000000E-03 0.  1.
         12    1    3    3    0    0  0.16819693538E+02 -0.20500115230E+02  0.30424810747E+02  0.40358715591E+02  0.00000000000E+00 0. -1.
</event>
<event>
 7    1  0.1910099E-015  0.9000777E+02  0.7816164E-02  0.1186339E+00
        -11   -1    0    0    0    0  0.00000000000E+00  0.00000000000E+00  0.45593999997E+02  0.45594000000E+02  0.51100000000E-03 0.  1.
         11   -1    0    0    0    0 -0.00000000000E+00 -0.00000000000E+00 -0.45593999997E+02  0.45594000000E+02  0.51100000000E-03 0. -1.
    9900012    2    1    2    0    0 -0.58524490205E-01 -0.11680445999E+01  0.15869011779E+00  0.90007772964E+02  0.90000034767E+02 0.  0.
        -12    1    1    2    0    0  0.58524490205E-01  0.11680445999E+01 -0.15869011779E+00  0.11802270361E+01  0.00000000000E+00 0.  1.
         11    1    3    3    0    0 -0.58875103130E+01  0.35586269054E+01 -0.67483119448E+01  0.96367171538E+01  0.51100000000E-03 0. -1.
        -11    1    3    3    0    0 -0.31910305806E+02 -0.18434731780E+02  0.14326927552E+02  0.39539446199E+02  0.51100000000E-03 0.  1.
         12    1    3    3    0    0  0.37739291629E+02  0.13708060275E+02 -0.74199254893E+01  0.40831609611E+02  0.00000000000E+00 0. -1.
</event>
<event>
 7    1  0.1910099E-015  0.9000771E+02  0.7816164E-02  0.1186339E+00
        -11   -1    0    0    0    0  0.00000000000E+00  0.00000000000E+00  0.45593999997E+02  0.45594000000E+02  0.51100000000E-03 0. -1.
         11   -1    0    0    0    0 -0.00000000000E+00 -0.00000000000E+00 -0.45593999997E+02  0.45594000000E+02  0.51100000000E-03 0.  1.
    9900012    2    1    2    0    0 -0.71619776363E+00 -0.93685768458E+00 -0.49466249305E-01  0.90007708312E+02  0.89999969262E+02 0.  0.
        -12    1    1    2    0    0  0.71619776363E+00  0.93685768458E+00  0.49466249305E-01  0.11802916875E+01  0.00000000000E+00 0.  1.
         11    1    3    3    0    0  0.31311517740E+01  0.12916849712E+02  0.37893103797E+02  0.40156399659E+02  0.51100000000E-03 0. -1.
        -11    1    3    3    0    0  0.73752200053E+01  0.52086195421E+01 -0.54585443095E+01  0.10550795889E+02  0.51100000000E-03 0.  1.
        -12    1    3    3    0    0 -0.11222569543E+02 -0.19062326939E+02 -0.32484025737E+02  0.39300512764E+02  0.00000000000E+00 0.  1.
</event>
<event>
 7    1  0.1910099E-015  0.9000805E+02  0.7816164E-02  0.1186338E+00
        -11   -1    0    0    0    0  0.00000000000E+00  0.00000000000E+00  0.45593999997E+02  0.45594000000E+02  0.51100000000E-03 0.  1.
         11   -1    0    0    0    0 -0.00000000000E+00 -0.00000000000E+00 -0.45593999997E+02  0.45594000000E+02  0.51100000000E-03 0. -1.
    9900012    2    1    2    0    0 -0.67973901561E+00  0.50101925455E+00 -0.82415059720E+00  0.90008046768E+02  0.90000312185E+02 0.  0.
        -12    1    1    2    0    0  0.67973901561E+00 -0.50101925455E+00  0.82415059720E+00  0.11799532320E+01  0.00000000000E+00 0.  1.
         11    1    3    3    0    0 -0.58205915026E+01 -0.65331423186E+01 -0.57027752702E+01  0.10444274989E+02  0.51100000000E-03 0. -1.
        -11    1    3    3    0    0 -0.36888985919E+02  0.10269196076E+01  0.80815656264E+00  0.36912124882E+02  0.51100000000E-03 0.  1.
         12    1    3    3    0    0  0.42029838406E+02  0.60072419656E+01  0.40704681103E+01  0.42651646898E+02  0.00000000000E+00 0. -1.
</event>
<event>
 7    1  0.1910099E-015  0.9000774E+02  0.7816164E-02  0.1186339E+00
        -11   -1    0    0    0    0  0.00000000000E+00  0.00000000000E+00  0.45593999997E+02  0.45594000000E+02  0.51100000000E-03 0. -1.
         11   -1    0    0    0    0 -0.00000000000E+00 -0.00000000000E+00 -0.45593999997E+02  0.45594000000E+02  0.51100000000E-03 0.  1.
    9900012    2    1    2    0    0 -0.83365755572E+00  0.79502019386E+00  0.25687206928E+00  0.90007735077E+02  0.89999996380E+02 0.  0.
        -12    1    1    2    0    0  0.83365755572E+00 -0.79502019386E+00 -0.25687206928E+00  0.11802649232E+01  0.00000000000E+00 0.  1.
         11    1    3    3    0    0 -0.30220891774E+02  0.15776952961E+02  0.17417732999E+02  0.38283050655E+02  0.51100000000E-03 0. -1.
        -11    1    3    3    0    0 -0.82845061166E+01 -0.44986087889E+00 -0.43232510690E+01  0.93555286581E+01  0.51100000000E-03 0.  1.
        -12    1    3    3    0    0  0.37671740335E+02 -0.14532071888E+02 -0.12837609861E+02  0.42369155764E+02  0.00000000000E+00 0.  1.
</event>
<event>
 7    1  0.1910099E-015  0.9000797E+02  0.7816164E-02  0.1186339E+00
        -11   -1    0    0    0    0  0.00000000000E+00  0.00000000000E+00  0.45593999997E+02  0.45594000000E+02  0.51100000000E-03 0.  1.
         11   -1    0    0    0    0 -0.00000000000E+00 -0.00000000000E+00 -0.45593999997E+02  0.45594000000E+02  0.51100000000E-03 0. -1.
    9900012    2    1    2    0    0 -0.37971164715E+00 -0.49547706047E+00 -0.10013944861E+01  0.90007970607E+02  0.90000235018E+02 0.  0.
        -12    1    1    2    0    0  0.37971164715E+00  0.49547706047E+00  0.10013944861E+01  0.11800293934E+01  0.00000000000E+00 0.  1.
         11    1    3    3    0    0 -0.54361536402E+01  0.68747733417E+01 -0.35523124217E+01  0.94569127469E+01  0.51100000000E-03 0. -1.
        -11    1    3    3    0    0  0.29009493722E+02  0.23333639946E+02  0.14291066811E+02  0.39877864411E+02  0.51100000000E-03 0.  1.
         12    1    3    3    0    0 -0.23953051729E+02 -0.30703890348E+02 -0.11740148875E+02  0.40673193448E+02  0.00000000000E+00 0. -1.
</event>
<event>
 7    1  0.1910099E-015  0.9000767E+02  0.7816164E-02  0.1186339E+00
        -11   -1    0    0    0    0  0.00000000000E+00  0.00000000000E+00  0.45593999997E+02  0.45594000000E+02  0.51100000000E-03 0. -1.
         11   -1    0    0    0    0 -0.00000000000E+00 -0.00000000000E+00 -0.45593999997E+02  0.45594000000E+02  0.51100000000E-03 0.  1.
    9900012    2    1    2    0    0  0.55070959426E+00 -0.10245682795E+01 -0.20040880584E+00  0.90007667460E+02  0.89999927870E+02 0.  0.
        -12    1    1    2    0    0 -0.55070959426E+00  0.10245682795E+01  0.20040880584E+00  0.11803325405E+01  0.00000000000E+00 0.  1.
         11    1    3    3    0    0  0.51764058961E+00 -0.20661005629E+02  0.30639713417E+02  0.36958586876E+02  0.51100000000E-03 0. -1.
        -11    1    3    3    0    0  0.65379137548E+01 -0.88903475092E+01 -0.72262071872E+00  0.11059148976E+02  0.51100000000E-03 0.  1.
        -12    1    3    3    0    0 -0.65048447501E+01  0.28526784858E+02 -0.30117501504E+02  0.41989931608E+02  0.00000000000E+00 0.  1.
</event>
<event>
 7    1  0.1910099E-015  0.9000777E+02  0.7816164E-02  0.1186339E+00
        -11   -1    0    0    0    0  0.00000000000E+00  0.00000000000E+00  0.45593999997E+02  0.45594000000E+02  0.51100000000E-03 0. -1.
         11   -1    0    0    0    0 -0.00000000000E+00 -0.00000000000E+00 -0.45593999997E+02  0.45594000000E+02  0.51100000000E-03 0.  1.
    9900012    2    1    2    0    0 -0.11485013002E+01 -0.13574089317E+00  0.23548536136E+00  0.90007773673E+02  0.90000035486E+02 0.  0.
        -12    1    1    2    0    0  0.11485013002E+01  0.13574089317E+00 -0.23548536136E+00  0.11802263266E+01  0.00000000000E+00 0.  1.
         11    1    3    3    0    0  0.84381854412E+01 -0.44493756674E+01 -0.29087107734E+01  0.99729893208E+01  0.51100000000E-03 0. -1.
        -11    1    3    3    0    0  0.11953237357E+02 -0.32032191607E+02  0.13125457905E+02  0.36622654573E+02  0.51100000000E-03 0.  1.
         12    1    3    3    0    0 -0.21539924099E+02  0.36345826381E+02 -0.99812617707E+01  0.43412129780E+02  0.00000000000E+00 0. -1.
</event>
<event>
 7    1  0.1910099E-015  0.9000781E+02  0.7816164E-02  0.1186339E+00
        -11   -1    0    0    0    0  0.00000000000E+00  0.00000000000E+00  0.45593999997E+02  0.45594000000E+02  0.51100000000E-03 0.  1.
         11   -1    0    0    0    0 -0.00000000000E+00 -0.00000000000E+00 -0.45593999997E+02  0.45594000000E+02  0.51100000000E-03 0. -1.
    9900012    2    1    2    0    0  0.33685157036E+00 -0.93028025998E+00 -0.64340419727E+00  0.90007805396E+02  0.90000067627E+02 0.  0.
        -12    1    1    2    0    0 -0.33685157036E+00  0.93028025998E+00  0.64340419727E+00  0.11801946041E+01  0.00000000000E+00 0.  1.
         11    1    3    3    0    0  0.68598753645E+01 -0.57172878795E+01  0.10867649043E+02  0.14065954169E+02  0.51100000000E-03 0. -1.
        -11    1    3    3    0    0  0.15683953798E+02 -0.22017475262E+02  0.16142689337E+02  0.31485584685E+02  0.51100000000E-03 0.  1.
         12    1    3    3    0    0 -0.22206977592E+02  0.26804482882E+02 -0.27653742577E+02  0.44456266542E+02  0.00000000000E+00 0. -1.
</event>
<event>
 7    1  0.1910099E-015  0.9000780E+02  0.7816164E-02  0.1186339E+00
        -11   -1    0    0    0    0  0.00000000000E+00  0.00000000000E+00  0.45593999997E+02  0.45594000000E+02  0.51100000000E-03 0.  1.
         11   -1    0    0    0    0 -0.00000000000E+00 -0.00000000000E+00 -0.45593999997E+02  0.45594000000E+02  0.51100000000E-03 0. -1.
    9900012    2    1    2    0    0 -0.46925249046E-01  0.88366565945E+00 -0.78089275831E+00  0.90007804899E+02  0.90000067124E+02 0.  0.
        -12    1    1    2    0    0  0.46925249046E-01 -0.88366565945E+00  0.78089275831E+00  0.11801951011E+01  0.00000000000E+00 0.  1.
         11    1    3    3    0    0 -0.89008075844E+01  0.14584097466E+02 -0.33835101993E+02  0.37904279464E+02  0.51100000000E-03 0. -1.
        -11    1    3    3    0    0 -0.92000721765E+01  0.39288110891E+01 -0.62109703873E+00  0.10023105627E+02  0.51100000000E-03 0.  1.
        -12    1    3    3    0    0  0.18053954512E+02 -0.17629242895E+02  0.33675306273E+02  0.42080419808E+02  0.00000000000E+00 0.  1.
</event>
<event>
 7    1  0.2033968E-015  0.9000766E+02  0.7816164E-02  0.1186339E+00
        -11   -1    0    0    0    0  0.00000000000E+00  0.00000000000E+00  0.45593999997E+02  0.45594000000E+02  0.51100000000E-03 0.  1.
         11   -1    0    0    0    0 -0.00000000000E+00 -0.00000000000E+00 -0.45593999997E+02  0.45594000000E+02  0.51100000000E-03 0. -1.
    9900012    2    1    2    0    0 -0.54672427822E+00 -0.35258218476E+00 -0.98488200658E+00  0.90007655050E+02  0.89999915297E+02 0.  0.
        -12    1    1    2    0    0  0.54672427822E+00  0.35258218476E+00  0.98488200658E+00  0.11803449497E+01  0.00000000000E+00 0.  1.
         11    1    3    3    0    0  0.62834499507E+01 -0.41176569400E+01 -0.63604353350E+01  0.98433723830E+01  0.51100000000E-03 0. -1.
        -11    1    3    3    0    0  0.16884328514E+02  0.34659676654E+02  0.12585468395E+02  0.40555736341E+02  0.51100000000E-03 0.  1.
         12    1    3    3    0    0 -0.23714502743E+02 -0.30894601899E+02 -0.72099150668E+01  0.39608546327E+02  0.00000000000E+00 0. -1.
</event>
<event>
 7    1  0.1910099E-015  0.9000776E+02  0.7816164E-02  0.1186339E+00
        -11   -1    0    0    0    0  0.00000000000E+00  0.00000000000E+00  0.45593999997E+02  0.45594000000E+02  0.51100000000E-03 0.  1.
         11   -1    0    0    0    0 -0.00000000000E+00 -0.00000000000E+00 -0.45593999997E+02  0.45594000000E+02  0.51100000000E-03 0. -1.
    9900012    2    1    2    0    0 -0.16769578532E+00 -0.11298410998E+01 -0.29717519776E+00  0.90007756006E+02  0.90000017585E+02 0.  0.
        -12    1    1    2    0    0  0.16769578532E+00  0.11298410998E+01  0.29717519776E+00  0.11802439940E+01  0.00000000000E+00 0.  1.
         11    1    3    3    0    0 -0.19480406929E+02  0.12078676844E+02 -0.31026813185E+02  0.38575171096E+02  0.51100000000E-03 0. -1.
        -11    1    3    3    0    0 -0.21943239093E+01  0.95468108452E+01  0.55908683786E+01  0.11278938967E+02  0.51100000000E-03 0.  1.
        -12    1    3    3    0    0  0.21507035053E+02 -0.22755328789E+02  0.25138769609E+02  0.40153645943E+02  0.00000000000E+00 0.  1.
</event>
<event>
 7    1  0.1910099E-015  0.9000771E+02  0.7816164E-02  0.1186339E+00
        -11   -1    0    0    0    0  0.00000000000E+00  0.00000000000E+00  0.45593999997E+02  0.45594000000E+02  0.51100000000E-03 0. -1.
         11   -1    0    0    0    0 -0.00000000000E+00 -0.00000000000E+00 -0.45593999997E+02  0.45594000000E+02  0.51100000000E-03 0.  1.
    9900012    2    1    2    0    0  0.80575653644E-01  0.22087298417E+00  0.11566342555E+01  0.90007711852E+02  0.89999972849E+02 0.  0.
        -12    1    1    2    0    0 -0.80575653644E-01 -0.22087298417E+00 -0.11566342555E+01  0.11802881479E+01  0.00000000000E+00 0.  1.
         11    1    3    3    0    0  0.38664759682E+01  0.14005326809E+02  0.35465095973E+02  0.38325863957E+02  0.51100000000E-03 0. -1.
        -11    1    3    3    0    0 -0.71653317351E+01  0.54530215553E+01  0.30654730219E+01  0.95118109772E+01  0.51100000000E-03 0.  1.
        -12    1    3    3    0    0  0.33794314206E+01 -0.19237475380E+02 -0.37373934739E+02  0.42170036918E+02  0.00000000000E+00 0.  1.
</event>
<event>
 7    1  0.1910099E-015  0.9000771E+02  0.7816164E-02  0.1186339E+00
        -11   -1    0    0    0    0  0.00000000000E+00  0.00000000000E+00  0.45593999997E+02  0.45594000000E+02  0.51100000000E-03 0.  1.
         11   -1    0    0    0    0 -0.00000000000E+00 -0.00000000000E+00 -0.45593999997E+02  0.45594000000E+02  0.51100000000E-03 0. -1.
    9900012    2    1    2    0    0 -0.90212822779E+00  0.70637835098E+00 -0.28333516144E+00  0.90007709981E+02  0.89999970953E+02 0.  0.
        -12    1    1    2    0    0  0.90212822779E+00 -0.70637835098E+00  0.28333516144E+00  0.11802900185E+01  0.00000000000E+00 0.  1.
         11    1    3    3    0    0  0.10105438921E+02  0.37737530620E+02 -0.10739112756E+02  0.40516288775E+02  0.51100000000E-03 0. -1.
        -11    1    3    3    0    0 -0.10301795392E+02  0.78815963844E+00  0.34552565393E+00  0.10337677309E+02  0.51100000000E-03 0.  1.
        -12    1    3    3    0    0 -0.70577175719E+00 -0.37819311907E+02  0.10110251941E+02  0.39153743898E+02  0.00000000000E+00 0.  1.
</event>
<event>
 7    1  0.1910099E-015  0.9000775E+02  0.7816164E-02  0.1186339E+00
        -11   -1    0    0    0    0  0.00000000000E+00  0.00000000000E+00  0.45593999997E+02  0.45594000000E+02  0.51100000000E-03 0.  1.
         11   -1    0    0    0    0 -0.00000000000E+00 -0.00000000000E+00 -0.45593999997E+02  0.45594000000E+02  0.51100000000E-03 0. -1.
    9900012    2    1    2    0    0 -0.50777953405E+00 -0.12337686652E+00  0.10582617985E+01  0.90007754288E+02  0.90000015845E+02 0.  0.
        -12    1    1    2    0    0  0.50777953405E+00  0.12337686652E+00 -0.10582617985E+01  0.11802457119E+01  0.00000000000E+00 0.  1.
         11    1    3    3    0    0 -0.16149872408E+02 -0.30213233245E+02 -0.78457741828E+01  0.35145611600E+02  0.51100000000E-03 0. -1.
        -11    1    3    3    0    0 -0.33796853473E+01 -0.78055968802E+01 -0.54439077046E+01  0.10098799288E+02  0.51100000000E-03 0.  1.
        -12    1    3    3    0    0  0.19021778221E+02  0.37895453259E+02  0.14347943686E+02  0.44763343401E+02  0.00000000000E+00 0.  1.
</event>
<event>
 7    1  0.1910099E-015  0.9000790E+02  0.7816164E-02  0.1186339E+00
        -11   -1    0    0    0    0  0.00000000000E+00  0.00000000000E+00  0.45593999997E+02  0.45594000000E+02  0.51100000000E-03 0.  1.
         11   -1    0    0    0    0 -0.00000000000E+00 -0.00000000000E+00 -0.45593999997E+02  0.45594000000E+02  0.51100000000E-03 0. -1.
    9900012    2    1    2    0    0  0.44909717749E+00 -0.10764974834E+01 -0.17914884494E+00  0.90007902794E+02  0.90000166311E+02 0.  0.
        -12    1    1    2    0    0 -0.44909717749E+00  0.10764974834E+01  0.17914884494E+00  0.11800972058E+01  0.00000000000E+00 0.  1.
         11    1    3    3    0    0  0.71893893030E+01  0.81640456476E+01  0.19385558771E+01  0.11049749275E+02  0.51100000000E-03 0. -1.
        -11    1    3    3    0    0  0.23350877856E+02 -0.53146373617E+01  0.27560749948E+02  0.36511694084E+02  0.51100000000E-03 0.  1.
         12    1    3    3    0    0 -0.30091169981E+02 -0.39259057693E+01 -0.29678454670E+02  0.42446459435E+02  0.00000000000E+00 0. -1.
</event>
<event>
 7    1  0.1910099E-015  0.9000762E+02  0.7816164E-02  0.1186339E+00
        -11   -1    0    0    0    0  0.00000000000E+00  0.00000000000E+00  0.45593999997E+02  0.45594000000E+02  0.51100000000E-03 0.  1.
         11   -1    0    0    0    0 -0.00000000000E+00 -0.00000000000E+00 -0.45593999997E+02  0.45594000000E+02  0.51100000000E-03 0. -1.
    9900012    2    1    2    0    0  0.45357261090E+00  0.10392302348E+01 -0.32798058453E+00  0.90007619189E+02  0.89999878963E+02 0.  0.
        -12    1    1    2    0    0 -0.45357261090E+00 -0.10392302348E+01  0.32798058453E+00  0.11803808107E+01  0.00000000000E+00 0.  1.
         11    1    3    3    0    0 -0.36151814338E+01 -0.36750827949E+01 -0.90020743872E+01  0.10373674078E+02  0.51100000000E-03 0. -1.
        -11    1    3    3    0    0 -0.29052651025E+02 -0.12525578541E+02  0.23549782310E+02  0.39440320694E+02  0.51100000000E-03 0.  1.
         12    1    3    3    0    0  0.33121405070E+02  0.17239891570E+02 -0.14875688507E+02  0.40193624417E+02  0.00000000000E+00 0. -1.
</event>
<event>
 7    1  0.1910099E-015  0.9000780E+02  0.7816164E-02  0.1186339E+00
        -11   -1    0    0    0    0  0.00000000000E+00  0.00000000000E+00  0.45593999997E+02  0.45594000000E+02  0.51100000000E-03 0. -1.
         11   -1    0    0    0    0 -0.00000000000E+00 -0.00000000000E+00 -0.45593999997E+02  0.45594000000E+02  0.51100000000E-03 0.  1.
    9900012    2    1    2    0    0 -0.59991044102E+00 -0.86951837761E+00  0.52623239913E+00  0.90007798626E+02  0.90000060767E+02 0.  0.
        -12    1    1    2    0    0  0.59991044102E+00  0.86951837761E+00 -0.52623239913E+00  0.11802013744E+01  0.00000000000E+00 0.  1.
         11    1    3    3    0    0  0.86834497576E+01  0.96929505828E+00 -0.46823051736E+01  0.99129115098E+01  0.51100000000E-03 0. -1.
        -11    1    3    3    0    0 -0.21201554918E+01 -0.36480080108E+02 -0.14833544471E+02  0.39437613339E+02  0.51100000000E-03 0.  1.
         12    1    3    3    0    0 -0.71632047068E+01  0.34641266672E+02  0.20042082044E+02  0.40657273777E+02  0.00000000000E+00 0. -1.
</event>
<event>
 7    1  0.1910099E-015  0.9000761E+02  0.7816164E-02  0.1186339E+00
        -11   -1    0    0    0    0  0.00000000000E+00  0.00000000000E+00  0.45593999997E+02  0.45594000000E+02  0.51100000000E-03 0.  1.
         11   -1    0    0    0    0 -0.00000000000E+00 -0.00000000000E+00 -0.45593999997E+02  0.45594000000E+02  0.51100000000E-03 0. -1.
    9900012    2    1    2    0    0  0.14883598922E+00  0.93945259034E+00 -0.69899298033E+00  0.90007612560E+02  0.89999872246E+02 0.  0.
        -12    1    1    2    0    0 -0.14883598922E+00 -0.93945259034E+00  0.69899298033E+00  0.11803874397E+01  0.00000000000E+00 0.  1.
         11    1    3    3    0    0 -0.43822794813E+01  0.28361153530E+02 -0.16685760094E+02  0.33195993632E+02  0.51100000000E-03 0. -1.
        -11    1    3    3    0    0 -0.17255216946E+01  0.12435929480E+02 -0.18651136459E+01  0.12692849023E+02  0.51100000000E-03 0.  1.
        -12    1    3    3    0    0  0.62566371651E+01 -0.39857630420E+02  0.17851880759E+02  0.44118769905E+02  0.00000000000E+00 0.  1.
</event>
<event>
 7    1  0.1910099E-015  0.9000773E+02  0.7816164E-02  0.1186339E+00
        -11   -1    0    0    0    0  0.00000000000E+00  0.00000000000E+00  0.45593999997E+02  0.45594000000E+02  0.51100000000E-03 0.  1.
         11   -1    0    0    0    0 -0.00000000000E+00 -0.00000000000E+00 -0.45593999997E+02  0.45594000000E+02  0.51100000000E-03 0. -1.
    9900012    2    1    2    0    0 -0.63135361973E+00  0.71801153810E-01 -0.99462791391E+00  0.90007725673E+02  0.89999986852E+02 0.  0.
        -12    1    1    2    0    0  0.63135361973E+00 -0.71801153810E-01  0.99462791391E+00  0.11802743266E+01  0.00000000000E+00 0.  1.
         11    1    3    3    0    0 -0.99426489441E+01 -0.26532042811E+02 -0.27284519629E+02  0.39335106145E+02  0.51100000000E-03 0. -1.
        -11    1    3    3    0    0  0.74638471464E+01 -0.61287374970E+01  0.19805217581E+01  0.98586461661E+01  0.51100000000E-03 0.  1.
        -12    1    3    3    0    0  0.18474481780E+01  0.32732581462E+02  0.24309369957E+02  0.40813973363E+02  0.00000000000E+00 0.  1.
</event>
<event>
 7    1  0.1910099E-015  0.9000774E+02  0.7816164E-02  0.1186339E+00
        -11   -1    0    0    0    0  0.00000000000E+00  0.00000000000E+00  0.45593999997E+02  0.45594000000E+02  0.51100000000E-03 0.  1.
         11   -1    0    0    0    0 -0.00000000000E+00 -0.00000000000E+00 -0.45593999997E+02  0.45594000000E+02  0.51100000000E-03 0. -1.
    9900012    2    1    2    0    0  0.10289481084E+01 -0.18101849130E+00 -0.54909161356E+00  0.90007744306E+02  0.90000005731E+02 0.  0.
        -12    1    1    2    0    0 -0.10289481084E+01  0.18101849130E+00  0.54909161356E+00  0.11802556943E+01  0.00000000000E+00 0.  1.
         11    1    3    3    0    0  0.11731529581E+02  0.47506107743E+01 -0.26792282244E+01  0.12937362683E+02  0.51100000000E-03 0. -1.
        -11    1    3    3    0    0  0.26441382152E+02 -0.28506551247E+01  0.22340534919E+02  0.34732872404E+02  0.51100000000E-03 0.  1.
         12    1    3    3    0    0 -0.37143963624E+02 -0.20809741408E+01 -0.20210398308E+02  0.42337509219E+02  0.00000000000E+00 0. -1.
</event>
<event>
 7    1  0.1910099E-015  0.9000769E+02  0.7816164E-02  0.1186339E+00
        -11   -1    0    0    0    0  0.00000000000E+00  0.00000000000E+00  0.45593999997E+02  0.45594000000E+02  0.51100000000E-03 0.  1.
         11   -1    0    0    0    0 -0.00000000000E+00 -0.00000000000E+00 -0.45593999997E+02  0.45594000000E+02  0.51100000000E-03 0. -1.
    9900012    2    1    2    0    0 -0.19427994914E-03 -0.91483297656E+00 -0.74579044477E+00  0.90007693768E+02  0.89999954526E+02 0.  0.
        -12    1    1    2    0    0  0.19427994914E-03  0.91483297656E+00  0.74579044477E+00  0.11803062316E+01  0.00000000000E+00 0.  1.
         11    1    3    3    0    0 -0.22216018933E+02  0.53520928235E+01  0.16598674281E+02  0.28243802559E+02  0.51100000000E-03 0. -1.
        -11    1    3    3    0    0 -0.14079682883E+02 -0.16169845672E+02 -0.37814766558E+01  0.21771562762E+02  0.51100000000E-03 0.  1.
        -12    1    3    3    0    0  0.36295507536E+02  0.99029198720E+01 -0.13562988070E+02  0.39992328448E+02  0.00000000000E+00 0.  1.
</event>
<event>
 7    1  0.1910099E-015  0.9000781E+02  0.7816164E-02  0.1186339E+00
        -11   -1    0    0    0    0  0.00000000000E+00  0.00000000000E+00  0.45593999997E+02  0.45594000000E+02  0.51100000000E-03 0.  1.
         11   -1    0    0    0    0 -0.00000000000E+00 -0.00000000000E+00 -0.45593999997E+02  0.45594000000E+02  0.51100000000E-03 0. -1.
    9900012    2    1    2    0    0  0.26844121251E-01 -0.10885940256E+01 -0.45508471167E+00  0.90007805247E+02  0.90000067477E+02 0.  0.
        -12    1    1    2    0    0 -0.26844121251E-01  0.10885940256E+01  0.45508471167E+00  0.11801947527E+01  0.00000000000E+00 0.  1.
         11    1    3    3    0    0 -0.26429723564E+01 -0.34835920900E+01 -0.11524870572E+02  0.12326530684E+02  0.51100000000E-03 0. -1.
        -11    1    3    3    0    0 -0.35743404647E+02  0.64668478941E+01 -0.32848327136E+01  0.36471923773E+02  0.51100000000E-03 0.  1.
         12    1    3    3    0    0  0.38413221125E+02 -0.40718498298E+01  0.14354618574E+02  0.41209350791E+02  0.00000000000E+00 0. -1.
</event>
<event>
 7    1  0.1910099E-015  0.9000773E+02  0.7816164E-02  0.1186339E+00
        -11   -1    0    0    0    0  0.00000000000E+00  0.00000000000E+00  0.45593999997E+02  0.45594000000E+02  0.51100000000E-03 0.  1.
         11   -1    0    0    0    0 -0.00000000000E+00 -0.00000000000E+00 -0.45593999997E+02  0.45594000000E+02  0.51100000000E-03 0. -1.
    9900012    2    1    2    0    0 -0.79896928350E+00 -0.65261498937E+00  0.57339959033E+00  0.90007726587E+02  0.89999987777E+02 0.  0.
        -12    1    1    2    0    0  0.79896928350E+00  0.65261498937E+00 -0.57339959033E+00  0.11802734135E+01  0.00000000000E+00 0.  1.
         11    1    3    3    0    0 -0.36191638297E+02  0.30255944038E-01 -0.71976954505E+01  0.36900439267E+02  0.51100000000E-03 0. -1.
        -11    1    3    3    0    0 -0.56120429854E+01 -0.86439430147E+01 -0.12269184755E+01  0.10378733377E+02  0.51100000000E-03 0.  1.
        -12    1    3    3    0    0  0.41004711999E+02  0.79610720813E+01  0.89980135163E+01  0.42728553942E+02  0.00000000000E+00 0.  1.
</event>
<event>
 7    1  0.1910099E-015  0.9000771E+02  0.7816164E-02  0.1186339E+00
        -11   -1    0    0    0    0  0.00000000000E+00  0.00000000000E+00  0.45593999997E+02  0.45594000000E+02  0.51100000000E-03 0.  1.
         11   -1    0    0    0    0 -0.00000000000E+00 -0.00000000000E+00 -0.45593999997E+02  0.45594000000E+02  0.51100000000E-03 0. -1.
    9900012    2    1    2    0    0  0.16588134882E-02  0.70830337024E+00 -0.94413156591E+00  0.90007711548E+02  0.89999972541E+02 0.  0.
        -12    1    1    2    0    0 -0.16588134882E-02 -0.70830337024E+00  0.94413156591E+00  0.11802884519E+01  0.00000000000E+00 0.  1.
         11    1    3    3    0    0 -0.89968900692E+01  0.12292595979E+01  0.49838529671E+01  0.10358276919E+02  0.51100000000E-03 0. -1.
        -11    1    3    3    0    0 -0.20785327151E+02  0.44068626983E+01  0.27405597959E+02  0.34677327800E+02  0.51100000000E-03 0.  1.
         12    1    3    3    0    0  0.29783876033E+02 -0.49278189259E+01 -0.33333582492E+02  0.44972106829E+02  0.00000000000E+00 0. -1.
</event>
<event>
 7    1  0.1910099E-015  0.9000775E+02  0.7816164E-02  0.1186339E+00
        -11   -1    0    0    0    0  0.00000000000E+00  0.00000000000E+00  0.45593999997E+02  0.45594000000E+02  0.51100000000E-03 0. -1.
         11   -1    0    0    0    0 -0.00000000000E+00 -0.00000000000E+00 -0.45593999997E+02  0.45594000000E+02  0.51100000000E-03 0.  1.
    9900012    2    1    2    0    0 -0.11266571148E+01 -0.33639554574E+00  0.10231447381E+00  0.90007751522E+02  0.90000013042E+02 0.  0.
        -12    1    1    2    0    0  0.11266571148E+01  0.33639554574E+00 -0.10231447381E+00  0.11802484777E+01  0.00000000000E+00 0.  1.
         11    1    3    3    0    0 -0.87371782253E+01  0.34898935377E+02 -0.49564727284E+01  0.36315844971E+02  0.51100000000E-03 0. -1.
        -11    1    3    3    0    0  0.57639872670E-02  0.78850033973E+01 -0.42060159879E+01  0.89366594738E+01  0.51100000000E-03 0.  1.
        -12    1    3    3    0    0  0.76047571233E+01 -0.43120334320E+02  0.92648031901E+01  0.44755247077E+02  0.00000000000E+00 0.  1.
</event>
<event>
 7    1  0.1910099E-015  0.9000776E+02  0.7816164E-02  0.1186339E+00
        -11   -1    0    0    0    0  0.00000000000E+00  0.00000000000E+00  0.45593999997E+02  0.45594000000E+02  0.51100000000E-03 0. -1.
         11   -1    0    0    0    0 -0.00000000000E+00 -0.00000000000E+00 -0.45593999997E+02  0.45594000000E+02  0.51100000000E-03 0.  1.
    9900012    2    1    2    0    0  0.47968006317E+00  0.14323506228E+00  0.10688059203E+01  0.90007764709E+02  0.90000026404E+02 0.  0.
        -12    1    1    2    0    0 -0.47968006317E+00 -0.14323506228E+00 -0.10688059203E+01  0.11802352906E+01  0.00000000000E+00 0.  1.
         11    1    3    3    0    0 -0.46544429428E+01  0.27598219045E+01  0.92624179764E+01  0.10727201083E+02  0.51100000000E-03 0. -1.
        -11    1    3    3    0    0 -0.95890196739E+01 -0.23589540218E+02 -0.34287152055E+02  0.42708599864E+02  0.51100000000E-03 0.  1.
         12    1    3    3    0    0  0.14723142680E+02  0.20972953376E+02  0.26093539999E+02  0.36571963762E+02  0.00000000000E+00 0. -1.
</event>
<event>
 7    1  0.1910099E-015  0.9000782E+02  0.7816164E-02  0.1186339E+00
        -11   -1    0    0    0    0  0.00000000000E+00  0.00000000000E+00  0.45593999997E+02  0.45594000000E+02  0.51100000000E-03 0.  1.
         11   -1    0    0    0    0 -0.00000000000E+00 -0.00000000000E+00 -0.45593999997E+02  0.45594000000E+02  0.51100000000E-03 0. -1.
    9900012    2    1    2    0    0  0.15764905497E+00  0.11668526827E+01 -0.80160584628E-01  0.90007820299E+02  0.90000082727E+02 0.  0.
        -12    1    1    2    0    0 -0.15764905497E+00 -0.11668526827E+01  0.80160584628E-01  0.11801797012E+01  0.00000000000E+00 0.  1.
         11    1    3    3    0    0 -0.62103282734E+01  0.34960117002E+00 -0.76284515168E+01  0.98429503223E+01  0.51100000000E-03 0. -1.
        -11    1    3    3    0    0  0.31592104344E+02  0.20481609395E+02 -0.15526672373E+02  0.40726342035E+02  0.51100000000E-03 0.  1.
         12    1    3    3    0    0 -0.25224127016E+02 -0.19664357883E+02  0.23074963305E+02  0.39438527941E+02  0.00000000000E+00 0. -1.
</event>
<event>
 7    1  0.1910099E-015  0.9000765E+02  0.7816164E-02  0.1186339E+00
        -11   -1    0    0    0    0  0.00000000000E+00  0.00000000000E+00  0.45593999997E+02  0.45594000000E+02  0.51100000000E-03 0. -1.
         11   -1    0    0    0    0 -0.00000000000E+00 -0.00000000000E+00 -0.45593999997E+02  0.45594000000E+02  0.51100000000E-03 0.  1.
    9900012    2    1    2    0    0 -0.94078527564E+00 -0.31577541936E-02  0.71283666775E+00  0.90007651314E+02  0.89999911511E+02 0.  0.
        -12    1    1    2    0    0  0.94078527564E+00  0.31577541936E-02 -0.71283666775E+00  0.11803486863E+01  0.00000000000E+00 0.  1.
         11    1    3    3    0    0 -0.25943415074E+01  0.19219727703E+02  0.28716722452E+02  0.34652253743E+02  0.51100000000E-03 0. -1.
        -11    1    3    3    0    0 -0.10046748413E+02  0.82607635692E+01  0.18336310061E+01  0.13135431906E+02  0.51100000000E-03 0.  1.
        -12    1    3    3    0    0  0.11700304645E+02 -0.27483649026E+02 -0.29837516790E+02  0.42219965665E+02  0.00000000000E+00 0.  1.
</event>
<event>
 7    1  0.1910099E-015  0.9000787E+02  0.7816164E-02  0.1186339E+00
        -11   -1    0    0    0    0  0.00000000000E+00  0.00000000000E+00  0.45593999997E+02  0.45594000000E+02  0.51100000000E-03 0. -1.
         11   -1    0    0    0    0 -0.00000000000E+00 -0.00000000000E+00 -0.45593999997E+02  0.45594000000E+02  0.51100000000E-03 0.  1.
    9900012    2    1    2    0    0 -0.65787557577E+00 -0.29972862386E+00  0.93277530633E+00  0.90007869798E+02  0.90000132879E+02 0.  0.
        -12    1    1    2    0    0  0.65787557577E+00  0.29972862386E+00 -0.93277530633E+00  0.11801302018E+01  0.00000000000E+00 0.  1.
         11    1    3    3    0    0  0.30973460343E+02 -0.10918912843E+02  0.96582882833E+01  0.34232447125E+02  0.51100000000E-03 0. -1.
        -11    1    3    3    0    0  0.23080738250E+01 -0.99739632812E+01  0.77031391323E+01  0.12811928078E+02  0.51100000000E-03 0.  1.
        -12    1    3    3    0    0 -0.33939409744E+02  0.20593147500E+02 -0.16428652109E+02  0.42963494596E+02  0.00000000000E+00 0.  1.
</event>
<event>
 7    1  0.1910099E-015  0.9000756E+02  0.7816164E-02  0.1186339E+00
        -11   -1    0    0    0    0  0.00000000000E+00  0.00000000000E+00  0.45593999997E+02  0.45594000000E+02  0.51100000000E-03 0.  1.
         11   -1    0    0    0    0 -0.00000000000E+00 -0.00000000000E+00 -0.45593999997E+02  0.45594000000E+02  0.51100000000E-03 0. -1.
    9900012    2    1    2    0    0 -0.57412614930E+00  0.37481154019E+00 -0.96089876479E+00  0.90007563232E+02  0.89999822267E+02 0.  0.
        -12    1    1    2    0    0  0.57412614930E+00 -0.37481154019E+00  0.96089876479E+00  0.11804367675E+01  0.00000000000E+00 0.  1.
         11    1    3    3    0    0  0.31308493620E+01 -0.98156972956E+01  0.91579540447E+00  0.10343539656E+02  0.51100000000E-03 0. -1.
        -11    1    3    3    0    0 -0.41114183751E+02  0.61559627247E+01 -0.51761730944E+01  0.41893492940E+02  0.51100000000E-03 0.  1.
         12    1    3    3    0    0  0.37409208239E+02  0.40345461111E+01  0.32994789252E+01  0.37770530637E+02  0.00000000000E+00 0. -1.
</event>
<event>
 7    1  0.1910099E-015  0.9000778E+02  0.7816164E-02  0.1186339E+00
        -11   -1    0    0    0    0  0.00000000000E+00  0.00000000000E+00  0.45593999997E+02  0.45594000000E+02  0.51100000000E-03 0.  1.
         11   -1    0    0    0    0 -0.00000000000E+00 -0.00000000000E+00 -0.45593999997E+02  0.45594000000E+02  0.51100000000E-03 0. -1.
    9900012    2    1    2    0    0 -0.80837114590E+00  0.85637051423E+00 -0.78033473082E-01  0.90007778161E+02  0.90000040032E+02 0.  0.
        -12    1    1    2    0    0  0.80837114590E+00 -0.85637051423E+00  0.78033473082E-01  0.11802218394E+01  0.00000000000E+00 0.  1.
         11    1    3    3    0    0 -0.36153138019E+02  0.71465190431E+00 -0.26023989417E+02  0.44551185634E+02  0.51100000000E-03 0. -1.
        -11    1    3    3    0    0  0.41089023317E+01 -0.21701393325E+01  0.82851659686E+01  0.94992925254E+01  0.51100000000E-03 0.  1.
        -12    1    3    3    0    0  0.31235864542E+02  0.23118579424E+01  0.17660789975E+02  0.35957300001E+02  0.00000000000E+00 0.  1.
</event>
<event>
 7    1  0.1910099E-015  0.9000769E+02  0.7816164E-02  0.1186339E+00
        -11   -1    0    0    0    0  0.00000000000E+00  0.00000000000E+00  0.45593999997E+02  0.45594000000E+02  0.51100000000E-03 0.  1.
         11   -1    0    0    0    0 -0.00000000000E+00 -0.00000000000E+00 -0.45593999997E+02  0.45594000000E+02  0.51100000000E-03 0. -1.
    9900012    2    1    2    0    0  0.60464928853E-01 -0.11727321690E+01 -0.11904772355E+00  0.90007691096E+02  0.89999951819E+02 0.  0.
        -12    1    1    2    0    0 -0.60464928853E-01  0.11727321690E+01  0.11904772355E+00  0.11803089037E+01  0.00000000000E+00 0.  1.
         11    1    3    3    0    0 -0.31610346562E+02  0.34169717024E+01 -0.30694023460E+02  0.44192904202E+02  0.51100000000E-03 0. -1.
        -11    1    3    3    0    0  0.90515497839E+01  0.19280294275E+01  0.33932928762E+01  0.98570932718E+01  0.51100000000E-03 0.  1.
        -12    1    3    3    0    0  0.22619261707E+02 -0.65177332988E+01  0.27181682860E+02  0.35957693622E+02  0.00000000000E+00 0.  1.
</event>
<event>
 7    1  0.1910099E-015  0.9000772E+02  0.7816164E-02  0.1186339E+00
        -11   -1    0    0    0    0  0.00000000000E+00  0.00000000000E+00  0.45593999997E+02  0.45594000000E+02  0.51100000000E-03 0. -1.
         11   -1    0    0    0    0 -0.00000000000E+00 -0.00000000000E+00 -0.45593999997E+02  0.45594000000E+02  0.51100000000E-03 0.  1.
    9900012    2    1    2    0    0 -0.17274581996E+00  0.11219370640E+01  0.32322649913E+00  0.90007720684E+02  0.89999981797E+02 0.  0.
        -12    1    1    2    0    0  0.17274581996E+00 -0.11219370640E+01 -0.32322649913E+00  0.11802793160E+01  0.00000000000E+00 0.  1.
         11    1    3    3    0    0  0.44108663348E+01 -0.42740423319E+01 -0.83904483401E+01  0.10398211543E+02  0.51100000000E-03 0. -1.
        -11    1    3    3    0    0 -0.35050517541E+02 -0.16015887812E+02 -0.70431438172E+01  0.39174651465E+02  0.51100000000E-03 0.  1.
         12    1    3    3    0    0  0.30466905386E+02  0.21411867208E+02  0.15756818656E+02  0.40434857676E+02  0.00000000000E+00 0. -1.
</event>
<event>
 7    1  0.1910099E-015  0.9000773E+02  0.7816164E-02  0.1186339E+00
        -11   -1    0    0    0    0  0.00000000000E+00  0.00000000000E+00  0.45593999997E+02  0.45594000000E+02  0.51100000000E-03 0.  1.
         11   -1    0    0    0    0 -0.00000000000E+00 -0.00000000000E+00 -0.45593999997E+02  0.45594000000E+02  0.51100000000E-03 0. -1.
    9900012    2    1    2    0    0  0.42164414258E+00 -0.10241592892E+01  0.40786131361E+00  0.90007730165E+02  0.89999991403E+02 0.  0.
        -12    1    1    2    0    0 -0.42164414258E+00  0.10241592892E+01 -0.40786131361E+00  0.11802698352E+01  0.00000000000E+00 0.  1.
         11    1    3    3    0    0  0.16297683094E+02 -0.15101707658E+02 -0.26854343844E+02  0.34854437766E+02  0.51100000000E-03 0. -1.
        -11    1    3    3    0    0  0.10503194947E+01 -0.63978311015E+01 -0.84455942766E+01  0.10647228597E+02  0.51100000000E-03 0.  1.
        -12    1    3    3    0    0 -0.16926358446E+02  0.20475379470E+02  0.35707799435E+02  0.44506063802E+02  0.00000000000E+00 0.  1.
</event>
<event>
 7    1  0.1910099E-015  0.9000773E+02  0.7816164E-02  0.1186339E+00
        -11   -1    0    0    0    0  0.00000000000E+00  0.00000000000E+00  0.45593999997E+02  0.45594000000E+02  0.51100000000E-03 0.  1.
         11   -1    0    0    0    0 -0.00000000000E+00 -0.00000000000E+00 -0.45593999997E+02  0.45594000000E+02  0.51100000000E-03 0. -1.
    9900012    2    1    2    0    0 -0.62017886842E+00  0.44312510813E+00  0.90113628910E+00  0.90007733800E+02  0.89999995087E+02 0.  0.
        -12    1    1    2    0    0  0.62017886842E+00 -0.44312510813E+00 -0.90113628910E+00  0.11802661996E+01  0.00000000000E+00 0.  1.
         11    1    3    3    0    0  0.15003555848E+02 -0.46912770905E+00 -0.33371131201E+02  0.36591790976E+02  0.51100000000E-03 0. -1.
        -11    1    3    3    0    0  0.18421605805E+01  0.63456851409E+01 -0.61631100104E+01  0.90357733910E+01  0.51100000000E-03 0.  1.
        -12    1    3    3    0    0 -0.17465895297E+02 -0.54334323237E+01  0.40435377501E+02  0.44380169434E+02  0.00000000000E+00 0.  1.
</event>
<event>
 7    1  0.1910099E-015  0.9000758E+02  0.7816164E-02  0.1186339E+00
        -11   -1    0    0    0    0  0.00000000000E+00  0.00000000000E+00  0.45593999997E+02  0.45594000000E+02  0.51100000000E-03 0.  1.
         11   -1    0    0    0    0 -0.00000000000E+00 -0.00000000000E+00 -0.45593999997E+02  0.45594000000E+02  0.51100000000E-03 0. -1.
    9900012    2    1    2    0    0 -0.10102968650E+01  0.32381814420E+00  0.51752819234E+00  0.90007579153E+02  0.89999838398E+02 0.  0.
        -12    1    1    2    0    0  0.10102968650E+01 -0.32381814420E+00 -0.51752819234E+00  0.11804208469E+01  0.00000000000E+00 0.  1.
         11    1    3    3    0    0  0.76734927791E+01  0.19885975030E+01 -0.41400318422E+02  0.42152382818E+02  0.51100000000E-03 0. -1.
        -11    1    3    3    0    0 -0.86633143133E+01 -0.44345279418E+01  0.52026179986E+01  0.11035637148E+02  0.51100000000E-03 0.  1.
        -12    1    3    3    0    0 -0.20475330801E-01  0.27697485830E+01  0.36715228616E+02  0.36819559188E+02  0.00000000000E+00 0.  1.
</event>
<event>
 7    1  0.1910099E-015  0.9000772E+02  0.7816164E-02  0.1186339E+00
        -11   -1    0    0    0    0  0.00000000000E+00  0.00000000000E+00  0.45593999997E+02  0.45594000000E+02  0.51100000000E-03 0. -1.
         11   -1    0    0    0    0 -0.00000000000E+00 -0.00000000000E+00 -0.45593999997E+02  0.45594000000E+02  0.51100000000E-03 0.  1.
    9900012    2    1    2    0    0  0.95449191118E+00  0.82357762354E-01  0.68937121225E+00  0.90007716018E+02  0.89999977070E+02 0.  0.
        -12    1    1    2    0    0 -0.95449191118E+00 -0.82357762354E-01 -0.68937121225E+00  0.11802839818E+01  0.00000000000E+00 0.  1.
         11    1    3    3    0    0  0.29635326127E+01 -0.28422459813E+01 -0.87510757007E+01  0.96665512953E+01  0.51100000000E-03 0. -1.
        -11    1    3    3    0    0 -0.40807052391E+02  0.22245120213E+01  0.69750521371E+01  0.41458597795E+02  0.51100000000E-03 0.  1.
         12    1    3    3    0    0  0.38798011689E+02  0.70009172242E+00  0.24653947758E+01  0.38882566928E+02  0.00000000000E+00 0. -1.
</event>
<event>
 7    1  0.1910099E-015  0.9000752E+02  0.7816164E-02  0.1186339E+00
        -11   -1    0    0    0    0  0.00000000000E+00  0.00000000000E+00  0.45593999997E+02  0.45594000000E+02  0.51100000000E-03 0.  1.
         11   -1    0    0    0    0 -0.00000000000E+00 -0.00000000000E+00 -0.45593999997E+02  0.45594000000E+02  0.51100000000E-03 0. -1.
    9900012    2    1    2    0    0 -0.88584953974E+00 -0.71661695781E-01 -0.77695942338E+00  0.90007520965E+02  0.89999779442E+02 0.  0.
        -12    1    1    2    0    0  0.88584953974E+00  0.71661695781E-01  0.77695942338E+00  0.11804790347E+01  0.00000000000E+00 0.  1.
         11    1    3    3    0    0 -0.21032676851E+01  0.34841806208E+01  0.56166354610E+01  0.69361259876E+01  0.51100000000E-03 0. -1.
        -11    1    3    3    0    0  0.35362732592E+02  0.44176961877E+01  0.18419178765E+02  0.40116144413E+02  0.51100000000E-03 0.  1.
         12    1    3    3    0    0 -0.34145314446E+02 -0.79735385042E+01 -0.24812773649E+02  0.42955250565E+02  0.00000000000E+00 0. -1.
</event>
<event>
 7    1  0.1910099E-015  0.9000759E+02  0.7816164E-02  0.1186339E+00
        -11   -1    0    0    0    0  0.00000000000E+00  0.00000000000E+00  0.45593999997E+02  0.45594000000E+02  0.51100000000E-03 0.  1.
         11   -1    0    0    0    0 -0.00000000000E+00 -0.00000000000E+00 -0.45593999997E+02  0.45594000000E+02  0.51100000000E-03 0. -1.
    9900012    2    1    2    0    0  0.11844060572E+00  0.11692232779E+01 -0.11067527143E+00  0.90007593178E+02  0.89999852607E+02 0.  0.
        -12    1    1    2    0    0 -0.11844060572E+00 -0.11692232779E+01  0.11067527143E+00  0.11804068224E+01  0.00000000000E+00 0.  1.
         11    1    3    3    0    0  0.22571425069E+02  0.22348872079E+02 -0.19389488972E+02  0.37214158538E+02  0.51100000000E-03 0. -1.
        -11    1    3    3    0    0  0.65191587981E+01  0.54986947567E+01  0.83161658179E+01  0.11911913769E+02  0.51100000000E-03 0.  1.
        -12    1    3    3    0    0 -0.28972143261E+02 -0.26678343557E+02  0.10962647883E+02  0.40881520871E+02  0.00000000000E+00 0.  1.
</event>
<event>
 7    1  0.1910099E-015  0.9000759E+02  0.7816164E-02  0.1186339E+00
        -11   -1    0    0    0    0  0.00000000000E+00  0.00000000000E+00  0.45593999997E+02  0.45594000000E+02  0.51100000000E-03 0.  1.
         11   -1    0    0    0    0 -0.00000000000E+00 -0.00000000000E+00 -0.45593999997E+02  0.45594000000E+02  0.51100000000E-03 0. -1.
    9900012    2    1    2    0    0  0.80296896766E+00  0.37946182835E+00 -0.77756813818E+00  0.90007592167E+02  0.89999851584E+02 0.  0.
        -12    1    1    2    0    0 -0.80296896766E+00 -0.37946182835E+00  0.77756813818E+00  0.11804078328E+01  0.00000000000E+00 0.  1.
         11    1    3    3    0    0 -0.16741499329E+02 -0.14863293333E+02  0.78728430883E+01  0.23731349456E+02  0.51100000000E-03 0. -1.
        -11    1    3    3    0    0 -0.15494728721E+00  0.15784946446E+02  0.24237119307E+02  0.28924496461E+02  0.51100000000E-03 0.  1.
        -12    1    3    3    0    0  0.17699415583E+02 -0.54219128443E+00 -0.32887530533E+02  0.37351746250E+02  0.00000000000E+00 0.  1.
</event>
<event>
 7    1  0.1910099E-015  0.9000763E+02  0.7816164E-02  0.1186339E+00
        -11   -1    0    0    0    0  0.00000000000E+00  0.00000000000E+00  0.45593999997E+02  0.45594000000E+02  0.51100000000E-03 0.  1.
         11   -1    0    0    0    0 -0.00000000000E+00 -0.00000000000E+00 -0.45593999997E+02  0.45594000000E+02  0.51100000000E-03 0. -1.
    9900012    2    1    2    0    0 -0.10753987424E+01 -0.41012315704E+00 -0.26189902911E+00  0.90007629482E+02  0.89999889391E+02 0.  0.
        -12    1    1    2    0    0  0.10753987424E+01  0.41012315704E+00  0.26189902911E+00  0.11803705183E+01  0.00000000000E+00 0.  1.
         11    1    3    3    0    0 -0.37232242601E+01  0.99941371105E+00  0.11292066607E+02  0.11931973649E+02  0.51100000000E-03 0. -1.
        -11    1    3    3    0    0 -0.31811193737E+02 -0.19964811651E+02 -0.11308516173E+01  0.37574254176E+02  0.51100000000E-03 0.  1.
         12    1    3    3    0    0  0.34459019255E+02  0.18555274783E+02 -0.10423114019E+02  0.40501401656E+02  0.00000000000E+00 0. -1.
</event>
<event>
 7    1  0.1910099E-015  0.9000750E+02  0.7816164E-02  0.1186340E+00
        -11   -1    0    0    0    0  0.00000000000E+00  0.00000000000E+00  0.45593999997E+02  0.45594000000E+02  0.51100000000E-03 0. -1.
         11   -1    0    0    0    0 -0.00000000000E+00 -0.00000000000E+00 -0.45593999997E+02  0.45594000000E+02  0.51100000000E-03 0.  1.
    9900012    2    1    2    0    0  0.84784866975E+00 -0.32768709169E+00 -0.75322710854E+00  0.90007501261E+02  0.89999759477E+02 0.  0.
        -12    1    1    2    0    0 -0.84784866975E+00  0.32768709169E+00  0.75322710854E+00  0.11804987395E+01  0.00000000000E+00 0.  1.
         11    1    3    3    0    0 -0.59945490126E+01 -0.30203892562E+01  0.58050124702E+01  0.88744317657E+01  0.51100000000E-03 0. -1.
        -11    1    3    3    0    0  0.13330456667E+02  0.37485092876E+02 -0.18371072094E+02  0.43821564931E+02  0.51100000000E-03 0.  1.
         12    1    3    3    0    0 -0.64880589842E+01 -0.34792390711E+02  0.11812832516E+02  0.37311504564E+02  0.00000000000E+00 0. -1.
</event>
<event>
 7    1  0.1910099E-015  0.9000768E+02  0.7816164E-02  0.1186339E+00
        -11   -1    0    0    0    0  0.00000000000E+00  0.00000000000E+00  0.45593999997E+02  0.45594000000E+02  0.51100000000E-03 0. -1.
         11   -1    0    0    0    0 -0.00000000000E+00 -0.00000000000E+00 -0.45593999997E+02  0.45594000000E+02  0.51100000000E-03 0.  1.
    9900012    2    1    2    0    0  0.27796332580E+00 -0.76861249990E+00  0.85154252574E+00  0.90007680781E+02  0.89999941367E+02 0.  0.
        -12    1    1    2    0    0 -0.27796332580E+00  0.76861249990E+00 -0.85154252574E+00  0.11803192190E+01  0.00000000000E+00 0.  1.
         11    1    3    3    0    0 -0.11007226293E+02  0.19492403346E+01 -0.29203734281E+01  0.11553663911E+02  0.51100000000E-03 0. -1.
        -11    1    3    3    0    0 -0.23733035737E+02  0.60466519276E+01 -0.22932473375E+02  0.33551711136E+02  0.51100000000E-03 0.  1.
         12    1    3    3    0    0  0.35018225356E+02 -0.87645047621E+01  0.26704389329E+02  0.44902305734E+02  0.00000000000E+00 0. -1.
</event>
<event>
 7    1  0.1910099E-015  0.9000770E+02  0.7816164E-02  0.1186339E+00
        -11   -1    0    0    0    0  0.00000000000E+00  0.00000000000E+00  0.45593999997E+02  0.45594000000E+02  0.51100000000E-03 0.  1.
         11   -1    0    0    0    0 -0.00000000000E+00 -0.00000000000E+00 -0.45593999997E+02  0.45594000000E+02  0.51100000000E-03 0. -1.
    9900012    2    1    2    0    0 -0.39747125381E-01 -0.51713527136E+00 -0.10602301019E+01  0.90007704871E+02  0.89999965775E+02 0.  0.
        -12    1    1    2    0    0  0.39747125381E-01  0.51713527136E+00  0.10602301019E+01  0.11802951291E+01  0.00000000000E+00 0.  1.
         11    1    3    3    0    0  0.66198689372E+01 -0.38575563896E+02  0.14788324569E+02  0.41840068576E+02  0.51100000000E-03 0. -1.
        -11    1    3    3    0    0 -0.91961090746E+01  0.26473596542E+01 -0.78327603813E+00  0.96015861639E+01  0.51100000000E-03 0.  1.
        -12    1    3    3    0    0  0.25364930120E+01  0.35411068970E+02 -0.15065278632E+02  0.38566050131E+02  0.00000000000E+00 0.  1.
</event>
<event>
 7    1  0.1910099E-015  0.9000773E+02  0.7816164E-02  0.1186339E+00
        -11   -1    0    0    0    0  0.00000000000E+00  0.00000000000E+00  0.45593999997E+02  0.45594000000E+02  0.51100000000E-03 0.  1.
         11   -1    0    0    0    0 -0.00000000000E+00 -0.00000000000E+00 -0.45593999997E+02  0.45594000000E+02  0.51100000000E-03 0. -1.
    9900012    2    1    2    0    0 -0.66247842208E+00 -0.96905673339E+00 -0.12280533391E+00  0.90007733182E+02  0.89999994460E+02 0.  0.
        -12    1    1    2    0    0  0.66247842208E+00  0.96905673339E+00  0.12280533391E+00  0.11802668183E+01  0.00000000000E+00 0.  1.
         11    1    3    3    0    0  0.26938881886E+02  0.65635194708E+01 -0.56490325675E+01  0.28296549512E+02  0.51100000000E-03 0. -1.
        -11    1    3    3    0    0  0.85698930840E+01 -0.66721517907E+01  0.19986674955E+02  0.22747040533E+02  0.51100000000E-03 0.  1.
         12    1    3    3    0    0 -0.36171253392E+02 -0.86042441345E+00 -0.14460447721E+02  0.38964143137E+02  0.00000000000E+00 0. -1.
</event>
<event>
 7    1  0.1910099E-015  0.9000775E+02  0.7816164E-02  0.1186339E+00
        -11   -1    0    0    0    0  0.00000000000E+00  0.00000000000E+00  0.45593999997E+02  0.45594000000E+02  0.51100000000E-03 0. -1.
         11   -1    0    0    0    0 -0.00000000000E+00 -0.00000000000E+00 -0.45593999997E+02  0.45594000000E+02  0.51100000000E-03 0.  1.
    9900012    2    1    2    0    0  0.49667126321E+00  0.54739285739E+00  0.92014666717E+00  0.90007749529E+02  0.90000011023E+02 0.  0.
        -12    1    1    2    0    0 -0.49667126321E+00 -0.54739285739E+00 -0.92014666717E+00  0.11802504705E+01  0.00000000000E+00 0.  1.
         11    1    3    3    0    0 -0.54654763660E+01  0.64472327867E+01  0.57041445918E+00  0.84713408283E+01  0.51100000000E-03 0. -1.
        -11    1    3    3    0    0  0.12557289339E+02  0.23430418931E+02 -0.29126690281E+02  0.39433921106E+02  0.51100000000E-03 0.  1.
         12    1    3    3    0    0 -0.65951417095E+01 -0.29330258860E+02  0.29476422489E+02  0.42102487595E+02  0.00000000000E+00 0. -1.
</event>
<event>
 7    1  0.1910099E-015  0.9000809E+02  0.7816164E-02  0.1186338E+00
        -11   -1    0    0    0    0  0.00000000000E+00  0.00000000000E+00  0.45593999997E+02  0.45594000000E+02  0.51100000000E-03 0. -1.
         11   -1    0    0    0    0 -0.00000000000E+00 -0.00000000000E+00 -0.45593999997E+02  0.45594000000E+02  0.51100000000E-03 0.  1.
    9900012    2    1    2    0    0 -0.10464564205E+01 -0.26539295462E+00  0.47611674494E+00  0.90008088302E+02  0.90000354267E+02 0.  0.
        -12    1    1    2    0    0  0.10464564205E+01  0.26539295462E+00 -0.47611674494E+00  0.11799116981E+01  0.00000000000E+00 0.  1.
         11    1    3    3    0    0 -0.17140899902E+01 -0.48129193119E+01 -0.78903572830E+01  0.94000018677E+01  0.51100000000E-03 0. -1.
        -11    1    3    3    0    0 -0.13164265606E+02  0.37233458757E+02  0.18624202359E+02  0.43663362831E+02  0.51100000000E-03 0.  1.
         12    1    3    3    0    0  0.13831899175E+02 -0.32685932399E+02 -0.10257728331E+02  0.36944723603E+02  0.00000000000E+00 0. -1.
</event>
<event>
 7    1  0.1910099E-015  0.9000760E+02  0.7816164E-02  0.1186339E+00
        -11   -1    0    0    0    0  0.00000000000E+00  0.00000000000E+00  0.45593999997E+02  0.45594000000E+02  0.51100000000E-03 0. -1.
         11   -1    0    0    0    0 -0.00000000000E+00 -0.00000000000E+00 -0.45593999997E+02  0.45594000000E+02  0.51100000000E-03 0.  1.
    9900012    2    1    2    0    0 -0.84631402445E+00  0.41526402495E+00  0.71038348928E+00  0.90007603312E+02  0.89999862876E+02 0.  0.
        -12    1    1    2    0    0  0.84631402445E+00 -0.41526402495E+00 -0.71038348928E+00  0.11803966877E+01  0.00000000000E+00 0.  1.
         11    1    3    3    0    0 -0.16818322898E+02 -0.21594773878E+02  0.28469163473E+02  0.39492828628E+02  0.51100000000E-03 0. -1.
        -11    1    3    3    0    0  0.59724404214E+01 -0.74769340618E+01 -0.13050493813E+01  0.96580402619E+01  0.51100000000E-03 0.  1.
        -12    1    3    3    0    0  0.99995684522E+01  0.29486971965E+02 -0.26453730602E+02  0.40856734422E+02  0.00000000000E+00 0.  1.
</event>
<event>
 7    1  0.1910099E-015  0.9000779E+02  0.7816164E-02  0.1186339E+00
        -11   -1    0    0    0    0  0.00000000000E+00  0.00000000000E+00  0.45593999997E+02  0.45594000000E+02  0.51100000000E-03 0.  1.
         11   -1    0    0    0    0 -0.00000000000E+00 -0.00000000000E+00 -0.45593999997E+02  0.45594000000E+02  0.51100000000E-03 0. -1.
    9900012    2    1    2    0    0 -0.10412581074E+01  0.26905483317E+00  0.48609929125E+00  0.90007787532E+02  0.90000049527E+02 0.  0.
        -12    1    1    2    0    0  0.10412581074E+01 -0.26905483317E+00 -0.48609929125E+00  0.11802124683E+01  0.00000000000E+00 0.  1.
         11    1    3    3    0    0 -0.45461101558E+01  0.29632382954E+02 -0.12784166737E+02  0.32591105481E+02  0.51100000000E-03 0. -1.
        -11    1    3    3    0    0 -0.10784357429E+02  0.70900339798E+01  0.12918983424E+02  0.18261190540E+02  0.51100000000E-03 0.  1.
        -12    1    3    3    0    0  0.14289209477E+02 -0.36453362100E+02  0.35128260440E+00  0.39155491510E+02  0.00000000000E+00 0.  1.
</event>
<event>
 7    1  0.1910099E-015  0.9000774E+02  0.7816164E-02  0.1186339E+00
        -11   -1    0    0    0    0  0.00000000000E+00  0.00000000000E+00  0.45593999997E+02  0.45594000000E+02  0.51100000000E-03 0. -1.
         11   -1    0    0    0    0 -0.00000000000E+00 -0.00000000000E+00 -0.45593999997E+02  0.45594000000E+02  0.51100000000E-03 0.  1.
    9900012    2    1    2    0    0  0.72637577078E+00  0.60271099980E-01  0.92831446394E+00  0.90007736424E+02  0.89999997744E+02 0.  0.
        -12    1    1    2    0    0 -0.72637577078E+00 -0.60271099980E-01 -0.92831446394E+00  0.11802635764E+01  0.00000000000E+00 0.  1.
         11    1    3    3    0    0 -0.18415714886E+02 -0.28260351304E+02  0.23027509799E+02  0.40841794995E+02  0.51100000000E-03 0. -1.
        -11    1    3    3    0    0 -0.39349725718E+01 -0.66277606811E+00 -0.90429104037E+01  0.98842050813E+01  0.51100000000E-03 0.  1.
        -12    1    3    3    0    0  0.23077063228E+02  0.28983398472E+02 -0.13056284931E+02  0.39281736347E+02  0.00000000000E+00 0.  1.
</event>
<event>
 7    1  0.1910099E-015  0.9000764E+02  0.7816164E-02  0.1186339E+00
        -11   -1    0    0    0    0  0.00000000000E+00  0.00000000000E+00  0.45593999997E+02  0.45594000000E+02  0.51100000000E-03 0.  1.
         11   -1    0    0    0    0 -0.00000000000E+00 -0.00000000000E+00 -0.45593999997E+02  0.45594000000E+02  0.51100000000E-03 0. -1.
    9900012    2    1    2    0    0 -0.85395847505E+00 -0.30777423771E+00 -0.75450345247E+00  0.90007641784E+02  0.89999901855E+02 0.  0.
        -12    1    1    2    0    0  0.85395847505E+00  0.30777423771E+00  0.75450345247E+00  0.11803582161E+01  0.00000000000E+00 0.  1.
         11    1    3    3    0    0  0.56268722768E+01  0.45852929019E+01  0.15704325775E+02  0.17300648858E+02  0.51100000000E-03 0. -1.
        -11    1    3    3    0    0 -0.22157092819E+02 -0.94901466758E+01  0.20918680011E+02  0.31915369649E+02  0.51100000000E-03 0.  1.
         12    1    3    3    0    0  0.15676262067E+02  0.45970795361E+01 -0.37377509239E+02  0.40791623277E+02  0.00000000000E+00 0. -1.
</event>
<event>
 7    1  0.1910099E-015  0.9000769E+02  0.7816164E-02  0.1186339E+00
        -11   -1    0    0    0    0  0.00000000000E+00  0.00000000000E+00  0.45593999997E+02  0.45594000000E+02  0.51100000000E-03 0.  1.
         11   -1    0    0    0    0 -0.00000000000E+00 -0.00000000000E+00 -0.45593999997E+02  0.45594000000E+02  0.51100000000E-03 0. -1.
    9900012    2    1    2    0    0  0.45295409525E-01 -0.31879641870E+00 -0.11355422799E+01  0.90007686864E+02  0.89999947530E+02 0.  0.
        -12    1    1    2    0    0 -0.45295409525E-01  0.31879641870E+00  0.11355422799E+01  0.11803131364E+01  0.00000000000E+00 0.  1.
         11    1    3    3    0    0  0.84218862321E+01  0.19524279522E+01  0.10717391883E+02  0.13769627143E+02  0.51100000000E-03 0. -1.
        -11    1    3    3    0    0  0.80226313162E+01 -0.25579208208E+02  0.20037622039E+02  0.33468863187E+02  0.51100000000E-03 0.  1.
         12    1    3    3    0    0 -0.16399222139E+02  0.23307983837E+02 -0.31890556202E+02  0.42769196534E+02  0.00000000000E+00 0. -1.
</event>
<event>
 7    1  0.1910099E-015  0.9000773E+02  0.7816164E-02  0.1186339E+00
        -11   -1    0    0    0    0  0.00000000000E+00  0.00000000000E+00  0.45593999997E+02  0.45594000000E+02  0.51100000000E-03 0.  1.
         11   -1    0    0    0    0 -0.00000000000E+00 -0.00000000000E+00 -0.45593999997E+02  0.45594000000E+02  0.51100000000E-03 0. -1.
    9900012    2    1    2    0    0 -0.17787802924E+00  0.74069425719E+00 -0.90153272369E+00  0.90007733154E+02  0.89999994432E+02 0.  0.
        -12    1    1    2    0    0  0.17787802924E+00 -0.74069425719E+00  0.90153272369E+00  0.11802668460E+01  0.00000000000E+00 0.  1.
         11    1    3    3    0    0 -0.21816980149E+02 -0.12510532218E+02 -0.28907831714E+02  0.38316533949E+02  0.51100000000E-03 0. -1.
        -11    1    3    3    0    0 -0.49351972019E+00 -0.93720118584E+01 -0.67361801137E-01  0.93852387216E+01  0.51100000000E-03 0.  1.
        -12    1    3    3    0    0  0.22132621840E+02  0.22623238333E+02  0.28073660792E+02  0.42305960483E+02  0.00000000000E+00 0.  1.
</event>
<event>
 7    1  0.1910099E-015  0.9000762E+02  0.7816164E-02  0.1186339E+00
        -11   -1    0    0    0    0  0.00000000000E+00  0.00000000000E+00  0.45593999997E+02  0.45594000000E+02  0.51100000000E-03 0.  1.
         11   -1    0    0    0    0 -0.00000000000E+00 -0.00000000000E+00 -0.45593999997E+02  0.45594000000E+02  0.51100000000E-03 0. -1.
    9900012    2    1    2    0    0  0.73288024403E+00 -0.92417788176E+00  0.45642847172E-01  0.90007618079E+02  0.89999877838E+02 0.  0.
        -12    1    1    2    0    0 -0.73288024403E+00  0.92417788176E+00 -0.45642847172E-01  0.11803819207E+01  0.00000000000E+00 0.  1.
         11    1    3    3    0    0  0.53825535941E+01  0.91185542681E+01  0.59962106470E+01  0.12168584861E+02  0.51100000000E-03 0. -1.
        -11    1    3    3    0    0  0.23246687614E+02  0.23330373524E+02  0.41198889856E+01  0.33191690215E+02  0.51100000000E-03 0.  1.
         12    1    3    3    0    0 -0.27896360964E+02 -0.33373105674E+02 -0.10070456785E+02  0.44647343003E+02  0.00000000000E+00 0. -1.
</event>
<event>
 7    1  0.1910099E-015  0.9000772E+02  0.7816164E-02  0.1186339E+00
        -11   -1    0    0    0    0  0.00000000000E+00  0.00000000000E+00  0.45593999997E+02  0.45594000000E+02  0.51100000000E-03 0.  1.
         11   -1    0    0    0    0 -0.00000000000E+00 -0.00000000000E+00 -0.45593999997E+02  0.45594000000E+02  0.51100000000E-03 0. -1.
    9900012    2    1    2    0    0 -0.90349744875E+00 -0.71714293878E+00  0.24992192849E+00  0.90007719269E+02  0.89999980363E+02 0.  0.
        -12    1    1    2    0    0  0.90349744875E+00  0.71714293878E+00 -0.24992192849E+00  0.11802807314E+01  0.00000000000E+00 0.  1.
         11    1    3    3    0    0 -0.16492663780E+01 -0.94862361901E+01  0.11066154125E+01  0.96919221300E+01  0.51100000000E-03 0. -1.
        -11    1    3    3    0    0 -0.38294895320E+02  0.62394228520E+01  0.92948219969E+01  0.39897658093E+02  0.51100000000E-03 0.  1.
         12    1    3    3    0    0  0.39040664249E+02  0.25296703994E+01 -0.10151515481E+02  0.40418139046E+02  0.00000000000E+00 0. -1.
</event>
<event>
 7    1  0.1910099E-015  0.9000786E+02  0.7816164E-02  0.1186339E+00
        -11   -1    0    0    0    0  0.00000000000E+00  0.00000000000E+00  0.45593999997E+02  0.45594000000E+02  0.51100000000E-03 0.  1.
         11   -1    0    0    0    0 -0.00000000000E+00 -0.00000000000E+00 -0.45593999997E+02  0.45594000000E+02  0.51100000000E-03 0. -1.
    9900012    2    1    2    0    0 -0.81208745821E+00 -0.13960405433E+00 -0.84484551326E+00  0.90007856249E+02  0.90000119151E+02 0.  0.
        -12    1    1    2    0    0  0.81208745821E+00  0.13960405433E+00  0.84484551326E+00  0.11801437510E+01  0.00000000000E+00 0.  1.
         11    1    3    3    0    0 -0.35082169057E+02 -0.11628638223E+01 -0.65988383837E+01  0.35716319887E+02  0.51100000000E-03 0. -1.
        -11    1    3    3    0    0 -0.93512496409E+01 -0.38084520933E+01  0.97506899665E+00  0.10144009907E+02  0.51100000000E-03 0.  1.
        -12    1    3    3    0    0  0.43621331240E+02  0.48317118613E+01  0.47789238738E+01  0.44147526454E+02  0.00000000000E+00 0.  1.
</event>
<event>
 7    1  0.1910099E-015  0.9000787E+02  0.7816164E-02  0.1186339E+00
        -11   -1    0    0    0    0  0.00000000000E+00  0.00000000000E+00  0.45593999997E+02  0.45594000000E+02  0.51100000000E-03 0. -1.
         11   -1    0    0    0    0 -0.00000000000E+00 -0.00000000000E+00 -0.45593999997E+02  0.45594000000E+02  0.51100000000E-03 0.  1.
    9900012    2    1    2    0    0  0.10947306693E+01  0.40798582541E+00 -0.16677786252E+00  0.90007871817E+02  0.90000134925E+02 0.  0.
        -12    1    1    2    0    0 -0.10947306693E+01 -0.40798582541E+00  0.16677786252E+00  0.11801281826E+01  0.00000000000E+00 0.  1.
         11    1    3    3    0    0 -0.21778052540E+02  0.28204487814E+02  0.78518913696E+01  0.36488750371E+02  0.51100000000E-03 0. -1.
        -11    1    3    3    0    0  0.20004151829E+01  0.96723050601E+01 -0.30770326313E+01  0.10345205467E+02  0.51100000000E-03 0.  1.
        -12    1    3    3    0    0  0.20872368027E+02 -0.37468807049E+02 -0.49416366008E+01  0.43173915979E+02  0.00000000000E+00 0.  1.
</event>
<event>
 7    1  0.1910099E-015  0.9000770E+02  0.7816164E-02  0.1186339E+00
        -11   -1    0    0    0    0  0.00000000000E+00  0.00000000000E+00  0.45593999997E+02  0.45594000000E+02  0.51100000000E-03 0.  1.
         11   -1    0    0    0    0 -0.00000000000E+00 -0.00000000000E+00 -0.45593999997E+02  0.45594000000E+02  0.51100000000E-03 0. -1.
    9900012    2    1    2    0    0  0.97817271853E+00  0.26300509216E-01  0.65999636956E+00  0.90007699703E+02  0.89999960539E+02 0.  0.
        -12    1    1    2    0    0 -0.97817271853E+00 -0.26300509216E-01 -0.65999636956E+00  0.11803002973E+01  0.00000000000E+00 0.  1.
         11    1    3    3    0    0  0.18537260229E+02  0.64589961038E+01 -0.33197576228E+02  0.38567184434E+02  0.51100000000E-03 0. -1.
        -11    1    3    3    0    0  0.23402537551E+01  0.47427756016E+01 -0.44085856812E+01  0.68852259233E+01  0.51100000000E-03 0.  1.
        -12    1    3    3    0    0 -0.19899341266E+02 -0.11175471196E+02  0.38266158279E+02  0.44555289346E+02  0.00000000000E+00 0.  1.
</event>
<event>
 7    1  0.1910099E-015  0.9000776E+02  0.7816164E-02  0.1186339E+00
        -11   -1    0    0    0    0  0.00000000000E+00  0.00000000000E+00  0.45593999997E+02  0.45594000000E+02  0.51100000000E-03 0.  1.
         11   -1    0    0    0    0 -0.00000000000E+00 -0.00000000000E+00 -0.45593999997E+02  0.45594000000E+02  0.51100000000E-03 0. -1.
    9900012    2    1    2    0    0 -0.10751632571E+00  0.89317836067E+00 -0.76395528032E+00  0.90007764848E+02  0.90000026544E+02 0.  0.
        -12    1    1    2    0    0  0.10751632571E+00 -0.89317836067E+00  0.76395528032E+00  0.11802351522E+01  0.00000000000E+00 0.  1.
         11    1    3    3    0    0 -0.64005144979E+01 -0.49257896404E+01 -0.45522864868E+01  0.92711003628E+01  0.51100000000E-03 0. -1.
        -11    1    3    3    0    0 -0.28092440681E+02 -0.18230293940E+02  0.15886673114E+02  0.37066362426E+02  0.51100000000E-03 0.  1.
         12    1    3    3    0    0  0.34385438853E+02  0.24049261941E+02 -0.12098341908E+02  0.43670302059E+02  0.00000000000E+00 0. -1.
</event>
<event>
 7    1  0.1910099E-015  0.9000779E+02  0.7816164E-02  0.1186339E+00
        -11   -1    0    0    0    0  0.00000000000E+00  0.00000000000E+00  0.45593999997E+02  0.45594000000E+02  0.51100000000E-03 0.  1.
         11   -1    0    0    0    0 -0.00000000000E+00 -0.00000000000E+00 -0.45593999997E+02  0.45594000000E+02  0.51100000000E-03 0. -1.
    9900012    2    1    2    0    0 -0.94198743240E+00 -0.32511066850E+00 -0.63233763706E+00  0.90007793172E+02  0.90000055242E+02 0.  0.
        -12    1    1    2    0    0  0.94198743240E+00  0.32511066850E+00  0.63233763706E+00  0.11802068280E+01  0.00000000000E+00 0.  1.
         11    1    3    3    0    0 -0.26118838498E+01  0.22918129287E+01 -0.95868594196E+01  0.10197167133E+02  0.51100000000E-03 0. -1.
        -11    1    3    3    0    0  0.13272311587E+02 -0.28083511185E+02 -0.22013326724E+02  0.38071306900E+02  0.51100000000E-03 0.  1.
         12    1    3    3    0    0 -0.11602415170E+02  0.25466587587E+02  0.30967848506E+02  0.41739319140E+02  0.00000000000E+00 0. -1.
</event>
<event>
 7    1  0.1910099E-015  0.9000772E+02  0.7816164E-02  0.1186339E+00
        -11   -1    0    0    0    0  0.00000000000E+00  0.00000000000E+00  0.45593999997E+02  0.45594000000E+02  0.51100000000E-03 0.  1.
         11   -1    0    0    0    0 -0.00000000000E+00 -0.00000000000E+00 -0.45593999997E+02  0.45594000000E+02  0.51100000000E-03 0. -1.
    9900012    2    1    2    0    0  0.98459214015E+00  0.51639794997E+00 -0.39619479085E+00  0.90007720865E+02  0.89999981980E+02 0.  0.
        -12    1    1    2    0    0 -0.98459214015E+00 -0.51639794997E+00  0.39619479085E+00  0.11802791354E+01  0.00000000000E+00 0.  1.
         11    1    3    3    0    0 -0.72678590739E+01 -0.10005530511E+00  0.29495095916E+01  0.78441949029E+01  0.51100000000E-03 0. -1.
        -11    1    3    3    0    0 -0.30247050806E+01  0.39614369598E+02 -0.10139820927E+02  0.41003208266E+02  0.51100000000E-03 0.  1.
         12    1    3    3    0    0  0.11277156295E+02 -0.38997916343E+02  0.67941165442E+01  0.41160317695E+02  0.00000000000E+00 0. -1.
</event>
<event>
 7    1  0.1910099E-015  0.9000773E+02  0.7816164E-02  0.1186339E+00
        -11   -1    0    0    0    0  0.00000000000E+00  0.00000000000E+00  0.45593999997E+02  0.45594000000E+02  0.51100000000E-03 0. -1.
         11   -1    0    0    0    0 -0.00000000000E+00 -0.00000000000E+00 -0.45593999997E+02  0.45594000000E+02  0.51100000000E-03 0.  1.
    9900012    2    1    2    0    0  0.62402083573E+00 -0.79419845014E+00  0.61065115616E+00  0.90007725449E+02  0.89999986625E+02 0.  0.
        -12    1    1    2    0    0 -0.62402083573E+00  0.79419845014E+00 -0.61065115616E+00  0.11802745512E+01  0.00000000000E+00 0.  1.
         11    1    3    3    0    0  0.90136802486E+01  0.37540273509E+02  0.11062775351E+02  0.40160970674E+02  0.51100000000E-03 0. -1.
        -11    1    3    3    0    0  0.88789902401E+01 -0.29368357321E+01 -0.18644798055E+01  0.95361290369E+01  0.51100000000E-03 0.  1.
        -12    1    3    3    0    0 -0.17268649653E+02 -0.35397636227E+02 -0.85876443889E+01  0.40310625738E+02  0.00000000000E+00 0.  1.
</event>
<event>
 7    1  0.1910099E-015  0.9000781E+02  0.7816164E-02  0.1186339E+00
        -11   -1    0    0    0    0  0.00000000000E+00  0.00000000000E+00  0.45593999997E+02  0.45594000000E+02  0.51100000000E-03 0. -1.
         11   -1    0    0    0    0 -0.00000000000E+00 -0.00000000000E+00 -0.45593999997E+02  0.45594000000E+02  0.51100000000E-03 0.  1.
    9900012    2    1    2    0    0  0.10084655052E+01  0.61232802041E+00  0.30147493161E-01  0.90007806308E+02  0.90000068551E+02 0.  0.
        -12    1    1    2    0    0 -0.10084655052E+01 -0.61232802041E+00 -0.30147493161E-01  0.11801936922E+01  0.00000000000E+00 0.  1.
         11    1    3    3    0    0 -0.25679214039E+01 -0.10621457582E+01  0.23608442296E+01  0.36463625280E+01  0.51100000000E-03 0. -1.
        -11    1    3    3    0    0  0.12817479300E+02  0.14689426413E+02 -0.40522493875E+02  0.44968205813E+02  0.51100000000E-03 0.  1.
         12    1    3    3    0    0 -0.92410923909E+01 -0.13014952635E+02  0.38191797139E+02  0.41393237966E+02  0.00000000000E+00 0. -1.
</event>
<event>
 7    1  0.1910099E-015  0.9000778E+02  0.7816164E-02  0.1186339E+00
        -11   -1    0    0    0    0  0.00000000000E+00  0.00000000000E+00  0.45593999997E+02  0.45594000000E+02  0.51100000000E-03 0.  1.
         11   -1    0    0    0    0 -0.00000000000E+00 -0.00000000000E+00 -0.45593999997E+02  0.45594000000E+02  0.51100000000E-03 0. -1.
    9900012    2    1    2    0    0  0.36018525742E+00 -0.25585056191E+00 -0.10944043399E+01  0.90007782313E+02  0.90000044239E+02 0.  0.
        -12    1    1    2    0    0 -0.36018525742E+00  0.25585056191E+00  0.10944043399E+01  0.11802176871E+01  0.00000000000E+00 0.  1.
         11    1    3    3    0    0  0.23120407123E+02  0.18880362590E+01 -0.27867247155E+02  0.36258810939E+02  0.51100000000E-03 0. -1.
        -11    1    3    3    0    0  0.32135979606E+01  0.35962330780E+01 -0.83783387852E+01  0.96672987573E+01  0.51100000000E-03 0.  1.
        -12    1    3    3    0    0 -0.25973819826E+02 -0.57401198989E+01  0.35151181600E+02  0.44081672617E+02  0.00000000000E+00 0.  1.
</event>
<event>
 7    1  0.1910099E-015  0.9000776E+02  0.7816164E-02  0.1186339E+00
        -11   -1    0    0    0    0  0.00000000000E+00  0.00000000000E+00  0.45593999997E+02  0.45594000000E+02  0.51100000000E-03 0.  1.
         11   -1    0    0    0    0 -0.00000000000E+00 -0.00000000000E+00 -0.45593999997E+02  0.45594000000E+02  0.51100000000E-03 0. -1.
    9900012    2    1    2    0    0 -0.58311283243E+00  0.72528154138E+00 -0.72588301098E+00  0.90007762721E+02  0.90000024389E+02 0.  0.
        -12    1    1    2    0    0  0.58311283243E+00 -0.72528154138E+00  0.72588301098E+00  0.11802372792E+01  0.00000000000E+00 0.  1.
         11    1    3    3    0    0  0.73168370832E+01 -0.40236762716E+01 -0.25665808372E+01  0.87357548670E+01  0.51100000000E-03 0. -1.
        -11    1    3    3    0    0  0.30347551259E+02 -0.26930232807E+01 -0.20152543275E+02  0.36528772803E+02  0.51100000000E-03 0.  1.
         12    1    3    3    0    0 -0.38247501174E+02  0.74419810937E+01  0.21993241101E+02  0.44743235051E+02  0.00000000000E+00 0. -1.
</event>
<event>
 7    1  0.1910099E-015  0.9000775E+02  0.7816164E-02  0.1186339E+00
        -11   -1    0    0    0    0  0.00000000000E+00  0.00000000000E+00  0.45593999997E+02  0.45594000000E+02  0.51100000000E-03 0.  1.
         11   -1    0    0    0    0 -0.00000000000E+00 -0.00000000000E+00 -0.45593999997E+02  0.45594000000E+02  0.51100000000E-03 0. -1.
    9900012    2    1    2    0    0  0.25195861669E-01  0.31837009041E+00 -0.11362218188E+01  0.90007748176E+02  0.90000009652E+02 0.  0.
        -12    1    1    2    0    0 -0.25195861669E-01 -0.31837009041E+00  0.11362218188E+01  0.11802518238E+01  0.00000000000E+00 0.  1.
         11    1    3    3    0    0  0.14007913670E+02  0.55234464629E+01 -0.34725456518E+02  0.37849536811E+02  0.51100000000E-03 0. -1.
        -11    1    3    3    0    0  0.89613971139E+01 -0.46607468964E+01 -0.15184656242E+01  0.10214447512E+02  0.51100000000E-03 0.  1.
        -12    1    3    3    0    0 -0.22944114922E+02 -0.54432947608E+00  0.35107700323E+02  0.41943763853E+02  0.00000000000E+00 0.  1.
</event>
<event>
 7    1  0.1910099E-015  0.9000766E+02  0.7816164E-02  0.1186339E+00
        -11   -1    0    0    0    0  0.00000000000E+00  0.00000000000E+00  0.45593999997E+02  0.45594000000E+02  0.51100000000E-03 0.  1.
         11   -1    0    0    0    0 -0.00000000000E+00 -0.00000000000E+00 -0.45593999997E+02  0.45594000000E+02  0.51100000000E-03 0. -1.
    9900012    2    1    2    0    0  0.33244904574E+00  0.23652560037E+00 -0.11075815204E+01  0.90007659561E+02  0.89999919867E+02 0.  0.
        -12    1    1    2    0    0 -0.33244904574E+00 -0.23652560037E+00  0.11075815204E+01  0.11803404390E+01  0.00000000000E+00 0.  1.
         11    1    3    3    0    0 -0.23727010377E+02  0.15452318451E+02 -0.21168827867E+02  0.35353421906E+02  0.51100000000E-03 0. -1.
        -11    1    3    3    0    0  0.27862293540E+01  0.40197456155E+01 -0.11205189310E+02  0.12226107171E+02  0.51100000000E-03 0.  1.
        -12    1    3    3    0    0  0.21273230069E+02 -0.19235538466E+02  0.31266435656E+02  0.42428130484E+02  0.00000000000E+00 0.  1.
</event>
<event>
 7    1  0.1910099E-015  0.9000792E+02  0.7816164E-02  0.1186339E+00
        -11   -1    0    0    0    0  0.00000000000E+00  0.00000000000E+00  0.45593999997E+02  0.45594000000E+02  0.51100000000E-03 0.  1.
         11   -1    0    0    0    0 -0.00000000000E+00 -0.00000000000E+00 -0.45593999997E+02  0.45594000000E+02  0.51100000000E-03 0. -1.
    9900012    2    1    2    0    0  0.83994025145E+00  0.80583124155E+00 -0.19425194824E+00  0.90007916344E+02  0.90000180040E+02 0.  0.
        -12    1    1    2    0    0 -0.83994025145E+00 -0.80583124155E+00  0.19425194824E+00  0.11800836560E+01  0.00000000000E+00 0.  1.
         11    1    3    3    0    0  0.22838552313E+02  0.21341884585E+02 -0.19109403394E+02  0.36636659342E+02  0.51100000000E-03 0. -1.
        -11    1    3    3    0    0 -0.15986635810E+01  0.59599867013E+01 -0.82401210580E+01  0.10294501544E+02  0.51100000000E-03 0.  1.
        -12    1    3    3    0    0 -0.20399948481E+02 -0.26496040045E+02  0.27155272503E+02  0.43076755458E+02  0.00000000000E+00 0.  1.
</event>
<event>
 7    1  0.1910099E-015  0.9000770E+02  0.7816164E-02  0.1186339E+00
        -11   -1    0    0    0    0  0.00000000000E+00  0.00000000000E+00  0.45593999997E+02  0.45594000000E+02  0.51100000000E-03 0.  1.
         11   -1    0    0    0    0 -0.00000000000E+00 -0.00000000000E+00 -0.45593999997E+02  0.45594000000E+02  0.51100000000E-03 0. -1.
    9900012    2    1    2    0    0  0.61434504075E+00 -0.43477799094E+00 -0.90920705216E+00  0.90007699532E+02  0.89999960366E+02 0.  0.
        -12    1    1    2    0    0 -0.61434504075E+00  0.43477799094E+00  0.90920705216E+00  0.11803004678E+01  0.00000000000E+00 0.  1.
         11    1    3    3    0    0  0.35022699606E+01 -0.32324812582E+02  0.19378828420E+02  0.37851002557E+02  0.51100000000E-03 0. -1.
        -11    1    3    3    0    0  0.29723222969E+01 -0.65539777625E+01  0.18207411905E+01  0.74232353521E+01  0.51100000000E-03 0.  1.
        -12    1    3    3    0    0 -0.58602472167E+01  0.38444012354E+02 -0.22108776662E+02  0.44733461623E+02  0.00000000000E+00 0.  1.
</event>
<event>
 7    1  0.1910099E-015  0.9000749E+02  0.7816164E-02  0.1186340E+00
        -11   -1    0    0    0    0  0.00000000000E+00  0.00000000000E+00  0.45593999997E+02  0.45594000000E+02  0.51100000000E-03 0.  1.
         11   -1    0    0    0    0 -0.00000000000E+00 -0.00000000000E+00 -0.45593999997E+02  0.45594000000E+02  0.51100000000E-03 0. -1.
    9900012    2    1    2    0    0 -0.24858356903E+00 -0.72244698728E+00 -0.89993114740E+00  0.90007491842E+02  0.89999749934E+02 0.  0.
        -12    1    1    2    0    0  0.24858356903E+00  0.72244698728E+00  0.89993114740E+00  0.11805081577E+01  0.00000000000E+00 0.  1.
         11    1    3    3    0    0  0.67936061284E+01 -0.34605689625E+02 -0.12826511977E+02  0.37526340727E+02  0.51100000000E-03 0. -1.
        -11    1    3    3    0    0  0.34252649318E+01 -0.73350703071E+01  0.46517930362E+01  0.93367486298E+01  0.51100000000E-03 0.  1.
        -12    1    3    3    0    0 -0.10467454629E+02  0.41218312944E+02  0.72747877931E+01  0.43144402485E+02  0.00000000000E+00 0.  1.
</event>
<event>
 7    1  0.1910099E-015  0.9000795E+02  0.7816164E-02  0.1186339E+00
        -11   -1    0    0    0    0  0.00000000000E+00  0.00000000000E+00  0.45593999997E+02  0.45594000000E+02  0.51100000000E-03 0. -1.
         11   -1    0    0    0    0 -0.00000000000E+00 -0.00000000000E+00 -0.45593999997E+02  0.45594000000E+02  0.51100000000E-03 0.  1.
    9900012    2    1    2    0    0 -0.56804791702E+00  0.85087004135E+00 -0.58808924978E+00  0.90007954565E+02  0.90000218765E+02 0.  0.
        -12    1    1    2    0    0  0.56804791702E+00 -0.85087004135E+00  0.58808924978E+00  0.11800454351E+01  0.00000000000E+00 0.  1.
         11    1    3    3    0    0 -0.46483557703E+01  0.99308290231E+01 -0.16673675558E+01  0.11090928333E+02  0.51100000000E-03 0. -1.
        -11    1    3    3    0    0 -0.54174345163E+01 -0.12454069028E+02 -0.37059045433E+02  0.39469295418E+02  0.51100000000E-03 0.  1.
         12    1    3    3    0    0  0.94977423696E+01  0.33741100465E+01  0.38138323739E+02  0.39447730814E+02  0.00000000000E+00 0. -1.
</event>
<event>
 7    1  0.1910099E-015  0.9000772E+02  0.7816164E-02  0.1186339E+00
        -11   -1    0    0    0    0  0.00000000000E+00  0.00000000000E+00  0.45593999997E+02  0.45594000000E+02  0.51100000000E-03 0.  1.
         11   -1    0    0    0    0 -0.00000000000E+00 -0.00000000000E+00 -0.45593999997E+02  0.45594000000E+02  0.51100000000E-03 0. -1.
    9900012    2    1    2    0    0  0.23801345910E+00 -0.11051094782E+01 -0.33931602529E+00  0.90007723452E+02  0.89999984601E+02 0.  0.
        -12    1    1    2    0    0 -0.23801345910E+00  0.11051094782E+01  0.33931602529E+00  0.11802765483E+01  0.00000000000E+00 0.  1.
         11    1    3    3    0    0  0.28026232340E+02 -0.15897885623E+02 -0.21032342936E+02  0.38478200530E+02  0.51100000000E-03 0. -1.
        -11    1    3    3    0    0 -0.51147313275E+00  0.22831822535E+01 -0.90086176318E+01  0.93075086820E+01  0.51100000000E-03 0.  1.
        -12    1    3    3    0    0 -0.27276745748E+02  0.12509593891E+02  0.29701644542E+02  0.42222014239E+02  0.00000000000E+00 0.  1.
</event>
<event>
 7    1  0.1910099E-015  0.9000785E+02  0.7816164E-02  0.1186339E+00
        -11   -1    0    0    0    0  0.00000000000E+00  0.00000000000E+00  0.45593999997E+02  0.45594000000E+02  0.51100000000E-03 0.  1.
         11   -1    0    0    0    0 -0.00000000000E+00 -0.00000000000E+00 -0.45593999997E+02  0.45594000000E+02  0.51100000000E-03 0. -1.
    9900012    2    1    2    0    0  0.11092599743E+01  0.30102484280E+00 -0.26773726497E+00  0.90007848785E+02  0.90000111589E+02 0.  0.
        -12    1    1    2    0    0 -0.11092599743E+01 -0.30102484280E+00  0.26773726497E+00  0.11801512147E+01  0.00000000000E+00 0.  1.
         11    1    3    3    0    0 -0.86084908160E+01 -0.31636590795E+02 -0.28084480157E+01  0.32906950205E+02  0.51100000000E-03 0. -1.
        -11    1    3    3    0    0  0.26869258554E+01 -0.66743994885E+01  0.14403313430E+02  0.16100391831E+02  0.51100000000E-03 0.  1.
        -12    1    3    3    0    0  0.70308249349E+01  0.38612015126E+02 -0.11862602680E+02  0.41000506749E+02  0.00000000000E+00 0.  1.
</event>
<event>
 7    1  0.1910099E-015  0.9000771E+02  0.7816164E-02  0.1186339E+00
        -11   -1    0    0    0    0  0.00000000000E+00  0.00000000000E+00  0.45593999997E+02  0.45594000000E+02  0.51100000000E-03 0.  1.
         11   -1    0    0    0    0 -0.00000000000E+00 -0.00000000000E+00 -0.45593999997E+02  0.45594000000E+02  0.51100000000E-03 0. -1.
    9900012    2    1    2    0    0 -0.89300147483E-02  0.52188358748E+00 -0.10585990242E+01  0.90007714391E+02  0.89999975421E+02 0.  0.
        -12    1    1    2    0    0  0.89300147483E-02 -0.52188358748E+00  0.10585990242E+01  0.11802856087E+01  0.00000000000E+00 0.  1.
         11    1    3    3    0    0 -0.35215836836E+02  0.58349324221E+01 -0.32233713015E+01  0.35841201476E+02  0.51100000000E-03 0. -1.
        -11    1    3    3    0    0 -0.80028820945E+01 -0.73474497797E+01  0.28020710691E+00  0.10867826663E+02  0.51100000000E-03 0.  1.
        -12    1    3    3    0    0  0.43209788916E+02  0.20344009451E+01  0.18845651704E+01  0.43298686253E+02  0.00000000000E+00 0.  1.
</event>
<event>
 7    1  0.1910099E-015  0.9000778E+02  0.7816164E-02  0.1186339E+00
        -11   -1    0    0    0    0  0.00000000000E+00  0.00000000000E+00  0.45593999997E+02  0.45594000000E+02  0.51100000000E-03 0. -1.
         11   -1    0    0    0    0 -0.00000000000E+00 -0.00000000000E+00 -0.45593999997E+02  0.45594000000E+02  0.51100000000E-03 0.  1.
    9900012    2    1    2    0    0 -0.58481928033E+00 -0.91154189108E+00  0.46904811969E+00  0.90007776145E+02  0.90000037990E+02 0.  0.
        -12    1    1    2    0    0  0.58481928033E+00  0.91154189108E+00 -0.46904811969E+00  0.11802238552E+01  0.00000000000E+00 0.  1.
         11    1    3    3    0    0  0.18041932339E+02  0.10171003417E+01  0.38338515113E+02  0.42383812440E+02  0.51100000000E-03 0. -1.
        -11    1    3    3    0    0 -0.86338564260E+01 -0.27484709050E+01 -0.65717551483E+00  0.90845720328E+01  0.51100000000E-03 0.  1.
        -12    1    3    3    0    0 -0.99928951931E+01  0.81982867226E+00 -0.37212291478E+02  0.38539391672E+02  0.00000000000E+00 0.  1.
</event>
<event>
 7    1  0.1910099E-015  0.9000780E+02  0.7816164E-02  0.1186339E+00
        -11   -1    0    0    0    0  0.00000000000E+00  0.00000000000E+00  0.45593999997E+02  0.45594000000E+02  0.51100000000E-03 0.  1.
         11   -1    0    0    0    0 -0.00000000000E+00 -0.00000000000E+00 -0.45593999997E+02  0.45594000000E+02  0.51100000000E-03 0. -1.
    9900012    2    1    2    0    0  0.44585473840E+00  0.74358008653E+00 -0.80073369855E+00  0.90007799912E+02  0.90000062070E+02 0.  0.
        -12    1    1    2    0    0 -0.44585473840E+00 -0.74358008653E+00  0.80073369855E+00  0.11802000885E+01  0.00000000000E+00 0.  1.
         11    1    3    3    0    0 -0.26971704311E+01  0.95362923892E+01 -0.33125632810E+01  0.10449338573E+02  0.51100000000E-03 0. -1.
        -11    1    3    3    0    0 -0.34738402802E+02 -0.18918278712E+02  0.67179372142E+01  0.40122170670E+02  0.51100000000E-03 0.  1.
         12    1    3    3    0    0  0.37881427971E+02  0.10125566409E+02 -0.42061076317E+01  0.39436290668E+02  0.00000000000E+00 0. -1.
</event>
<event>
 7    1  0.1910099E-015  0.9000777E+02  0.7816164E-02  0.1186339E+00
        -11   -1    0    0    0    0  0.00000000000E+00  0.00000000000E+00  0.45593999997E+02  0.45594000000E+02  0.51100000000E-03 0. -1.
         11   -1    0    0    0    0 -0.00000000000E+00 -0.00000000000E+00 -0.45593999997E+02  0.45594000000E+02  0.51100000000E-03 0.  1.
    9900012    2    1    2    0    0 -0.92316801331E+00 -0.10933483796E+00  0.72715530684E+00  0.90007767765E+02  0.90000029500E+02 0.  0.
        -12    1    1    2    0    0  0.92316801331E+00  0.10933483796E+00 -0.72715530684E+00  0.11802322347E+01  0.00000000000E+00 0.  1.
         11    1    3    3    0    0 -0.18641663547E+02 -0.23534288307E+02  0.59323222523E+01  0.30603378792E+02  0.51100000000E-03 0. -1.
        -11    1    3    3    0    0  0.12932861591E+02 -0.15354351966E+02 -0.91477250970E+00  0.20096065343E+02  0.51100000000E-03 0.  1.
        -12    1    3    3    0    0  0.47856339424E+01  0.38779305435E+02 -0.42903944357E+01  0.39308323631E+02  0.00000000000E+00 0.  1.
</event>
<event>
 7    1  0.1910099E-015  0.9000793E+02  0.7816164E-02  0.1186339E+00
        -11   -1    0    0    0    0  0.00000000000E+00  0.00000000000E+00  0.45593999997E+02  0.45594000000E+02  0.51100000000E-03 0. -1.
         11   -1    0    0    0    0 -0.00000000000E+00 -0.00000000000E+00 -0.45593999997E+02  0.45594000000E+02  0.51100000000E-03 0.  1.
    9900012    2    1    2    0    0 -0.61604208860E+00  0.80203434719E+00 -0.60811229854E+00  0.90007929021E+02  0.90000192883E+02 0.  0.
        -12    1    1    2    0    0  0.61604208860E+00 -0.80203434719E+00  0.60811229854E+00  0.11800709795E+01  0.00000000000E+00 0.  1.
         11    1    3    3    0    0 -0.16703477294E+02 -0.26558938708E+02  0.21475076339E+02  0.38020550799E+02  0.51100000000E-03 0. -1.
        -11    1    3    3    0    0  0.55086601238E+01  0.28704649091E+01  0.90569809001E+01  0.10982431809E+02  0.51100000000E-03 0.  1.
        -12    1    3    3    0    0  0.10578775081E+02  0.24490508146E+02 -0.31140169538E+02  0.41004946413E+02  0.00000000000E+00 0.  1.
</event>
<event>
 7    1  0.1910099E-015  0.9000754E+02  0.7816164E-02  0.1186339E+00
        -11   -1    0    0    0    0  0.00000000000E+00  0.00000000000E+00  0.45593999997E+02  0.45594000000E+02  0.51100000000E-03 0.  1.
         11   -1    0    0    0    0 -0.00000000000E+00 -0.00000000000E+00 -0.45593999997E+02  0.45594000000E+02  0.51100000000E-03 0. -1.
    9900012    2    1    2    0    0  0.26437056797E+00 -0.64052204128E+00 -0.95567479411E+00  0.90007544751E+02  0.89999803542E+02 0.  0.
        -12    1    1    2    0    0 -0.26437056797E+00  0.64052204128E+00  0.95567479411E+00  0.11804552489E+01  0.00000000000E+00 0.  1.
         11    1    3    3    0    0 -0.76782194849E+01 -0.11793194738E+01 -0.77362974506E+01  0.10963400357E+02  0.51100000000E-03 0. -1.
        -11    1    3    3    0    0 -0.19491905016E+02  0.31169373981E+02 -0.26451639887E+01  0.36857307665E+02  0.51100000000E-03 0.  1.
         12    1    3    3    0    0  0.27434495069E+02 -0.30630576548E+02  0.94257866452E+01  0.42186836730E+02  0.00000000000E+00 0. -1.
</event>
<event>
 7    1  0.1910099E-015  0.9000775E+02  0.7816164E-02  0.1186339E+00
        -11   -1    0    0    0    0  0.00000000000E+00  0.00000000000E+00  0.45593999997E+02  0.45594000000E+02  0.51100000000E-03 0.  1.
         11   -1    0    0    0    0 -0.00000000000E+00 -0.00000000000E+00 -0.45593999997E+02  0.45594000000E+02  0.51100000000E-03 0. -1.
    9900012    2    1    2    0    0  0.10399739126E+01 -0.16229885857E-01  0.55783335580E+00  0.90007751212E+02  0.90000012728E+02 0.  0.
        -12    1    1    2    0    0 -0.10399739126E+01  0.16229885857E-01 -0.55783335580E+00  0.11802487877E+01  0.00000000000E+00 0.  1.
         11    1    3    3    0    0  0.81817835812E+01  0.23392766090E+02 -0.30196897983E+02  0.39064251381E+02  0.51100000000E-03 0. -1.
        -11    1    3    3    0    0 -0.23879702896E+01 -0.56816660517E+01 -0.67795278950E+01  0.91621902385E+01  0.51100000000E-03 0.  1.
        -12    1    3    3    0    0 -0.47538393790E+01 -0.17727329924E+02  0.37534259234E+02  0.41781309593E+02  0.00000000000E+00 0.  1.
</event>
<event>
 7    1  0.1910099E-015  0.9000771E+02  0.7816164E-02  0.1186339E+00
        -11   -1    0    0    0    0  0.00000000000E+00  0.00000000000E+00  0.45593999997E+02  0.45594000000E+02  0.51100000000E-03 0. -1.
         11   -1    0    0    0    0 -0.00000000000E+00 -0.00000000000E+00 -0.45593999997E+02  0.45594000000E+02  0.51100000000E-03 0.  1.
    9900012    2    1    2    0    0  0.76565974540E+00 -0.54665993361E+00  0.71274660585E+00  0.90007712047E+02  0.89999973046E+02 0.  0.
        -12    1    1    2    0    0 -0.76565974540E+00  0.54665993361E+00 -0.71274660585E+00  0.11802879534E+01  0.00000000000E+00 0.  1.
         11    1    3    3    0    0 -0.33985696970E+01 -0.36428056613E+02  0.74892038583E+01  0.37344902721E+02  0.51100000000E-03 0. -1.
        -11    1    3    3    0    0  0.41095992850E+01 -0.76549026855E+01 -0.12025418087E+01  0.87711144372E+01  0.51100000000E-03 0.  1.
        -12    1    3    3    0    0  0.54630157336E-01  0.43536299364E+02 -0.55739154438E+01  0.43891694888E+02  0.00000000000E+00 0.  1.
</event>
<event>
 7    1  0.1910099E-015  0.9000770E+02  0.7816164E-02  0.1186339E+00
        -11   -1    0    0    0    0  0.00000000000E+00  0.00000000000E+00  0.45593999997E+02  0.45594000000E+02  0.51100000000E-03 0.  1.
         11   -1    0    0    0    0 -0.00000000000E+00 -0.00000000000E+00 -0.45593999997E+02  0.45594000000E+02  0.51100000000E-03 0. -1.
    9900012    2    1    2    0    0 -0.87031311606E+00 -0.78175389218E+00  0.15657943799E+00  0.90007702924E+02  0.89999963802E+02 0.  0.
        -12    1    1    2    0    0  0.87031311606E+00  0.78175389218E+00 -0.15657943799E+00  0.11802970763E+01  0.00000000000E+00 0.  1.
         11    1    3    3    0    0  0.55276895472E+01 -0.14275010316E+02 -0.36107476681E+02  0.39218377628E+02  0.51100000000E-03 0. -1.
        -11    1    3    3    0    0  0.29505385602E+01 -0.88836021738E+01  0.34280867367E+01  0.99687433668E+01  0.51100000000E-03 0.  1.
        -12    1    3    3    0    0 -0.93485412234E+01  0.22376858597E+02  0.32835969383E+02  0.40820581929E+02  0.00000000000E+00 0.  1.
</event>
<event>
 7    1  0.1910099E-015  0.9000826E+02  0.7816164E-02  0.1186338E+00
        -11   -1    0    0    0    0  0.00000000000E+00  0.00000000000E+00  0.45593999997E+02  0.45594000000E+02  0.51100000000E-03 0. -1.
         11   -1    0    0    0    0 -0.00000000000E+00 -0.00000000000E+00 -0.45593999997E+02  0.45594000000E+02  0.51100000000E-03 0.  1.
    9900012    2    1    2    0    0  0.29831534389E+00 -0.10997811976E+01  0.30541741319E+00  0.90008258281E+02  0.90000526489E+02 0.  0.
        -12    1    1    2    0    0 -0.29831534389E+00  0.10997811976E+01 -0.30541741319E+00  0.11797417188E+01  0.00000000000E+00 0.  1.
         11    1    3    3    0    0 -0.11562475318E+02 -0.21700184694E+02  0.26590969479E+02  0.36216964386E+02  0.51100000000E-03 0. -1.
        -11    1    3    3    0    0 -0.30306597376E+01 -0.42589174494E+01  0.75877227976E+01  0.92139467006E+01  0.51100000000E-03 0.  1.
        -12    1    3    3    0    0  0.14891450400E+02  0.24859320946E+02 -0.33873274864E+02  0.44577347194E+02  0.00000000000E+00 0.  1.
</event>
<event>
 7    1  0.1910099E-015  0.9000771E+02  0.7816164E-02  0.1186339E+00
        -11   -1    0    0    0    0  0.00000000000E+00  0.00000000000E+00  0.45593999997E+02  0.45594000000E+02  0.51100000000E-03 0. -1.
         11   -1    0    0    0    0 -0.00000000000E+00 -0.00000000000E+00 -0.45593999997E+02  0.45594000000E+02  0.51100000000E-03 0.  1.
    9900012    2    1    2    0    0 -0.22542355712E+00 -0.66322194456E+00 -0.94994783815E+00  0.90007711890E+02  0.89999972887E+02 0.  0.
        -12    1    1    2    0    0  0.22542355712E+00  0.66322194456E+00  0.94994783815E+00  0.11802881102E+01  0.00000000000E+00 0.  1.
         11    1    3    3    0    0  0.82568243463E+01 -0.38668793597E+01 -0.21401818995E+01  0.93652700491E+01  0.51100000000E-03 0. -1.
        -11    1    3    3    0    0  0.31632628381E+02  0.12285120012E+02  0.15211945697E+02  0.37188044371E+02  0.51100000000E-03 0.  1.
         12    1    3    3    0    0 -0.40114876284E+02 -0.90814625969E+01 -0.14021711636E+02  0.43454397469E+02  0.00000000000E+00 0. -1.
</event>
<event>
 7    1  0.1910099E-015  0.9000772E+02  0.7816164E-02  0.1186339E+00
        -11   -1    0    0    0    0  0.00000000000E+00  0.00000000000E+00  0.45593999997E+02  0.45594000000E+02  0.51100000000E-03 0. -1.
         11   -1    0    0    0    0 -0.00000000000E+00 -0.00000000000E+00 -0.45593999997E+02  0.45594000000E+02  0.51100000000E-03 0.  1.
    9900012    2    1    2    0    0 -0.10401742257E+01 -0.35849110295E+00  0.42728503486E+00  0.90007724273E+02  0.89999985433E+02 0.  0.
        -12    1    1    2    0    0  0.10401742257E+01  0.35849110295E+00 -0.42728503486E+00  0.11802757270E+01  0.00000000000E+00 0.  1.
         11    1    3    3    0    0 -0.73807264120E+01  0.14721290901E+02  0.34789630100E+01  0.16831360968E+02  0.51100000000E-03 0. -1.
        -11    1    3    3    0    0 -0.30656359573E+02 -0.16755676516E+02  0.49541070506E+01  0.35286091519E+02  0.51100000000E-03 0.  1.
         12    1    3    3    0    0  0.36996911759E+02  0.16758945124E+01 -0.80057850257E+01  0.37890271786E+02  0.00000000000E+00 0. -1.
</event>
<event>
 7    1  0.1910099E-015  0.9000771E+02  0.7816164E-02  0.1186339E+00
        -11   -1    0    0    0    0  0.00000000000E+00  0.00000000000E+00  0.45593999997E+02  0.45594000000E+02  0.51100000000E-03 0.  1.
         11   -1    0    0    0    0 -0.00000000000E+00 -0.00000000000E+00 -0.45593999997E+02  0.45594000000E+02  0.51100000000E-03 0. -1.
    9900012    2    1    2    0    0 -0.47214631408E+00  0.86115467371E+00 -0.65466177630E+00  0.90007707004E+02  0.89999967937E+02 0.  0.
        -12    1    1    2    0    0  0.47214631408E+00 -0.86115467371E+00  0.65466177630E+00  0.11802929955E+01  0.00000000000E+00 0.  1.
         11    1    3    3    0    0 -0.94697569491E+01 -0.27320400217E+01  0.23992035346E+01  0.10143792053E+02  0.51100000000E-03 0. -1.
        -11    1    3    3    0    0 -0.29526752625E+02  0.43458650112E+01  0.19084639744E+02  0.35425120151E+02  0.51100000000E-03 0.  1.
         12    1    3    3    0    0  0.38524363260E+02 -0.75267031586E+00 -0.22138505055E+02  0.44438794800E+02  0.00000000000E+00 0. -1.
</event>
<event>
 7    1  0.1910099E-015  0.9000779E+02  0.7816164E-02  0.1186339E+00
        -11   -1    0    0    0    0  0.00000000000E+00  0.00000000000E+00  0.45593999997E+02  0.45594000000E+02  0.51100000000E-03 0. -1.
         11   -1    0    0    0    0 -0.00000000000E+00 -0.00000000000E+00 -0.45593999997E+02  0.45594000000E+02  0.51100000000E-03 0.  1.
    9900012    2    1    2    0    0  0.81025418130E+00  0.80685490033E+00  0.29219210466E+00  0.90007786928E+02  0.90000048916E+02 0.  0.
        -12    1    1    2    0    0 -0.81025418130E+00 -0.80685490033E+00 -0.29219210466E+00  0.11802130717E+01  0.00000000000E+00 0.  1.
         11    1    3    3    0    0  0.99007888984E+00  0.78657361873E+01 -0.46795754567E+01  0.92058942365E+01  0.51100000000E-03 0. -1.
        -11    1    3    3    0    0  0.22250217579E+02 -0.48645658310E+01 -0.30930951549E+02  0.38411716273E+02  0.51100000000E-03 0.  1.
         12    1    3    3    0    0 -0.22430042288E+02 -0.21943154560E+01  0.35902719110E+02  0.42390176419E+02  0.00000000000E+00 0. -1.
</event>
<event>
 7    1  0.1910099E-015  0.9000775E+02  0.7816164E-02  0.1186339E+00
        -11   -1    0    0    0    0  0.00000000000E+00  0.00000000000E+00  0.45593999997E+02  0.45594000000E+02  0.51100000000E-03 0.  1.
         11   -1    0    0    0    0 -0.00000000000E+00 -0.00000000000E+00 -0.45593999997E+02  0.45594000000E+02  0.51100000000E-03 0. -1.
    9900012    2    1    2    0    0  0.42973367820E+00  0.10728754707E+01 -0.23928353641E+00  0.90007750272E+02  0.90000011775E+02 0.  0.
        -12    1    1    2    0    0 -0.42973367820E+00 -0.10728754707E+01  0.23928353641E+00  0.11802497281E+01  0.00000000000E+00 0.  1.
         11    1    3    3    0    0  0.34287858367E+01 -0.21409047993E+01  0.68666759624E+01  0.79681418604E+01  0.51100000000E-03 0. -1.
        -11    1    3    3    0    0 -0.28510237337E+02  0.30311341721E+02  0.70801795663E+01  0.42210662313E+02  0.51100000000E-03 0.  1.
         12    1    3    3    0    0  0.25511185179E+02 -0.27097561451E+02 -0.14186139065E+02  0.39828946099E+02  0.00000000000E+00 0. -1.
</event>
<event>
 7    1  0.1910099E-015  0.9000769E+02  0.7816164E-02  0.1186339E+00
        -11   -1    0    0    0    0  0.00000000000E+00  0.00000000000E+00  0.45593999997E+02  0.45594000000E+02  0.51100000000E-03 0. -1.
         11   -1    0    0    0    0 -0.00000000000E+00 -0.00000000000E+00 -0.45593999997E+02  0.45594000000E+02  0.51100000000E-03 0.  1.
    9900012    2    1    2    0    0  0.45240517972E+00  0.10811272100E+01  0.14009525092E+00  0.90007689376E+02  0.89999950075E+02 0.  0.
        -12    1    1    2    0    0 -0.45240517972E+00 -0.10811272100E+01 -0.14009525092E+00  0.11803106244E+01  0.00000000000E+00 0.  1.
         11    1    3    3    0    0 -0.64397287846E+01  0.18767432562E+01 -0.51596910576E+01  0.84625459609E+01  0.51100000000E-03 0. -1.
        -11    1    3    3    0    0  0.88624809851E+01 -0.30947629839E+02 -0.23457638800E+02  0.39831647972E+02  0.51100000000E-03 0.  1.
         12    1    3    3    0    0 -0.19703470208E+01  0.30152013793E+02  0.28757425108E+02  0.41713495442E+02  0.00000000000E+00 0. -1.
</event>
<event>
 7    1  0.1910099E-015  0.9000772E+02  0.7816164E-02  0.1186339E+00
        -11   -1    0    0    0    0  0.00000000000E+00  0.00000000000E+00  0.45593999997E+02  0.45594000000E+02  0.51100000000E-03 0. -1.
         11   -1    0    0    0    0 -0.00000000000E+00 -0.00000000000E+00 -0.45593999997E+02  0.45594000000E+02  0.51100000000E-03 0.  1.
    9900012    2    1    2    0    0 -0.18509065891E+00  0.64586088234E+00  0.97039609652E+00  0.90007718925E+02  0.89999980015E+02 0.  0.
        -12    1    1    2    0    0  0.18509065891E+00 -0.64586088234E+00 -0.97039609652E+00  0.11802810748E+01  0.00000000000E+00 0.  1.
         11    1    3    3    0    0 -0.61806771940E+01  0.94678542415E+01  0.36088666606E+02  0.37818420011E+02  0.51100000000E-03 0. -1.
        -11    1    3    3    0    0  0.42772735335E+01 -0.56714349387E+01  0.69678596349E+01  0.99504427689E+01  0.51100000000E-03 0.  1.
        -12    1    3    3    0    0  0.17183130015E+01 -0.31505584205E+01 -0.42086130144E+02  0.42238856145E+02  0.00000000000E+00 0.  1.
</event>
<event>
 7    1  0.1910099E-015  0.9000778E+02  0.7816164E-02  0.1186339E+00
        -11   -1    0    0    0    0  0.00000000000E+00  0.00000000000E+00  0.45593999997E+02  0.45594000000E+02  0.51100000000E-03 0. -1.
         11   -1    0    0    0    0 -0.00000000000E+00 -0.00000000000E+00 -0.45593999997E+02  0.45594000000E+02  0.51100000000E-03 0.  1.
    9900012    2    1    2    0    0  0.81772918406E+00  0.23699317854E+00  0.81736421072E+00  0.90007775005E+02  0.90000036835E+02 0.  0.
        -12    1    1    2    0    0 -0.81772918406E+00 -0.23699317854E+00 -0.81736421072E+00  0.11802249947E+01  0.00000000000E+00 0.  1.
         11    1    3    3    0    0 -0.22819391881E+02 -0.92615545338E+01  0.28948880482E+02  0.38007087755E+02  0.51100000000E-03 0. -1.
        -11    1    3    3    0    0 -0.16753297057E+01  0.10124404822E+02  0.40673795896E+01  0.11038744476E+02  0.51100000000E-03 0.  1.
        -12    1    3    3    0    0  0.25312450771E+02 -0.62585710964E+00 -0.32198895861E+02  0.40961942774E+02  0.00000000000E+00 0.  1.
</event>
<event>
 7    1  0.2582433E-015  0.9000774E+02  0.7816164E-02  0.1186339E+00
        -11   -1    0    0    0    0  0.00000000000E+00  0.00000000000E+00  0.45593999997E+02  0.45594000000E+02  0.51100000000E-03 0. -1.
         11   -1    0    0    0    0 -0.00000000000E+00 -0.00000000000E+00 -0.45593999997E+02  0.45594000000E+02  0.51100000000E-03 0.  1.
    9900012    2    1    2    0    0 -0.15661493959E+00  0.56731111419E+00 -0.10230584190E+01  0.90007737882E+02  0.89999999222E+02 0.  0.
        -12    1    1    2    0    0  0.15661493959E+00 -0.56731111419E+00  0.10230584190E+01  0.11802621184E+01  0.00000000000E+00 0.  1.
         11    1    3    3    0    0  0.87077201759E+01 -0.34989991918E+00 -0.27181067119E+01  0.91287964691E+01  0.51100000000E-03 0. -1.
        -11    1    3    3    0    0  0.20545567897E+02 -0.15923856195E+02  0.27830207332E+02  0.38081622821E+02  0.51100000000E-03 0.  1.
         12    1    3    3    0    0 -0.29409903013E+02  0.16841067228E+02 -0.26135159039E+02  0.42797318591E+02  0.00000000000E+00 0. -1.
</event>
<event>
 7    1  0.1910099E-015  0.9000774E+02  0.7816164E-02  0.1186339E+00
        -11   -1    0    0    0    0  0.00000000000E+00  0.00000000000E+00  0.45593999997E+02  0.45594000000E+02  0.51100000000E-03 0. -1.
         11   -1    0    0    0    0 -0.00000000000E+00 -0.00000000000E+00 -0.45593999997E+02  0.45594000000E+02  0.51100000000E-03 0.  1.
    9900012    2    1    2    0    0  0.10953957010E+01  0.43086274871E+00 -0.86424104464E-01  0.90007744275E+02  0.90000005700E+02 0.  0.
        -12    1    1    2    0    0 -0.10953957010E+01 -0.43086274871E+00  0.86424104464E-01  0.11802557248E+01  0.00000000000E+00 0.  1.
         11    1    3    3    0    0  0.52419986886E+01 -0.95948557629E+01 -0.88145041536E+01  0.14044048245E+02  0.51100000000E-03 0. -1.
        -11    1    3    3    0    0 -0.16015182309E+02  0.15090980176E+02 -0.28819810823E+02  0.36260243287E+02  0.51100000000E-03 0.  1.
         12    1    3    3    0    0  0.11868579322E+02 -0.50652616644E+01  0.37547890872E+02  0.39703452744E+02  0.00000000000E+00 0. -1.
</event>
<event>
 7    1  0.1910099E-015  0.9000779E+02  0.7816164E-02  0.1186339E+00
        -11   -1    0    0    0    0  0.00000000000E+00  0.00000000000E+00  0.45593999997E+02  0.45594000000E+02  0.51100000000E-03 0. -1.
         11   -1    0    0    0    0 -0.00000000000E+00 -0.00000000000E+00 -0.45593999997E+02  0.45594000000E+02  0.51100000000E-03 0.  1.
    9900012    2    1    2    0    0  0.84860053534E+00  0.43839015508E+00 -0.69325140376E+00  0.90007785483E+02  0.90000047452E+02 0.  0.
        -12    1    1    2    0    0 -0.84860053534E+00 -0.43839015508E+00  0.69325140376E+00  0.11802145167E+01  0.00000000000E+00 0.  1.
         11    1    3    3    0    0 -0.10831690481E+02 -0.67879621689E+01  0.14524120813E+01  0.12865125347E+02  0.51100000000E-03 0. -1.
        -11    1    3    3    0    0  0.29017382131E+02  0.92209638610E+01 -0.30980777633E+02  0.43437808684E+02  0.51100000000E-03 0.  1.
         12    1    3    3    0    0 -0.17337091114E+02 -0.19946115371E+01  0.28835114148E+02  0.33704851452E+02  0.00000000000E+00 0. -1.
</event>
<event>
 7    1  0.1910099E-015  0.9000766E+02  0.7816164E-02  0.1186339E+00
        -11   -1    0    0    0    0  0.00000000000E+00  0.00000000000E+00  0.45593999997E+02  0.45594000000E+02  0.51100000000E-03 0.  1.
         11   -1    0    0    0    0 -0.00000000000E+00 -0.00000000000E+00 -0.45593999997E+02  0.45594000000E+02  0.51100000000E-03 0. -1.
    9900012    2    1    2    0    0 -0.10381078500E+01 -0.27021391340E+00  0.49245643383E+00  0.90007662418E+02  0.89999922762E+02 0.  0.
        -12    1    1    2    0    0  0.10381078500E+01  0.27021391340E+00 -0.49245643383E+00  0.11803375816E+01  0.00000000000E+00 0.  1.
         11    1    3    3    0    0  0.56229603620E+01  0.35154404569E+01  0.55733355391E+01  0.86624519699E+01  0.51100000000E-03 0. -1.
        -11    1    3    3    0    0 -0.19275615033E+02 -0.24860526315E+02  0.26643037572E+02  0.41224344202E+02  0.51100000000E-03 0.  1.
         12    1    3    3    0    0  0.12614546821E+02  0.21074871944E+02 -0.31723916678E+02  0.40120866246E+02  0.00000000000E+00 0. -1.
</event>
<event>
 7    1  0.1910099E-015  0.9000768E+02  0.7816164E-02  0.1186339E+00
        -11   -1    0    0    0    0  0.00000000000E+00  0.00000000000E+00  0.45593999997E+02  0.45594000000E+02  0.51100000000E-03 0. -1.
         11   -1    0    0    0    0 -0.00000000000E+00 -0.00000000000E+00 -0.45593999997E+02  0.45594000000E+02  0.51100000000E-03 0.  1.
    9900012    2    1    2    0    0  0.35130020398E+00  0.95519821273E+00  0.59777938115E+00  0.90007679854E+02  0.89999940428E+02 0.  0.
        -12    1    1    2    0    0 -0.35130020398E+00 -0.95519821273E+00 -0.59777938115E+00  0.11803201462E+01  0.00000000000E+00 0.  1.
         11    1    3    3    0    0 -0.40765271076E+01 -0.30902525829E+01  0.71616518987E+01  0.88009654280E+01  0.51100000000E-03 0. -1.
        -11    1    3    3    0    0 -0.27548143260E+02  0.29047225717E+02  0.33589817027E+00  0.40034414530E+02  0.51100000000E-03 0.  1.
         12    1    3    3    0    0  0.31975970571E+02 -0.25001774921E+02 -0.68997706879E+01  0.41172299896E+02  0.00000000000E+00 0. -1.
</event>
<event>
 7    1  0.1910099E-015  0.9000771E+02  0.7816164E-02  0.1186339E+00
        -11   -1    0    0    0    0  0.00000000000E+00  0.00000000000E+00  0.45593999997E+02  0.45594000000E+02  0.51100000000E-03 0.  1.
         11   -1    0    0    0    0 -0.00000000000E+00 -0.00000000000E+00 -0.45593999997E+02  0.45594000000E+02  0.51100000000E-03 0. -1.
    9900012    2    1    2    0    0  0.90659072176E+00 -0.75283755988E+00 -0.66505028776E-01  0.90007705949E+02  0.89999966867E+02 0.  0.
        -12    1    1    2    0    0 -0.90659072176E+00  0.75283755988E+00  0.66505028776E-01  0.11802940512E+01  0.00000000000E+00 0.  1.
         11    1    3    3    0    0  0.25108772888E+02  0.31002271108E+01 -0.59216901522E+01  0.25983231104E+02  0.51100000000E-03 0. -1.
        -11    1    3    3    0    0  0.19276519057E+02 -0.51057020548E+01 -0.11170040439E+01  0.19972483038E+02  0.51100000000E-03 0.  1.
        -12    1    3    3    0    0 -0.43478701222E+02  0.12526373841E+01  0.69721891673E+01  0.44051991807E+02  0.00000000000E+00 0.  1.
</event>
<event>
 7    1  0.1910099E-015  0.9000731E+02  0.7816164E-02  0.1186340E+00
        -11   -1    0    0    0    0  0.00000000000E+00  0.00000000000E+00  0.45593999997E+02  0.45594000000E+02  0.51100000000E-03 0. -1.
         11   -1    0    0    0    0 -0.00000000000E+00 -0.00000000000E+00 -0.45593999997E+02  0.45594000000E+02  0.51100000000E-03 0.  1.
    9900012    2    1    2    0    0  0.88334710109E+00 -0.22328878550E+00  0.75090624650E+00  0.90007313685E+02  0.89999569425E+02 0.  0.
        -12    1    1    2    0    0 -0.88334710109E+00  0.22328878550E+00 -0.75090624650E+00  0.11806863147E+01  0.00000000000E+00 0.  1.
         11    1    3    3    0    0 -0.11993988033E+01 -0.76058178748E+01 -0.94335550054E+01  0.12176985807E+02  0.51100000000E-03 0. -1.
        -11    1    3    3    0    0  0.37826878525E+02 -0.26581716832E+01 -0.39017795485E+01  0.38120368565E+02  0.51100000000E-03 0.  1.
         12    1    3    3    0    0 -0.35744132620E+02  0.10040700772E+02  0.14086240800E+02  0.39709959313E+02  0.00000000000E+00 0. -1.
</event>
<event>
 7    1  0.1910099E-015  0.9000773E+02  0.7816164E-02  0.1186339E+00
        -11   -1    0    0    0    0  0.00000000000E+00  0.00000000000E+00  0.45593999997E+02  0.45594000000E+02  0.51100000000E-03 0. -1.
         11   -1    0    0    0    0 -0.00000000000E+00 -0.00000000000E+00 -0.45593999997E+02  0.45594000000E+02  0.51100000000E-03 0.  1.
    9900012    2    1    2    0    0  0.26283562997E+00  0.89935098567E-01  0.11471125352E+01  0.90007729667E+02  0.89999990899E+02 0.  0.
        -12    1    1    2    0    0 -0.26283562997E+00 -0.89935098567E-01 -0.11471125352E+01  0.11802703329E+01  0.00000000000E+00 0.  1.
         11    1    3    3    0    0  0.44314938632E+01 -0.22103055256E+01 -0.93574756012E+01  0.10587064667E+02  0.51100000000E-03 0. -1.
        -11    1    3    3    0    0 -0.26397680985E+01 -0.36370796958E+02 -0.66841718552E+01  0.37073998983E+02  0.51100000000E-03 0.  1.
         12    1    3    3    0    0 -0.15288901347E+01  0.38671037582E+02  0.17188759992E+02  0.42346666017E+02  0.00000000000E+00 0. -1.
</event>
<event>
 7    1  0.1910099E-015  0.9000773E+02  0.7816164E-02  0.1186339E+00
        -11   -1    0    0    0    0  0.00000000000E+00  0.00000000000E+00  0.45593999997E+02  0.45594000000E+02  0.51100000000E-03 0.  1.
         11   -1    0    0    0    0 -0.00000000000E+00 -0.00000000000E+00 -0.45593999997E+02  0.45594000000E+02  0.51100000000E-03 0. -1.
    9900012    2    1    2    0    0 -0.13120956282E+00  0.98273200740E+00  0.64035858034E+00  0.90007730006E+02  0.89999991242E+02 0.  0.
        -12    1    1    2    0    0  0.13120956282E+00 -0.98273200740E+00 -0.64035858034E+00  0.11802699942E+01  0.00000000000E+00 0.  1.
         11    1    3    3    0    0  0.31858600489E+00  0.19187506619E+01 -0.86951891902E+01  0.89100738751E+01  0.51100000000E-03 0. -1.
        -11    1    3    3    0    0  0.36875174649E+02 -0.84240718676E+01  0.18252229610E+02  0.41998659243E+02  0.51100000000E-03 0.  1.
         12    1    3    3    0    0 -0.37324970216E+02  0.74880532131E+01 -0.89166818398E+01  0.39098996888E+02  0.00000000000E+00 0. -1.
</event>
<event>
 7    1  0.1910099E-015  0.9000768E+02  0.7816164E-02  0.1186339E+00
        -11   -1    0    0    0    0  0.00000000000E+00  0.00000000000E+00  0.45593999997E+02  0.45594000000E+02  0.51100000000E-03 0. -1.
         11   -1    0    0    0    0 -0.00000000000E+00 -0.00000000000E+00 -0.45593999997E+02  0.45594000000E+02  0.51100000000E-03 0.  1.
    9900012    2    1    2    0    0  0.11020968435E+01  0.92353459669E-01  0.41233312914E+00  0.90007675797E+02  0.89999936318E+02 0.  0.
        -12    1    1    2    0    0 -0.11020968435E+01 -0.92353459669E-01 -0.41233312914E+00  0.11803242026E+01  0.00000000000E+00 0.  1.
         11    1    3    3    0    0  0.14335807053E+02  0.13487736023E+02  0.33914884449E+02  0.39212928663E+02  0.51100000000E-03 0. -1.
        -11    1    3    3    0    0 -0.69764693760E+01 -0.37357165968E+01  0.58194212175E+01  0.98230528357E+01  0.51100000000E-03 0.  1.
        -12    1    3    3    0    0 -0.62572408335E+01 -0.96596659665E+01 -0.39321972538E+02  0.40971694298E+02  0.00000000000E+00 0.  1.
</event>
<event>
 7    1  0.1910099E-015  0.9000812E+02  0.7816164E-02  0.1186338E+00
        -11   -1    0    0    0    0  0.00000000000E+00  0.00000000000E+00  0.45593999997E+02  0.45594000000E+02  0.51100000000E-03 0.  1.
         11   -1    0    0    0    0 -0.00000000000E+00 -0.00000000000E+00 -0.45593999997E+02  0.45594000000E+02  0.51100000000E-03 0. -1.
    9900012    2    1    2    0    0 -0.78631245060E-01 -0.10599344186E+01  0.51233071430E+00  0.90008115851E+02  0.90000382179E+02 0.  0.
        -12    1    1    2    0    0  0.78631245060E-01  0.10599344186E+01 -0.51233071430E+00  0.11798841491E+01  0.00000000000E+00 0.  1.
         11    1    3    3    0    0 -0.50479507569E+01  0.63528590144E+01 -0.31766341132E+01  0.87138756619E+01  0.51100000000E-03 0. -1.
        -11    1    3    3    0    0 -0.32578039391E+02  0.93342109152E+01 -0.13832806430E+02  0.36603315123E+02  0.51100000000E-03 0.  1.
         12    1    3    3    0    0  0.37547358903E+02 -0.16747004348E+02  0.17521771258E+02  0.44690925066E+02  0.00000000000E+00 0. -1.
</event>
<event>
 7    1  0.1910099E-015  0.9000764E+02  0.7816164E-02  0.1186339E+00
        -11   -1    0    0    0    0  0.00000000000E+00  0.00000000000E+00  0.45593999997E+02  0.45594000000E+02  0.51100000000E-03 0.  1.
         11   -1    0    0    0    0 -0.00000000000E+00 -0.00000000000E+00 -0.45593999997E+02  0.45594000000E+02  0.51100000000E-03 0. -1.
    9900012    2    1    2    0    0 -0.87622971507E+00 -0.76195268496E+00  0.21189205865E+00  0.90007640456E+02  0.89999900510E+02 0.  0.
        -12    1    1    2    0    0  0.87622971507E+00  0.76195268496E+00 -0.21189205865E+00  0.11803595436E+01  0.00000000000E+00 0.  1.
         11    1    3    3    0    0 -0.73455405035E+00  0.64377690844E+01 -0.70141676719E+01  0.95489784180E+01  0.51100000000E-03 0. -1.
        -11    1    3    3    0    0  0.38516187895E+02 -0.10766815658E+02  0.10932317588E+02  0.41460060510E+02  0.51100000000E-03 0.  1.
         12    1    3    3    0    0 -0.38657863560E+02  0.35670938887E+01 -0.37062578578E+01  0.38998601528E+02  0.00000000000E+00 0. -1.
</event>
<event>
 7    1  0.1910099E-015  0.9000737E+02  0.7816164E-02  0.1186340E+00
        -11   -1    0    0    0    0  0.00000000000E+00  0.00000000000E+00  0.45593999997E+02  0.45594000000E+02  0.51100000000E-03 0.  1.
         11   -1    0    0    0    0 -0.00000000000E+00 -0.00000000000E+00 -0.45593999997E+02  0.45594000000E+02  0.51100000000E-03 0. -1.
    9900012    2    1    2    0    0 -0.83661986535E+00  0.71342109266E+00 -0.43010185277E+00  0.90007368788E+02  0.89999625255E+02 0.  0.
        -12    1    1    2    0    0  0.83661986535E+00 -0.71342109266E+00  0.43010185277E+00  0.11806312118E+01  0.00000000000E+00 0.  1.
         11    1    3    3    0    0  0.76603879781E+01  0.34876510358E+01  0.67730258485E+01  0.10803662950E+02  0.51100000000E-03 0. -1.
        -11    1    3    3    0    0 -0.29398731864E+02  0.45644088753E+01  0.25850816113E+02  0.39412992243E+02  0.51100000000E-03 0.  1.
         12    1    3    3    0    0  0.20901724021E+02 -0.73386388185E+01 -0.33053943814E+02  0.39790713595E+02  0.00000000000E+00 0. -1.
</event>
<event>
 7    1  0.1910099E-015  0.9000781E+02  0.7816164E-02  0.1186339E+00
        -11   -1    0    0    0    0  0.00000000000E+00  0.00000000000E+00  0.45593999997E+02  0.45594000000E+02  0.51100000000E-03 0.  1.
         11   -1    0    0    0    0 -0.00000000000E+00 -0.00000000000E+00 -0.45593999997E+02  0.45594000000E+02  0.51100000000E-03 0. -1.
    9900012    2    1    2    0    0  0.31845039494E+00  0.53690262242E+00 -0.10015886739E+01  0.90007807240E+02  0.90000069495E+02 0.  0.
        -12    1    1    2    0    0 -0.31845039494E+00 -0.53690262242E+00  0.10015886739E+01  0.11801927604E+01  0.00000000000E+00 0.  1.
         11    1    3    3    0    0 -0.21429241854E+02 -0.21331069436E+02 -0.19579655211E+02  0.36022074179E+02  0.51100000000E-03 0. -1.
        -11    1    3    3    0    0 -0.17897023988E+01 -0.48643925799E+01 -0.80084751103E+01  0.95394456706E+01  0.51100000000E-03 0.  1.
        -12    1    3    3    0    0  0.23537394648E+02  0.26732364638E+02  0.26586541647E+02  0.44446287390E+02  0.00000000000E+00 0.  1.
</event>
<event>
 7    1  0.1910099E-015  0.9000778E+02  0.7816164E-02  0.1186339E+00
        -11   -1    0    0    0    0  0.00000000000E+00  0.00000000000E+00  0.45593999997E+02  0.45594000000E+02  0.51100000000E-03 0.  1.
         11   -1    0    0    0    0 -0.00000000000E+00 -0.00000000000E+00 -0.45593999997E+02  0.45594000000E+02  0.51100000000E-03 0. -1.
    9900012    2    1    2    0    0 -0.93219020018E-02 -0.10536203706E+01 -0.53170308977E+00  0.90007783512E+02  0.90000045454E+02 0.  0.
        -12    1    1    2    0    0  0.93219020018E-02  0.10536203706E+01  0.53170308977E+00  0.11802164882E+01  0.00000000000E+00 0.  1.
         11    1    3    3    0    0  0.64173959665E+01 -0.75658816885E+01  0.90489062537E+01  0.13427890429E+02  0.51100000000E-03 0. -1.
        -11    1    3    3    0    0  0.17000026898E+02  0.10320491474E+02  0.26659030378E+02  0.33259846057E+02  0.51100000000E-03 0.  1.
         12    1    3    3    0    0 -0.23426744766E+02 -0.38082301560E+01 -0.36239639721E+02  0.43320047026E+02  0.00000000000E+00 0. -1.
</event>
<event>
 7    1  0.1910099E-015  0.9000790E+02  0.7816164E-02  0.1186339E+00
        -11   -1    0    0    0    0  0.00000000000E+00  0.00000000000E+00  0.45593999997E+02  0.45594000000E+02  0.51100000000E-03 0.  1.
         11   -1    0    0    0    0 -0.00000000000E+00 -0.00000000000E+00 -0.45593999997E+02  0.45594000000E+02  0.51100000000E-03 0. -1.
    9900012    2    1    2    0    0 -0.71889456717E+00  0.86614501598E+00  0.35442837700E+00  0.90007899978E+02  0.90000163458E+02 0.  0.
        -12    1    1    2    0    0  0.71889456717E+00 -0.86614501598E+00 -0.35442837700E+00  0.11801000220E+01  0.00000000000E+00 0.  1.
         11    1    3    3    0    0 -0.11781481921E+02 -0.73288481860E+01  0.61407154959E+00  0.13888571421E+02  0.51100000000E-03 0. -1.
        -11    1    3    3    0    0 -0.23873599037E+02  0.22806778550E+02  0.13718332942E+02  0.35753189197E+02  0.51100000000E-03 0.  1.
         12    1    3    3    0    0  0.34936186391E+02 -0.14611785348E+02 -0.13977976114E+02  0.40366139360E+02  0.00000000000E+00 0. -1.
</event>
<event>
 7    1  0.1910099E-015  0.9000776E+02  0.7816164E-02  0.1186339E+00
        -11   -1    0    0    0    0  0.00000000000E+00  0.00000000000E+00  0.45593999997E+02  0.45594000000E+02  0.51100000000E-03 0.  1.
         11   -1    0    0    0    0 -0.00000000000E+00 -0.00000000000E+00 -0.45593999997E+02  0.45594000000E+02  0.51100000000E-03 0. -1.
    9900012    2    1    2    0    0 -0.64156905427E+00 -0.58902192721E-01 -0.98887760484E+00  0.90007763059E+02  0.90000024731E+02 0.  0.
        -12    1    1    2    0    0  0.64156905427E+00  0.58902192721E-01  0.98887760484E+00  0.11802369411E+01  0.00000000000E+00 0.  1.
         11    1    3    3    0    0  0.10329578549E+01  0.28915014638E+02 -0.24572753175E+02  0.37960048371E+02  0.51100000000E-03 0. -1.
        -11    1    3    3    0    0  0.19867826663E+01  0.69356993008E+01 -0.23653219334E+01  0.75924948642E+01  0.51100000000E-03 0.  1.
        -12    1    3    3    0    0 -0.36613095754E+01 -0.35909616131E+02  0.25949197504E+02  0.44455219824E+02  0.00000000000E+00 0.  1.
</event>
<event>
 7    1  0.1910099E-015  0.9000772E+02  0.7816164E-02  0.1186339E+00
        -11   -1    0    0    0    0  0.00000000000E+00  0.00000000000E+00  0.45593999997E+02  0.45594000000E+02  0.51100000000E-03 0.  1.
         11   -1    0    0    0    0 -0.00000000000E+00 -0.00000000000E+00 -0.45593999997E+02  0.45594000000E+02  0.51100000000E-03 0. -1.
    9900012    2    1    2    0    0 -0.89980137176E+00 -0.72461338213E+00 -0.24154251670E+00  0.90007724672E+02  0.89999985838E+02 0.  0.
        -12    1    1    2    0    0  0.89980137176E+00  0.72461338213E+00  0.24154251670E+00  0.11802753279E+01  0.00000000000E+00 0.  1.
         11    1    3    3    0    0  0.70650335861E+01  0.71332164147E+01 -0.31320599931E+01  0.10516999384E+02  0.51100000000E-03 0. -1.
        -11    1    3    3    0    0  0.12886484656E+02  0.31169394707E+02 -0.62653305578E+01  0.34305203985E+02  0.51100000000E-03 0.  1.
         12    1    3    3    0    0 -0.20851319614E+02 -0.39027224504E+02  0.91558480342E+01  0.45185521302E+02  0.00000000000E+00 0. -1.
</event>
<event>
 7    1  0.1910099E-015  0.9000813E+02  0.7816164E-02  0.1186338E+00
        -11   -1    0    0    0    0  0.00000000000E+00  0.00000000000E+00  0.45593999997E+02  0.45594000000E+02  0.51100000000E-03 0.  1.
         11   -1    0    0    0    0 -0.00000000000E+00 -0.00000000000E+00 -0.45593999997E+02  0.45594000000E+02  0.51100000000E-03 0. -1.
    9900012    2    1    2    0    0 -0.90670936079E+00 -0.71154591761E+00  0.25233765711E+00  0.90008129774E+02  0.90000396286E+02 0.  0.
        -12    1    1    2    0    0  0.90670936079E+00  0.71154591761E+00 -0.25233765711E+00  0.11798702263E+01  0.00000000000E+00 0.  1.
         11    1    3    3    0    0  0.92671756579E+01  0.24102368693E+02 -0.26801739692E+02  0.37217441772E+02  0.51100000000E-03 0. -1.
        -11    1    3    3    0    0 -0.58282248911E+01  0.78395239347E+01 -0.59063456703E+00  0.97864799779E+01  0.51100000000E-03 0.  1.
        -12    1    3    3    0    0 -0.43456601276E+01 -0.32653438546E+02  0.27644711916E+02  0.43004208023E+02  0.00000000000E+00 0.  1.
</event>
<event>
 7    1  0.1910099E-015  0.9000773E+02  0.7816164E-02  0.1186339E+00
        -11   -1    0    0    0    0  0.00000000000E+00  0.00000000000E+00  0.45593999997E+02  0.45594000000E+02  0.51100000000E-03 0.  1.
         11   -1    0    0    0    0 -0.00000000000E+00 -0.00000000000E+00 -0.45593999997E+02  0.45594000000E+02  0.51100000000E-03 0. -1.
    9900012    2    1    2    0    0 -0.67620704018E+00  0.86741880459E+00  0.42820299344E+00  0.90007733442E+02  0.89999994724E+02 0.  0.
        -12    1    1    2    0    0  0.67620704018E+00 -0.86741880459E+00 -0.42820299344E+00  0.11802665577E+01  0.00000000000E+00 0.  1.
         11    1    3    3    0    0  0.80288383054E+01 -0.34689161081E+01 -0.33652452575E+01  0.93712592219E+01  0.51100000000E-03 0. -1.
        -11    1    3    3    0    0  0.33483798668E+02 -0.46400003199E+01  0.13541951670E+02  0.36415365321E+02  0.51100000000E-03 0.  1.
         12    1    3    3    0    0 -0.42188844013E+02  0.89763352325E+01 -0.97485034188E+01  0.44221108899E+02  0.00000000000E+00 0. -1.
</event>
<event>
 7    1  0.1910099E-015  0.9000771E+02  0.7816164E-02  0.1186339E+00
        -11   -1    0    0    0    0  0.00000000000E+00  0.00000000000E+00  0.45593999997E+02  0.45594000000E+02  0.51100000000E-03 0. -1.
         11   -1    0    0    0    0 -0.00000000000E+00 -0.00000000000E+00 -0.45593999997E+02  0.45594000000E+02  0.51100000000E-03 0.  1.
    9900012    2    1    2    0    0 -0.23382437799E+00 -0.90573159964E+00  0.71976483863E+00  0.90007709784E+02  0.89999970753E+02 0.  0.
        -12    1    1    2    0    0  0.23382437799E+00  0.90573159964E+00 -0.71976483863E+00  0.11802902157E+01  0.00000000000E+00 0.  1.
         11    1    3    3    0    0 -0.17140218105E+00  0.60988586226E+01 -0.46986617682E+01  0.77008361806E+01  0.51100000000E-03 0. -1.
        -11    1    3    3    0    0  0.23587959392E+02 -0.37777581615E+01 -0.30770494202E+02  0.38954930351E+02  0.51100000000E-03 0.  1.
         12    1    3    3    0    0 -0.23650381589E+02 -0.32268320607E+01  0.36188920809E+02  0.43351943252E+02  0.00000000000E+00 0. -1.
</event>
<event>
 7    1  0.1910099E-015  0.9000768E+02  0.7816164E-02  0.1186339E+00
        -11   -1    0    0    0    0  0.00000000000E+00  0.00000000000E+00  0.45593999997E+02  0.45594000000E+02  0.51100000000E-03 0.  1.
         11   -1    0    0    0    0 -0.00000000000E+00 -0.00000000000E+00 -0.45593999997E+02  0.45594000000E+02  0.51100000000E-03 0. -1.
    9900012    2    1    2    0    0  0.62230319895E+00 -0.34684589044E+00 -0.94106217177E+00  0.90007677436E+02  0.89999937978E+02 0.  0.
        -12    1    1    2    0    0 -0.62230319895E+00  0.34684589044E+00  0.94106217177E+00  0.11803225637E+01  0.00000000000E+00 0.  1.
         11    1    3    3    0    0  0.16738789912E+01  0.22106963044E+01  0.87656639213E+01  0.91937975434E+01  0.51100000000E-03 0. -1.
        -11    1    3    3    0    0  0.88040252946E+01  0.19560892026E+02  0.28444828638E+02  0.35626501859E+02  0.51100000000E-03 0.  1.
         12    1    3    3    0    0 -0.98556010869E+01 -0.22118434221E+02 -0.38151554731E+02  0.45187378034E+02  0.00000000000E+00 0. -1.
</event>
<event>
 7    1  0.1910099E-015  0.9000765E+02  0.7816164E-02  0.1186339E+00
        -11   -1    0    0    0    0  0.00000000000E+00  0.00000000000E+00  0.45593999997E+02  0.45594000000E+02  0.51100000000E-03 0. -1.
         11   -1    0    0    0    0 -0.00000000000E+00 -0.00000000000E+00 -0.45593999997E+02  0.45594000000E+02  0.51100000000E-03 0.  1.
    9900012    2    1    2    0    0  0.10655651517E+00  0.11274827757E+01 -0.33264128152E+00  0.90007651779E+02  0.89999911983E+02 0.  0.
        -12    1    1    2    0    0 -0.10655651517E+00 -0.11274827757E+01  0.33264128152E+00  0.11803482209E+01  0.00000000000E+00 0.  1.
         11    1    3    3    0    0  0.14976239304E+02 -0.35458680898E+02 -0.59463100549E+01  0.38948227152E+02  0.51100000000E-03 0. -1.
        -11    1    3    3    0    0  0.85415752893E+00  0.16047951646E+01 -0.96212844332E+01  0.97915303712E+01  0.51100000000E-03 0.  1.
        -12    1    3    3    0    0 -0.15723840318E+02  0.34981368509E+02  0.15234953207E+02  0.41267894256E+02  0.00000000000E+00 0.  1.
</event>
<event>
 7    1  0.1916500E-015  0.9000761E+02  0.7816164E-02  0.1186339E+00
        -11   -1    0    0    0    0  0.00000000000E+00  0.00000000000E+00  0.45593999997E+02  0.45594000000E+02  0.51100000000E-03 0.  1.
         11   -1    0    0    0    0 -0.00000000000E+00 -0.00000000000E+00 -0.45593999997E+02  0.45594000000E+02  0.51100000000E-03 0. -1.
    9900012    2    1    2    0    0 -0.48590254244E+00  0.51298773459E+00 -0.94554460763E+00  0.90007613495E+02  0.89999873193E+02 0.  0.
        -12    1    1    2    0    0  0.48590254244E+00 -0.51298773459E+00  0.94554460763E+00  0.11803865052E+01  0.00000000000E+00 0.  1.
         11    1    3    3    0    0  0.52351609538E+01 -0.72838543281E+01  0.30003099014E+01  0.94585043137E+01  0.51100000000E-03 0. -1.
        -11    1    3    3    0    0 -0.13134996222E+02 -0.16444531117E+02  0.30943629295E+02  0.37422705990E+02  0.51100000000E-03 0.  1.
         12    1    3    3    0    0  0.74139327259E+01  0.24241373179E+02 -0.34889483804E+02  0.43126403191E+02  0.00000000000E+00 0. -1.
</event>
<event>
 7    1  0.1910099E-015  0.9000823E+02  0.7816164E-02  0.1186338E+00
        -11   -1    0    0    0    0  0.00000000000E+00  0.00000000000E+00  0.45593999997E+02  0.45594000000E+02  0.51100000000E-03 0.  1.
         11   -1    0    0    0    0 -0.00000000000E+00 -0.00000000000E+00 -0.45593999997E+02  0.45594000000E+02  0.51100000000E-03 0. -1.
    9900012    2    1    2    0    0  0.82385388411E+00 -0.78810537566E+00 -0.30335293848E+00  0.90008225314E+02  0.90000493086E+02 0.  0.
        -12    1    1    2    0    0 -0.82385388411E+00  0.78810537566E+00  0.30335293848E+00  0.11797746865E+01  0.00000000000E+00 0.  1.
         11    1    3    3    0    0 -0.71635339746E+01 -0.47493865247E+01 -0.26608397515E+01  0.89973862766E+01  0.51100000000E-03 0. -1.
        -11    1    3    3    0    0 -0.27939409321E+02 -0.15819038266E+02  0.18361802187E+02  0.36986596825E+02  0.51100000000E-03 0.  1.
         12    1    3    3    0    0  0.35926797180E+02  0.19780319415E+02 -0.16004315374E+02  0.44024242212E+02  0.00000000000E+00 0. -1.
</event>
<event>
 7    1  0.1910099E-015  0.9000766E+02  0.7816164E-02  0.1186339E+00
        -11   -1    0    0    0    0  0.00000000000E+00  0.00000000000E+00  0.45593999997E+02  0.45594000000E+02  0.51100000000E-03 0. -1.
         11   -1    0    0    0    0 -0.00000000000E+00 -0.00000000000E+00 -0.45593999997E+02  0.45594000000E+02  0.51100000000E-03 0.  1.
    9900012    2    1    2    0    0  0.32267954803E+00 -0.81275406305E-01  0.11324665405E+01  0.90007657572E+02  0.89999917852E+02 0.  0.
        -12    1    1    2    0    0 -0.32267954803E+00  0.81275406305E-01 -0.11324665405E+01  0.11803424282E+01  0.00000000000E+00 0.  1.
         11    1    3    3    0    0  0.51583712200E+01 -0.13596542109E+02  0.29308813808E+02  0.32718210801E+02  0.51100000000E-03 0. -1.
        -11    1    3    3    0    0  0.49844152178E+01 -0.33901215795E+01  0.11541317571E+02  0.13020726973E+02  0.51100000000E-03 0.  1.
        -12    1    3    3    0    0 -0.98201068898E+01  0.16905388283E+02 -0.39717664838E+02  0.44268719797E+02  0.00000000000E+00 0.  1.
</event>
<event>
 7    1  0.1910099E-015  0.9000766E+02  0.7816164E-02  0.1186339E+00
        -11   -1    0    0    0    0  0.00000000000E+00  0.00000000000E+00  0.45593999997E+02  0.45594000000E+02  0.51100000000E-03 0. -1.
         11   -1    0    0    0    0 -0.00000000000E+00 -0.00000000000E+00 -0.45593999997E+02  0.45594000000E+02  0.51100000000E-03 0.  1.
    9900012    2    1    2    0    0  0.95420884070E+00 -0.65255617204E+00 -0.23846278173E+00  0.90007657436E+02  0.89999917714E+02 0.  0.
        -12    1    1    2    0    0 -0.95420884070E+00  0.65255617204E+00  0.23846278173E+00  0.11803425637E+01  0.00000000000E+00 0.  1.
         11    1    3    3    0    0 -0.54846125898E+01 -0.84428247278E+01  0.12508000136E+01  0.10145282923E+02  0.51100000000E-03 0. -1.
        -11    1    3    3    0    0  0.56603221922E+01 -0.97453331161E+01 -0.37846968781E+02  0.39489287295E+02  0.51100000000E-03 0.  1.
         12    1    3    3    0    0  0.77849923834E+00  0.17535601672E+02  0.36357705986E+02  0.40373087219E+02  0.00000000000E+00 0. -1.
</event>
<event>
 7    1  0.1971172E-015  0.9000773E+02  0.7816164E-02  0.1186339E+00
        -11   -1    0    0    0    0  0.00000000000E+00  0.00000000000E+00  0.45593999997E+02  0.45594000000E+02  0.51100000000E-03 0.  1.
         11   -1    0    0    0    0 -0.00000000000E+00 -0.00000000000E+00 -0.45593999997E+02  0.45594000000E+02  0.51100000000E-03 0. -1.
    9900012    2    1    2    0    0 -0.41360173624E+00 -0.78844946602E+00 -0.77480658402E+00  0.90007727066E+02  0.89999988263E+02 0.  0.
        -12    1    1    2    0    0  0.41360173624E+00  0.78844946602E+00  0.77480658402E+00  0.11802729343E+01  0.00000000000E+00 0.  1.
         11    1    3    3    0    0 -0.73010553428E+01  0.47817066553E+01  0.27601605145E+01  0.91536120729E+01  0.51100000000E-03 0. -1.
        -11    1    3    3    0    0  0.28383639449E+02  0.11255755403E+02  0.26383328740E+02  0.40353476352E+02  0.51100000000E-03 0.  1.
         12    1    3    3    0    0 -0.21496185843E+02 -0.16825911525E+02 -0.29918295838E+02  0.40500638640E+02  0.00000000000E+00 0. -1.
</event>
<event>
 7    1  0.1910099E-015  0.9000779E+02  0.7816164E-02  0.1186339E+00
        -11   -1    0    0    0    0  0.00000000000E+00  0.00000000000E+00  0.45593999997E+02  0.45594000000E+02  0.51100000000E-03 0. -1.
         11   -1    0    0    0    0 -0.00000000000E+00 -0.00000000000E+00 -0.45593999997E+02  0.45594000000E+02  0.51100000000E-03 0.  1.
    9900012    2    1    2    0    0  0.14009987416E+00 -0.11711697920E+01 -0.40299712733E-01  0.90007792085E+02  0.90000054140E+02 0.  0.
        -12    1    1    2    0    0 -0.14009987416E+00  0.11711697920E+01  0.40299712733E-01  0.11802079152E+01  0.00000000000E+00 0.  1.
         11    1    3    3    0    0  0.36177349098E+02 -0.16773415964E+02 -0.29683588726E+01  0.39986988202E+02  0.51100000000E-03 0. -1.
        -11    1    3    3    0    0  0.77866524408E+00  0.10180242136E+02 -0.58765275218E+01  0.11780374590E+02  0.51100000000E-03 0.  1.
        -12    1    3    3    0    0 -0.36815914468E+02  0.54220040360E+01  0.88045866816E+01  0.38240429293E+02  0.00000000000E+00 0.  1.
</event>
<event>
 7    1  0.1910099E-015  0.9000770E+02  0.7816164E-02  0.1186339E+00
        -11   -1    0    0    0    0  0.00000000000E+00  0.00000000000E+00  0.45593999997E+02  0.45594000000E+02  0.51100000000E-03 0.  1.
         11   -1    0    0    0    0 -0.00000000000E+00 -0.00000000000E+00 -0.45593999997E+02  0.45594000000E+02  0.51100000000E-03 0. -1.
    9900012    2    1    2    0    0  0.56754532507E-01  0.58607505091E+00 -0.10229343608E+01  0.90007703534E+02  0.89999964420E+02 0.  0.
        -12    1    1    2    0    0 -0.56754532507E-01 -0.58607505091E+00  0.10229343608E+01  0.11802964665E+01  0.00000000000E+00 0.  1.
         11    1    3    3    0    0  0.18831462311E+02  0.22329221534E+01 -0.30943610787E+02  0.36292106069E+02  0.51100000000E-03 0. -1.
        -11    1    3    3    0    0  0.73151771882E+01 -0.33733381156E+01 -0.54528584606E+01  0.97275327288E+01  0.51100000000E-03 0.  1.
        -12    1    3    3    0    0 -0.26089884967E+02  0.17264910131E+01  0.35373534887E+02  0.43988064736E+02  0.00000000000E+00 0.  1.
</event>
<event>
 7    1  0.1910099E-015  0.9000776E+02  0.7816164E-02  0.1186339E+00
        -11   -1    0    0    0    0  0.00000000000E+00  0.00000000000E+00  0.45593999997E+02  0.45594000000E+02  0.51100000000E-03 0. -1.
         11   -1    0    0    0    0 -0.00000000000E+00 -0.00000000000E+00 -0.45593999997E+02  0.45594000000E+02  0.51100000000E-03 0.  1.
    9900012    2    1    2    0    0 -0.29729049368E+00 -0.21053695576E-01  0.11419857718E+01  0.90007764261E+02  0.90000025950E+02 0.  0.
        -12    1    1    2    0    0  0.29729049368E+00  0.21053695576E-01 -0.11419857718E+01  0.11802357386E+01  0.00000000000E+00 0.  1.
         11    1    3    3    0    0  0.13022414516E+02  0.39804191410E+02 -0.12063210076E+02  0.43583000944E+02  0.51100000000E-03 0. -1.
        -11    1    3    3    0    0  0.12654850699E+01 -0.88664280241E+01 -0.16675968498E+01  0.91102073458E+01  0.51100000000E-03 0.  1.
        -12    1    3    3    0    0 -0.14585190080E+02 -0.30958817082E+02  0.14872792698E+02  0.37314555972E+02  0.00000000000E+00 0.  1.
</event>
<event>
 7    1  0.1910099E-015  0.9000776E+02  0.7816164E-02  0.1186339E+00
        -11   -1    0    0    0    0  0.00000000000E+00  0.00000000000E+00  0.45593999997E+02  0.45594000000E+02  0.51100000000E-03 0.  1.
         11   -1    0    0    0    0 -0.00000000000E+00 -0.00000000000E+00 -0.45593999997E+02  0.45594000000E+02  0.51100000000E-03 0. -1.
    9900012    2    1    2    0    0  0.42346988249E+00  0.18085695894E+00 -0.10867033296E+01  0.90007762690E+02  0.90000024358E+02 0.  0.
        -12    1    1    2    0    0 -0.42346988249E+00 -0.18085695894E+00  0.10867033296E+01  0.11802373098E+01  0.00000000000E+00 0.  1.
         11    1    3    3    0    0  0.12535902735E+02  0.81463055827E+01 -0.87309106787E+01  0.17312999554E+02  0.51100000000E-03 0. -1.
        -11    1    3    3    0    0  0.13278478430E+02 -0.26158655729E+02 -0.16095500233E+02  0.33461296852E+02  0.51100000000E-03 0.  1.
         12    1    3    3    0    0 -0.25390911283E+02  0.18193207105E+02  0.23739707582E+02  0.39233466284E+02  0.00000000000E+00 0. -1.
</event>
<event>
 7    1  0.1910099E-015  0.9000748E+02  0.7816164E-02  0.1186340E+00
        -11   -1    0    0    0    0  0.00000000000E+00  0.00000000000E+00  0.45593999997E+02  0.45594000000E+02  0.51100000000E-03 0.  1.
         11   -1    0    0    0    0 -0.00000000000E+00 -0.00000000000E+00 -0.45593999997E+02  0.45594000000E+02  0.51100000000E-03 0. -1.
    9900012    2    1    2    0    0  0.49279625043E+00  0.62480335128E+00 -0.87201478282E+00  0.90007475899E+02  0.89999733780E+02 0.  0.
        -12    1    1    2    0    0 -0.49279625043E+00 -0.62480335128E+00  0.87201478282E+00  0.11805241013E+01  0.00000000000E+00 0.  1.
         11    1    3    3    0    0  0.33131554547E+01  0.70613013181E+01  0.53038508083E+01  0.94323808781E+01  0.51100000000E-03 0. -1.
        -11    1    3    3    0    0  0.55679054491E+01  0.30184950850E+02  0.18300334292E+02  0.35735627382E+02  0.51100000000E-03 0.  1.
         12    1    3    3    0    0 -0.83882646534E+01 -0.36621448817E+02 -0.24476199884E+02  0.44839467638E+02  0.00000000000E+00 0. -1.
</event>
<event>
 7    1  0.2289619E-015  0.9000781E+02  0.7816164E-02  0.1186339E+00
        -11   -1    0    0    0    0  0.00000000000E+00  0.00000000000E+00  0.45593999997E+02  0.45594000000E+02  0.51100000000E-03 0.  1.
         11   -1    0    0    0    0 -0.00000000000E+00 -0.00000000000E+00 -0.45593999997E+02  0.45594000000E+02  0.51100000000E-03 0. -1.
    9900012    2    1    2    0    0 -0.90947108732E+00  0.11649091550E+00 -0.74305595018E+00  0.90007813601E+02  0.90000075940E+02 0.  0.
        -12    1    1    2    0    0  0.90947108732E+00 -0.11649091550E+00  0.74305595018E+00  0.11801863993E+01  0.00000000000E+00 0.  1.
         11    1    3    3    0    0  0.76077592986E+01 -0.51395576616E+01 -0.14708475577E+01  0.92981959165E+01  0.51100000000E-03 0. -1.
        -11    1    3    3    0    0 -0.14445830580E+02  0.27007779798E+02  0.30593022951E+02  0.43290128717E+02  0.51100000000E-03 0.  1.
         12    1    3    3    0    0  0.59286001944E+01 -0.21751731221E+02 -0.29865231343E+02  0.37419488967E+02  0.00000000000E+00 0. -1.
</event>
<event>
 7    1  0.1910099E-015  0.9000776E+02  0.7816164E-02  0.1186339E+00
        -11   -1    0    0    0    0  0.00000000000E+00  0.00000000000E+00  0.45593999997E+02  0.45594000000E+02  0.51100000000E-03 0.  1.
         11   -1    0    0    0    0 -0.00000000000E+00 -0.00000000000E+00 -0.45593999997E+02  0.45594000000E+02  0.51100000000E-03 0. -1.
    9900012    2    1    2    0    0 -0.82860169709E+00 -0.83162768335E+00  0.12155519166E+00  0.90007762295E+02  0.90000023957E+02 0.  0.
        -12    1    1    2    0    0  0.82860169709E+00  0.83162768335E+00 -0.12155519166E+00  0.11802377052E+01  0.00000000000E+00 0.  1.
         11    1    3    3    0    0 -0.90416393405E+01  0.38897696695E+01 -0.60429853810E+00  0.98613755140E+01  0.51100000000E-03 0. -1.
        -11    1    3    3    0    0  0.14448068126E+02 -0.32429599901E+02  0.24477356107E+02  0.43122692223E+02  0.51100000000E-03 0.  1.
         12    1    3    3    0    0 -0.62350304829E+01  0.27708202548E+02 -0.23751502377E+02  0.37023694558E+02  0.00000000000E+00 0. -1.
</event>
<event>
 7    1  0.1910099E-015  0.9000731E+02  0.7816164E-02  0.1186340E+00
        -11   -1    0    0    0    0  0.00000000000E+00  0.00000000000E+00  0.45593999997E+02  0.45594000000E+02  0.51100000000E-03 0. -1.
         11   -1    0    0    0    0 -0.00000000000E+00 -0.00000000000E+00 -0.45593999997E+02  0.45594000000E+02  0.51100000000E-03 0.  1.
    9900012    2    1    2    0    0 -0.77775412780E+00  0.26250737854E+00  0.84866310299E+00  0.90007305006E+02  0.89999560631E+02 0.  0.
        -12    1    1    2    0    0  0.77775412780E+00 -0.26250737854E+00 -0.84866310299E+00  0.11806949943E+01  0.00000000000E+00 0.  1.
         11    1    3    3    0    0  0.51255422350E+01  0.51461247268E+01  0.53506855374E+01  0.90212869862E+01  0.51100000000E-03 0. -1.
        -11    1    3    3    0    0  0.28449240466E+02  0.12360392784E+02  0.18573231338E+02  0.36153886588E+02  0.51100000000E-03 0.  1.
         12    1    3    3    0    0 -0.34352536828E+02 -0.17244010133E+02 -0.23075253772E+02  0.44832131431E+02  0.00000000000E+00 0. -1.
</event>
<event>
 7    1  0.1910099E-015  0.9000795E+02  0.7816164E-02  0.1186339E+00
        -11   -1    0    0    0    0  0.00000000000E+00  0.00000000000E+00  0.45593999997E+02  0.45594000000E+02  0.51100000000E-03 0.  1.
         11   -1    0    0    0    0 -0.00000000000E+00 -0.00000000000E+00 -0.45593999997E+02  0.45594000000E+02  0.51100000000E-03 0. -1.
    9900012    2    1    2    0    0 -0.83770794930E-01  0.11647165940E+01 -0.17013267030E+00  0.90007946011E+02  0.90000210099E+02 0.  0.
        -12    1    1    2    0    0  0.83770794930E-01 -0.11647165940E+01  0.17013267030E+00  0.11800539885E+01  0.00000000000E+00 0.  1.
         11    1    3    3    0    0 -0.11450498545E+02  0.16273406130E+02  0.16303761775E+02  0.25724508009E+02  0.51100000000E-03 0. -1.
        -11    1    3    3    0    0 -0.21597762604E+02 -0.16746703895E+02 -0.15158377618E+02  0.31252069581E+02  0.51100000000E-03 0.  1.
        -12    1    3    3    0    0  0.32964490353E+02  0.16380143588E+01 -0.13155168276E+01  0.33031368422E+02  0.00000000000E+00 0.  1.
</event>
<event>
 7    1  0.1910099E-015  0.9000775E+02  0.7816164E-02  0.1186339E+00
        -11   -1    0    0    0    0  0.00000000000E+00  0.00000000000E+00  0.45593999997E+02  0.45594000000E+02  0.51100000000E-03 0.  1.
         11   -1    0    0    0    0 -0.00000000000E+00 -0.00000000000E+00 -0.45593999997E+02  0.45594000000E+02  0.51100000000E-03 0. -1.
    9900012    2    1    2    0    0  0.11561702539E+01 -0.79464043325E-02 -0.23704239580E+00  0.90007753458E+02  0.90000015004E+02 0.  0.
        -12    1    1    2    0    0 -0.11561702539E+01  0.79464043324E-02  0.23704239580E+00  0.11802465415E+01  0.00000000000E+00 0.  1.
         11    1    3    3    0    0  0.10410624020E+02  0.33341639166E+02 -0.10293354505E+02  0.36414271131E+02  0.51100000000E-03 0. -1.
        -11    1    3    3    0    0  0.12950846798E+01  0.88999492559E+01  0.48147487047E+00  0.90065620187E+01  0.51100000000E-03 0.  1.
        -12    1    3    3    0    0 -0.10549538445E+02 -0.42249534827E+02  0.95748372387E+01  0.44586920309E+02  0.00000000000E+00 0.  1.
</event>
<event>
 7    1  0.1910099E-015  0.9000778E+02  0.7816164E-02  0.1186339E+00
        -11   -1    0    0    0    0  0.00000000000E+00  0.00000000000E+00  0.45593999997E+02  0.45594000000E+02  0.51100000000E-03 0. -1.
         11   -1    0    0    0    0 -0.00000000000E+00 -0.00000000000E+00 -0.45593999997E+02  0.45594000000E+02  0.51100000000E-03 0.  1.
    9900012    2    1    2    0    0 -0.55282493460E+00  0.10425562476E+01 -0.19778793236E-01  0.90007775387E+02  0.90000037222E+02 0.  0.
        -12    1    1    2    0    0  0.55282493460E+00 -0.10425562476E+01  0.19778793236E-01  0.11802246135E+01  0.00000000000E+00 0.  1.
         11    1    3    3    0    0 -0.74345974759E+01  0.53964276719E+01 -0.58149786046E+01  0.10872380038E+02  0.51100000000E-03 0. -1.
        -11    1    3    3    0    0  0.55297715892E+01  0.32140566153E+02  0.21836332196E+02  0.39248181748E+02  0.51100000000E-03 0.  1.
         12    1    3    3    0    0  0.13520009521E+01 -0.36494437578E+02 -0.16041132385E+02  0.39887213601E+02  0.00000000000E+00 0. -1.
</event>
<event>
 7    1  0.1910099E-015  0.9000768E+02  0.7816164E-02  0.1186339E+00
        -11   -1    0    0    0    0  0.00000000000E+00  0.00000000000E+00  0.45593999997E+02  0.45594000000E+02  0.51100000000E-03 0. -1.
         11   -1    0    0    0    0 -0.00000000000E+00 -0.00000000000E+00 -0.45593999997E+02  0.45594000000E+02  0.51100000000E-03 0.  1.
    9900012    2    1    2    0    0  0.10808414418E+01  0.47355986338E+00 -0.26000088356E-01  0.90007680903E+02  0.89999941491E+02 0.  0.
        -12    1    1    2    0    0 -0.10808414418E+01 -0.47355986338E+00  0.26000088356E-01  0.11803190972E+01  0.00000000000E+00 0.  1.
         11    1    3    3    0    0  0.35706165310E+00 -0.69070026590E+01  0.34017739705E+02  0.34713697494E+02  0.51100000000E-03 0. -1.
        -11    1    3    3    0    0 -0.54326749364E+01 -0.87175778103E+01  0.58609913002E+01  0.11826298623E+02  0.51100000000E-03 0.  1.
        -12    1    3    3    0    0  0.61564547252E+01  0.16098140333E+02 -0.39904731094E+02  0.43467684786E+02  0.00000000000E+00 0.  1.
</event>
<event>
 7    1  0.1910099E-015  0.9000784E+02  0.7816164E-02  0.1186339E+00
        -11   -1    0    0    0    0  0.00000000000E+00  0.00000000000E+00  0.45593999997E+02  0.45594000000E+02  0.51100000000E-03 0.  1.
         11   -1    0    0    0    0 -0.00000000000E+00 -0.00000000000E+00 -0.45593999997E+02  0.45594000000E+02  0.51100000000E-03 0. -1.
    9900012    2    1    2    0    0 -0.44421036718E+00  0.79441766450E+00 -0.75123914306E+00  0.90007837924E+02  0.90000100584E+02 0.  0.
        -12    1    1    2    0    0  0.44421036718E+00 -0.79441766450E+00  0.75123914306E+00  0.11801620762E+01  0.00000000000E+00 0.  1.
         11    1    3    3    0    0 -0.77295065479E+01  0.17180394481E+01  0.75532065423E+01  0.10942936551E+02  0.51100000000E-03 0. -1.
        -11    1    3    3    0    0  0.16293334802E+02  0.19633790563E+02  0.27052343938E+02  0.37185854886E+02  0.51100000000E-03 0.  1.
         12    1    3    3    0    0 -0.90080386210E+01 -0.20557412347E+02 -0.35356789623E+02  0.41879046487E+02  0.00000000000E+00 0. -1.
</event>
<event>
 7    1  0.1910099E-015  0.9000772E+02  0.7816164E-02  0.1186339E+00
        -11   -1    0    0    0    0  0.00000000000E+00  0.00000000000E+00  0.45593999997E+02  0.45594000000E+02  0.51100000000E-03 0.  1.
         11   -1    0    0    0    0 -0.00000000000E+00 -0.00000000000E+00 -0.45593999997E+02  0.45594000000E+02  0.51100000000E-03 0. -1.
    9900012    2    1    2    0    0  0.11389493875E+01 -0.21109229524E+00 -0.22650715483E+00  0.90007715646E+02  0.89999976693E+02 0.  0.
        -12    1    1    2    0    0 -0.11389493875E+01  0.21109229524E+00  0.22650715483E+00  0.11802843537E+01  0.00000000000E+00 0.  1.
         11    1    3    3    0    0 -0.39868655674E+02  0.35602444751E+01  0.11156284497E+01  0.40042847964E+02  0.51100000000E-03 0. -1.
        -11    1    3    3    0    0 -0.11647264340E+01 -0.41945433383E+01 -0.61311008875E+01  0.75193869322E+01  0.51100000000E-03 0.  1.
        -12    1    3    3    0    0  0.42172331496E+02  0.42320656800E+00  0.47889652830E+01  0.42445480750E+02  0.00000000000E+00 0.  1.
</event>
<event>
 7    1  0.1910099E-015  0.9000768E+02  0.7816164E-02  0.1186339E+00
        -11   -1    0    0    0    0  0.00000000000E+00  0.00000000000E+00  0.45593999997E+02  0.45594000000E+02  0.51100000000E-03 0.  1.
         11   -1    0    0    0    0 -0.00000000000E+00 -0.00000000000E+00 -0.45593999997E+02  0.45594000000E+02  0.51100000000E-03 0. -1.
    9900012    2    1    2    0    0 -0.11293223563E+01  0.22758747529E+00  0.25688542574E+00  0.90007680058E+02  0.89999940635E+02 0.  0.
        -12    1    1    2    0    0  0.11293223563E+01 -0.22758747529E+00 -0.25688542574E+00  0.11803199419E+01  0.00000000000E+00 0.  1.
         11    1    3    3    0    0  0.32981247765E+02  0.16569446267E+01 -0.10835441013E+02  0.34755070879E+02  0.51100000000E-03 0. -1.
        -11    1    3    3    0    0  0.97639803907E+01  0.17994107454E+01  0.19713863603E+00  0.99303603159E+01  0.51100000000E-03 0.  1.
        -12    1    3    3    0    0 -0.43874550512E+02 -0.32287678968E+01  0.10895187803E+02  0.45322248863E+02  0.00000000000E+00 0.  1.
</event>
<event>
 7    1  0.1910099E-015  0.9000776E+02  0.7816164E-02  0.1186339E+00
        -11   -1    0    0    0    0  0.00000000000E+00  0.00000000000E+00  0.45593999997E+02  0.45594000000E+02  0.51100000000E-03 0. -1.
         11   -1    0    0    0    0 -0.00000000000E+00 -0.00000000000E+00 -0.45593999997E+02  0.45594000000E+02  0.51100000000E-03 0.  1.
    9900012    2    1    2    0    0 -0.54439979164E+00 -0.40294700283E+00  0.96655260245E+00  0.90007762162E+02  0.90000023823E+02 0.  0.
        -12    1    1    2    0    0  0.54439979164E+00  0.40294700283E+00 -0.96655260245E+00  0.11802378377E+01  0.00000000000E+00 0.  1.
         11    1    3    3    0    0  0.26282504045E+02 -0.53481150481E+01  0.21492606822E+02  0.34370110586E+02  0.51100000000E-03 0. -1.
        -11    1    3    3    0    0  0.85550650126E+01 -0.10947073236E+01  0.64225549960E+01  0.10753452210E+02  0.51100000000E-03 0.  1.
        -12    1    3    3    0    0 -0.35381968849E+02  0.60398753690E+01 -0.26948609215E+02  0.44884199366E+02  0.00000000000E+00 0.  1.
</event>
<event>
 7    1  0.1910099E-015  0.9000679E+02  0.7816164E-02  0.1186341E+00
        -11   -1    0    0    0    0  0.00000000000E+00  0.00000000000E+00  0.45593999997E+02  0.45594000000E+02  0.51100000000E-03 0. -1.
         11   -1    0    0    0    0 -0.00000000000E+00 -0.00000000000E+00 -0.45593999997E+02  0.45594000000E+02  0.51100000000E-03 0.  1.
    9900012    2    1    2    0    0  0.28496589252E+00 -0.21663640579E+00  0.11256681617E+01  0.90006786343E+02  0.89999035118E+02 0.  0.
        -12    1    1    2    0    0 -0.28496589252E+00  0.21663640579E+00 -0.11256681617E+01  0.11812136566E+01  0.00000000000E+00 0.  1.
         11    1    3    3    0    0 -0.35674713048E+02 -0.14248843470E+02 -0.11380426965E+02  0.40065306806E+02  0.51100000000E-03 0. -1.
        -11    1    3    3    0    0  0.11111397824E+02 -0.39996208760E+01 -0.68455978621E+01  0.13649994106E+02  0.51100000000E-03 0.  1.
        -12    1    3    3    0    0  0.24848281117E+02  0.18031827940E+02  0.19351692989E+02  0.36291485432E+02  0.00000000000E+00 0.  1.
</event>
<event>
 7    1  0.1983461E-015  0.9000761E+02  0.7816164E-02  0.1186339E+00
        -11   -1    0    0    0    0  0.00000000000E+00  0.00000000000E+00  0.45593999997E+02  0.45594000000E+02  0.51100000000E-03 0. -1.
         11   -1    0    0    0    0 -0.00000000000E+00 -0.00000000000E+00 -0.45593999997E+02  0.45594000000E+02  0.51100000000E-03 0.  1.
    9900012    2    1    2    0    0  0.84114638311E+00 -0.41617415830E+00  0.71596180880E+00  0.90007606218E+02  0.89999865820E+02 0.  0.
        -12    1    1    2    0    0 -0.84114638311E+00  0.41617415830E+00 -0.71596180880E+00  0.11803937815E+01  0.00000000000E+00 0.  1.
         11    1    3    3    0    0  0.97624231449E+01  0.15593255662E+01  0.35122658660E+01  0.10491540099E+02  0.51100000000E-03 0. -1.
        -11    1    3    3    0    0 -0.15283673521E+02  0.23107373374E+02 -0.30772945618E+02  0.41406709152E+02  0.51100000000E-03 0.  1.
         12    1    3    3    0    0  0.63623967595E+01 -0.25082873099E+02  0.27976641560E+02  0.38109356967E+02  0.00000000000E+00 0. -1.
</event>
<event>
 7    1  0.1910099E-015  0.9000775E+02  0.7816164E-02  0.1186339E+00
        -11   -1    0    0    0    0  0.00000000000E+00  0.00000000000E+00  0.45593999997E+02  0.45594000000E+02  0.51100000000E-03 0. -1.
         11   -1    0    0    0    0 -0.00000000000E+00 -0.00000000000E+00 -0.45593999997E+02  0.45594000000E+02  0.51100000000E-03 0.  1.
    9900012    2    1    2    0    0  0.94924333786E-03  0.10401958607E+01  0.55764969654E+00  0.90007753622E+02  0.90000015169E+02 0.  0.
        -12    1    1    2    0    0 -0.94924333785E-03 -0.10401958607E+01 -0.55764969654E+00  0.11802463784E+01  0.00000000000E+00 0.  1.
         11    1    3    3    0    0 -0.40968015319E+02  0.55714145408E+01  0.11857896201E+02  0.43011959288E+02  0.51100000000E-03 0. -1.
        -11    1    3    3    0    0  0.46401167565E+01  0.45681268289E+01 -0.65650833938E+01  0.92465553839E+01  0.51100000000E-03 0.  1.
        -12    1    3    3    0    0  0.36328847806E+02 -0.90993455090E+01 -0.47351631105E+01  0.37749238950E+02  0.00000000000E+00 0.  1.
</event>
<event>
 7    1  0.1910099E-015  0.9000775E+02  0.7816164E-02  0.1186339E+00
        -11   -1    0    0    0    0  0.00000000000E+00  0.00000000000E+00  0.45593999997E+02  0.45594000000E+02  0.51100000000E-03 0. -1.
         11   -1    0    0    0    0 -0.00000000000E+00 -0.00000000000E+00 -0.45593999997E+02  0.45594000000E+02  0.51100000000E-03 0.  1.
    9900012    2    1    2    0    0  0.10697976282E+00  0.10827971162E+01  0.45726882134E+00  0.90007750433E+02  0.90000011939E+02 0.  0.
        -12    1    1    2    0    0 -0.10697976282E+00 -0.10827971162E+01 -0.45726882134E+00  0.11802495666E+01  0.00000000000E+00 0.  1.
         11    1    3    3    0    0  0.12913526186E+02 -0.72798525392E+01  0.39614115042E+02  0.42296968241E+02  0.51100000000E-03 0. -1.
        -11    1    3    3    0    0 -0.12074483971E+02 -0.26988852892E+01 -0.82366119687E+01  0.14863341547E+02  0.51100000000E-03 0.  1.
        -12    1    3    3    0    0 -0.73206245222E+00  0.11061534945E+02 -0.30920234252E+02  0.32847440645E+02  0.00000000000E+00 0.  1.
</event>
<event>
 7    1  0.1910099E-015  0.9000751E+02  0.7816164E-02  0.1186340E+00
        -11   -1    0    0    0    0  0.00000000000E+00  0.00000000000E+00  0.45593999997E+02  0.45594000000E+02  0.51100000000E-03 0. -1.
         11   -1    0    0    0    0 -0.00000000000E+00 -0.00000000000E+00 -0.45593999997E+02  0.45594000000E+02  0.51100000000E-03 0.  1.
    9900012    2    1    2    0    0  0.64324110022E+00 -0.93254320367E+00  0.33191771233E+00  0.90007506329E+02  0.89999764612E+02 0.  0.
        -12    1    1    2    0    0 -0.64324110022E+00  0.93254320367E+00 -0.33191771233E+00  0.11804936711E+01  0.00000000000E+00 0.  1.
         11    1    3    3    0    0 -0.14784771365E+02  0.11687626395E+02  0.37265637625E+00  0.18850171037E+02  0.51100000000E-03 0. -1.
        -11    1    3    3    0    0 -0.24439511983E+02 -0.42921480367E+01 -0.13518604160E+02  0.28257121924E+02  0.51100000000E-03 0.  1.
         12    1    3    3    0    0  0.39867524448E+02 -0.83280215621E+01  0.13477865496E+02  0.42900213369E+02  0.00000000000E+00 0. -1.
</event>
<event>
 7    1  0.1910099E-015  0.9000773E+02  0.7816164E-02  0.1186339E+00
        -11   -1    0    0    0    0  0.00000000000E+00  0.00000000000E+00  0.45593999997E+02  0.45594000000E+02  0.51100000000E-03 0.  1.
         11   -1    0    0    0    0 -0.00000000000E+00 -0.00000000000E+00 -0.45593999997E+02  0.45594000000E+02  0.51100000000E-03 0. -1.
    9900012    2    1    2    0    0 -0.10029252388E+01 -0.57533720950E+00  0.23697523992E+00  0.90007733418E+02  0.89999994700E+02 0.  0.
        -12    1    1    2    0    0  0.10029252388E+01  0.57533720950E+00 -0.23697523992E+00  0.11802665816E+01  0.00000000000E+00 0.  1.
         11    1    3    3    0    0 -0.93012549408E+01 -0.21748437693E+02 -0.27569509041E+02  0.36326102386E+02  0.51100000000E-03 0. -1.
        -11    1    3    3    0    0 -0.58447917335E+01 -0.60744559312E+01 -0.41262064339E+01  0.93854240748E+01  0.51100000000E-03 0.  1.
        -12    1    3    3    0    0  0.14143121436E+02  0.27247556414E+02  0.31932690715E+02  0.44296206957E+02  0.00000000000E+00 0.  1.
</event>
<event>
 7    1  0.1910099E-015  0.9000787E+02  0.7816164E-02  0.1186339E+00
        -11   -1    0    0    0    0  0.00000000000E+00  0.00000000000E+00  0.45593999997E+02  0.45594000000E+02  0.51100000000E-03 0. -1.
         11   -1    0    0    0    0 -0.00000000000E+00 -0.00000000000E+00 -0.45593999997E+02  0.45594000000E+02  0.51100000000E-03 0.  1.
    9900012    2    1    2    0    0  0.98376303185E+00  0.24725486578E+00  0.60313782838E+00  0.90007872926E+02  0.90000136048E+02 0.  0.
        -12    1    1    2    0    0 -0.98376303185E+00 -0.24725486578E+00 -0.60313782838E+00  0.11801270743E+01  0.00000000000E+00 0.  1.
         11    1    3    3    0    0  0.96392127690E+00  0.85195116328E+01 -0.44362275387E+01  0.96535660626E+01  0.51100000000E-03 0. -1.
        -11    1    3    3    0    0 -0.39701388650E+02 -0.76889115521E+01  0.14155878954E+01  0.40463854376E+02  0.51100000000E-03 0.  1.
         12    1    3    3    0    0  0.39721230405E+02 -0.58334521493E+00  0.36237774716E+01  0.39890452488E+02  0.00000000000E+00 0. -1.
</event>
<event>
 7    1  0.1910099E-015  0.9000774E+02  0.7816164E-02  0.1186339E+00
        -11   -1    0    0    0    0  0.00000000000E+00  0.00000000000E+00  0.45593999997E+02  0.45594000000E+02  0.51100000000E-03 0. -1.
         11   -1    0    0    0    0 -0.00000000000E+00 -0.00000000000E+00 -0.45593999997E+02  0.45594000000E+02  0.51100000000E-03 0.  1.
    9900012    2    1    2    0    0 -0.65674071344E+00  0.29741371382E+00  0.93447719363E+00  0.90007741169E+02  0.90000002553E+02 0.  0.
        -12    1    1    2    0    0  0.65674071344E+00 -0.29741371382E+00 -0.93447719363E+00  0.11802588306E+01  0.00000000000E+00 0.  1.
         11    1    3    3    0    0  0.26358147898E+02 -0.24072768470E+02  0.15042686448E+02  0.38736708149E+02  0.51100000000E-03 0. -1.
        -11    1    3    3    0    0  0.82681758790E+00 -0.71649463015E+01 -0.16615898682E+01  0.74014163494E+01  0.51100000000E-03 0.  1.
        -12    1    3    3    0    0 -0.27841706200E+02  0.31535128485E+02 -0.12446619386E+02  0.43869616670E+02  0.00000000000E+00 0.  1.
</event>
<event>
 7    1  0.1910099E-015  0.9000801E+02  0.7816164E-02  0.1186339E+00
        -11   -1    0    0    0    0  0.00000000000E+00  0.00000000000E+00  0.45593999997E+02  0.45594000000E+02  0.51100000000E-03 0.  1.
         11   -1    0    0    0    0 -0.00000000000E+00 -0.00000000000E+00 -0.45593999997E+02  0.45594000000E+02  0.51100000000E-03 0. -1.
    9900012    2    1    2    0    0 -0.65586817215E+00 -0.96830264585E+00 -0.15688526899E+00  0.90008005906E+02  0.90000270784E+02 0.  0.
        -12    1    1    2    0    0  0.65586817215E+00  0.96830264585E+00  0.15688526899E+00  0.11799940936E+01  0.00000000000E+00 0.  1.
         11    1    3    3    0    0  0.11779968520E+01 -0.10367535856E+02  0.22901153735E+01  0.10682607594E+02  0.51100000000E-03 0. -1.
        -11    1    3    3    0    0  0.30262690673E+02 -0.13747926528E+02  0.14515996778E+02  0.36270512724E+02  0.51100000000E-03 0.  1.
         12    1    3    3    0    0 -0.32096555697E+02  0.23147159739E+02 -0.16962997420E+02  0.43054885589E+02  0.00000000000E+00 0. -1.
</event>
<event>
 7    1  0.1910099E-015  0.9000771E+02  0.7816164E-02  0.1186339E+00
        -11   -1    0    0    0    0  0.00000000000E+00  0.00000000000E+00  0.45593999997E+02  0.45594000000E+02  0.51100000000E-03 0.  1.
         11   -1    0    0    0    0 -0.00000000000E+00 -0.00000000000E+00 -0.45593999997E+02  0.45594000000E+02  0.51100000000E-03 0. -1.
    9900012    2    1    2    0    0  0.53036420312E+00  0.60313555146E+00 -0.86488031838E+00  0.90007713320E+02  0.89999974336E+02 0.  0.
        -12    1    1    2    0    0 -0.53036420312E+00 -0.60313555146E+00  0.86488031838E+00  0.11802866798E+01  0.00000000000E+00 0.  1.
         11    1    3    3    0    0  0.44195827071E+01  0.68696509287E+01  0.10055266864E+02  0.12955045626E+02  0.51100000000E-03 0. -1.
        -11    1    3    3    0    0 -0.27350816791E+02  0.24726201609E+02 -0.77430383442E+00  0.36878879753E+02  0.51100000000E-03 0.  1.
         12    1    3    3    0    0  0.23461598287E+02 -0.30992716986E+02 -0.10145843348E+02  0.40173787942E+02  0.00000000000E+00 0. -1.
</event>
<event>
 7    1  0.1910099E-015  0.9000772E+02  0.7816164E-02  0.1186339E+00
        -11   -1    0    0    0    0  0.00000000000E+00  0.00000000000E+00  0.45593999997E+02  0.45594000000E+02  0.51100000000E-03 0. -1.
         11   -1    0    0    0    0 -0.00000000000E+00 -0.00000000000E+00 -0.45593999997E+02  0.45594000000E+02  0.51100000000E-03 0.  1.
    9900012    2    1    2    0    0  0.51610170510E+00  0.30252502892E+00  0.10174337523E+01  0.90007722997E+02  0.89999984141E+02 0.  0.
        -12    1    1    2    0    0 -0.51610170510E+00 -0.30252502892E+00 -0.10174337523E+01  0.11802770028E+01  0.00000000000E+00 0.  1.
         11    1    3    3    0    0 -0.75183481869E+01  0.42960178360E+01 -0.19008235077E+01  0.88653515991E+01  0.51100000000E-03 0. -1.
        -11    1    3    3    0    0 -0.33146693409E+02 -0.80897914155E+01  0.16075284594E+02  0.37716876649E+02  0.51100000000E-03 0.  1.
         12    1    3    3    0    0  0.41181143301E+02  0.40962986084E+01 -0.13157027334E+02  0.43425494749E+02  0.00000000000E+00 0. -1.
</event>
<event>
 7    1  0.1910099E-015  0.9000767E+02  0.7816164E-02  0.1186339E+00
        -11   -1    0    0    0    0  0.00000000000E+00  0.00000000000E+00  0.45593999997E+02  0.45594000000E+02  0.51100000000E-03 0. -1.
         11   -1    0    0    0    0 -0.00000000000E+00 -0.00000000000E+00 -0.45593999997E+02  0.45594000000E+02  0.51100000000E-03 0.  1.
    9900012    2    1    2    0    0  0.67032392169E+00 -0.90469244910E+00  0.35409361273E+00  0.90007667473E+02  0.89999927884E+02 0.  0.
        -12    1    1    2    0    0 -0.67032392169E+00  0.90469244910E+00 -0.35409361273E+00  0.11803325269E+01  0.00000000000E+00 0.  1.
         11    1    3    3    0    0 -0.10483590514E+02  0.34829539599E+02 -0.13312235689E+02  0.38732649252E+02  0.51100000000E-03 0. -1.
        -11    1    3    3    0    0 -0.23724629093E+01  0.36750518180E+01  0.81443242377E+01  0.92447067921E+01  0.51100000000E-03 0.  1.
        -12    1    3    3    0    0  0.13526377345E+02 -0.39409283866E+02  0.55220050641E+01  0.42030311429E+02  0.00000000000E+00 0.  1.
</event>
<event>
 7    1  0.1910099E-015  0.9000775E+02  0.7816164E-02  0.1186339E+00
        -11   -1    0    0    0    0  0.00000000000E+00  0.00000000000E+00  0.45593999997E+02  0.45594000000E+02  0.51100000000E-03 0. -1.
         11   -1    0    0    0    0 -0.00000000000E+00 -0.00000000000E+00 -0.45593999997E+02  0.45594000000E+02  0.51100000000E-03 0.  1.
    9900012    2    1    2    0    0  0.85102123577E+00 -0.65581491304E+00  0.48852995657E+00  0.90007749238E+02  0.90000010727E+02 0.  0.
        -12    1    1    2    0    0 -0.85102123577E+00  0.65581491304E+00 -0.48852995657E+00  0.11802507625E+01  0.00000000000E+00 0.  1.
         11    1    3    3    0    0 -0.55716605169E+01 -0.20349511333E+02  0.30086038152E+02  0.36746642083E+02  0.51100000000E-03 0. -1.
        -11    1    3    3    0    0 -0.83995080418E+01  0.38918653248E+00  0.58636773800E+01  0.10251142092E+02  0.51100000000E-03 0.  1.
        -12    1    3    3    0    0  0.14822189794E+02  0.19304509888E+02 -0.35461185575E+02  0.43009965063E+02  0.00000000000E+00 0.  1.
</event>
<event>
 7    1  0.1910099E-015  0.9000776E+02  0.7816164E-02  0.1186339E+00
        -11   -1    0    0    0    0  0.00000000000E+00  0.00000000000E+00  0.45593999997E+02  0.45594000000E+02  0.51100000000E-03 0.  1.
         11   -1    0    0    0    0 -0.00000000000E+00 -0.00000000000E+00 -0.45593999997E+02  0.45594000000E+02  0.51100000000E-03 0. -1.
    9900012    2    1    2    0    0  0.45475307506E+00 -0.95060341096E+00 -0.53153010036E+00  0.90007757884E+02  0.90000019488E+02 0.  0.
        -12    1    1    2    0    0 -0.45475307506E+00  0.95060341096E+00  0.53153010036E+00  0.11802421157E+01  0.00000000000E+00 0.  1.
         11    1    3    3    0    0  0.72491550928E+01 -0.88568408574E+01 -0.39442384643E+02  0.41069399631E+02  0.51100000000E-03 0. -1.
        -11    1    3    3    0    0  0.17899761558E+01  0.10083455796E+02  0.13288224417E+01  0.10326948473E+02  0.51100000000E-03 0.  1.
        -12    1    3    3    0    0 -0.85843781736E+01 -0.21772183494E+01  0.37582032101E+02  0.38611409780E+02  0.00000000000E+00 0.  1.
</event>
<event>
 7    1  0.1910099E-015  0.9000754E+02  0.7816164E-02  0.1186339E+00
        -11   -1    0    0    0    0  0.00000000000E+00  0.00000000000E+00  0.45593999997E+02  0.45594000000E+02  0.51100000000E-03 0.  1.
         11   -1    0    0    0    0 -0.00000000000E+00 -0.00000000000E+00 -0.45593999997E+02  0.45594000000E+02  0.51100000000E-03 0. -1.
    9900012    2    1    2    0    0  0.62970401696E+00 -0.71596340963E-01 -0.99590649488E+00  0.90007541220E+02  0.89999799964E+02 0.  0.
        -12    1    1    2    0    0 -0.62970401696E+00  0.71596340963E-01  0.99590649488E+00  0.11804587801E+01  0.00000000000E+00 0.  1.
         11    1    3    3    0    0  0.12973377296E+02 -0.24497069132E+02 -0.25674130395E+02  0.37783275220E+02  0.51100000000E-03 0. -1.
        -11    1    3    3    0    0 -0.96307402228E+01 -0.77566900423E+01  0.14679248444E+01  0.12452798933E+02  0.51100000000E-03 0.  1.
        -12    1    3    3    0    0 -0.27129330567E+01  0.32182162833E+02  0.23210299056E+02  0.39771467067E+02  0.00000000000E+00 0.  1.
</event>
<event>
 7    1  0.1955807E-015  0.9000783E+02  0.7816164E-02  0.1186339E+00
        -11   -1    0    0    0    0  0.00000000000E+00  0.00000000000E+00  0.45593999997E+02  0.45594000000E+02  0.51100000000E-03 0. -1.
         11   -1    0    0    0    0 -0.00000000000E+00 -0.00000000000E+00 -0.45593999997E+02  0.45594000000E+02  0.51100000000E-03 0.  1.
    9900012    2    1    2    0    0 -0.22906774994E+00  0.89444935850E+00  0.73505078443E+00  0.90007825714E+02  0.90000088214E+02 0.  0.
        -12    1    1    2    0    0  0.22906774994E+00 -0.89444935850E+00 -0.73505078443E+00  0.11801742857E+01  0.00000000000E+00 0.  1.
         11    1    3    3    0    0  0.81776544679E+01 -0.30212301537E+01  0.11776338447E+01  0.87970839470E+01  0.51100000000E-03 0. -1.
        -11    1    3    3    0    0  0.30775937972E+02 -0.17843686148E+02 -0.59001080101E+01  0.36060598555E+02  0.51100000000E-03 0.  1.
         12    1    3    3    0    0 -0.39182660190E+02  0.21759365660E+02  0.54575249499E+01  0.45150143212E+02  0.00000000000E+00 0. -1.
</event>
<event>
 7    1  0.1910099E-015  0.9000763E+02  0.7816164E-02  0.1186339E+00
        -11   -1    0    0    0    0  0.00000000000E+00  0.00000000000E+00  0.45593999997E+02  0.45594000000E+02  0.51100000000E-03 0. -1.
         11   -1    0    0    0    0 -0.00000000000E+00 -0.00000000000E+00 -0.45593999997E+02  0.45594000000E+02  0.51100000000E-03 0.  1.
    9900012    2    1    2    0    0 -0.98081830532E+00  0.64359843616E+00  0.13061022018E+00  0.90007626108E+02  0.89999885973E+02 0.  0.
        -12    1    1    2    0    0  0.98081830532E+00 -0.64359843616E+00 -0.13061022018E+00  0.11803738919E+01  0.00000000000E+00 0.  1.
         11    1    3    3    0    0  0.22662670893E+02 -0.27103889620E+02  0.23625114716E+02  0.42501335628E+02  0.51100000000E-03 0. -1.
        -11    1    3    3    0    0 -0.42433268242E+01  0.77562233953E+01  0.27243170948E+01  0.92513095175E+01  0.51100000000E-03 0.  1.
        -12    1    3    3    0    0 -0.19400162374E+02  0.19991264661E+02 -0.26218821590E+02  0.38254980963E+02  0.00000000000E+00 0.  1.
</event>
<event>
 7    1  0.1910099E-015  0.9000769E+02  0.7816164E-02  0.1186339E+00
        -11   -1    0    0    0    0  0.00000000000E+00  0.00000000000E+00  0.45593999997E+02  0.45594000000E+02  0.51100000000E-03 0.  1.
         11   -1    0    0    0    0 -0.00000000000E+00 -0.00000000000E+00 -0.45593999997E+02  0.45594000000E+02  0.51100000000E-03 0. -1.
    9900012    2    1    2    0    0  0.11728846846E+01 -0.12673470664E-01  0.13157616741E+00  0.90007690130E+02  0.89999950840E+02 0.  0.
        -12    1    1    2    0    0 -0.11728846846E+01  0.12673470664E-01 -0.13157616741E+00  0.11803098695E+01  0.00000000000E+00 0.  1.
         11    1    3    3    0    0  0.84958829348E-01  0.67350714699E+01 -0.67925908864E+01  0.95659655508E+01  0.51100000000E-03 0. -1.
        -11    1    3    3    0    0 -0.30572187707E+01  0.15373421042E+02  0.38555983836E+02  0.41620338189E+02  0.51100000000E-03 0.  1.
         12    1    3    3    0    0  0.41451446260E+01 -0.22121165982E+02 -0.31631816782E+02  0.38821386391E+02  0.00000000000E+00 0. -1.
</event>
<event>
 7    1  0.1910099E-015  0.9000776E+02  0.7816164E-02  0.1186339E+00
        -11   -1    0    0    0    0  0.00000000000E+00  0.00000000000E+00  0.45593999997E+02  0.45594000000E+02  0.51100000000E-03 0.  1.
         11   -1    0    0    0    0 -0.00000000000E+00 -0.00000000000E+00 -0.45593999997E+02  0.45594000000E+02  0.51100000000E-03 0. -1.
    9900012    2    1    2    0    0  0.68544988549E+00 -0.74766063735E+00  0.60343866729E+00  0.90007755873E+02  0.90000017451E+02 0.  0.
        -12    1    1    2    0    0 -0.68544988549E+00  0.74766063735E+00 -0.60343866729E+00  0.11802441270E+01  0.00000000000E+00 0.  1.
         11    1    3    3    0    0  0.21117336896E+02  0.16695616801E+02 -0.30032738204E+02  0.40331760465E+02  0.51100000000E-03 0. -1.
        -11    1    3    3    0    0 -0.26457660957E+01  0.76987442646E+01  0.46161792269E+01  0.93584107839E+01  0.51100000000E-03 0.  1.
        -12    1    3    3    0    0 -0.17786120915E+02 -0.25142021703E+02  0.26019997644E+02  0.40317584624E+02  0.00000000000E+00 0.  1.
</event>
<event>
 7    1  0.1910099E-015  0.9000772E+02  0.7816164E-02  0.1186339E+00
        -11   -1    0    0    0    0  0.00000000000E+00  0.00000000000E+00  0.45593999997E+02  0.45594000000E+02  0.51100000000E-03 0.  1.
         11   -1    0    0    0    0 -0.00000000000E+00 -0.00000000000E+00 -0.45593999997E+02  0.45594000000E+02  0.51100000000E-03 0. -1.
    9900012    2    1    2    0    0  0.37708312675E+00  0.78981562834E+00 -0.79187830649E+00  0.90007715431E+02  0.89999976475E+02 0.  0.
        -12    1    1    2    0    0 -0.37708312675E+00 -0.78981562834E+00  0.79187830649E+00  0.11802845689E+01  0.00000000000E+00 0.  1.
         11    1    3    3    0    0  0.73457243673E+01  0.14463798134E+01 -0.36553705480E+02  0.37312532287E+02  0.51100000000E-03 0. -1.
        -11    1    3    3    0    0 -0.16258480214E+01 -0.63152074849E+01 -0.68036195396E+01  0.94241427444E+01  0.51100000000E-03 0.  1.
        -12    1    3    3    0    0 -0.53427932192E+01  0.56586432998E+01  0.42565446713E+02  0.43271040400E+02  0.00000000000E+00 0.  1.
</event>
<event>
 7    1  0.1910099E-015  0.9000774E+02  0.7816164E-02  0.1186339E+00
        -11   -1    0    0    0    0  0.00000000000E+00  0.00000000000E+00  0.45593999997E+02  0.45594000000E+02  0.51100000000E-03 0. -1.
         11   -1    0    0    0    0 -0.00000000000E+00 -0.00000000000E+00 -0.45593999997E+02  0.45594000000E+02  0.51100000000E-03 0.  1.
    9900012    2    1    2    0    0 -0.82906218045E+00  0.16662615584E+00  0.82335633516E+00  0.90007735610E+02  0.89999996920E+02 0.  0.
        -12    1    1    2    0    0  0.82906218045E+00 -0.16662615584E+00 -0.82335633516E+00  0.11802643897E+01  0.00000000000E+00 0.  1.
         11    1    3    3    0    0 -0.32861083868E+01  0.12434561467E+02 -0.52564659374E+01  0.13894144868E+02  0.51100000000E-03 0. -1.
        -11    1    3    3    0    0 -0.33805749976E+00  0.27898290839E+02 -0.13893674470E+02  0.31168302892E+02  0.51100000000E-03 0.  1.
         12    1    3    3    0    0  0.27951037061E+01 -0.40166226150E+02  0.19973496743E+02  0.44945287851E+02  0.00000000000E+00 0. -1.
</event>
<event>
 7    1  0.1910099E-015  0.9000778E+02  0.7816164E-02  0.1186339E+00
        -11   -1    0    0    0    0  0.00000000000E+00  0.00000000000E+00  0.45593999997E+02  0.45594000000E+02  0.51100000000E-03 0.  1.
         11   -1    0    0    0    0 -0.00000000000E+00 -0.00000000000E+00 -0.45593999997E+02  0.45594000000E+02  0.51100000000E-03 0. -1.
    9900012    2    1    2    0    0 -0.27879303442E+00  0.84570062712E+00 -0.77457933355E+00  0.90007784659E+02  0.90000046617E+02 0.  0.
        -12    1    1    2    0    0  0.27879303442E+00 -0.84570062712E+00  0.77457933355E+00  0.11802153408E+01  0.00000000000E+00 0.  1.
         11    1    3    3    0    0 -0.29435242355E+00 -0.57127183340E+01  0.38398808414E+01  0.68895920960E+01  0.51100000000E-03 0. -1.
        -11    1    3    3    0    0 -0.21211580196E+02  0.41807092265E+01  0.33240513686E+02  0.39652757968E+02  0.51100000000E-03 0.  1.
         12    1    3    3    0    0  0.21227139585E+02  0.23777097346E+01 -0.37854973861E+02  0.43465434596E+02  0.00000000000E+00 0. -1.
</event>
<event>
 7    1  0.2484622E-015  0.9000787E+02  0.7816164E-02  0.1186339E+00
        -11   -1    0    0    0    0  0.00000000000E+00  0.00000000000E+00  0.45593999997E+02  0.45594000000E+02  0.51100000000E-03 0.  1.
         11   -1    0    0    0    0 -0.00000000000E+00 -0.00000000000E+00 -0.45593999997E+02  0.45594000000E+02  0.51100000000E-03 0. -1.
    9900012    2    1    2    0    0  0.45529444249E+00  0.50806405396E-01 -0.10875847257E+01  0.90007866594E+02  0.90000129633E+02 0.  0.
        -12    1    1    2    0    0 -0.45529444249E+00 -0.50806405396E-01  0.10875847257E+01  0.11801334059E+01  0.00000000000E+00 0.  1.
         11    1    3    3    0    0 -0.13337338517E+01 -0.28718563493E+01  0.86095211366E+01  0.91733450465E+01  0.51100000000E-03 0. -1.
        -11    1    3    3    0    0 -0.26914016449E+02 -0.15867288168E+02  0.18602685243E+02  0.36361999584E+02  0.51100000000E-03 0.  1.
         12    1    3    3    0    0  0.28703044743E+02  0.18789950922E+02 -0.28299791105E+02  0.44472521964E+02  0.00000000000E+00 0. -1.
</event>
<event>
 7    1  0.1910099E-015  0.9000717E+02  0.7816164E-02  0.1186340E+00
        -11   -1    0    0    0    0  0.00000000000E+00  0.00000000000E+00  0.45593999997E+02  0.45594000000E+02  0.51100000000E-03 0.  1.
         11   -1    0    0    0    0 -0.00000000000E+00 -0.00000000000E+00 -0.45593999997E+02  0.45594000000E+02  0.51100000000E-03 0. -1.
    9900012    2    1    2    0    0  0.40138303333E+00 -0.10238164175E+01  0.43016711061E+00  0.90007173112E+02  0.89999426995E+02 0.  0.
        -12    1    1    2    0    0 -0.40138303333E+00  0.10238164175E+01 -0.43016711061E+00  0.11808268879E+01  0.00000000000E+00 0.  1.
         11    1    3    3    0    0  0.80931123678E+01  0.14986914492E+01 -0.34203687118E+02  0.35180061919E+02  0.51100000000E-03 0. -1.
        -11    1    3    3    0    0  0.25479347275E+01  0.97938667774E+01 -0.55690709414E+01  0.11551032389E+02  0.51100000000E-03 0.  1.
        -12    1    3    3    0    0 -0.10239664062E+02 -0.12316374644E+02  0.40202925170E+02  0.43276078805E+02  0.00000000000E+00 0.  1.
</event>
<event>
 7    1  0.1910099E-015  0.9000776E+02  0.7816164E-02  0.1186339E+00
        -11   -1    0    0    0    0  0.00000000000E+00  0.00000000000E+00  0.45593999997E+02  0.45594000000E+02  0.51100000000E-03 0. -1.
         11   -1    0    0    0    0 -0.00000000000E+00 -0.00000000000E+00 -0.45593999997E+02  0.45594000000E+02  0.51100000000E-03 0.  1.
    9900012    2    1    2    0    0  0.88631716823E+00 -0.11537009506E+00  0.77078060060E+00  0.90007758027E+02  0.90000019633E+02 0.  0.
        -12    1    1    2    0    0 -0.88631716823E+00  0.11537009506E+00 -0.77078060060E+00  0.11802419734E+01  0.00000000000E+00 0.  1.
         11    1    3    3    0    0  0.39978356944E+01 -0.50729342841E+01  0.74111963108E+01  0.98307264995E+01  0.51100000000E-03 0. -1.
        -11    1    3    3    0    0  0.17455249087E+01 -0.36843024782E+02  0.29964625033E+01  0.37005866023E+02  0.51100000000E-03 0.  1.
         12    1    3    3    0    0 -0.48570434349E+01  0.41800588971E+02 -0.96368782136E+01  0.43171165504E+02  0.00000000000E+00 0. -1.
</event>
<event>
 7    1  0.1910099E-015  0.9000777E+02  0.7816164E-02  0.1186339E+00
        -11   -1    0    0    0    0  0.00000000000E+00  0.00000000000E+00  0.45593999997E+02  0.45594000000E+02  0.51100000000E-03 0. -1.
         11   -1    0    0    0    0 -0.00000000000E+00 -0.00000000000E+00 -0.45593999997E+02  0.45594000000E+02  0.51100000000E-03 0.  1.
    9900012    2    1    2    0    0  0.10149563514E+01 -0.24577467679E+00  0.54990240528E+00  0.90007773648E+02  0.90000035460E+02 0.  0.
        -12    1    1    2    0    0 -0.10149563514E+01  0.24577467679E+00 -0.54990240528E+00  0.11802263522E+01  0.00000000000E+00 0.  1.
         11    1    3    3    0    0  0.13190283283E+00  0.84267222775E+01 -0.11533856666E+01  0.85063120950E+01  0.51100000000E-03 0. -1.
        -11    1    3    3    0    0  0.96851556238E+01  0.35222049233E+02  0.35027757668E+01  0.36696926710E+02  0.51100000000E-03 0.  1.
         12    1    3    3    0    0 -0.88021021052E+01 -0.43894546188E+02 -0.17994876950E+01  0.44804534843E+02  0.00000000000E+00 0. -1.
</event>
<event>
 7    1  0.1910099E-015  0.9000789E+02  0.7816164E-02  0.1186339E+00
        -11   -1    0    0    0    0  0.00000000000E+00  0.00000000000E+00  0.45593999997E+02  0.45594000000E+02  0.51100000000E-03 0. -1.
         11   -1    0    0    0    0 -0.00000000000E+00 -0.00000000000E+00 -0.45593999997E+02  0.45594000000E+02  0.51100000000E-03 0.  1.
    9900012    2    1    2    0    0  0.62886083705E+00 -0.15663324157E+00  0.98623570572E+00  0.90007889500E+02  0.90000152841E+02 0.  0.
        -12    1    1    2    0    0 -0.62886083705E+00  0.15663324157E+00 -0.98623570572E+00  0.11801104999E+01  0.00000000000E+00 0.  1.
         11    1    3    3    0    0  0.12942238541E+02  0.28074151307E+02 -0.19346782684E+02  0.36468582514E+02  0.51100000000E-03 0. -1.
        -11    1    3    3    0    0  0.59294759660E+01 -0.22328428240E+01 -0.85285032300E+01  0.10624483042E+02  0.51100000000E-03 0.  1.
        -12    1    3    3    0    0 -0.18242853670E+02 -0.25997941725E+02  0.28861521620E+02  0.42914823944E+02  0.00000000000E+00 0.  1.
</event>
<event>
 7    1  0.1910099E-015  0.9000781E+02  0.7816164E-02  0.1186339E+00
        -11   -1    0    0    0    0  0.00000000000E+00  0.00000000000E+00  0.45593999997E+02  0.45594000000E+02  0.51100000000E-03 0.  1.
         11   -1    0    0    0    0 -0.00000000000E+00 -0.00000000000E+00 -0.45593999997E+02  0.45594000000E+02  0.51100000000E-03 0. -1.
    9900012    2    1    2    0    0  0.10021876073E+01 -0.17536888866E+00  0.59809049534E+00  0.90007810825E+02  0.90000073128E+02 0.  0.
        -12    1    1    2    0    0 -0.10021876073E+01  0.17536888866E+00 -0.59809049534E+00  0.11801891746E+01  0.00000000000E+00 0.  1.
         11    1    3    3    0    0  0.54498578937E+01  0.63866842080E+01 -0.46000714078E+01  0.95734708154E+01  0.51100000000E-03 0. -1.
        -11    1    3    3    0    0 -0.15770632460E+02  0.15137358982E+02  0.35371997039E+02  0.41581614446E+02  0.51100000000E-03 0.  1.
         12    1    3    3    0    0  0.11322962174E+02 -0.21699412079E+02 -0.30173835136E+02  0.38852725564E+02  0.00000000000E+00 0. -1.
</event>
<event>
 7    1  0.1910099E-015  0.9000776E+02  0.7816164E-02  0.1186339E+00
        -11   -1    0    0    0    0  0.00000000000E+00  0.00000000000E+00  0.45593999997E+02  0.45594000000E+02  0.51100000000E-03 0. -1.
         11   -1    0    0    0    0 -0.00000000000E+00 -0.00000000000E+00 -0.45593999997E+02  0.45594000000E+02  0.51100000000E-03 0.  1.
    9900012    2    1    2    0    0 -0.90224599630E+00 -0.23382484644E+00  0.72405351215E+00  0.90007756218E+02  0.90000017800E+02 0.  0.
        -12    1    1    2    0    0  0.90224599630E+00  0.23382484644E+00 -0.72405351215E+00  0.11802437821E+01  0.00000000000E+00 0.  1.
         11    1    3    3    0    0  0.70031205842E+01 -0.11399690573E+02 -0.11393117517E+02  0.17572699568E+02  0.51100000000E-03 0. -1.
        -11    1    3    3    0    0  0.21057818681E+01  0.43143673990E+01 -0.29087846571E+02  0.29481365330E+02  0.51100000000E-03 0.  1.
         12    1    3    3    0    0 -0.10011148449E+02  0.68514983278E+01  0.41205017600E+02  0.42953691320E+02  0.00000000000E+00 0. -1.
</event>
<event>
 7    1  0.1910099E-015  0.9000774E+02  0.7816164E-02  0.1186339E+00
        -11   -1    0    0    0    0  0.00000000000E+00  0.00000000000E+00  0.45593999997E+02  0.45594000000E+02  0.51100000000E-03 0.  1.
         11   -1    0    0    0    0 -0.00000000000E+00 -0.00000000000E+00 -0.45593999997E+02  0.45594000000E+02  0.51100000000E-03 0. -1.
    9900012    2    1    2    0    0  0.50921687523E-01 -0.31218771934E+00 -0.11370823869E+01  0.90007741323E+02  0.90000002708E+02 0.  0.
        -12    1    1    2    0    0 -0.50921687523E-01  0.31218771934E+00  0.11370823869E+01  0.11802586772E+01  0.00000000000E+00 0.  1.
         11    1    3    3    0    0 -0.38720981717E+02 -0.15449391372E+02 -0.28511539078E+01  0.41786686849E+02  0.51100000000E-03 0. -1.
        -11    1    3    3    0    0  0.52440884957E+00  0.69680929271E+01  0.55493836353E+01  0.89232831781E+01  0.51100000000E-03 0.  1.
        -12    1    3    3    0    0  0.38247494555E+02  0.81691107258E+01 -0.38353121145E+01  0.39297771296E+02  0.00000000000E+00 0.  1.
</event>
<event>
 7    1  0.1910099E-015  0.9000788E+02  0.7816164E-02  0.1186339E+00
        -11   -1    0    0    0    0  0.00000000000E+00  0.00000000000E+00  0.45593999997E+02  0.45594000000E+02  0.51100000000E-03 0.  1.
         11   -1    0    0    0    0 -0.00000000000E+00 -0.00000000000E+00 -0.45593999997E+02  0.45594000000E+02  0.51100000000E-03 0. -1.
    9900012    2    1    2    0    0 -0.39954063422E+00 -0.11100052529E+01  0.30560926454E-01  0.90007882061E+02  0.90000145304E+02 0.  0.
        -12    1    1    2    0    0  0.39954063422E+00  0.11100052529E+01 -0.30560926454E-01  0.11801179391E+01  0.00000000000E+00 0.  1.
         11    1    3    3    0    0 -0.25865086522E+02  0.90873613143E+01 -0.31621779854E+02  0.41851162443E+02  0.51100000000E-03 0. -1.
        -11    1    3    3    0    0  0.70304772711E+01 -0.51325273570E+01 -0.24658879322E+01  0.90471570830E+01  0.51100000000E-03 0.  1.
        -12    1    3    3    0    0  0.18435068617E+02 -0.50648392102E+01  0.34118228713E+02  0.39109562535E+02  0.00000000000E+00 0.  1.
</event>
<event>
 7    1  0.1910099E-015  0.9000736E+02  0.7816164E-02  0.1186340E+00
        -11   -1    0    0    0    0  0.00000000000E+00  0.00000000000E+00  0.45593999997E+02  0.45594000000E+02  0.51100000000E-03 0.  1.
         11   -1    0    0    0    0 -0.00000000000E+00 -0.00000000000E+00 -0.45593999997E+02  0.45594000000E+02  0.51100000000E-03 0. -1.
    9900012    2    1    2    0    0 -0.55659475199E+00 -0.26919947502E+00 -0.10058040616E+01  0.90007361238E+02  0.89999617606E+02 0.  0.
        -12    1    1    2    0    0  0.55659475199E+00  0.26919947502E+00  0.10058040616E+01  0.11806387617E+01  0.00000000000E+00 0.  1.
         11    1    3    3    0    0  0.90015798677E+01  0.12053639942E+01  0.35015400732E+01  0.97335566788E+01  0.51100000000E-03 0. -1.
        -11    1    3    3    0    0  0.11312167590E+02 -0.24042998614E+02 -0.30189853286E+02  0.40217634933E+02  0.51100000000E-03 0.  1.
         12    1    3    3    0    0 -0.20870342210E+02  0.22568435144E+02  0.25682509151E+02  0.40056169626E+02  0.00000000000E+00 0. -1.
</event>
<event>
 7    1  0.1910099E-015  0.9000772E+02  0.7816164E-02  0.1186339E+00
        -11   -1    0    0    0    0  0.00000000000E+00  0.00000000000E+00  0.45593999997E+02  0.45594000000E+02  0.51100000000E-03 0. -1.
         11   -1    0    0    0    0 -0.00000000000E+00 -0.00000000000E+00 -0.45593999997E+02  0.45594000000E+02  0.51100000000E-03 0.  1.
    9900012    2    1    2    0    0 -0.75669520188E+00 -0.43161265112E+00 -0.79635157321E+00  0.90007723364E+02  0.89999984512E+02 0.  0.
        -12    1    1    2    0    0  0.75669520188E+00  0.43161265112E+00  0.79635157321E+00  0.11802766359E+01  0.00000000000E+00 0.  1.
         11    1    3    3    0    0 -0.45007490376E+01 -0.19544439045E+01 -0.95535763466E+01  0.10739991348E+02  0.51100000000E-03 0. -1.
        -11    1    3    3    0    0 -0.67699324294E+01 -0.18758544497E+02 -0.28965472340E+02  0.35166938520E+02  0.51100000000E-03 0.  1.
         12    1    3    3    0    0  0.10513986265E+02  0.20281375750E+02  0.37722697113E+02  0.44100793496E+02  0.00000000000E+00 0. -1.
</event>
<event>
 7    1  0.1910099E-015  0.9000778E+02  0.7816164E-02  0.1186339E+00
        -11   -1    0    0    0    0  0.00000000000E+00  0.00000000000E+00  0.45593999997E+02  0.45594000000E+02  0.51100000000E-03 0. -1.
         11   -1    0    0    0    0 -0.00000000000E+00 -0.00000000000E+00 -0.45593999997E+02  0.45594000000E+02  0.51100000000E-03 0.  1.
    9900012    2    1    2    0    0 -0.53419539020E+00  0.94554931104E+00 -0.46206081120E+00  0.90007776120E+02  0.90000037964E+02 0.  0.
        -12    1    1    2    0    0  0.53419539020E+00 -0.94554931104E+00  0.46206081120E+00  0.11802238804E+01  0.00000000000E+00 0.  1.
         11    1    3    3    0    0  0.18502107866E+02 -0.15325194439E+02  0.28890653477E+02  0.37574718079E+02  0.51100000000E-03 0. -1.
        -11    1    3    3    0    0  0.22153748566E+01  0.31987156034E-01  0.69768599314E+01  0.73202106320E+01  0.51100000000E-03 0.  1.
        -12    1    3    3    0    0 -0.21251678113E+02  0.16238756594E+02 -0.36329574220E+02  0.45112847409E+02  0.00000000000E+00 0.  1.
</event>
<event>
 7    1  0.1910099E-015  0.9000769E+02  0.7816164E-02  0.1186339E+00
        -11   -1    0    0    0    0  0.00000000000E+00  0.00000000000E+00  0.45593999997E+02  0.45594000000E+02  0.51100000000E-03 0. -1.
         11   -1    0    0    0    0 -0.00000000000E+00 -0.00000000000E+00 -0.45593999997E+02  0.45594000000E+02  0.51100000000E-03 0.  1.
    9900012    2    1    2    0    0  0.75291805872E+00 -0.23103783887E-01  0.90868841618E+00  0.90007689013E+02  0.89999949708E+02 0.  0.
        -12    1    1    2    0    0 -0.75291805872E+00  0.23103783887E-01 -0.90868841618E+00  0.11803109868E+01  0.00000000000E+00 0.  1.
         11    1    3    3    0    0  0.76000945601E+01  0.27147076241E+02  0.24757542425E+02  0.37518809854E+02  0.51100000000E-03 0. -1.
        -11    1    3    3    0    0 -0.18862520544E+01 -0.19008929517E+01  0.97758341811E+01  0.10135989099E+02  0.51100000000E-03 0.  1.
        -12    1    3    3    0    0 -0.49609244470E+01 -0.25269287073E+02 -0.33624688189E+02  0.42352890059E+02  0.00000000000E+00 0.  1.
</event>
<event>
 7    1  0.1910099E-015  0.9000764E+02  0.7816164E-02  0.1186339E+00
        -11   -1    0    0    0    0  0.00000000000E+00  0.00000000000E+00  0.45593999997E+02  0.45594000000E+02  0.51100000000E-03 0.  1.
         11   -1    0    0    0    0 -0.00000000000E+00 -0.00000000000E+00 -0.45593999997E+02  0.45594000000E+02  0.51100000000E-03 0. -1.
    9900012    2    1    2    0    0 -0.18692001740E+00 -0.11471810275E+01  0.20564321683E+00  0.90007638811E+02  0.89999898844E+02 0.  0.
        -12    1    1    2    0    0  0.18692001740E+00  0.11471810275E+01 -0.20564321683E+00  0.11803611886E+01  0.00000000000E+00 0.  1.
         11    1    3    3    0    0  0.14260583221E+02 -0.30169485910E+02 -0.19951725682E+02  0.38879730861E+02  0.51100000000E-03 0. -1.
        -11    1    3    3    0    0 -0.74913526642E+01 -0.53565703939E+01 -0.22830435845E+01  0.94881768214E+01  0.51100000000E-03 0.  1.
        -12    1    3    3    0    0 -0.69561505747E+01  0.34378875276E+02  0.22440412483E+02  0.41639731129E+02  0.00000000000E+00 0.  1.
</event>
<event>
 7    1  0.4594183E-015  0.9000778E+02  0.7816164E-02  0.1186339E+00
        -11   -1    0    0    0    0  0.00000000000E+00  0.00000000000E+00  0.45593999997E+02  0.45594000000E+02  0.51100000000E-03 0. -1.
         11   -1    0    0    0    0 -0.00000000000E+00 -0.00000000000E+00 -0.45593999997E+02  0.45594000000E+02  0.51100000000E-03 0.  1.
    9900012    2    1    2    0    0 -0.56131054995E+00 -0.22883329448E-01  0.10379472421E+01  0.90007776437E+02  0.90000038286E+02 0.  0.
        -12    1    1    2    0    0  0.56131054995E+00  0.22883329448E-01 -0.10379472421E+01  0.11802235626E+01  0.00000000000E+00 0.  1.
         11    1    3    3    0    0 -0.81698350348E+00 -0.49241666630E+00 -0.89132423972E+01  0.89641411474E+01  0.51100000000E-03 0. -1.
        -11    1    3    3    0    0  0.10629126486E+02 -0.88293198366E+01 -0.33060557518E+02  0.35832048257E+02  0.51100000000E-03 0.  1.
         12    1    3    3    0    0 -0.10373453532E+02  0.92988531735E+01  0.43011747157E+02  0.45211587033E+02  0.00000000000E+00 0. -1.
</event>
<event>
 7    1  0.1910099E-015  0.9000769E+02  0.7816164E-02  0.1186339E+00
        -11   -1    0    0    0    0  0.00000000000E+00  0.00000000000E+00  0.45593999997E+02  0.45594000000E+02  0.51100000000E-03 0. -1.
         11   -1    0    0    0    0 -0.00000000000E+00 -0.00000000000E+00 -0.45593999997E+02  0.45594000000E+02  0.51100000000E-03 0.  1.
    9900012    2    1    2    0    0 -0.46591052100E-02 -0.10856929620E+01 -0.46300543889E+00  0.90007692857E+02  0.89999953603E+02 0.  0.
        -12    1    1    2    0    0  0.46591052100E-02  0.10856929620E+01  0.46300543889E+00  0.11803071428E+01  0.00000000000E+00 0.  1.
         11    1    3    3    0    0 -0.56547538058E+01 -0.72478243103E+01 -0.17698739903E+01  0.93616052064E+01  0.51100000000E-03 0. -1.
        -11    1    3    3    0    0  0.15512502839E+02 -0.26437718855E+01 -0.36954100775E+02  0.40165069879E+02  0.51100000000E-03 0.  1.
         12    1    3    3    0    0 -0.98624081380E+01  0.88059032338E+01  0.38260969326E+02  0.40481017771E+02  0.00000000000E+00 0. -1.
</event>
<event>
 7    1  0.1910099E-015  0.9000776E+02  0.7816164E-02  0.1186339E+00
        -11   -1    0    0    0    0  0.00000000000E+00  0.00000000000E+00  0.45593999997E+02  0.45594000000E+02  0.51100000000E-03 0.  1.
         11   -1    0    0    0    0 -0.00000000000E+00 -0.00000000000E+00 -0.45593999997E+02  0.45594000000E+02  0.51100000000E-03 0. -1.
    9900012    2    1    2    0    0 -0.51641109339E+00  0.10571182590E+01  0.93753603995E-01  0.90007758851E+02  0.90000020468E+02 0.  0.
        -12    1    1    2    0    0  0.51641109339E+00 -0.10571182590E+01 -0.93753603995E-01  0.11802411487E+01  0.00000000000E+00 0.  1.
         11    1    3    3    0    0 -0.71433677514E+00  0.83671525633E+01 -0.50324579254E+01  0.97900537321E+01  0.51100000000E-03 0. -1.
        -11    1    3    3    0    0  0.28984395349E+02  0.85825870535E+01  0.27158492142E+02  0.40636678875E+02  0.51100000000E-03 0.  1.
         12    1    3    3    0    0 -0.28786469668E+02 -0.15892621358E+02 -0.22032280613E+02  0.39581026244E+02  0.00000000000E+00 0. -1.
</event>
<event>
 7    1  0.1910099E-015  0.9000773E+02  0.7816164E-02  0.1186339E+00
        -11   -1    0    0    0    0  0.00000000000E+00  0.00000000000E+00  0.45593999997E+02  0.45594000000E+02  0.51100000000E-03 0. -1.
         11   -1    0    0    0    0 -0.00000000000E+00 -0.00000000000E+00 -0.45593999997E+02  0.45594000000E+02  0.51100000000E-03 0.  1.
    9900012    2    1    2    0    0 -0.10919978846E+01  0.95495612963E-01  0.43756963190E+00  0.90007726314E+02  0.89999987501E+02 0.  0.
        -12    1    1    2    0    0  0.10919978846E+01 -0.95495612963E-01 -0.43756963190E+00  0.11802736864E+01  0.00000000000E+00 0.  1.
         11    1    3    3    0    0 -0.34334680830E+02 -0.80343257578E+01 -0.53938335611E+01  0.35672316140E+02  0.51100000000E-03 0. -1.
        -11    1    3    3    0    0 -0.97611210591E+01  0.25686376848E+01 -0.19521261332E+01  0.10280475698E+02  0.51100000000E-03 0.  1.
        -12    1    3    3    0    0  0.43003804004E+02  0.55611836859E+01  0.77835293263E+01  0.44054934475E+02  0.00000000000E+00 0.  1.
</event>
<event>
 7    1  0.1910099E-015  0.9000774E+02  0.7816164E-02  0.1186339E+00
        -11   -1    0    0    0    0  0.00000000000E+00  0.00000000000E+00  0.45593999997E+02  0.45594000000E+02  0.51100000000E-03 0.  1.
         11   -1    0    0    0    0 -0.00000000000E+00 -0.00000000000E+00 -0.45593999997E+02  0.45594000000E+02  0.51100000000E-03 0. -1.
    9900012    2    1    2    0    0  0.80470691621E+00 -0.23398092693E+00 -0.83109586826E+00  0.90007737047E+02  0.89999998376E+02 0.  0.
        -12    1    1    2    0    0 -0.80470691621E+00  0.23398092693E+00  0.83109586826E+00  0.11802629527E+01  0.00000000000E+00 0.  1.
         11    1    3    3    0    0  0.10426308152E+02 -0.35303855585E+02 -0.23617853599E+01  0.36886964516E+02  0.51100000000E-03 0. -1.
        -11    1    3    3    0    0  0.42935673288E+01 -0.64169503027E+01 -0.45191990111E+01  0.89462356081E+01  0.51100000000E-03 0.  1.
        -12    1    3    3    0    0 -0.13915168564E+02  0.41486824961E+02  0.60498885027E+01  0.44174536923E+02  0.00000000000E+00 0.  1.
</event>
<event>
 7    1  0.1910099E-015  0.9000798E+02  0.7816164E-02  0.1186339E+00
        -11   -1    0    0    0    0  0.00000000000E+00  0.00000000000E+00  0.45593999997E+02  0.45594000000E+02  0.51100000000E-03 0.  1.
         11   -1    0    0    0    0 -0.00000000000E+00 -0.00000000000E+00 -0.45593999997E+02  0.45594000000E+02  0.51100000000E-03 0. -1.
    9900012    2    1    2    0    0  0.50130592015E+00 -0.10128388307E+01 -0.33956512335E+00  0.90007976867E+02  0.90000241361E+02 0.  0.
        -12    1    1    2    0    0 -0.50130592015E+00  0.10128388307E+01  0.33956512335E+00  0.11800231334E+01  0.00000000000E+00 0.  1.
         11    1    3    3    0    0 -0.31894144634E+02  0.13786883899E+02 -0.14291634185E+01  0.34775812542E+02  0.51100000000E-03 0. -1.
        -11    1    3    3    0    0 -0.83264164626E+01 -0.15616555509E+01 -0.77818100182E+01  0.11503240699E+02  0.51100000000E-03 0.  1.
        -12    1    3    3    0    0  0.40721867017E+02 -0.13238067179E+02  0.88714083133E+01  0.43728923625E+02  0.00000000000E+00 0.  1.
</event>
<event>
 7    1  0.1910099E-015  0.9000834E+02  0.7816164E-02  0.1186338E+00
        -11   -1    0    0    0    0  0.00000000000E+00  0.00000000000E+00  0.45593999997E+02  0.45594000000E+02  0.51100000000E-03 0.  1.
         11   -1    0    0    0    0 -0.00000000000E+00 -0.00000000000E+00 -0.45593999997E+02  0.45594000000E+02  0.51100000000E-03 0. -1.
    9900012    2    1    2    0    0 -0.20945139422E+00 -0.52999313174E-01 -0.11597102786E+01  0.90008336173E+02  0.90000605409E+02 0.  0.
        -12    1    1    2    0    0  0.20945139422E+00  0.52999313174E-01  0.11597102786E+01  0.11796638267E+01  0.00000000000E+00 0.  1.
         11    1    3    3    0    0 -0.73155792973E+01  0.13834247533E+02 -0.41791144867E+02  0.44625148681E+02  0.51100000000E-03 0. -1.
        -11    1    3    3    0    0  0.55018401807E+01  0.35923735186E+00  0.77392153732E+01  0.95023550609E+01  0.51100000000E-03 0.  1.
        -12    1    3    3    0    0  0.16042877223E+01 -0.14246484198E+02  0.32892219215E+02  0.35880832432E+02  0.00000000000E+00 0.  1.
</event>
<event>
 7    1  0.1910099E-015  0.9000765E+02  0.7816164E-02  0.1186339E+00
        -11   -1    0    0    0    0  0.00000000000E+00  0.00000000000E+00  0.45593999997E+02  0.45594000000E+02  0.51100000000E-03 0. -1.
         11   -1    0    0    0    0 -0.00000000000E+00 -0.00000000000E+00 -0.45593999997E+02  0.45594000000E+02  0.51100000000E-03 0.  1.
    9900012    2    1    2    0    0  0.90460648103E-01  0.26005344299E+00  0.11477848776E+01  0.90007652150E+02  0.89999912358E+02 0.  0.
        -12    1    1    2    0    0 -0.90460648103E-01 -0.26005344299E+00 -0.11477848776E+01  0.11803478501E+01  0.00000000000E+00 0.  1.
         11    1    3    3    0    0 -0.13129231715E+02  0.36874839372E+02  0.15182141121E+02  0.41983662458E+02  0.51100000000E-03 0. -1.
        -11    1    3    3    0    0  0.69477829253E+00  0.10443317830E+01  0.41744760606E+01  0.43588526461E+01  0.51100000000E-03 0.  1.
        -12    1    3    3    0    0  0.12524914071E+02 -0.37659117712E+02 -0.18208832304E+02  0.43665137045E+02  0.00000000000E+00 0.  1.
</event>
<event>
 7    1  0.1910099E-015  0.9000700E+02  0.7816164E-02  0.1186341E+00
        -11   -1    0    0    0    0  0.00000000000E+00  0.00000000000E+00  0.45593999997E+02  0.45594000000E+02  0.51100000000E-03 0.  1.
         11   -1    0    0    0    0 -0.00000000000E+00 -0.00000000000E+00 -0.45593999997E+02  0.45594000000E+02  0.51100000000E-03 0. -1.
    9900012    2    1    2    0    0 -0.46345678273E+00 -0.10547599757E+01 -0.25972662193E+00  0.90006996734E+02  0.89999248288E+02 0.  0.
        -12    1    1    2    0    0  0.46345678273E+00  0.10547599757E+01  0.25972662193E+00  0.11810032658E+01  0.00000000000E+00 0.  1.
         11    1    3    3    0    0 -0.65391389548E+01 -0.38245876524E+02 -0.84588234406E+00  0.38810087949E+02  0.51100000000E-03 0. -1.
        -11    1    3    3    0    0 -0.82046012085E+01 -0.23182397378E+01  0.31956376960E+01  0.91050434935E+01  0.51100000000E-03 0.  1.
        -12    1    3    3    0    0  0.14280283381E+02  0.39509356286E+02 -0.26094819739E+01  0.42091865292E+02  0.00000000000E+00 0.  1.
</event>
<event>
 7    1  0.1910099E-015  0.9000769E+02  0.7816164E-02  0.1186339E+00
        -11   -1    0    0    0    0  0.00000000000E+00  0.00000000000E+00  0.45593999997E+02  0.45594000000E+02  0.51100000000E-03 0.  1.
         11   -1    0    0    0    0 -0.00000000000E+00 -0.00000000000E+00 -0.45593999997E+02  0.45594000000E+02  0.51100000000E-03 0. -1.
    9900012    2    1    2    0    0  0.13916794898E+00  0.26110272840E-01 -0.11717895412E+01  0.90007686400E+02  0.89999947061E+02 0.  0.
        -12    1    1    2    0    0 -0.13916794898E+00 -0.26110272840E-01  0.11717895412E+01  0.11803135995E+01  0.00000000000E+00 0.  1.
         11    1    3    3    0    0  0.21515891549E+01 -0.13135279982E+02  0.54364155581E+01  0.14377744276E+02  0.51100000000E-03 0. -1.
        -11    1    3    3    0    0 -0.11685837581E+02 -0.17315662763E+02  0.23686503568E+02  0.31582296123E+02  0.51100000000E-03 0.  1.
         12    1    3    3    0    0  0.96734163753E+01  0.30477053017E+02 -0.30294708667E+02  0.44047646001E+02  0.00000000000E+00 0. -1.
</event>
<event>
 7    1  0.2375170E-015  0.9000789E+02  0.7816164E-02  0.1186339E+00
        -11   -1    0    0    0    0  0.00000000000E+00  0.00000000000E+00  0.45593999997E+02  0.45594000000E+02  0.51100000000E-03 0. -1.
         11   -1    0    0    0    0 -0.00000000000E+00 -0.00000000000E+00 -0.45593999997E+02  0.45594000000E+02  0.51100000000E-03 0.  1.
    9900012    2    1    2    0    0 -0.74865998156E+00  0.57864797526E-01  0.91039510500E+00  0.90007890111E+02  0.90000153460E+02 0.  0.
        -12    1    1    2    0    0  0.74865998156E+00 -0.57864797526E-01 -0.91039510500E+00  0.11801098889E+01  0.00000000000E+00 0.  1.
         11    1    3    3    0    0 -0.18292387046E+00  0.14875316858E+01 -0.91464201869E+01  0.92683986834E+01  0.51100000000E-03 0. -1.
        -11    1    3    3    0    0 -0.69394221323E+01 -0.19200228485E+02 -0.30097525420E+02  0.36368466975E+02  0.51100000000E-03 0.  1.
         12    1    3    3    0    0  0.63736860212E+01  0.17770561597E+02  0.40154340712E+02  0.44371024453E+02  0.00000000000E+00 0. -1.
</event>
<event>
 7    1  0.1910099E-015  0.9000773E+02  0.7816164E-02  0.1186339E+00
        -11   -1    0    0    0    0  0.00000000000E+00  0.00000000000E+00  0.45593999997E+02  0.45594000000E+02  0.51100000000E-03 0.  1.
         11   -1    0    0    0    0 -0.00000000000E+00 -0.00000000000E+00 -0.45593999997E+02  0.45594000000E+02  0.51100000000E-03 0. -1.
    9900012    2    1    2    0    0  0.57490876036E+00  0.37866897398E+00  0.95871060932E+00  0.90007730409E+02  0.89999991651E+02 0.  0.
        -12    1    1    2    0    0 -0.57490876036E+00 -0.37866897398E+00 -0.95871060932E+00  0.11802695908E+01  0.00000000000E+00 0.  1.
         11    1    3    3    0    0 -0.17107977005E+02  0.27745203491E+02 -0.20924563761E+02  0.38733920055E+02  0.51100000000E-03 0. -1.
        -11    1    3    3    0    0 -0.70263925163E+01  0.23640160500E+01  0.57599447852E+01  0.93880630520E+01  0.51100000000E-03 0.  1.
        -12    1    3    3    0    0  0.24709278282E+02 -0.29730550567E+02  0.16123329585E+02  0.41885747303E+02  0.00000000000E+00 0.  1.
</event>
<event>
 7    1  0.1910099E-015  0.9000773E+02  0.7816164E-02  0.1186339E+00
        -11   -1    0    0    0    0  0.00000000000E+00  0.00000000000E+00  0.45593999997E+02  0.45594000000E+02  0.51100000000E-03 0.  1.
         11   -1    0    0    0    0 -0.00000000000E+00 -0.00000000000E+00 -0.45593999997E+02  0.45594000000E+02  0.51100000000E-03 0. -1.
    9900012    2    1    2    0    0  0.29716888128E+00 -0.11420976387E+01  0.18382087811E-01  0.90007731276E+02  0.89999992529E+02 0.  0.
        -12    1    1    2    0    0 -0.29716888128E+00  0.11420976387E+01 -0.18382087811E-01  0.11802687243E+01  0.00000000000E+00 0.  1.
         11    1    3    3    0    0  0.17564474560E+02  0.30526904321E+02 -0.16386964538E+02  0.38845015910E+02  0.51100000000E-03 0. -1.
        -11    1    3    3    0    0 -0.77067206519E+01  0.57005034330E+01  0.10409416943E+01  0.96422426058E+01  0.51100000000E-03 0.  1.
        -12    1    3    3    0    0 -0.95605850272E+01 -0.37369505392E+02  0.15364404932E+02  0.41520472760E+02  0.00000000000E+00 0.  1.
</event>
<event>
 7    1  0.1910099E-015  0.9000774E+02  0.7816164E-02  0.1186339E+00
        -11   -1    0    0    0    0  0.00000000000E+00  0.00000000000E+00  0.45593999997E+02  0.45594000000E+02  0.51100000000E-03 0.  1.
         11   -1    0    0    0    0 -0.00000000000E+00 -0.00000000000E+00 -0.45593999997E+02  0.45594000000E+02  0.51100000000E-03 0. -1.
    9900012    2    1    2    0    0  0.82275566831E+00  0.64697443194E-01 -0.84373674412E+00  0.90007743951E+02  0.90000005371E+02 0.  0.
        -12    1    1    2    0    0 -0.82275566831E+00 -0.64697443194E-01  0.84373674412E+00  0.11802560495E+01  0.00000000000E+00 0.  1.
         11    1    3    3    0    0 -0.27847609159E+00 -0.10285861189E+02 -0.25403354893E+01  0.10598575092E+02  0.51100000000E-03 0. -1.
        -11    1    3    3    0    0  0.11866887764E+02 -0.32464807145E+02 -0.43904657350E+01  0.34843405657E+02  0.51100000000E-03 0.  1.
         12    1    3    3    0    0 -0.10765656004E+02  0.42815365776E+02  0.60870644802E+01  0.44565763202E+02  0.00000000000E+00 0. -1.
</event>
<event>
 7    1  0.1910099E-015  0.9000774E+02  0.7816164E-02  0.1186339E+00
        -11   -1    0    0    0    0  0.00000000000E+00  0.00000000000E+00  0.45593999997E+02  0.45594000000E+02  0.51100000000E-03 0. -1.
         11   -1    0    0    0    0 -0.00000000000E+00 -0.00000000000E+00 -0.45593999997E+02  0.45594000000E+02  0.51100000000E-03 0.  1.
    9900012    2    1    2    0    0 -0.64309655991E+00 -0.64136125107E+00  0.75371381175E+00  0.90007744964E+02  0.90000006398E+02 0.  0.
        -12    1    1    2    0    0  0.64309655991E+00  0.64136125107E+00 -0.75371381175E+00  0.11802550359E+01  0.00000000000E+00 0.  1.
         11    1    3    3    0    0 -0.62136147321E+01  0.42161710545E+01 -0.56016332291E+01  0.93682122892E+01  0.51100000000E-03 0. -1.
        -11    1    3    3    0    0 -0.17491709827E+02  0.27187179940E+02  0.20977803771E+02  0.38537915318E+02  0.51100000000E-03 0.  1.
         12    1    3    3    0    0  0.23062227999E+02 -0.32044712246E+02 -0.14622456730E+02  0.42101617356E+02  0.00000000000E+00 0. -1.
</event>
<event>
 7    1  0.1910099E-015  0.9000776E+02  0.7816164E-02  0.1186339E+00
        -11   -1    0    0    0    0  0.00000000000E+00  0.00000000000E+00  0.45593999997E+02  0.45594000000E+02  0.51100000000E-03 0. -1.
         11   -1    0    0    0    0 -0.00000000000E+00 -0.00000000000E+00 -0.45593999997E+02  0.45594000000E+02  0.51100000000E-03 0.  1.
    9900012    2    1    2    0    0 -0.48527880050E+00  0.91310756136E+00  0.56894561224E+00  0.90007762718E+02  0.90000024386E+02 0.  0.
        -12    1    1    2    0    0  0.48527880050E+00 -0.91310756136E+00 -0.56894561224E+00  0.11802372823E+01  0.00000000000E+00 0.  1.
         11    1    3    3    0    0 -0.35945044588E+01  0.81469833804E+01 -0.74143696785E+01  0.11587349934E+02  0.51100000000E-03 0. -1.
        -11    1    3    3    0    0  0.60573846653E+01  0.34257149761E+02 -0.42894643741E+01  0.35052014544E+02  0.51100000000E-03 0.  1.
         12    1    3    3    0    0 -0.29481590070E+01 -0.41491025580E+02  0.12272779665E+02  0.43368398240E+02  0.00000000000E+00 0. -1.
</event>
<event>
 7    1  0.1910099E-015  0.9000775E+02  0.7816164E-02  0.1186339E+00
        -11   -1    0    0    0    0  0.00000000000E+00  0.00000000000E+00  0.45593999997E+02  0.45594000000E+02  0.51100000000E-03 0. -1.
         11   -1    0    0    0    0 -0.00000000000E+00 -0.00000000000E+00 -0.45593999997E+02  0.45594000000E+02  0.51100000000E-03 0.  1.
    9900012    2    1    2    0    0 -0.83988160388E+00 -0.82736912128E+00  0.55161988165E-01  0.90007752731E+02  0.90000014267E+02 0.  0.
        -12    1    1    2    0    0  0.83988160388E+00  0.82736912128E+00 -0.55161988165E-01  0.11802472691E+01  0.00000000000E+00 0.  1.
         11    1    3    3    0    0 -0.30870435016E+02  0.10599138157E+02 -0.26736936519E+02  0.42192289135E+02  0.51100000000E-03 0. -1.
        -11    1    3    3    0    0  0.82375987391E+01  0.71489558956E+01  0.62143159781E+01  0.12553219775E+02  0.51100000000E-03 0.  1.
        -12    1    3    3    0    0  0.21792954673E+02 -0.18575463174E+02  0.20577782529E+02  0.35262243821E+02  0.00000000000E+00 0.  1.
</event>
<event>
 7    1  0.1910099E-015  0.9000694E+02  0.7816164E-02  0.1186341E+00
        -11   -1    0    0    0    0  0.00000000000E+00  0.00000000000E+00  0.45593999997E+02  0.45594000000E+02  0.51100000000E-03 0. -1.
         11   -1    0    0    0    0 -0.00000000000E+00 -0.00000000000E+00 -0.45593999997E+02  0.45594000000E+02  0.51100000000E-03 0.  1.
    9900012    2    1    2    0    0  0.16295212441E+00 -0.90622423470E+00 -0.73966834647E+00  0.90006939027E+02  0.89999189819E+02 0.  0.
        -12    1    1    2    0    0 -0.16295212441E+00  0.90622423470E+00  0.73966834647E+00  0.11810609727E+01  0.00000000000E+00 0.  1.
         11    1    3    3    0    0  0.15323442638E+02  0.31971170098E+02  0.23442096859E+02  0.42502888339E+02  0.51100000000E-03 0. -1.
        -11    1    3    3    0    0 -0.63797992613E+01 -0.19959645370E+01 -0.10842789206E+02  0.12737809508E+02  0.51100000000E-03 0.  1.
        -12    1    3    3    0    0 -0.87806912521E+01 -0.30881429796E+02 -0.13338976000E+02  0.34766241180E+02  0.00000000000E+00 0.  1.
</event>
<event>
 7    1  0.1910099E-015  0.9000769E+02  0.7816164E-02  0.1186339E+00
        -11   -1    0    0    0    0  0.00000000000E+00  0.00000000000E+00  0.45593999997E+02  0.45594000000E+02  0.51100000000E-03 0. -1.
         11   -1    0    0    0    0 -0.00000000000E+00 -0.00000000000E+00 -0.45593999997E+02  0.45594000000E+02  0.51100000000E-03 0.  1.
    9900012    2    1    2    0    0 -0.10327536533E+01 -0.56655047041E+00 -0.74588710820E-01  0.90007693675E+02  0.89999954432E+02 0.  0.
        -12    1    1    2    0    0  0.10327536533E+01  0.56655047041E+00  0.74588710820E-01  0.11803063245E+01  0.00000000000E+00 0.  1.
         11    1    3    3    0    0 -0.81301172197E+00 -0.13596529116E+01  0.12846485362E+02  0.12943795058E+02  0.51100000000E-03 0. -1.
        -11    1    3    3    0    0  0.19242701096E+02 -0.15461447846E+02 -0.35413928991E+02  0.43168093331E+02  0.51100000000E-03 0.  1.
         12    1    3    3    0    0 -0.19462443027E+02  0.16254550287E+02  0.22492854919E+02  0.33895805286E+02  0.00000000000E+00 0. -1.
</event>
<event>
 7    1  0.1910099E-015  0.9000774E+02  0.7816164E-02  0.1186339E+00
        -11   -1    0    0    0    0  0.00000000000E+00  0.00000000000E+00  0.45593999997E+02  0.45594000000E+02  0.51100000000E-03 0. -1.
         11   -1    0    0    0    0 -0.00000000000E+00 -0.00000000000E+00 -0.45593999997E+02  0.45594000000E+02  0.51100000000E-03 0.  1.
    9900012    2    1    2    0    0  0.59528770024E+00  0.54378359937E+00  0.86193684890E+00  0.90007744443E+02  0.90000005869E+02 0.  0.
        -12    1    1    2    0    0 -0.59528770024E+00 -0.54378359937E+00 -0.86193684890E+00  0.11802555573E+01  0.00000000000E+00 0.  1.
         11    1    3    3    0    0  0.40458927535E+01  0.63050671762E+01 -0.19478262613E+01  0.77406167503E+01  0.51100000000E-03 0. -1.
        -11    1    3    3    0    0  0.24367835181E+02  0.16087119451E+02 -0.24069352426E+02  0.37840725813E+02  0.51100000000E-03 0.  1.
         12    1    3    3    0    0 -0.27818440234E+02 -0.21848403028E+02  0.26879115536E+02  0.44426401879E+02  0.00000000000E+00 0. -1.
</event>
<event>
 7    1  0.1910099E-015  0.9000794E+02  0.7816164E-02  0.1186339E+00
        -11   -1    0    0    0    0  0.00000000000E+00  0.00000000000E+00  0.45593999997E+02  0.45594000000E+02  0.51100000000E-03 0.  1.
         11   -1    0    0    0    0 -0.00000000000E+00 -0.00000000000E+00 -0.45593999997E+02  0.45594000000E+02  0.51100000000E-03 0. -1.
    9900012    2    1    2    0    0  0.49156401385E+00 -0.86202534230E+00  0.63859847295E+00  0.90007944544E+02  0.90000208611E+02 0.  0.
        -12    1    1    2    0    0 -0.49156401385E+00  0.86202534230E+00 -0.63859847295E+00  0.11800554564E+01  0.00000000000E+00 0.  1.
         11    1    3    3    0    0  0.65011056100E+01  0.67353193821E+01  0.31747938269E+01  0.98847467057E+01  0.51100000000E-03 0. -1.
        -11    1    3    3    0    0 -0.16714468205E+02  0.25126965562E+02  0.22423462072E+02  0.37597200657E+02  0.51100000000E-03 0.  1.
         12    1    3    3    0    0  0.10704926609E+02 -0.32724310286E+02 -0.24959657426E+02  0.42525997181E+02  0.00000000000E+00 0. -1.
</event>
<event>
 7    1  0.1910099E-015  0.9000786E+02  0.7816164E-02  0.1186339E+00
        -11   -1    0    0    0    0  0.00000000000E+00  0.00000000000E+00  0.45593999997E+02  0.45594000000E+02  0.51100000000E-03 0. -1.
         11   -1    0    0    0    0 -0.00000000000E+00 -0.00000000000E+00 -0.45593999997E+02  0.45594000000E+02  0.51100000000E-03 0.  1.
    9900012    2    1    2    0    0  0.48357031124E+00  0.88258786346E+00  0.61638512392E+00  0.90007859244E+02  0.90000122186E+02 0.  0.
        -12    1    1    2    0    0 -0.48357031124E+00 -0.88258786346E+00 -0.61638512392E+00  0.11801407559E+01  0.00000000000E+00 0.  1.
         11    1    3    3    0    0 -0.10207900680E+02 -0.46686257453E+01 -0.42680753084E+00  0.11232963436E+02  0.51100000000E-03 0. -1.
        -11    1    3    3    0    0 -0.19654448760E+02 -0.17688150925E+02 -0.21780090994E+02  0.34256975978E+02  0.51100000000E-03 0.  1.
         12    1    3    3    0    0  0.30345919751E+02  0.23239364533E+02  0.22823283648E+02  0.44517919830E+02  0.00000000000E+00 0. -1.
</event>
<event>
 7    1  0.1910099E-015  0.9000769E+02  0.7816164E-02  0.1186339E+00
        -11   -1    0    0    0    0  0.00000000000E+00  0.00000000000E+00  0.45593999997E+02  0.45594000000E+02  0.51100000000E-03 0. -1.
         11   -1    0    0    0    0 -0.00000000000E+00 -0.00000000000E+00 -0.45593999997E+02  0.45594000000E+02  0.51100000000E-03 0.  1.
    9900012    2    1    2    0    0  0.11096848001E+01  0.12011737572E-01  0.40198031300E+00  0.90007689528E+02  0.89999950230E+02 0.  0.
        -12    1    1    2    0    0 -0.11096848001E+01 -0.12011737572E-01 -0.40198031300E+00  0.11803104717E+01  0.00000000000E+00 0.  1.
         11    1    3    3    0    0 -0.85459502836E+00  0.10292675779E+02 -0.44324248791E+01  0.11239034564E+02  0.51100000000E-03 0. -1.
        -11    1    3    3    0    0 -0.31697946447E+02 -0.20599497654E+02 -0.12109247569E+02  0.39695503392E+02  0.51100000000E-03 0.  1.
         12    1    3    3    0    0  0.33662226276E+02  0.10318833612E+02  0.16943652761E+02  0.39073151573E+02  0.00000000000E+00 0. -1.
</event>
<event>
 7    1  0.1910099E-015  0.9000794E+02  0.7816164E-02  0.1186339E+00
        -11   -1    0    0    0    0  0.00000000000E+00  0.00000000000E+00  0.45593999997E+02  0.45594000000E+02  0.51100000000E-03 0. -1.
         11   -1    0    0    0    0 -0.00000000000E+00 -0.00000000000E+00 -0.45593999997E+02  0.45594000000E+02  0.51100000000E-03 0.  1.
    9900012    2    1    2    0    0  0.23900281932E+00  0.83842319356E+00  0.79528177115E+00  0.90007936911E+02  0.90000200878E+02 0.  0.
        -12    1    1    2    0    0 -0.23900281932E+00 -0.83842319356E+00 -0.79528177115E+00  0.11800630893E+01  0.00000000000E+00 0.  1.
         11    1    3    3    0    0 -0.24657743294E+01  0.50409324795E+01  0.99807890658E+01  0.11450204974E+02  0.51100000000E-03 0. -1.
        -11    1    3    3    0    0  0.27340905930E+02 -0.30972887035E+02 -0.84490232007E+01  0.42169074707E+02  0.51100000000E-03 0.  1.
         12    1    3    3    0    0 -0.24636128781E+02  0.26770377750E+02 -0.73648409388E+00  0.36388657230E+02  0.00000000000E+00 0. -1.
</event>
<event>
 7    1  0.1910099E-015  0.9000770E+02  0.7816164E-02  0.1186339E+00
        -11   -1    0    0    0    0  0.00000000000E+00  0.00000000000E+00  0.45593999997E+02  0.45594000000E+02  0.51100000000E-03 0. -1.
         11   -1    0    0    0    0 -0.00000000000E+00 -0.00000000000E+00 -0.45593999997E+02  0.45594000000E+02  0.51100000000E-03 0.  1.
    9900012    2    1    2    0    0  0.48838761079E+00 -0.97821172480E+00 -0.44461266283E+00  0.90007702979E+02  0.89999963859E+02 0.  0.
        -12    1    1    2    0    0 -0.48838761079E+00  0.97821172480E+00  0.44461266283E+00  0.11802970206E+01  0.00000000000E+00 0.  1.
         11    1    3    3    0    0  0.20370714477E+01  0.45008558905E+01 -0.92019546325E+01  0.10444296681E+02  0.51100000000E-03 0. -1.
        -11    1    3    3    0    0 -0.98155129491E+01  0.14573145927E+02 -0.30220614956E+02  0.34957208774E+02  0.51100000000E-03 0.  1.
         12    1    3    3    0    0  0.82668291122E+01 -0.20052213543E+02  0.38977956926E+02  0.44606197525E+02  0.00000000000E+00 0. -1.
</event>
<event>
 7    1  0.1910099E-015  0.9000766E+02  0.7816164E-02  0.1186339E+00
        -11   -1    0    0    0    0  0.00000000000E+00  0.00000000000E+00  0.45593999997E+02  0.45594000000E+02  0.51100000000E-03 0.  1.
         11   -1    0    0    0    0 -0.00000000000E+00 -0.00000000000E+00 -0.45593999997E+02  0.45594000000E+02  0.51100000000E-03 0. -1.
    9900012    2    1    2    0    0 -0.20485721672E+00  0.65645466787E+00 -0.95932907883E+00  0.90007656198E+02  0.89999916459E+02 0.  0.
        -12    1    1    2    0    0  0.20485721672E+00 -0.65645466787E+00  0.95932907883E+00  0.11803438023E+01  0.00000000000E+00 0.  1.
         11    1    3    3    0    0  0.24300731124E+02  0.23268512891E+02  0.13470395541E+02  0.36240871700E+02  0.51100000000E-03 0. -1.
        -11    1    3    3    0    0  0.64710325390E+01  0.64729900150E+01 -0.10174738200E+01  0.92091864511E+01  0.51100000000E-03 0.  1.
        -12    1    3    3    0    0 -0.30976620879E+02 -0.29085048238E+02 -0.13412250800E+02  0.44557598046E+02  0.00000000000E+00 0.  1.
</event>
<event>
 7    1  0.1910099E-015  0.9000777E+02  0.7816164E-02  0.1186339E+00
        -11   -1    0    0    0    0  0.00000000000E+00  0.00000000000E+00  0.45593999997E+02  0.45594000000E+02  0.51100000000E-03 0.  1.
         11   -1    0    0    0    0 -0.00000000000E+00 -0.00000000000E+00 -0.45593999997E+02  0.45594000000E+02  0.51100000000E-03 0. -1.
    9900012    2    1    2    0    0  0.88397554350E+00 -0.21544506412E+00 -0.75174146191E+00  0.90007769276E+02  0.90000031030E+02 0.  0.
        -12    1    1    2    0    0 -0.88397554350E+00  0.21544506412E+00  0.75174146191E+00  0.11802307244E+01  0.00000000000E+00 0.  1.
         11    1    3    3    0    0  0.10135776275E+02 -0.49821097955E+01 -0.26747045629E+01  0.11606438880E+02  0.51100000000E-03 0. -1.
        -11    1    3    3    0    0  0.26574967361E+02 -0.52741953360E+01  0.23087278611E+02  0.35595905110E+02  0.51100000000E-03 0.  1.
         12    1    3    3    0    0 -0.35826768092E+02  0.10040860067E+02 -0.21164315510E+02  0.42805425286E+02  0.00000000000E+00 0. -1.
</event>
<event>
 7    1  0.1910099E-015  0.9000773E+02  0.7816164E-02  0.1186339E+00
        -11   -1    0    0    0    0  0.00000000000E+00  0.00000000000E+00  0.45593999997E+02  0.45594000000E+02  0.51100000000E-03 0.  1.
         11   -1    0    0    0    0 -0.00000000000E+00 -0.00000000000E+00 -0.45593999997E+02  0.45594000000E+02  0.51100000000E-03 0. -1.
    9900012    2    1    2    0    0 -0.86739935036E-01 -0.82731113099E+00  0.83729826970E+00  0.90007730575E+02  0.89999991818E+02 0.  0.
        -12    1    1    2    0    0  0.86739935036E-01  0.82731113099E+00 -0.83729826970E+00  0.11802694253E+01  0.00000000000E+00 0.  1.
         11    1    3    3    0    0  0.10222502542E+02 -0.14741867041E+01  0.60268461708E+01  0.11958079264E+02  0.51100000000E-03 0. -1.
        -11    1    3    3    0    0 -0.19558355688E+02  0.35384034817E+02  0.48681915302E+01  0.40721720079E+02  0.51100000000E-03 0.  1.
         12    1    3    3    0    0  0.92491132110E+01 -0.34737159244E+02 -0.10057739431E+02  0.37327931231E+02  0.00000000000E+00 0. -1.
</event>
<event>
 7    1  0.1910099E-015  0.9000770E+02  0.7816164E-02  0.1186339E+00
        -11   -1    0    0    0    0  0.00000000000E+00  0.00000000000E+00  0.45593999997E+02  0.45594000000E+02  0.51100000000E-03 0. -1.
         11   -1    0    0    0    0 -0.00000000000E+00 -0.00000000000E+00 -0.45593999997E+02  0.45594000000E+02  0.51100000000E-03 0.  1.
    9900012    2    1    2    0    0 -0.50164293841E+00  0.10658620113E+01 -0.73545463935E-01  0.90007696480E+02  0.89999957273E+02 0.  0.
        -12    1    1    2    0    0  0.50164293841E+00 -0.10658620113E+01  0.73545463935E-01  0.11803035203E+01  0.00000000000E+00 0.  1.
         11    1    3    3    0    0 -0.48656943680E+01 -0.68540581915E+01 -0.29990408302E+01  0.89245359284E+01  0.51100000000E-03 0. -1.
        -11    1    3    3    0    0 -0.30426201976E+01 -0.33011096349E+02 -0.14246037359E+02  0.36082400150E+02  0.51100000000E-03 0.  1.
         12    1    3    3    0    0  0.74066716272E+01  0.40931016552E+02  0.17171532725E+02  0.45000760402E+02  0.00000000000E+00 0. -1.
</event>
<event>
 7    1  0.1910099E-015  0.9000771E+02  0.7816164E-02  0.1186339E+00
        -11   -1    0    0    0    0  0.00000000000E+00  0.00000000000E+00  0.45593999997E+02  0.45594000000E+02  0.51100000000E-03 0. -1.
         11   -1    0    0    0    0 -0.00000000000E+00 -0.00000000000E+00 -0.45593999997E+02  0.45594000000E+02  0.51100000000E-03 0.  1.
    9900012    2    1    2    0    0 -0.71926325542E+00 -0.37070074593E+00  0.85926140791E+00  0.90007708154E+02  0.89999969102E+02 0.  0.
        -12    1    1    2    0    0  0.71926325542E+00  0.37070074593E+00 -0.85926140791E+00  0.11802918456E+01  0.00000000000E+00 0.  1.
         11    1    3    3    0    0 -0.12508519675E+02 -0.37897646545E+02  0.97552726604E+00  0.39920500145E+02  0.51100000000E-03 0. -1.
        -11    1    3    3    0    0  0.91888311748E+01 -0.20076469903E+01  0.40664441865E+01  0.10247010948E+02  0.51100000000E-03 0.  1.
        -12    1    3    3    0    0  0.26004252450E+01  0.39534592790E+02 -0.41827100446E+01  0.39840197061E+02  0.00000000000E+00 0.  1.
</event>
<event>
 7    1  0.1910099E-015  0.9000776E+02  0.7816164E-02  0.1186339E+00
        -11   -1    0    0    0    0  0.00000000000E+00  0.00000000000E+00  0.45593999997E+02  0.45594000000E+02  0.51100000000E-03 0.  1.
         11   -1    0    0    0    0 -0.00000000000E+00 -0.00000000000E+00 -0.45593999997E+02  0.45594000000E+02  0.51100000000E-03 0. -1.
    9900012    2    1    2    0    0  0.63537526880E+00 -0.98440877134E+00 -0.14217276466E+00  0.90007756188E+02  0.90000017769E+02 0.  0.
        -12    1    1    2    0    0 -0.63537526880E+00  0.98440877134E+00  0.14217276466E+00  0.11802438122E+01  0.00000000000E+00 0.  1.
         11    1    3    3    0    0 -0.41279460646E+01 -0.37995733096E+02  0.99922255686E+01  0.39503926948E+02  0.51100000000E-03 0. -1.
        -11    1    3    3    0    0 -0.48454309281E+01 -0.45295150299E+00  0.67340802538E+01  0.83085018546E+01  0.51100000000E-03 0.  1.
        -12    1    3    3    0    0  0.96087522615E+01  0.37464275828E+02 -0.16868478587E+02  0.42195327385E+02  0.00000000000E+00 0.  1.
</event>
<event>
 7    1  0.1910099E-015  0.9000769E+02  0.7816164E-02  0.1186339E+00
        -11   -1    0    0    0    0  0.00000000000E+00  0.00000000000E+00  0.45593999997E+02  0.45594000000E+02  0.51100000000E-03 0. -1.
         11   -1    0    0    0    0 -0.00000000000E+00 -0.00000000000E+00 -0.45593999997E+02  0.45594000000E+02  0.51100000000E-03 0.  1.
    9900012    2    1    2    0    0  0.99239248382E+00  0.63427342406E+00 -0.77364115679E-01  0.90007690369E+02  0.89999951082E+02 0.  0.
        -12    1    1    2    0    0 -0.99239248382E+00 -0.63427342406E+00  0.77364115679E-01  0.11803096309E+01  0.00000000000E+00 0.  1.
         11    1    3    3    0    0  0.25245401539E+02  0.26751861795E+02  0.19565663946E+02  0.41663024545E+02  0.51100000000E-03 0. -1.
        -11    1    3    3    0    0 -0.71377326596E+01  0.48792386150E+01 -0.24709687164E+01  0.89922123885E+01  0.51100000000E-03 0.  1.
        -12    1    3    3    0    0 -0.17115276395E+02 -0.30996826985E+02 -0.17172059345E+02  0.39352453436E+02  0.00000000000E+00 0.  1.
</event>
<event>
 7    1  0.1910099E-015  0.9000767E+02  0.7816164E-02  0.1186339E+00
        -11   -1    0    0    0    0  0.00000000000E+00  0.00000000000E+00  0.45593999997E+02  0.45594000000E+02  0.51100000000E-03 0. -1.
         11   -1    0    0    0    0 -0.00000000000E+00 -0.00000000000E+00 -0.45593999997E+02  0.45594000000E+02  0.51100000000E-03 0.  1.
    9900012    2    1    2    0    0  0.54357464181E+00 -0.95165996378E+00 -0.43824369453E+00  0.90007666313E+02  0.89999926708E+02 0.  0.
        -12    1    1    2    0    0 -0.54357464181E+00  0.95165996378E+00  0.43824369453E+00  0.11803336874E+01  0.00000000000E+00 0.  1.
         11    1    3    3    0    0 -0.15529399793E+02  0.23229747793E+02  0.23023703179E+02  0.36205998796E+02  0.51100000000E-03 0. -1.
        -11    1    3    3    0    0 -0.89047984944E+01 -0.18110407927E+01  0.45013066293E+01  0.10140861236E+02  0.51100000000E-03 0.  1.
        -12    1    3    3    0    0  0.24977772929E+02 -0.22370366964E+02 -0.27963253503E+02  0.43660806281E+02  0.00000000000E+00 0.  1.
</event>
<event>
 7    1  0.1910099E-015  0.9000763E+02  0.7816164E-02  0.1186339E+00
        -11   -1    0    0    0    0  0.00000000000E+00  0.00000000000E+00  0.45593999997E+02  0.45594000000E+02  0.51100000000E-03 0.  1.
         11   -1    0    0    0    0 -0.00000000000E+00 -0.00000000000E+00 -0.45593999997E+02  0.45594000000E+02  0.51100000000E-03 0. -1.
    9900012    2    1    2    0    0 -0.55607851524E+00 -0.47959384469E+00 -0.92414813491E+00  0.90007625760E+02  0.89999885620E+02 0.  0.
        -12    1    1    2    0    0  0.55607851524E+00  0.47959384469E+00  0.92414813491E+00  0.11803742399E+01  0.00000000000E+00 0.  1.
         11    1    3    3    0    0  0.83715674866E+01  0.21488249648E+01 -0.15063152738E+02  0.17366610538E+02  0.51100000000E-03 0. -1.
        -11    1    3    3    0    0  0.27119650882E+02  0.39615943698E+01  0.22021078362E+02  0.35158179509E+02  0.51100000000E-03 0.  1.
         12    1    3    3    0    0 -0.36047296884E+02 -0.65900131793E+01 -0.78820737581E+01  0.37482835713E+02  0.00000000000E+00 0. -1.
</event>
<event>
 7    1  0.1910099E-015  0.9000771E+02  0.7816164E-02  0.1186339E+00
        -11   -1    0    0    0    0  0.00000000000E+00  0.00000000000E+00  0.45593999997E+02  0.45594000000E+02  0.51100000000E-03 0.  1.
         11   -1    0    0    0    0 -0.00000000000E+00 -0.00000000000E+00 -0.45593999997E+02  0.45594000000E+02  0.51100000000E-03 0. -1.
    9900012    2    1    2    0    0 -0.11028929264E+01  0.28678626897E+00  0.30735418584E+00  0.90007709457E+02  0.89999970421E+02 0.  0.
        -12    1    1    2    0    0  0.11028929264E+01 -0.28678626897E+00 -0.30735418584E+00  0.11802905434E+01  0.00000000000E+00 0.  1.
         11    1    3    3    0    0 -0.10516719499E+01 -0.34568205595E+02  0.67606922941E+01  0.35238811168E+02  0.51100000000E-03 0. -1.
        -11    1    3    3    0    0 -0.66979336382E+00 -0.91039368006E+01  0.33536136365E+01  0.97250713675E+01  0.51100000000E-03 0.  1.
        -12    1    3    3    0    0  0.61857238731E+00  0.43958928665E+02 -0.98069517447E+01  0.45043826921E+02  0.00000000000E+00 0.  1.
</event>
<event>
 7    1  0.1910099E-015  0.9000775E+02  0.7816164E-02  0.1186339E+00
        -11   -1    0    0    0    0  0.00000000000E+00  0.00000000000E+00  0.45593999997E+02  0.45594000000E+02  0.51100000000E-03 0.  1.
         11   -1    0    0    0    0 -0.00000000000E+00 -0.00000000000E+00 -0.45593999997E+02  0.45594000000E+02  0.51100000000E-03 0. -1.
    9900012    2    1    2    0    0 -0.15075402690E+00 -0.10318022449E+01 -0.55284949039E+00  0.90007752056E+02  0.90000013584E+02 0.  0.
        -12    1    1    2    0    0  0.15075402690E+00  0.10318022449E+01  0.55284949039E+00  0.11802479435E+01  0.00000000000E+00 0.  1.
         11    1    3    3    0    0  0.67939279663E+01  0.60053762679E+01  0.46896198455E+01  0.10208552096E+02  0.51100000000E-03 0. -1.
        -11    1    3    3    0    0 -0.38891007713E+02 -0.17874261548E+02  0.80284320525E+01  0.43548311429E+02  0.51100000000E-03 0.  1.
         12    1    3    3    0    0  0.31946325720E+02  0.10837083035E+02 -0.13270901388E+02  0.36250888532E+02  0.00000000000E+00 0. -1.
</event>
<event>
 7    1  0.1910099E-015  0.9000733E+02  0.7816164E-02  0.1186340E+00
        -11   -1    0    0    0    0  0.00000000000E+00  0.00000000000E+00  0.45593999997E+02  0.45594000000E+02  0.51100000000E-03 0. -1.
         11   -1    0    0    0    0 -0.00000000000E+00 -0.00000000000E+00 -0.45593999997E+02  0.45594000000E+02  0.51100000000E-03 0.  1.
    9900012    2    1    2    0    0  0.50642121810E+00 -0.47848530041E+00  0.95318484184E+00  0.90007334097E+02  0.89999590106E+02 0.  0.
        -12    1    1    2    0    0 -0.50642121810E+00  0.47848530041E+00 -0.95318484184E+00  0.11806659035E+01  0.00000000000E+00 0.  1.
         11    1    3    3    0    0 -0.10836950603E+02  0.27447802445E+01  0.38689260813E+02  0.40271978093E+02  0.51100000000E-03 0. -1.
        -11    1    3    3    0    0 -0.97185127577E+01 -0.23231036598E+01 -0.60624014344E+01  0.11687558010E+02  0.51100000000E-03 0.  1.
        -12    1    3    3    0    0  0.21061884579E+02 -0.90016188512E+00 -0.31673674537E+02  0.38047797993E+02  0.00000000000E+00 0.  1.
</event>
<event>
 7    1  0.2521712E-015  0.9000773E+02  0.7816164E-02  0.1186339E+00
        -11   -1    0    0    0    0  0.00000000000E+00  0.00000000000E+00  0.45593999997E+02  0.45594000000E+02  0.51100000000E-03 0.  1.
         11   -1    0    0    0    0 -0.00000000000E+00 -0.00000000000E+00 -0.45593999997E+02  0.45594000000E+02  0.51100000000E-03 0. -1.
    9900012    2    1    2    0    0 -0.81744009759E+00 -0.38702494144E+00 -0.75831383197E+00  0.90007730333E+02  0.89999991574E+02 0.  0.
        -12    1    1    2    0    0  0.81744009759E+00  0.38702494144E+00  0.75831383197E+00  0.11802696667E+01  0.00000000000E+00 0.  1.
         11    1    3    3    0    0 -0.41011022027E+00 -0.91741833979E+01  0.24146836777E+01  0.94955004574E+01  0.51100000000E-03 0. -1.
        -11    1    3    3    0    0  0.87315481445E+01 -0.57484168847E+01  0.36135611994E+02  0.37617372106E+02  0.51100000000E-03 0.  1.
         12    1    3    3    0    0 -0.91388780218E+01  0.14535575341E+02 -0.39308609504E+02  0.42894857770E+02  0.00000000000E+00 0. -1.
</event>
<event>
 7    1  0.1910099E-015  0.9000760E+02  0.7816164E-02  0.1186339E+00
        -11   -1    0    0    0    0  0.00000000000E+00  0.00000000000E+00  0.45593999997E+02  0.45594000000E+02  0.51100000000E-03 0.  1.
         11   -1    0    0    0    0 -0.00000000000E+00 -0.00000000000E+00 -0.45593999997E+02  0.45594000000E+02  0.51100000000E-03 0. -1.
    9900012    2    1    2    0    0  0.79913361515E+00 -0.39115936237E+00 -0.77570287119E+00  0.90007603827E+02  0.89999863397E+02 0.  0.
        -12    1    1    2    0    0 -0.79913361515E+00  0.39115936237E+00  0.77570287119E+00  0.11803961733E+01  0.00000000000E+00 0.  1.
         11    1    3    3    0    0 -0.20230109563E+01  0.37489356101E+02 -0.14953183541E+02  0.40412152782E+02  0.51100000000E-03 0. -1.
        -11    1    3    3    0    0 -0.35191120215E+00 -0.56009761204E+01 -0.83813153061E+01  0.10086685358E+02  0.51100000000E-03 0.  1.
        -12    1    3    3    0    0  0.31740557736E+01 -0.32279539343E+02  0.22558795976E+02  0.39508765687E+02  0.00000000000E+00 0.  1.
</event>
<event>
 7    1  0.1910099E-015  0.9000794E+02  0.7816164E-02  0.1186339E+00
        -11   -1    0    0    0    0  0.00000000000E+00  0.00000000000E+00  0.45593999997E+02  0.45594000000E+02  0.51100000000E-03 0.  1.
         11   -1    0    0    0    0 -0.00000000000E+00 -0.00000000000E+00 -0.45593999997E+02  0.45594000000E+02  0.51100000000E-03 0. -1.
    9900012    2    1    2    0    0 -0.40768481820E+00  0.52598680808E+00 -0.97451318999E+00  0.90007938565E+02  0.90000202554E+02 0.  0.
        -12    1    1    2    0    0  0.40768481820E+00 -0.52598680808E+00  0.97451318999E+00  0.11800614351E+01  0.00000000000E+00 0.  1.
         11    1    3    3    0    0  0.10137765215E+02  0.35751714751E+02 -0.19628987928E+02  0.42026855206E+02  0.51100000000E-03 0. -1.
        -11    1    3    3    0    0 -0.89870414163E+01 -0.70411303228E+00  0.70870246495E+00  0.90423972499E+01  0.51100000000E-03 0.  1.
        -12    1    3    3    0    0 -0.15584086169E+01 -0.34521614910E+02  0.17945772273E+02  0.38938686109E+02  0.00000000000E+00 0.  1.
</event>
<event>
 7    1  0.1910099E-015  0.9000768E+02  0.7816164E-02  0.1186339E+00
        -11   -1    0    0    0    0  0.00000000000E+00  0.00000000000E+00  0.45593999997E+02  0.45594000000E+02  0.51100000000E-03 0. -1.
         11   -1    0    0    0    0 -0.00000000000E+00 -0.00000000000E+00 -0.45593999997E+02  0.45594000000E+02  0.51100000000E-03 0.  1.
    9900012    2    1    2    0    0  0.51884374356E+00  0.65457266818E+00  0.83395428698E+00  0.90007684804E+02  0.89999945444E+02 0.  0.
        -12    1    1    2    0    0 -0.51884374356E+00 -0.65457266818E+00 -0.83395428698E+00  0.11803151956E+01  0.00000000000E+00 0.  1.
         11    1    3    3    0    0  0.43379352680E+01  0.33043927796E+01  0.94575488767E+01  0.10917047451E+02  0.51100000000E-03 0. -1.
        -11    1    3    3    0    0  0.22369369255E+02  0.10252825456E+02  0.24646553466E+02  0.34827599813E+02  0.51100000000E-03 0.  1.
         12    1    3    3    0    0 -0.26188460780E+02 -0.12902645568E+02 -0.33270148056E+02  0.44263037540E+02  0.00000000000E+00 0. -1.
</event>
<event>
 7    1  0.1910099E-015  0.9000766E+02  0.7816164E-02  0.1186339E+00
        -11   -1    0    0    0    0  0.00000000000E+00  0.00000000000E+00  0.45593999997E+02  0.45594000000E+02  0.51100000000E-03 0.  1.
         11   -1    0    0    0    0 -0.00000000000E+00 -0.00000000000E+00 -0.45593999997E+02  0.45594000000E+02  0.51100000000E-03 0. -1.
    9900012    2    1    2    0    0  0.98163028356E+00  0.13091910573E+00 -0.64223724901E+00  0.90007658308E+02  0.89999918598E+02 0.  0.
        -12    1    1    2    0    0 -0.98163028356E+00 -0.13091910573E+00  0.64223724901E+00  0.11803416920E+01  0.00000000000E+00 0.  1.
         11    1    3    3    0    0  0.13836575862E+02  0.37857489681E+01 -0.39922449817E+02  0.42421512544E+02  0.51100000000E-03 0. -1.
        -11    1    3    3    0    0 -0.10284770757E+02 -0.18108212336E+01  0.25893750771E+01  0.10759202880E+02  0.51100000000E-03 0.  1.
        -12    1    3    3    0    0 -0.25701748220E+01 -0.18440086288E+01  0.36690837491E+02  0.36826942884E+02  0.00000000000E+00 0.  1.
</event>
<event>
 7    1  0.1910099E-015  0.9000765E+02  0.7816164E-02  0.1186339E+00
        -11   -1    0    0    0    0  0.00000000000E+00  0.00000000000E+00  0.45593999997E+02  0.45594000000E+02  0.51100000000E-03 0.  1.
         11   -1    0    0    0    0 -0.00000000000E+00 -0.00000000000E+00 -0.45593999997E+02  0.45594000000E+02  0.51100000000E-03 0. -1.
    9900012    2    1    2    0    0 -0.85732691807E+00 -0.70465067380E+00 -0.40211382845E+00  0.90007645160E+02  0.89999905276E+02 0.  0.
        -12    1    1    2    0    0  0.85732691807E+00  0.70465067380E+00  0.40211382845E+00  0.11803548397E+01  0.00000000000E+00 0.  1.
         11    1    3    3    0    0 -0.24998955103E+02 -0.16082197109E+02 -0.23462115786E+02  0.37868927863E+02  0.51100000000E-03 0. -1.
        -11    1    3    3    0    0 -0.87862215858E+01  0.23566553997E+01 -0.12581773226E+01  0.91833830838E+01  0.51100000000E-03 0.  1.
        -12    1    3    3    0    0  0.32927849771E+02  0.13020891036E+02  0.24318179280E+02  0.42955334213E+02  0.00000000000E+00 0.  1.
</event>
<event>
 7    1  0.1910099E-015  0.9000764E+02  0.7816164E-02  0.1186339E+00
        -11   -1    0    0    0    0  0.00000000000E+00  0.00000000000E+00  0.45593999997E+02  0.45594000000E+02  0.51100000000E-03 0. -1.
         11   -1    0    0    0    0 -0.00000000000E+00 -0.00000000000E+00 -0.45593999997E+02  0.45594000000E+02  0.51100000000E-03 0.  1.
    9900012    2    1    2    0    0 -0.73161216174E+00  0.58333430503E+00  0.71951755914E+00  0.90007643789E+02  0.89999903887E+02 0.  0.
        -12    1    1    2    0    0  0.73161216174E+00 -0.58333430503E+00 -0.71951755914E+00  0.11803562109E+01  0.00000000000E+00 0.  1.
         11    1    3    3    0    0  0.39430793642E+02 -0.49901961725E+01 -0.37817031655E+01  0.39924814642E+02  0.51100000000E-03 0. -1.
        -11    1    3    3    0    0 -0.41477036212E+01 -0.66097352747E+01 -0.68726955893E+01  0.10398364807E+02  0.51100000000E-03 0.  1.
        -12    1    3    3    0    0 -0.36014702183E+02  0.12183265752E+02  0.11373916314E+02  0.39684464341E+02  0.00000000000E+00 0.  1.
</event>
<event>
 7    1  0.1910099E-015  0.9000767E+02  0.7816164E-02  0.1186339E+00
        -11   -1    0    0    0    0  0.00000000000E+00  0.00000000000E+00  0.45593999997E+02  0.45594000000E+02  0.51100000000E-03 0.  1.
         11   -1    0    0    0    0 -0.00000000000E+00 -0.00000000000E+00 -0.45593999997E+02  0.45594000000E+02  0.51100000000E-03 0. -1.
    9900012    2    1    2    0    0 -0.11404831960E+01 -0.22230257986E-01  0.30328975925E+00  0.90007669206E+02  0.89999929640E+02 0.  0.
        -12    1    1    2    0    0  0.11404831960E+01  0.22230257986E-01 -0.30328975925E+00  0.11803307938E+01  0.00000000000E+00 0.  1.
         11    1    3    3    0    0 -0.37945526027E+02 -0.77696654698E+01  0.10075092635E+02  0.40021720838E+02  0.51100000000E-03 0. -1.
        -11    1    3    3    0    0  0.14015600376E+01 -0.95257957961E+01 -0.20189915206E+01  0.98377580326E+01  0.51100000000E-03 0.  1.
        -12    1    3    3    0    0  0.35403482793E+02  0.17273231008E+02 -0.77528113548E+01  0.40148190336E+02  0.00000000000E+00 0.  1.
</event>
<event>
 7    1  0.1910099E-015  0.9000790E+02  0.7816164E-02  0.1186339E+00
        -11   -1    0    0    0    0  0.00000000000E+00  0.00000000000E+00  0.45593999997E+02  0.45594000000E+02  0.51100000000E-03 0.  1.
         11   -1    0    0    0    0 -0.00000000000E+00 -0.00000000000E+00 -0.45593999997E+02  0.45594000000E+02  0.51100000000E-03 0. -1.
    9900012    2    1    2    0    0  0.45029256224E+00 -0.30770976873E+00 -0.10465104629E+01  0.90007901342E+02  0.90000164840E+02 0.  0.
        -12    1    1    2    0    0 -0.45029256224E+00  0.30770976873E+00  0.10465104629E+01  0.11800986578E+01  0.00000000000E+00 0.  1.
         11    1    3    3    0    0  0.32088289803E+02 -0.26394114477E+02 -0.11862495604E+02  0.43209101168E+02  0.51100000000E-03 0. -1.
        -11    1    3    3    0    0  0.13782874900E+01  0.73491944081E+01  0.28979289295E+01  0.80192472960E+01  0.51100000000E-03 0.  1.
        -12    1    3    3    0    0 -0.33016284731E+02  0.18737210301E+02  0.79180562114E+01  0.38779552878E+02  0.00000000000E+00 0.  1.
</event>
<event>
 7    1  0.1910099E-015  0.9000780E+02  0.7816164E-02  0.1186339E+00
        -11   -1    0    0    0    0  0.00000000000E+00  0.00000000000E+00  0.45593999997E+02  0.45594000000E+02  0.51100000000E-03 0.  1.
         11   -1    0    0    0    0 -0.00000000000E+00 -0.00000000000E+00 -0.45593999997E+02  0.45594000000E+02  0.51100000000E-03 0. -1.
    9900012    2    1    2    0    0  0.16891725232E+00 -0.11627409255E+01 -0.11121147387E+00  0.90007801928E+02  0.90000064113E+02 0.  0.
        -12    1    1    2    0    0 -0.16891725232E+00  0.11627409255E+01  0.11121147387E+00  0.11801980724E+01  0.00000000000E+00 0.  1.
         11    1    3    3    0    0  0.14036000273E+01  0.58559807020E+00 -0.21136164967E+02  0.21190811403E+02  0.51100000000E-03 0. -1.
        -11    1    3    3    0    0 -0.15456323951E+02  0.11857377668E+02 -0.17093763375E+02  0.25917023399E+02  0.51100000000E-03 0.  1.
        -12    1    3    3    0    0  0.14221641177E+02 -0.13605716664E+02  0.38118716869E+02  0.42899967126E+02  0.00000000000E+00 0.  1.
</event>
<event>
 7    1  0.1910099E-015  0.9000767E+02  0.7816164E-02  0.1186339E+00
        -11   -1    0    0    0    0  0.00000000000E+00  0.00000000000E+00  0.45593999997E+02  0.45594000000E+02  0.51100000000E-03 0. -1.
         11   -1    0    0    0    0 -0.00000000000E+00 -0.00000000000E+00 -0.45593999997E+02  0.45594000000E+02  0.51100000000E-03 0.  1.
    9900012    2    1    2    0    0 -0.70898494593E+00 -0.14132231729E+00  0.93303280699E+00  0.90007668746E+02  0.89999929173E+02 0.  0.
        -12    1    1    2    0    0  0.70898494593E+00  0.14132231729E+00 -0.93303280699E+00  0.11803312543E+01  0.00000000000E+00 0.  1.
         11    1    3    3    0    0  0.36726942849E+01 -0.29867740752E+02  0.14285520775E+02  0.33311360300E+02  0.51100000000E-03 0. -1.
        -11    1    3    3    0    0  0.29894260819E+01 -0.91653769327E+01  0.72585540157E+01  0.12067618211E+02  0.51100000000E-03 0.  1.
        -12    1    3    3    0    0 -0.73711053127E+01  0.38891795368E+02 -0.20611041984E+02  0.44628690235E+02  0.00000000000E+00 0.  1.
</event>
<event>
 7    1  0.1910099E-015  0.9000774E+02  0.7816164E-02  0.1186339E+00
        -11   -1    0    0    0    0  0.00000000000E+00  0.00000000000E+00  0.45593999997E+02  0.45594000000E+02  0.51100000000E-03 0.  1.
         11   -1    0    0    0    0 -0.00000000000E+00 -0.00000000000E+00 -0.45593999997E+02  0.45594000000E+02  0.51100000000E-03 0. -1.
    9900012    2    1    2    0    0 -0.10342780095E+01  0.20813200313E+00 -0.52910606799E+00  0.90007744450E+02  0.90000005877E+02 0.  0.
        -12    1    1    2    0    0  0.10342780095E+01 -0.20813200313E+00  0.52910606799E+00  0.11802555498E+01  0.00000000000E+00 0.  1.
         11    1    3    3    0    0 -0.71092389043E+01 -0.22811438126E+01 -0.11545108619E+00  0.74671429681E+01  0.51100000000E-03 0. -1.
        -11    1    3    3    0    0 -0.25926290431E+02  0.27772821510E+02  0.12110500888E+02  0.39876890327E+02  0.51100000000E-03 0.  1.
         12    1    3    3    0    0  0.32001251326E+02 -0.25283545694E+02 -0.12524155870E+02  0.42663711155E+02  0.00000000000E+00 0. -1.
</event>
<event>
 7    1  0.1910099E-015  0.9000767E+02  0.7816164E-02  0.1186339E+00
        -11   -1    0    0    0    0  0.00000000000E+00  0.00000000000E+00  0.45593999997E+02  0.45594000000E+02  0.51100000000E-03 0.  1.
         11   -1    0    0    0    0 -0.00000000000E+00 -0.00000000000E+00 -0.45593999997E+02  0.45594000000E+02  0.51100000000E-03 0. -1.
    9900012    2    1    2    0    0  0.10359098391E+01  0.14569759263E+00  0.54665850408E+00  0.90007672713E+02  0.89999933193E+02 0.  0.
        -12    1    1    2    0    0 -0.10359098391E+01 -0.14569759263E+00 -0.54665850408E+00  0.11803272865E+01  0.00000000000E+00 0.  1.
         11    1    3    3    0    0  0.16409436697E+02  0.18770075111E+01  0.16292039557E+02  0.23199640581E+02  0.51100000000E-03 0. -1.
        -11    1    3    3    0    0 -0.47024787290E+01 -0.31963733862E+02 -0.35329418802E+01  0.32500388724E+02  0.51100000000E-03 0.  1.
         12    1    3    3    0    0 -0.10671048129E+02  0.30232423944E+02 -0.12212439173E+02  0.34307643408E+02  0.00000000000E+00 0. -1.
</event>
<event>
 7    1  0.1910099E-015  0.9000769E+02  0.7816164E-02  0.1186339E+00
        -11   -1    0    0    0    0  0.00000000000E+00  0.00000000000E+00  0.45593999997E+02  0.45594000000E+02  0.51100000000E-03 0.  1.
         11   -1    0    0    0    0 -0.00000000000E+00 -0.00000000000E+00 -0.45593999997E+02  0.45594000000E+02  0.51100000000E-03 0. -1.
    9900012    2    1    2    0    0 -0.10133716456E+01  0.44289506184E+00  0.41236800901E+00  0.90007692624E+02  0.89999953366E+02 0.  0.
        -12    1    1    2    0    0  0.10133716456E+01 -0.44289506184E+00 -0.41236800901E+00  0.11803073764E+01  0.00000000000E+00 0.  1.
         11    1    3    3    0    0 -0.26896010988E+02  0.28809500962E+02  0.42913097901E+01  0.39645908902E+02  0.51100000000E-03 0. -1.
        -11    1    3    3    0    0  0.55057224173E+01 -0.49758590025E+01  0.13056695261E+02  0.15018303618E+02  0.51100000000E-03 0.  1.
        -12    1    3    3    0    0  0.20376916925E+02 -0.23390746898E+02 -0.16935637042E+02  0.35343480103E+02  0.00000000000E+00 0.  1.
</event>
<event>
 7    1  0.1910099E-015  0.9000761E+02  0.7816164E-02  0.1186339E+00
        -11   -1    0    0    0    0  0.00000000000E+00  0.00000000000E+00  0.45593999997E+02  0.45594000000E+02  0.51100000000E-03 0.  1.
         11   -1    0    0    0    0 -0.00000000000E+00 -0.00000000000E+00 -0.45593999997E+02  0.45594000000E+02  0.51100000000E-03 0. -1.
    9900012    2    1    2    0    0  0.29012610399E-01  0.34705476147E+00 -0.11278486284E+01  0.90007605461E+02  0.89999865053E+02 0.  0.
        -12    1    1    2    0    0 -0.29012610399E-01 -0.34705476147E+00  0.11278486284E+01  0.11803945390E+01  0.00000000000E+00 0.  1.
         11    1    3    3    0    0  0.94136210633E+01  0.13671716981E+01  0.48825824244E+00  0.95249050572E+01  0.51100000000E-03 0. -1.
        -11    1    3    3    0    0  0.13921535194E+02  0.30441769547E+02 -0.18037647674E+02  0.38024560605E+02  0.51100000000E-03 0.  1.
         12    1    3    3    0    0 -0.23306143647E+02 -0.31461886484E+02  0.16421540803E+02  0.42458139799E+02  0.00000000000E+00 0. -1.
</event>
<event>
 7    1  0.1910099E-015  0.9000771E+02  0.7816164E-02  0.1186339E+00
        -11   -1    0    0    0    0  0.00000000000E+00  0.00000000000E+00  0.45593999997E+02  0.45594000000E+02  0.51100000000E-03 0.  1.
         11   -1    0    0    0    0 -0.00000000000E+00 -0.00000000000E+00 -0.45593999997E+02  0.45594000000E+02  0.51100000000E-03 0. -1.
    9900012    2    1    2    0    0  0.13952838053E+00  0.88753211996E+00 -0.76543848648E+00  0.90007712955E+02  0.89999973966E+02 0.  0.
        -12    1    1    2    0    0 -0.13952838053E+00 -0.88753211996E+00  0.76543848648E+00  0.11802870454E+01  0.00000000000E+00 0.  1.
         11    1    3    3    0    0  0.16369427074E+02 -0.82831864646E+01 -0.36120428122E+02  0.40512401172E+02  0.51100000000E-03 0. -1.
        -11    1    3    3    0    0 -0.82064099939E+01  0.46012624681E+01 -0.31322024414E+01  0.99160210611E+01  0.51100000000E-03 0.  1.
        -12    1    3    3    0    0 -0.80234886991E+01  0.45694561164E+01  0.38487192077E+02  0.39579290722E+02  0.00000000000E+00 0.  1.
</event>
<event>
 7    1  0.1910099E-015  0.9000731E+02  0.7816164E-02  0.1186340E+00
        -11   -1    0    0    0    0  0.00000000000E+00  0.00000000000E+00  0.45593999997E+02  0.45594000000E+02  0.51100000000E-03 0.  1.
         11   -1    0    0    0    0 -0.00000000000E+00 -0.00000000000E+00 -0.45593999997E+02  0.45594000000E+02  0.51100000000E-03 0. -1.
    9900012    2    1    2    0    0  0.97481856733E+00 -0.61624490218E+00  0.25298422799E+00  0.90007309508E+02  0.89999565192E+02 0.  0.
        -12    1    1    2    0    0 -0.97481856733E+00  0.61624490218E+00 -0.25298422799E+00  0.11806904922E+01  0.00000000000E+00 0.  1.
         11    1    3    3    0    0  0.29173560836E+02 -0.68804404360E+01  0.15153232549E+02  0.33586568288E+02  0.51100000000E-03 0. -1.
        -11    1    3    3    0    0  0.10520193799E+02 -0.20350759003E+01  0.53147431228E+01  0.11960873973E+02  0.51100000000E-03 0.  1.
        -12    1    3    3    0    0 -0.38718936067E+02  0.82992714341E+01 -0.20214991444E+02  0.44459867246E+02  0.00000000000E+00 0.  1.
</event>
<event>
 7    1  0.1910099E-015  0.9000767E+02  0.7816164E-02  0.1186339E+00
        -11   -1    0    0    0    0  0.00000000000E+00  0.00000000000E+00  0.45593999997E+02  0.45594000000E+02  0.51100000000E-03 0.  1.
         11   -1    0    0    0    0 -0.00000000000E+00 -0.00000000000E+00 -0.45593999997E+02  0.45594000000E+02  0.51100000000E-03 0. -1.
    9900012    2    1    2    0    0  0.90852567387E+00  0.31802009740E+00 -0.68309606789E+00  0.90007671266E+02  0.89999931727E+02 0.  0.
        -12    1    1    2    0    0 -0.90852567387E+00 -0.31802009740E+00  0.68309606789E+00  0.11803287340E+01  0.00000000000E+00 0.  1.
         11    1    3    3    0    0  0.18262244478E+02 -0.64221689995E+00 -0.34447541766E+02  0.38994296376E+02  0.51100000000E-03 0. -1.
        -11    1    3    3    0    0 -0.52127992376E+01 -0.35290844344E+00 -0.68429519422E+01  0.86095186744E+01  0.51100000000E-03 0.  1.
        -12    1    3    3    0    0 -0.12140919566E+02  0.13131454408E+01  0.40607397640E+02  0.42403856216E+02  0.00000000000E+00 0.  1.
</event>
<event>
 7    1  0.1910099E-015  0.9000771E+02  0.7816164E-02  0.1186339E+00
        -11   -1    0    0    0    0  0.00000000000E+00  0.00000000000E+00  0.45593999997E+02  0.45594000000E+02  0.51100000000E-03 0. -1.
         11   -1    0    0    0    0 -0.00000000000E+00 -0.00000000000E+00 -0.45593999997E+02  0.45594000000E+02  0.51100000000E-03 0.  1.
    9900012    2    1    2    0    0  0.90294820129E+00  0.18468832463E-01  0.75988267044E+00  0.90007712652E+02  0.89999973659E+02 0.  0.
        -12    1    1    2    0    0 -0.90294820129E+00 -0.18468832463E-01 -0.75988267044E+00  0.11802873484E+01  0.00000000000E+00 0.  1.
         11    1    3    3    0    0  0.31776273974E+02 -0.96167450927E+01  0.22112383366E+02  0.39889483228E+02  0.51100000000E-03 0. -1.
        -11    1    3    3    0    0  0.14326562702E+01  0.94630181557E+01  0.25804378362E+01  0.99126119813E+01  0.51100000000E-03 0.  1.
        -12    1    3    3    0    0 -0.32305982043E+02  0.17219576941E+00 -0.23932938532E+02  0.40205617442E+02  0.00000000000E+00 0.  1.
</event>
<event>
 7    1  0.1910099E-015  0.9000778E+02  0.7816164E-02  0.1186339E+00
        -11   -1    0    0    0    0  0.00000000000E+00  0.00000000000E+00  0.45593999997E+02  0.45594000000E+02  0.51100000000E-03 0.  1.
         11   -1    0    0    0    0 -0.00000000000E+00 -0.00000000000E+00 -0.45593999997E+02  0.45594000000E+02  0.51100000000E-03 0. -1.
    9900012    2    1    2    0    0  0.10793694534E+01 -0.19741864640E+00  0.43463845177E+00  0.90007778359E+02  0.90000040233E+02 0.  0.
        -12    1    1    2    0    0 -0.10793694534E+01  0.19741864640E+00 -0.43463845177E+00  0.11802216413E+01  0.00000000000E+00 0.  1.
         11    1    3    3    0    0  0.59084868406E+01 -0.30660696448E+02 -0.20781368474E+02  0.37508049794E+02  0.51100000000E-03 0. -1.
        -11    1    3    3    0    0  0.87592620948E+01 -0.47926440657E+01  0.66950621559E+01  0.12021562591E+02  0.51100000000E-03 0.  1.
        -12    1    3    3    0    0 -0.13588379482E+02  0.35255921867E+02  0.14520944770E+02  0.40478165975E+02  0.00000000000E+00 0.  1.
</event>
<event>
 7    1  0.1910099E-015  0.9000770E+02  0.7816164E-02  0.1186339E+00
        -11   -1    0    0    0    0  0.00000000000E+00  0.00000000000E+00  0.45593999997E+02  0.45594000000E+02  0.51100000000E-03 0. -1.
         11   -1    0    0    0    0 -0.00000000000E+00 -0.00000000000E+00 -0.45593999997E+02  0.45594000000E+02  0.51100000000E-03 0.  1.
    9900012    2    1    2    0    0  0.49638386543E+00  0.68368946758E-01  0.10686651030E+01  0.90007696498E+02  0.89999957292E+02 0.  0.
        -12    1    1    2    0    0 -0.49638386543E+00 -0.68368946758E-01 -0.10686651030E+01  0.11803035021E+01  0.00000000000E+00 0.  1.
         11    1    3    3    0    0  0.41834931109E+01  0.70953609100E+01  0.57101109631E+01  0.10022531044E+02  0.51100000000E-03 0. -1.
        -11    1    3    3    0    0  0.15578997397E+02  0.29497126755E+02  0.12018035513E+02  0.35457281686E+02  0.51100000000E-03 0.  1.
         12    1    3    3    0    0 -0.19266106642E+02 -0.36524118718E+02 -0.16659481373E+02  0.44527883768E+02  0.00000000000E+00 0. -1.
</event>
<event>
 7    1  0.1910099E-015  0.9000775E+02  0.7816164E-02  0.1186339E+00
        -11   -1    0    0    0    0  0.00000000000E+00  0.00000000000E+00  0.45593999997E+02  0.45594000000E+02  0.51100000000E-03 0.  1.
         11   -1    0    0    0    0 -0.00000000000E+00 -0.00000000000E+00 -0.45593999997E+02  0.45594000000E+02  0.51100000000E-03 0. -1.
    9900012    2    1    2    0    0  0.57481663880E+00 -0.46067702252E+00 -0.92215097755E+00  0.90007745827E+02  0.90000007272E+02 0.  0.
        -12    1    1    2    0    0 -0.57481663880E+00  0.46067702252E+00  0.92215097755E+00  0.11802541729E+01  0.00000000000E+00 0.  1.
         11    1    3    3    0    0  0.25121834255E+01  0.80681066613E+01  0.23937437222E+01  0.87826772644E+01  0.51100000000E-03 0. -1.
        -11    1    3    3    0    0  0.21357258757E+01  0.93742201501E+01  0.36305130428E+02  0.37556621575E+02  0.51100000000E-03 0.  1.
         12    1    3    3    0    0 -0.40730926624E+01 -0.17903003834E+02 -0.39621025128E+02  0.43668446988E+02  0.00000000000E+00 0. -1.
</event>
<event>
 7    1  0.1910099E-015  0.9000775E+02  0.7816164E-02  0.1186339E+00
        -11   -1    0    0    0    0  0.00000000000E+00  0.00000000000E+00  0.45593999997E+02  0.45594000000E+02  0.51100000000E-03 0. -1.
         11   -1    0    0    0    0 -0.00000000000E+00 -0.00000000000E+00 -0.45593999997E+02  0.45594000000E+02  0.51100000000E-03 0.  1.
    9900012    2    1    2    0    0  0.78419996730E-01  0.11727977677E+01 -0.10671737591E+00  0.90007748799E+02  0.90000010283E+02 0.  0.
        -12    1    1    2    0    0 -0.78419996730E-01 -0.11727977677E+01  0.10671737591E+00  0.11802512013E+01  0.00000000000E+00 0.  1.
         11    1    3    3    0    0  0.21898353594E+01  0.15156718034E+01 -0.77871368987E+01  0.82299539037E+01  0.51100000000E-03 0. -1.
        -11    1    3    3    0    0  0.49448452067E+01 -0.50938123796E+01 -0.36297241947E+02  0.36984972515E+02  0.51100000000E-03 0.  1.
         12    1    3    3    0    0 -0.70562605694E+01  0.47509383439E+01  0.43977661470E+02  0.44792822380E+02  0.00000000000E+00 0. -1.
</event>
<event>
 7    1  0.1910099E-015  0.9000793E+02  0.7816164E-02  0.1186339E+00
        -11   -1    0    0    0    0  0.00000000000E+00  0.00000000000E+00  0.45593999997E+02  0.45594000000E+02  0.51100000000E-03 0. -1.
         11   -1    0    0    0    0 -0.00000000000E+00 -0.00000000000E+00 -0.45593999997E+02  0.45594000000E+02  0.51100000000E-03 0.  1.
    9900012    2    1    2    0    0  0.44463283017E+00  0.94535522078E+00  0.54879841613E+00  0.90007926041E+02  0.90000189865E+02 0.  0.
        -12    1    1    2    0    0 -0.44463283017E+00 -0.94535522078E+00 -0.54879841613E+00  0.11800739590E+01  0.00000000000E+00 0.  1.
         11    1    3    3    0    0 -0.17815290952E+01  0.31343183786E+02 -0.11672291876E+02  0.33493453295E+02  0.51100000000E-03 0. -1.
        -11    1    3    3    0    0  0.10895193855E+02  0.40113130124E+01 -0.94204669881E+01  0.14951290237E+02  0.51100000000E-03 0.  1.
        -12    1    3    3    0    0 -0.86690319300E+01 -0.34409141577E+02  0.21641557280E+02  0.41563182508E+02  0.00000000000E+00 0.  1.
</event>
<event>
 7    1  0.1910099E-015  0.9000766E+02  0.7816164E-02  0.1186339E+00
        -11   -1    0    0    0    0  0.00000000000E+00  0.00000000000E+00  0.45593999997E+02  0.45594000000E+02  0.51100000000E-03 0. -1.
         11   -1    0    0    0    0 -0.00000000000E+00 -0.00000000000E+00 -0.45593999997E+02  0.45594000000E+02  0.51100000000E-03 0.  1.
    9900012    2    1    2    0    0 -0.21135014304E+00  0.10810768531E+01  0.42402457633E+00  0.90007664079E+02  0.89999924445E+02 0.  0.
        -12    1    1    2    0    0  0.21135014304E+00 -0.10810768531E+01 -0.42402457633E+00  0.11803359211E+01  0.00000000000E+00 0.  1.
         11    1    3    3    0    0  0.13544712285E+01  0.12782996177E+01 -0.90296238389E+01  0.92196935499E+01  0.51100000000E-03 0. -1.
        -11    1    3    3    0    0  0.15564682038E+02 -0.18597828829E+02 -0.27136092178E+02  0.36393764068E+02  0.51100000000E-03 0.  1.
         12    1    3    3    0    0 -0.17130503410E+02  0.18400606064E+02  0.36589740593E+02  0.44394206461E+02  0.00000000000E+00 0. -1.
</event>
<event>
 7    1  0.1910099E-015  0.9000751E+02  0.7816164E-02  0.1186340E+00
        -11   -1    0    0    0    0  0.00000000000E+00  0.00000000000E+00  0.45593999997E+02  0.45594000000E+02  0.51100000000E-03 0. -1.
         11   -1    0    0    0    0 -0.00000000000E+00 -0.00000000000E+00 -0.45593999997E+02  0.45594000000E+02  0.51100000000E-03 0.  1.
    9900012    2    1    2    0    0 -0.42261645609E+00 -0.10941103771E+01  0.13371423262E+00  0.90007507864E+02  0.89999766168E+02 0.  0.
        -12    1    1    2    0    0  0.42261645609E+00  0.10941103771E+01 -0.13371423262E+00  0.11804921356E+01  0.00000000000E+00 0.  1.
         11    1    3    3    0    0 -0.52677692369E+01 -0.35623220035E+01  0.38603029852E+01  0.74391847799E+01  0.51100000000E-03 0. -1.
        -11    1    3    3    0    0 -0.26117675763E+01  0.41485112820E+02 -0.89011755548E+01  0.42509608820E+02  0.51100000000E-03 0.  1.
         12    1    3    3    0    0  0.74569203571E+01 -0.39016901193E+02  0.51745868022E+01  0.40058714264E+02  0.00000000000E+00 0. -1.
</event>
<event>
 7    1  0.1910099E-015  0.9000766E+02  0.7816164E-02  0.1186339E+00
        -11   -1    0    0    0    0  0.00000000000E+00  0.00000000000E+00  0.45593999997E+02  0.45594000000E+02  0.51100000000E-03 0. -1.
         11   -1    0    0    0    0 -0.00000000000E+00 -0.00000000000E+00 -0.45593999997E+02  0.45594000000E+02  0.51100000000E-03 0.  1.
    9900012    2    1    2    0    0 -0.89212404908E+00  0.45420750153E+00  0.62531275449E+00  0.90007658603E+02  0.89999918896E+02 0.  0.
        -12    1    1    2    0    0  0.89212404908E+00 -0.45420750153E+00 -0.62531275449E+00  0.11803413974E+01  0.00000000000E+00 0.  1.
         11    1    3    3    0    0 -0.13864193453E+02  0.31401985220E+02  0.25079695719E+02  0.42512253216E+02  0.51100000000E-03 0. -1.
        -11    1    3    3    0    0  0.88688350468E+00 -0.96542726968E+01  0.35250850948E+01  0.10315898838E+02  0.51100000000E-03 0.  1.
        -12    1    3    3    0    0  0.12085185899E+02 -0.21293505022E+02 -0.27979468059E+02  0.37179506549E+02  0.00000000000E+00 0.  1.
</event>
<event>
 7    1  0.1910099E-015  0.9000787E+02  0.7816164E-02  0.1186339E+00
        -11   -1    0    0    0    0  0.00000000000E+00  0.00000000000E+00  0.45593999997E+02  0.45594000000E+02  0.51100000000E-03 0. -1.
         11   -1    0    0    0    0 -0.00000000000E+00 -0.00000000000E+00 -0.45593999997E+02  0.45594000000E+02  0.51100000000E-03 0.  1.
    9900012    2    1    2    0    0 -0.72465101367E+00  0.16674767782E+00  0.91640047641E+00  0.90007867078E+02  0.90000130124E+02 0.  0.
        -12    1    1    2    0    0  0.72465101367E+00 -0.16674767782E+00 -0.91640047641E+00  0.11801329217E+01  0.00000000000E+00 0.  1.
         11    1    3    3    0    0 -0.33029741743E+01  0.50080749246E+01 -0.22589687971E+01  0.64104128676E+01  0.51100000000E-03 0. -1.
        -11    1    3    3    0    0 -0.18322795845E+02  0.22261219507E+02 -0.25848263251E+02  0.38722337931E+02  0.51100000000E-03 0.  1.
         12    1    3    3    0    0  0.20901119006E+02 -0.27102546754E+02  0.29023632524E+02  0.44875116280E+02  0.00000000000E+00 0. -1.
</event>
<event>
 7    1  0.1910099E-015  0.9000776E+02  0.7816164E-02  0.1186339E+00
        -11   -1    0    0    0    0  0.00000000000E+00  0.00000000000E+00  0.45593999997E+02  0.45594000000E+02  0.51100000000E-03 0. -1.
         11   -1    0    0    0    0 -0.00000000000E+00 -0.00000000000E+00 -0.45593999997E+02  0.45594000000E+02  0.51100000000E-03 0.  1.
    9900012    2    1    2    0    0 -0.11214518836E+01 -0.29065962063E+00  0.22542956894E+00  0.90007764501E+02  0.90000026192E+02 0.  0.
        -12    1    1    2    0    0  0.11214518836E+01  0.29065962063E+00 -0.22542956894E+00  0.11802354989E+01  0.00000000000E+00 0.  1.
         11    1    3    3    0    0 -0.37441566537E+02  0.11132273854E+02  0.33792855219E+01  0.39207371715E+02  0.51100000000E-03 0. -1.
        -11    1    3    3    0    0 -0.34442647720E+01 -0.30952960437E+01  0.74866580658E+01  0.88030600743E+01  0.51100000000E-03 0.  1.
        -12    1    3    3    0    0  0.39764379426E+02 -0.83276374305E+01 -0.10640514019E+02  0.41997332711E+02  0.00000000000E+00 0.  1.
</event>
<event>
 7    1  0.1910099E-015  0.9000759E+02  0.7816164E-02  0.1186339E+00
        -11   -1    0    0    0    0  0.00000000000E+00  0.00000000000E+00  0.45593999997E+02  0.45594000000E+02  0.51100000000E-03 0.  1.
         11   -1    0    0    0    0 -0.00000000000E+00 -0.00000000000E+00 -0.45593999997E+02  0.45594000000E+02  0.51100000000E-03 0. -1.
    9900012    2    1    2    0    0  0.10699301287E+01 -0.46448327330E+00  0.18133676409E+00  0.90007585576E+02  0.89999844905E+02 0.  0.
        -12    1    1    2    0    0 -0.10699301287E+01  0.46448327330E+00 -0.18133676409E+00  0.11804144245E+01  0.00000000000E+00 0.  1.
         11    1    3    3    0    0  0.33283772106E+01 -0.40012889185E+02  0.11665789974E+02  0.41811482296E+02  0.51100000000E-03 0. -1.
        -11    1    3    3    0    0  0.12774626083E+01  0.11933739006E+02  0.78138370705E+01  0.14321385666E+02  0.51100000000E-03 0.  1.
        -12    1    3    3    0    0 -0.35359096901E+01  0.27614666906E+02 -0.19298290280E+02  0.33874717613E+02  0.00000000000E+00 0.  1.
</event>
<event>
 7    1  0.1910099E-015  0.9000775E+02  0.7816164E-02  0.1186339E+00
        -11   -1    0    0    0    0  0.00000000000E+00  0.00000000000E+00  0.45593999997E+02  0.45594000000E+02  0.51100000000E-03 0. -1.
         11   -1    0    0    0    0 -0.00000000000E+00 -0.00000000000E+00 -0.45593999997E+02  0.45594000000E+02  0.51100000000E-03 0.  1.
    9900012    2    1    2    0    0  0.92046727934E+00 -0.66084323001E+00  0.33015975551E+00  0.90007754580E+02  0.90000016141E+02 0.  0.
        -12    1    1    2    0    0 -0.92046727934E+00  0.66084323001E+00 -0.33015975551E+00  0.11802454199E+01  0.00000000000E+00 0.  1.
         11    1    3    3    0    0 -0.19161549362E+02 -0.11811307543E+01  0.29495501254E+02  0.35192962909E+02  0.51100000000E-03 0. -1.
        -11    1    3    3    0    0 -0.92817576976E+01  0.11536684326E+02 -0.12021827551E+02  0.19072767212E+02  0.51100000000E-03 0.  1.
        -12    1    3    3    0    0  0.29363774339E+02 -0.11016396802E+02 -0.17143513947E+02  0.35742024459E+02  0.00000000000E+00 0.  1.
</event>
<event>
 7    1  0.1910099E-015  0.9000691E+02  0.7816164E-02  0.1186341E+00
        -11   -1    0    0    0    0  0.00000000000E+00  0.00000000000E+00  0.45593999997E+02  0.45594000000E+02  0.51100000000E-03 0. -1.
         11   -1    0    0    0    0 -0.00000000000E+00 -0.00000000000E+00 -0.45593999997E+02  0.45594000000E+02  0.51100000000E-03 0.  1.
    9900012    2    1    2    0    0 -0.84126622317E+00  0.72305043806E+00  0.40552526426E+00  0.90006906636E+02  0.89999157000E+02 0.  0.
        -12    1    1    2    0    0  0.84126622317E+00 -0.72305043806E+00 -0.40552526426E+00  0.11810933639E+01  0.00000000000E+00 0.  1.
         11    1    3    3    0    0 -0.29956883038E+01 -0.34641087794E+02  0.28897295481E+01  0.34890251491E+02  0.51100000000E-03 0. -1.
        -11    1    3    3    0    0 -0.99218917374E+00 -0.87285159368E+01 -0.62055912318E+01  0.10755500575E+02  0.51100000000E-03 0.  1.
        -12    1    3    3    0    0  0.31466112543E+01  0.44092654169E+02  0.37213869480E+01  0.44361154571E+02  0.00000000000E+00 0.  1.
</event>
<event>
 7    1  0.1910099E-015  0.9000793E+02  0.7816164E-02  0.1186339E+00
        -11   -1    0    0    0    0  0.00000000000E+00  0.00000000000E+00  0.45593999997E+02  0.45594000000E+02  0.51100000000E-03 0.  1.
         11   -1    0    0    0    0 -0.00000000000E+00 -0.00000000000E+00 -0.45593999997E+02  0.45594000000E+02  0.51100000000E-03 0. -1.
    9900012    2    1    2    0    0 -0.97968255777E+00  0.60079089924E+00 -0.26802561835E+00  0.90007929938E+02  0.90000193813E+02 0.  0.
        -12    1    1    2    0    0  0.97968255777E+00 -0.60079089924E+00  0.26802561835E+00  0.11800700618E+01  0.00000000000E+00 0.  1.
         11    1    3    3    0    0 -0.35797395587E+02  0.80467042010E+01 -0.17001958990E+01  0.36730010150E+02  0.51100000000E-03 0. -1.
        -11    1    3    3    0    0 -0.75391656743E+01  0.16613296621E+01 -0.53950900272E+01  0.94183879711E+01  0.51100000000E-03 0.  1.
        -12    1    3    3    0    0  0.42356878703E+02 -0.91072429639E+01  0.68272603079E+01  0.43859531817E+02  0.00000000000E+00 0.  1.
</event>
<event>
 7    1  0.1910099E-015  0.9000774E+02  0.7816164E-02  0.1186339E+00
        -11   -1    0    0    0    0  0.00000000000E+00  0.00000000000E+00  0.45593999997E+02  0.45594000000E+02  0.51100000000E-03 0. -1.
         11   -1    0    0    0    0 -0.00000000000E+00 -0.00000000000E+00 -0.45593999997E+02  0.45594000000E+02  0.51100000000E-03 0.  1.
    9900012    2    1    2    0    0  0.58826138607E+00  0.80030435317E-01  0.10200728875E+01  0.90007743661E+02  0.90000005078E+02 0.  0.
        -12    1    1    2    0    0 -0.58826138607E+00 -0.80030435317E-01 -0.10200728875E+01  0.11802563385E+01  0.00000000000E+00 0.  1.
         11    1    3    3    0    0 -0.83616961481E+01  0.11070453638E+02  0.34640662172E+02  0.37315524681E+02  0.51100000000E-03 0. -1.
        -11    1    3    3    0    0  0.28320207719E+01 -0.77389443196E+01  0.74090275736E+01  0.11081754856E+02  0.51100000000E-03 0.  1.
        -12    1    3    3    0    0  0.61179367623E+01 -0.32514788833E+01 -0.41029616858E+02  0.41610464125E+02  0.00000000000E+00 0.  1.
</event>
<event>
 7    1  0.1910099E-015  0.9000773E+02  0.7816164E-02  0.1186339E+00
        -11   -1    0    0    0    0  0.00000000000E+00  0.00000000000E+00  0.45593999997E+02  0.45594000000E+02  0.51100000000E-03 0. -1.
         11   -1    0    0    0    0 -0.00000000000E+00 -0.00000000000E+00 -0.45593999997E+02  0.45594000000E+02  0.51100000000E-03 0.  1.
    9900012    2    1    2    0    0 -0.40555166277E+00  0.11019420465E+01  0.11958266139E+00  0.90007725270E+02  0.89999986444E+02 0.  0.
        -12    1    1    2    0    0  0.40555166277E+00 -0.11019420465E+01 -0.11958266139E+00  0.11802747299E+01  0.00000000000E+00 0.  1.
         11    1    3    3    0    0  0.24082152477E+02  0.32087251311E+02  0.41501591371E+01  0.40333182192E+02  0.51100000000E-03 0. -1.
        -11    1    3    3    0    0 -0.10824131560E+02  0.42670200811E+01  0.15523285372E+00  0.11635866186E+02  0.51100000000E-03 0.  1.
        -12    1    3    3    0    0 -0.13663572580E+02 -0.35252329346E+02 -0.41858093295E+01  0.38038676892E+02  0.00000000000E+00 0.  1.
</event>
<event>
 7    1  0.1910099E-015  0.9000778E+02  0.7816164E-02  0.1186339E+00
        -11   -1    0    0    0    0  0.00000000000E+00  0.00000000000E+00  0.45593999997E+02  0.45594000000E+02  0.51100000000E-03 0.  1.
         11   -1    0    0    0    0 -0.00000000000E+00 -0.00000000000E+00 -0.45593999997E+02  0.45594000000E+02  0.51100000000E-03 0. -1.
    9900012    2    1    2    0    0 -0.71140598642E+00  0.73791465220E+00  0.58505913724E+00  0.90007783619E+02  0.90000045563E+02 0.  0.
        -12    1    1    2    0    0  0.71140598642E+00 -0.73791465220E+00 -0.58505913724E+00  0.11802163808E+01  0.00000000000E+00 0.  1.
         11    1    3    3    0    0  0.32237799076E+02 -0.88783252805E+01 -0.47839429386E+01  0.33778491076E+02  0.51100000000E-03 0. -1.
        -11    1    3    3    0    0  0.10798531540E+02  0.12310816503E+01 -0.20826642609E+01  0.11066225017E+02  0.51100000000E-03 0.  1.
        -12    1    3    3    0    0 -0.43747736602E+02  0.83851582825E+01  0.74516663368E+01  0.45163067527E+02  0.00000000000E+00 0.  1.
</event>
<event>
 7    1  0.1910099E-015  0.9000771E+02  0.7816164E-02  0.1186339E+00
        -11   -1    0    0    0    0  0.00000000000E+00  0.00000000000E+00  0.45593999997E+02  0.45594000000E+02  0.51100000000E-03 0.  1.
         11   -1    0    0    0    0 -0.00000000000E+00 -0.00000000000E+00 -0.45593999997E+02  0.45594000000E+02  0.51100000000E-03 0. -1.
    9900012    2    1    2    0    0  0.31237076632E+00  0.11380038022E+01 -0.21244184013E-01  0.90007712126E+02  0.89999973126E+02 0.  0.
        -12    1    1    2    0    0 -0.31237076632E+00 -0.11380038022E+01  0.21244184013E-01  0.11802878737E+01  0.00000000000E+00 0.  1.
         11    1    3    3    0    0  0.12346466054E+01 -0.10579102697E+02  0.34792779373E+01  0.11204782075E+02  0.51100000000E-03 0. -1.
        -11    1    3    3    0    0 -0.22448730683E+02 -0.24270936029E+02 -0.13469525754E+02  0.35699467353E+02  0.51100000000E-03 0.  1.
         12    1    3    3    0    0  0.21526454844E+02  0.35988042528E+02  0.99690036325E+01  0.43103462698E+02  0.00000000000E+00 0. -1.
</event>
<event>
 7    1  0.1910099E-015  0.9000767E+02  0.7816164E-02  0.1186339E+00
        -11   -1    0    0    0    0  0.00000000000E+00  0.00000000000E+00  0.45593999997E+02  0.45594000000E+02  0.51100000000E-03 0.  1.
         11   -1    0    0    0    0 -0.00000000000E+00 -0.00000000000E+00 -0.45593999997E+02  0.45594000000E+02  0.51100000000E-03 0. -1.
    9900012    2    1    2    0    0 -0.64513946272E+00 -0.37736149110E+00 -0.91354539436E+00  0.90007673008E+02  0.89999933491E+02 0.  0.
        -12    1    1    2    0    0  0.64513946272E+00  0.37736149110E+00  0.91354539436E+00  0.11803269924E+01  0.00000000000E+00 0.  1.
         11    1    3    3    0    0 -0.54259332517E+01  0.77040712086E+01  0.10496261570E+01  0.94813068809E+01  0.51100000000E-03 0. -1.
        -11    1    3    3    0    0 -0.28436342402E+02 -0.29469335113E+02 -0.23178417882E+01  0.41017553219E+02  0.51100000000E-03 0.  1.
         12    1    3    3    0    0  0.33217136191E+02  0.21387902414E+02  0.35467023690E+00  0.39508812908E+02  0.00000000000E+00 0. -1.
</event>
<event>
 7    1  0.1910099E-015  0.9000778E+02  0.7816164E-02  0.1186339E+00
        -11   -1    0    0    0    0  0.00000000000E+00  0.00000000000E+00  0.45593999997E+02  0.45594000000E+02  0.51100000000E-03 0.  1.
         11   -1    0    0    0    0 -0.00000000000E+00 -0.00000000000E+00 -0.45593999997E+02  0.45594000000E+02  0.51100000000E-03 0. -1.
    9900012    2    1    2    0    0  0.61589036645E+00 -0.60935610771E+00 -0.80142448693E+00  0.90007780945E+02  0.90000042853E+02 0.  0.
        -12    1    1    2    0    0 -0.61589036645E+00  0.60935610771E+00  0.80142448693E+00  0.11802190550E+01  0.00000000000E+00 0.  1.
         11    1    3    3    0    0 -0.62842023173E+01  0.62198260420E+01 -0.17108696230E+02  0.19258372769E+02  0.51100000000E-03 0. -1.
        -11    1    3    3    0    0 -0.24714196771E+00  0.24021170638E+02 -0.13247424431E+02  0.27433045261E+02  0.51100000000E-03 0.  1.
         12    1    3    3    0    0  0.71472346515E+01 -0.30850352788E+02  0.29554696174E+02  0.43316362915E+02  0.00000000000E+00 0. -1.
</event>
<event>
 7    1  0.1910099E-015  0.9000782E+02  0.7816164E-02  0.1186339E+00
        -11   -1    0    0    0    0  0.00000000000E+00  0.00000000000E+00  0.45593999997E+02  0.45594000000E+02  0.51100000000E-03 0. -1.
         11   -1    0    0    0    0 -0.00000000000E+00 -0.00000000000E+00 -0.45593999997E+02  0.45594000000E+02  0.51100000000E-03 0.  1.
    9900012    2    1    2    0    0  0.82997040560E+00 -0.57016931752E+00  0.61552806991E+00  0.90007822586E+02  0.90000085044E+02 0.  0.
        -12    1    1    2    0    0 -0.82997040560E+00  0.57016931752E+00 -0.61552806991E+00  0.11801774145E+01  0.00000000000E+00 0.  1.
         11    1    3    3    0    0  0.43441679680E+01  0.36005169632E+02  0.19971845558E+02  0.41401916028E+02  0.51100000000E-03 0. -1.
        -11    1    3    3    0    0 -0.59396023323E+01  0.11896564415E+01 -0.58608258637E+01  0.84287269727E+01  0.51100000000E-03 0.  1.
        -12    1    3    3    0    0  0.24254047699E+01 -0.37764995391E+02 -0.13495491624E+02  0.40177179585E+02  0.00000000000E+00 0.  1.
</event>
<event>
 7    1  0.1910099E-015  0.9000779E+02  0.7816164E-02  0.1186339E+00
        -11   -1    0    0    0    0  0.00000000000E+00  0.00000000000E+00  0.45593999997E+02  0.45594000000E+02  0.51100000000E-03 0.  1.
         11   -1    0    0    0    0 -0.00000000000E+00 -0.00000000000E+00 -0.45593999997E+02  0.45594000000E+02  0.51100000000E-03 0. -1.
    9900012    2    1    2    0    0 -0.10531900344E+01 -0.42687254583E+00 -0.31854938704E+00  0.90007786828E+02  0.90000048814E+02 0.  0.
        -12    1    1    2    0    0  0.10531900344E+01  0.42687254583E+00  0.31854938704E+00  0.11802131719E+01  0.00000000000E+00 0.  1.
         11    1    3    3    0    0  0.14096773079E+02 -0.20816721499E+02  0.39177252411E+01  0.25444124597E+02  0.51100000000E-03 0. -1.
        -11    1    3    3    0    0 -0.19549986918E+02 -0.17524108994E+02 -0.19539611840E+01  0.26327064954E+02  0.51100000000E-03 0.  1.
        -12    1    3    3    0    0  0.44000238045E+01  0.37913957947E+02 -0.22823134441E+01  0.38236597277E+02  0.00000000000E+00 0.  1.
</event>
<event>
 7    1  0.1910099E-015  0.9000800E+02  0.7816164E-02  0.1186339E+00
        -11   -1    0    0    0    0  0.00000000000E+00  0.00000000000E+00  0.45593999997E+02  0.45594000000E+02  0.51100000000E-03 0.  1.
         11   -1    0    0    0    0 -0.00000000000E+00 -0.00000000000E+00 -0.45593999997E+02  0.45594000000E+02  0.51100000000E-03 0. -1.
    9900012    2    1    2    0    0 -0.17179965568E+00 -0.58995835673E+00 -0.10073946869E+01  0.90007995746E+02  0.90000260489E+02 0.  0.
        -12    1    1    2    0    0  0.17179965568E+00  0.58995835673E+00  0.10073946869E+01  0.11800042541E+01  0.00000000000E+00 0.  1.
         11    1    3    3    0    0 -0.35160938818E+01 -0.21047557290E+01 -0.81074746868E+01  0.90842753659E+01  0.51100000000E-03 0. -1.
        -11    1    3    3    0    0 -0.31765414736E+02  0.23190296815E+02  0.43721792070E+01  0.39572053156E+02  0.51100000000E-03 0.  1.
         12    1    3    3    0    0  0.35109708962E+02 -0.21675499442E+02  0.27279007928E+01  0.41351667224E+02  0.00000000000E+00 0. -1.
</event>
<event>
 7    1  0.2480114E-015  0.9000773E+02  0.7816164E-02  0.1186339E+00
        -11   -1    0    0    0    0  0.00000000000E+00  0.00000000000E+00  0.45593999997E+02  0.45594000000E+02  0.51100000000E-03 0.  1.
         11   -1    0    0    0    0 -0.00000000000E+00 -0.00000000000E+00 -0.45593999997E+02  0.45594000000E+02  0.51100000000E-03 0. -1.
    9900012    2    1    2    0    0  0.10753897009E+01 -0.10644057596E+00 -0.47458922346E+00  0.90007734125E+02  0.89999995415E+02 0.  0.
        -12    1    1    2    0    0 -0.10753897009E+01  0.10644057596E+00  0.47458922346E+00  0.11802658752E+01  0.00000000000E+00 0.  1.
         11    1    3    3    0    0  0.32987971185E+01 -0.23368984867E+01  0.88311975803E+01  0.97125284004E+01  0.51100000000E-03 0. -1.
        -11    1    3    3    0    0  0.93233021490E+01  0.35617966767E+02  0.12378670053E+02  0.38843210373E+02  0.51100000000E-03 0.  1.
         12    1    3    3    0    0 -0.11546709567E+02 -0.33387508856E+02 -0.21684456856E+02  0.41451995351E+02  0.00000000000E+00 0. -1.
</event>
<event>
 7    1  0.1910099E-015  0.9000767E+02  0.7816164E-02  0.1186339E+00
        -11   -1    0    0    0    0  0.00000000000E+00  0.00000000000E+00  0.45593999997E+02  0.45594000000E+02  0.51100000000E-03 0.  1.
         11   -1    0    0    0    0 -0.00000000000E+00 -0.00000000000E+00 -0.45593999997E+02  0.45594000000E+02  0.51100000000E-03 0. -1.
    9900012    2    1    2    0    0  0.69985217420E+00  0.13804527604E+00 -0.94039215276E+00  0.90007666587E+02  0.89999926986E+02 0.  0.
        -12    1    1    2    0    0 -0.69985217420E+00 -0.13804527604E+00  0.94039215276E+00  0.11803334126E+01  0.00000000000E+00 0.  1.
         11    1    3    3    0    0 -0.75917207300E+01 -0.13193314701E+01 -0.59583898819E+01  0.97404963639E+01  0.51100000000E-03 0. -1.
        -11    1    3    3    0    0 -0.17791531329E+02 -0.32399918681E+02  0.63613403704E+01  0.37506798972E+02  0.51100000000E-03 0.  1.
         12    1    3    3    0    0  0.26083104234E+02  0.33857295427E+02 -0.13433426413E+01  0.42760371251E+02  0.00000000000E+00 0. -1.
</event>
<event>
 7    1  0.1910099E-015  0.9000765E+02  0.7816164E-02  0.1186339E+00
        -11   -1    0    0    0    0  0.00000000000E+00  0.00000000000E+00  0.45593999997E+02  0.45594000000E+02  0.51100000000E-03 0.  1.
         11   -1    0    0    0    0 -0.00000000000E+00 -0.00000000000E+00 -0.45593999997E+02  0.45594000000E+02  0.51100000000E-03 0. -1.
    9900012    2    1    2    0    0  0.16973815620E+00 -0.36298177811E+00 -0.11102517989E+01  0.90007650107E+02  0.89999910288E+02 0.  0.
        -12    1    1    2    0    0 -0.16973815620E+00  0.36298177811E+00  0.11102517989E+01  0.11803498930E+01  0.00000000000E+00 0.  1.
         11    1    3    3    0    0 -0.94894806011E+01 -0.70209236279E+01 -0.71020181842E+01  0.13776148708E+02  0.51100000000E-03 0. -1.
        -11    1    3    3    0    0 -0.32538797086E+02  0.45508720166E+01  0.84001302014E+01  0.33912327251E+02  0.51100000000E-03 0.  1.
         12    1    3    3    0    0  0.42198015843E+02  0.21070698331E+01 -0.24083638161E+01  0.42319174149E+02  0.00000000000E+00 0. -1.
</event>
<event>
 7    1  0.1910099E-015  0.9000781E+02  0.7816164E-02  0.1186339E+00
        -11   -1    0    0    0    0  0.00000000000E+00  0.00000000000E+00  0.45593999997E+02  0.45594000000E+02  0.51100000000E-03 0. -1.
         11   -1    0    0    0    0 -0.00000000000E+00 -0.00000000000E+00 -0.45593999997E+02  0.45594000000E+02  0.51100000000E-03 0.  1.
    9900012    2    1    2    0    0  0.10298916900E+01  0.22808780243E+00 -0.52928541618E+00  0.90007811883E+02  0.90000074200E+02 0.  0.
        -12    1    1    2    0    0 -0.10298916900E+01 -0.22808780243E+00  0.52928541618E+00  0.11801881166E+01  0.00000000000E+00 0.  1.
         11    1    3    3    0    0  0.81859335515E+01  0.40011424051E+02 -0.10139671862E+01  0.40852805196E+02  0.51100000000E-03 0. -1.
        -11    1    3    3    0    0  0.72955219891E+01 -0.19368633046E+01  0.39060599828E+01  0.84990226147E+01  0.51100000000E-03 0.  1.
        -12    1    3    3    0    0 -0.14451563851E+02 -0.37846472944E+02 -0.34213782127E+01  0.40655984072E+02  0.00000000000E+00 0.  1.
</event>
<event>
 7    1  0.1910099E-015  0.9000773E+02  0.7816164E-02  0.1186339E+00
        -11   -1    0    0    0    0  0.00000000000E+00  0.00000000000E+00  0.45593999997E+02  0.45594000000E+02  0.51100000000E-03 0.  1.
         11   -1    0    0    0    0 -0.00000000000E+00 -0.00000000000E+00 -0.45593999997E+02  0.45594000000E+02  0.51100000000E-03 0. -1.
    9900012    2    1    2    0    0  0.14115774665E+00  0.54272078208E+00 -0.10385377415E+01  0.90007732235E+02  0.89999993500E+02 0.  0.
        -12    1    1    2    0    0 -0.14115774665E+00 -0.54272078208E+00  0.10385377415E+01  0.11802677651E+01  0.00000000000E+00 0.  1.
         11    1    3    3    0    0 -0.12453190088E+02  0.27703900056E+02  0.16562809786E+02  0.34596454876E+02  0.51100000000E-03 0. -1.
        -11    1    3    3    0    0 -0.11324454031E+01  0.20710726764E+01  0.11620765881E+02  0.11858076343E+02  0.51100000000E-03 0.  1.
        -12    1    3    3    0    0  0.13726793238E+02 -0.29232251950E+02 -0.29222113409E+02  0.43553201016E+02  0.00000000000E+00 0.  1.
</event>
<event>
 7    1  0.1910099E-015  0.9000775E+02  0.7816164E-02  0.1186339E+00
        -11   -1    0    0    0    0  0.00000000000E+00  0.00000000000E+00  0.45593999997E+02  0.45594000000E+02  0.51100000000E-03 0.  1.
         11   -1    0    0    0    0 -0.00000000000E+00 -0.00000000000E+00 -0.45593999997E+02  0.45594000000E+02  0.51100000000E-03 0. -1.
    9900012    2    1    2    0    0 -0.70513921148E+00 -0.64985224889E+00 -0.68808522296E+00  0.90007749803E+02  0.90000011301E+02 0.  0.
        -12    1    1    2    0    0  0.70513921148E+00  0.64985224889E+00  0.68808522296E+00  0.11802501968E+01  0.00000000000E+00 0.  1.
         11    1    3    3    0    0 -0.19882103663E+02 -0.20116472141E+02 -0.27450449575E+02  0.39414434915E+02  0.51100000000E-03 0. -1.
        -11    1    3    3    0    0 -0.82856536654E+01  0.73422103820E+00  0.69197233174E+00  0.83468534888E+01  0.51100000000E-03 0.  1.
        -12    1    3    3    0    0  0.27462618117E+02  0.18732398854E+02  0.26070392021E+02  0.42246461400E+02  0.00000000000E+00 0.  1.
</event>
<event>
 7    1  0.1910099E-015  0.9000769E+02  0.7816164E-02  0.1186339E+00
        -11   -1    0    0    0    0  0.00000000000E+00  0.00000000000E+00  0.45593999997E+02  0.45594000000E+02  0.51100000000E-03 0.  1.
         11   -1    0    0    0    0 -0.00000000000E+00 -0.00000000000E+00 -0.45593999997E+02  0.45594000000E+02  0.51100000000E-03 0. -1.
    9900012    2    1    2    0    0  0.68219946530E-01  0.11782563318E+01 -0.13830796051E-01  0.90007689348E+02  0.89999950047E+02 0.  0.
        -12    1    1    2    0    0 -0.68219946530E-01 -0.11782563318E+01  0.13830796051E-01  0.11803106521E+01  0.00000000000E+00 0.  1.
         11    1    3    3    0    0  0.26668408953E+02  0.18938154433E+02  0.19839444113E+02  0.38255212356E+02  0.51100000000E-03 0. -1.
        -11    1    3    3    0    0 -0.21073201046E+01 -0.55150618808E+00  0.95487530274E+01  0.97940615547E+01  0.51100000000E-03 0.  1.
        -12    1    3    3    0    0 -0.24492868902E+02 -0.17208391913E+02 -0.29402027936E+02  0.41958415438E+02  0.00000000000E+00 0.  1.
</event>
<event>
 7    1  0.1910099E-015  0.9000774E+02  0.7816164E-02  0.1186339E+00
        -11   -1    0    0    0    0  0.00000000000E+00  0.00000000000E+00  0.45593999997E+02  0.45594000000E+02  0.51100000000E-03 0. -1.
         11   -1    0    0    0    0 -0.00000000000E+00 -0.00000000000E+00 -0.45593999997E+02  0.45594000000E+02  0.51100000000E-03 0.  1.
    9900012    2    1    2    0    0 -0.52625526428E+00  0.82552357462E+00 -0.65921868254E+00  0.90007744499E+02  0.90000005927E+02 0.  0.
        -12    1    1    2    0    0  0.52625526428E+00 -0.82552357462E+00  0.65921868254E+00  0.11802555007E+01  0.00000000000E+00 0.  1.
         11    1    3    3    0    0  0.80834908288E+00 -0.12835268737E+02  0.35551140932E+02  0.37805835180E+02  0.51100000000E-03 0. -1.
        -11    1    3    3    0    0  0.44679872761E+01 -0.81123419810E+01  0.33587797543E+00  0.92674601154E+01  0.51100000000E-03 0.  1.
        -12    1    3    3    0    0 -0.58025916233E+01  0.21773134293E+02 -0.36546237590E+02  0.42934449204E+02  0.00000000000E+00 0.  1.
</event>
<event>
 7    1  0.1910099E-015  0.9000770E+02  0.7816164E-02  0.1186339E+00
        -11   -1    0    0    0    0  0.00000000000E+00  0.00000000000E+00  0.45593999997E+02  0.45594000000E+02  0.51100000000E-03 0. -1.
         11   -1    0    0    0    0 -0.00000000000E+00 -0.00000000000E+00 -0.45593999997E+02  0.45594000000E+02  0.51100000000E-03 0.  1.
    9900012    2    1    2    0    0  0.67259991767E-02 -0.89174040073E+00 -0.77321755902E+00  0.90007698524E+02  0.89999959344E+02 0.  0.
        -12    1    1    2    0    0 -0.67259991767E-02  0.89174040073E+00  0.77321755902E+00  0.11803014763E+01  0.00000000000E+00 0.  1.
         11    1    3    3    0    0  0.15672858803E+01  0.99387115226E+01 -0.32128541886E+01  0.10562045449E+02  0.51100000000E-03 0. -1.
        -11    1    3    3    0    0  0.10264315191E+02  0.14092842659E+02 -0.31321764610E+02  0.35847138227E+02  0.51100000000E-03 0.  1.
         12    1    3    3    0    0 -0.11824875073E+02 -0.24923294582E+02  0.33761401239E+02  0.43598514848E+02  0.00000000000E+00 0. -1.
</event>
<event>
 7    1  0.1910099E-015  0.9000781E+02  0.7816164E-02  0.1186339E+00
        -11   -1    0    0    0    0  0.00000000000E+00  0.00000000000E+00  0.45593999997E+02  0.45594000000E+02  0.51100000000E-03 0. -1.
         11   -1    0    0    0    0 -0.00000000000E+00 -0.00000000000E+00 -0.45593999997E+02  0.45594000000E+02  0.51100000000E-03 0.  1.
    9900012    2    1    2    0    0 -0.64830762489E+00  0.62923769100E+00  0.75934177298E+00  0.90007812398E+02  0.90000074721E+02 0.  0.
        -12    1    1    2    0    0  0.64830762489E+00 -0.62923769100E+00 -0.75934177298E+00  0.11801876022E+01  0.00000000000E+00 0.  1.
         11    1    3    3    0    0  0.30134942337E+00 -0.53323018862E+01 -0.92764358864E+01  0.10704042129E+02  0.51100000000E-03 0. -1.
        -11    1    3    3    0    0 -0.21320686040E+02  0.10060106598E+02 -0.27609071704E+02  0.36304796358E+02  0.51100000000E-03 0.  1.
         12    1    3    3    0    0  0.20371028992E+02 -0.40985670208E+01  0.37644849363E+02  0.42998973911E+02  0.00000000000E+00 0. -1.
</event>
<event>
 7    1  0.1910099E-015  0.9000765E+02  0.7816164E-02  0.1186339E+00
        -11   -1    0    0    0    0  0.00000000000E+00  0.00000000000E+00  0.45593999997E+02  0.45594000000E+02  0.51100000000E-03 0. -1.
         11   -1    0    0    0    0 -0.00000000000E+00 -0.00000000000E+00 -0.45593999997E+02  0.45594000000E+02  0.51100000000E-03 0.  1.
    9900012    2    1    2    0    0  0.10305218169E+00 -0.11271314073E+01  0.33493822158E+00  0.90007648962E+02  0.89999909128E+02 0.  0.
        -12    1    1    2    0    0 -0.10305218169E+00  0.11271314073E+01 -0.33493822158E+00  0.11803510383E+01  0.00000000000E+00 0.  1.
         11    1    3    3    0    0 -0.24575343482E+01  0.43645260567E+00 -0.39121426977E+01  0.46405631876E+01  0.51100000000E-03 0. -1.
        -11    1    3    3    0    0  0.30739593196E+02 -0.41667717445E+00 -0.28659081081E+02  0.42029027331E+02  0.51100000000E-03 0.  1.
         12    1    3    3    0    0 -0.28179006666E+02 -0.11469068385E+01  0.32906162000E+02  0.43338058443E+02  0.00000000000E+00 0. -1.
</event>
<event>
 7    1  0.1910099E-015  0.9000771E+02  0.7816164E-02  0.1186339E+00
        -11   -1    0    0    0    0  0.00000000000E+00  0.00000000000E+00  0.45593999997E+02  0.45594000000E+02  0.51100000000E-03 0.  1.
         11   -1    0    0    0    0 -0.00000000000E+00 -0.00000000000E+00 -0.45593999997E+02  0.45594000000E+02  0.51100000000E-03 0. -1.
    9900012    2    1    2    0    0 -0.81553645149E+00 -0.80809526791E+00  0.27379415360E+00  0.90007711517E+02  0.89999972509E+02 0.  0.
        -12    1    1    2    0    0  0.81553645149E+00  0.80809526791E+00 -0.27379415360E+00  0.11802884835E+01  0.00000000000E+00 0.  1.
         11    1    3    3    0    0 -0.83641643574E+01 -0.35271862237E+02  0.12999830222E+00  0.36250247046E+02  0.51100000000E-03 0. -1.
        -11    1    3    3    0    0 -0.32069320051E+01 -0.79597275638E+01  0.46501257063E+01  0.97603967707E+01  0.51100000000E-03 0.  1.
        -12    1    3    3    0    0  0.10755559911E+02  0.42423494533E+02 -0.45063298549E+01  0.43997067700E+02  0.00000000000E+00 0.  1.
</event>
<event>
 7    1  0.1910099E-015  0.9000722E+02  0.7816164E-02  0.1186340E+00
        -11   -1    0    0    0    0  0.00000000000E+00  0.00000000000E+00  0.45593999997E+02  0.45594000000E+02  0.51100000000E-03 0.  1.
         11   -1    0    0    0    0 -0.00000000000E+00 -0.00000000000E+00 -0.45593999997E+02  0.45594000000E+02  0.51100000000E-03 0. -1.
    9900012    2    1    2    0    0 -0.54825386325E+00 -0.76824180679E+00 -0.70955998968E+00  0.90007215028E+02  0.89999469464E+02 0.  0.
        -12    1    1    2    0    0  0.54825386325E+00  0.76824180679E+00  0.70955998968E+00  0.11807849725E+01  0.00000000000E+00 0.  1.
         11    1    3    3    0    0  0.12111801789E+02  0.60507962056E+01  0.32159247011E+01  0.13915820107E+02  0.51100000000E-03 0. -1.
        -11    1    3    3    0    0  0.21295732615E+02  0.12711372432E+02  0.18512495754E+02  0.30948339471E+02  0.51100000000E-03 0.  1.
         12    1    3    3    0    0 -0.33955788267E+02 -0.19530410444E+02 -0.22437980445E+02  0.45143055450E+02  0.00000000000E+00 0. -1.
</event>
<event>
 7    1  0.1910099E-015  0.9000866E+02  0.7816164E-02  0.1186337E+00
        -11   -1    0    0    0    0  0.00000000000E+00  0.00000000000E+00  0.45593999997E+02  0.45594000000E+02  0.51100000000E-03 0.  1.
         11   -1    0    0    0    0 -0.00000000000E+00 -0.00000000000E+00 -0.45593999997E+02  0.45594000000E+02  0.51100000000E-03 0. -1.
    9900012    2    1    2    0    0  0.38729302435E-01 -0.95198845861E+00 -0.69502922238E+00  0.90008657978E+02  0.90000931459E+02 0.  0.
        -12    1    1    2    0    0 -0.38729302435E-01  0.95198845861E+00  0.69502922238E+00  0.11793420217E+01  0.00000000000E+00 0.  1.
         11    1    3    3    0    0  0.12565635042E+02  0.32318313321E+02  0.15713363871E+02  0.38069388810E+02  0.51100000000E-03 0. -1.
        -11    1    3    3    0    0  0.65190486429E+01  0.26463066474E+01 -0.75716777643E+01  0.10335919819E+02  0.51100000000E-03 0.  1.
        -12    1    3    3    0    0 -0.19045954383E+02 -0.35916608427E+02 -0.88367153293E+01  0.41603349349E+02  0.00000000000E+00 0.  1.
</event>
<event>
 7    1  0.1910099E-015  0.9000781E+02  0.7816164E-02  0.1186339E+00
        -11   -1    0    0    0    0  0.00000000000E+00  0.00000000000E+00  0.45593999997E+02  0.45594000000E+02  0.51100000000E-03 0.  1.
         11   -1    0    0    0    0 -0.00000000000E+00 -0.00000000000E+00 -0.45593999997E+02  0.45594000000E+02  0.51100000000E-03 0. -1.
    9900012    2    1    2    0    0  0.38425261015E+00  0.84921897984E+00 -0.72389959817E+00  0.90007807824E+02  0.90000070087E+02 0.  0.
        -12    1    1    2    0    0 -0.38425261015E+00 -0.84921897984E+00  0.72389959817E+00  0.11801921760E+01  0.00000000000E+00 0.  1.
         11    1    3    3    0    0  0.63924196033E+01 -0.45140132701E+01  0.31250953997E+01  0.84264800306E+01  0.51100000000E-03 0. -1.
        -11    1    3    3    0    0 -0.86288711973E+01 -0.29593106542E+01  0.37873306035E+02  0.38956414722E+02  0.51100000000E-03 0.  1.
         12    1    3    3    0    0  0.26207042042E+01  0.83225429042E+01 -0.41722301033E+02  0.42624913072E+02  0.00000000000E+00 0. -1.
</event>
<event>
 7    1  0.1910099E-015  0.9000780E+02  0.7816164E-02  0.1186339E+00
        -11   -1    0    0    0    0  0.00000000000E+00  0.00000000000E+00  0.45593999997E+02  0.45594000000E+02  0.51100000000E-03 0. -1.
         11   -1    0    0    0    0 -0.00000000000E+00 -0.00000000000E+00 -0.45593999997E+02  0.45594000000E+02  0.51100000000E-03 0.  1.
    9900012    2    1    2    0    0  0.21332543305E+00  0.58017651743E+00  0.10053648628E+01  0.90007800424E+02  0.90000062590E+02 0.  0.
        -12    1    1    2    0    0 -0.21332543305E+00 -0.58017651743E+00 -0.10053648628E+01  0.11801995759E+01  0.00000000000E+00 0.  1.
         11    1    3    3    0    0 -0.10645797099E+02 -0.37726716821E+01  0.61409136283E+00  0.11311196044E+02  0.51100000000E-03 0. -1.
        -11    1    3    3    0    0 -0.29720916184E+02 -0.83717115508E+01 -0.13857985894E+02  0.33844677372E+02  0.51100000000E-03 0.  1.
         12    1    3    3    0    0  0.40580038716E+02  0.12724559750E+02  0.14249259394E+02  0.44851927008E+02  0.00000000000E+00 0. -1.
</event>
<event>
 7    1  0.2807795E-015  0.9000771E+02  0.7816164E-02  0.1186339E+00
        -11   -1    0    0    0    0  0.00000000000E+00  0.00000000000E+00  0.45593999997E+02  0.45594000000E+02  0.51100000000E-03 0.  1.
         11   -1    0    0    0    0 -0.00000000000E+00 -0.00000000000E+00 -0.45593999997E+02  0.45594000000E+02  0.51100000000E-03 0. -1.
    9900012    2    1    2    0    0 -0.69135433923E+00  0.88197135973E+00 -0.37046842483E+00  0.90007707174E+02  0.89999968109E+02 0.  0.
        -12    1    1    2    0    0  0.69135433923E+00 -0.88197135973E+00  0.37046842483E+00  0.11802928262E+01  0.00000000000E+00 0.  1.
         11    1    3    3    0    0  0.27070356055E+01  0.28414672127E+01  0.82371701727E+01  0.91243054752E+01  0.51100000000E-03 0. -1.
        -11    1    3    3    0    0  0.90652493198E+01 -0.20351427185E+02  0.29382314123E+02  0.36873835130E+02  0.51100000000E-03 0.  1.
         12    1    3    3    0    0 -0.12463639264E+02  0.18391931332E+02 -0.37989952721E+02  0.44009566569E+02  0.00000000000E+00 0. -1.
</event>
<event>
 7    1  0.1910099E-015  0.9000788E+02  0.7816164E-02  0.1186339E+00
        -11   -1    0    0    0    0  0.00000000000E+00  0.00000000000E+00  0.45593999997E+02  0.45594000000E+02  0.51100000000E-03 0. -1.
         11   -1    0    0    0    0 -0.00000000000E+00 -0.00000000000E+00 -0.45593999997E+02  0.45594000000E+02  0.51100000000E-03 0.  1.
    9900012    2    1    2    0    0  0.12718415266E+00  0.50818984286E+00  0.10574767716E+01  0.90007877190E+02  0.90000140368E+02 0.  0.
        -12    1    1    2    0    0 -0.12718415266E+00 -0.50818984286E+00 -0.10574767716E+01  0.11801228103E+01  0.00000000000E+00 0.  1.
         11    1    3    3    0    0 -0.13468598301E+02 -0.30205149243E+02  0.17948173817E+02  0.37628328751E+02  0.51100000000E-03 0. -1.
        -11    1    3    3    0    0  0.51206892661E+00  0.42802454157E+01  0.10982781891E+02  0.11798483536E+02  0.51100000000E-03 0.  1.
        -12    1    3    3    0    0  0.13083713527E+02  0.26433093670E+02 -0.27873478937E+02  0.40581064903E+02  0.00000000000E+00 0.  1.
</event>
<event>
 7    1  0.1910099E-015  0.9000769E+02  0.7816164E-02  0.1186339E+00
        -11   -1    0    0    0    0  0.00000000000E+00  0.00000000000E+00  0.45593999997E+02  0.45594000000E+02  0.51100000000E-03 0. -1.
         11   -1    0    0    0    0 -0.00000000000E+00 -0.00000000000E+00 -0.45593999997E+02  0.45594000000E+02  0.51100000000E-03 0.  1.
    9900012    2    1    2    0    0 -0.40692159130E+00 -0.23694930330E+00  0.10823160403E+01  0.90007687260E+02  0.89999947931E+02 0.  0.
        -12    1    1    2    0    0  0.40692159130E+00  0.23694930330E+00 -0.10823160403E+01  0.11803127403E+01  0.00000000000E+00 0.  1.
         11    1    3    3    0    0  0.69926304606E+01 -0.21084390981E+01  0.86739829995E+01  0.11339328795E+02  0.51100000000E-03 0. -1.
        -11    1    3    3    0    0 -0.11789833500E+02 -0.33406254347E+02 -0.20402312792E+02  0.40880709032E+02  0.51100000000E-03 0.  1.
         12    1    3    3    0    0  0.43902814479E+01  0.35277744142E+02  0.12810645833E+02  0.37787649432E+02  0.00000000000E+00 0. -1.
</event>
<event>
 7    1  0.1910099E-015  0.9000756E+02  0.7816164E-02  0.1186339E+00
        -11   -1    0    0    0    0  0.00000000000E+00  0.00000000000E+00  0.45593999997E+02  0.45594000000E+02  0.51100000000E-03 0.  1.
         11   -1    0    0    0    0 -0.00000000000E+00 -0.00000000000E+00 -0.45593999997E+02  0.45594000000E+02  0.51100000000E-03 0. -1.
    9900012    2    1    2    0    0  0.43935289636E+00  0.10267448500E+01 -0.38237691651E+00  0.90007555990E+02  0.89999814929E+02 0.  0.
        -12    1    1    2    0    0 -0.43935289636E+00 -0.10267448500E+01  0.38237691651E+00  0.11804440100E+01  0.00000000000E+00 0.  1.
         11    1    3    3    0    0  0.19323583780E+01 -0.32107108549E+02  0.25878599515E+02  0.41283196840E+02  0.51100000000E-03 0. -1.
        -11    1    3    3    0    0  0.20378232077E+01  0.73249439432E+01  0.41661117876E+01  0.86697182702E+01  0.51100000000E-03 0.  1.
        -12    1    3    3    0    0 -0.35308286893E+01  0.25808909455E+02 -0.30427088219E+02  0.40054640879E+02  0.00000000000E+00 0.  1.
</event>
<event>
 7    1  0.1910099E-015  0.9000764E+02  0.7816164E-02  0.1186339E+00
        -11   -1    0    0    0    0  0.00000000000E+00  0.00000000000E+00  0.45593999997E+02  0.45594000000E+02  0.51100000000E-03 0.  1.
         11   -1    0    0    0    0 -0.00000000000E+00 -0.00000000000E+00 -0.45593999997E+02  0.45594000000E+02  0.51100000000E-03 0. -1.
    9900012    2    1    2    0    0 -0.34741229501E+00  0.11277210413E+01  0.28239458116E-01  0.90007640937E+02  0.89999900998E+02 0.  0.
        -12    1    1    2    0    0  0.34741229501E+00 -0.11277210413E+01 -0.28239458116E-01  0.11803590626E+01  0.00000000000E+00 0.  1.
         11    1    3    3    0    0 -0.33999704100E+02  0.11960744195E+01 -0.14535844037E+02  0.36995962415E+02  0.51100000000E-03 0. -1.
        -11    1    3    3    0    0 -0.69744873175E+01  0.68240578574E+01  0.31328117894E+01  0.10248207109E+02  0.51100000000E-03 0.  1.
        -12    1    3    3    0    0  0.40626779122E+02 -0.68924112357E+01  0.11431271706E+02  0.42763471413E+02  0.00000000000E+00 0.  1.
</event>
<event>
 7    1  0.1910099E-015  0.9000813E+02  0.7816164E-02  0.1186338E+00
        -11   -1    0    0    0    0  0.00000000000E+00  0.00000000000E+00  0.45593999997E+02  0.45594000000E+02  0.51100000000E-03 0.  1.
         11   -1    0    0    0    0 -0.00000000000E+00 -0.00000000000E+00 -0.45593999997E+02  0.45594000000E+02  0.51100000000E-03 0. -1.
    9900012    2    1    2    0    0 -0.68223351150E+00 -0.96247030540E+00 -0.17304761960E-01  0.90008130894E+02  0.90000397421E+02 0.  0.
        -12    1    1    2    0    0  0.68223351150E+00  0.96247030540E+00  0.17304761960E-01  0.11798691062E+01  0.00000000000E+00 0.  1.
         11    1    3    3    0    0 -0.31478553692E+02 -0.18247742203E+02 -0.15282119997E+02  0.39464194277E+02  0.51100000000E-03 0. -1.
        -11    1    3    3    0    0  0.60771605671E+01 -0.82597258525E+01 -0.28558905882E+01  0.10644766932E+02  0.51100000000E-03 0.  1.
        -12    1    3    3    0    0  0.24719159613E+02  0.25544997750E+02  0.18120705823E+02  0.39899169685E+02  0.00000000000E+00 0.  1.
</event>
<event>
 7    1  0.1910099E-015  0.9000771E+02  0.7816164E-02  0.1186339E+00
        -11   -1    0    0    0    0  0.00000000000E+00  0.00000000000E+00  0.45593999997E+02  0.45594000000E+02  0.51100000000E-03 0.  1.
         11   -1    0    0    0    0 -0.00000000000E+00 -0.00000000000E+00 -0.45593999997E+02  0.45594000000E+02  0.51100000000E-03 0. -1.
    9900012    2    1    2    0    0 -0.25565346566E+00  0.10410255901E+01 -0.49395319717E+00  0.90007710741E+02  0.89999971723E+02 0.  0.
        -12    1    1    2    0    0  0.25565346566E+00 -0.10410255901E+01  0.49395319717E+00  0.11802892589E+01  0.00000000000E+00 0.  1.
         11    1    3    3    0    0  0.91503074961E+01  0.37750415204E+02  0.72615443897E+01  0.39516477608E+02  0.51100000000E-03 0. -1.
        -11    1    3    3    0    0  0.71773538073E+01 -0.19996449433E+01  0.60742053952E+01  0.96129578704E+01  0.51100000000E-03 0.  1.
        -12    1    3    3    0    0 -0.16583314769E+02 -0.34709744671E+02 -0.13829702982E+02  0.40878275262E+02  0.00000000000E+00 0.  1.
</event>
<event>
 7    1  0.2216167E-015  0.9000780E+02  0.7816164E-02  0.1186339E+00
        -11   -1    0    0    0    0  0.00000000000E+00  0.00000000000E+00  0.45593999997E+02  0.45594000000E+02  0.51100000000E-03 0. -1.
         11   -1    0    0    0    0 -0.00000000000E+00 -0.00000000000E+00 -0.45593999997E+02  0.45594000000E+02  0.51100000000E-03 0.  1.
    9900012    2    1    2    0    0 -0.72001015085E+00  0.91750894916E+00  0.18067940797E+00  0.90007795637E+02  0.90000057740E+02 0.  0.
        -12    1    1    2    0    0  0.72001015085E+00 -0.91750894916E+00 -0.18067940797E+00  0.11802043626E+01  0.00000000000E+00 0.  1.
         11    1    3    3    0    0  0.76932552490E+01  0.25912006795E+01  0.40198325879E+01  0.90586727275E+01  0.51100000000E-03 0. -1.
        -11    1    3    3    0    0  0.86263245145E+01 -0.31685258081E+02  0.20505762276E+02  0.38715053158E+02  0.51100000000E-03 0.  1.
         12    1    3    3    0    0 -0.17039589914E+02  0.30011566350E+02 -0.24344915456E+02  0.42234069752E+02  0.00000000000E+00 0. -1.
</event>
<event>
 7    1  0.1910099E-015  0.9000770E+02  0.7816164E-02  0.1186339E+00
        -11   -1    0    0    0    0  0.00000000000E+00  0.00000000000E+00  0.45593999997E+02  0.45594000000E+02  0.51100000000E-03 0. -1.
         11   -1    0    0    0    0 -0.00000000000E+00 -0.00000000000E+00 -0.45593999997E+02  0.45594000000E+02  0.51100000000E-03 0.  1.
    9900012    2    1    2    0    0  0.13095926576E+00  0.70897533011E+00  0.93450788652E+00  0.90007702860E+02  0.89999963738E+02 0.  0.
        -12    1    1    2    0    0 -0.13095926576E+00 -0.70897533011E+00 -0.93450788652E+00  0.11802971397E+01  0.00000000000E+00 0.  1.
         11    1    3    3    0    0  0.51143802202E+01  0.37083309223E+02  0.42436888915E+01  0.37674097251E+02  0.51100000000E-03 0. -1.
        -11    1    3    3    0    0  0.92741323826E+01  0.33860520400E+01  0.73968219990E+00  0.99006065413E+01  0.51100000000E-03 0.  1.
        -12    1    3    3    0    0 -0.14257553337E+02 -0.39760385933E+02 -0.40488632049E+01  0.42432999069E+02  0.00000000000E+00 0.  1.
</event>
<event>
 7    1  0.1910099E-015  0.9000773E+02  0.7816164E-02  0.1186339E+00
        -11   -1    0    0    0    0  0.00000000000E+00  0.00000000000E+00  0.45593999997E+02  0.45594000000E+02  0.51100000000E-03 0.  1.
         11   -1    0    0    0    0 -0.00000000000E+00 -0.00000000000E+00 -0.45593999997E+02  0.45594000000E+02  0.51100000000E-03 0. -1.
    9900012    2    1    2    0    0 -0.71259658994E+00  0.90418249848E+00 -0.26017365683E+00  0.90007732987E+02  0.89999994262E+02 0.  0.
        -12    1    1    2    0    0  0.71259658994E+00 -0.90418249848E+00  0.26017365683E+00  0.11802670131E+01  0.00000000000E+00 0.  1.
         11    1    3    3    0    0  0.39754544297E+01  0.74749339178E+01  0.39615254414E+01  0.93473289812E+01  0.51100000000E-03 0. -1.
        -11    1    3    3    0    0  0.22443263454E+02 -0.51345606601E-01  0.29387616978E+02  0.36977489676E+02  0.51100000000E-03 0.  1.
         12    1    3    3    0    0 -0.27131314474E+02 -0.65194058127E+01 -0.33609316076E+02  0.43682914330E+02  0.00000000000E+00 0. -1.
</event>
<event>
 7    1  0.1910099E-015  0.9000766E+02  0.7816164E-02  0.1186339E+00
        -11   -1    0    0    0    0  0.00000000000E+00  0.00000000000E+00  0.45593999997E+02  0.45594000000E+02  0.51100000000E-03 0.  1.
         11   -1    0    0    0    0 -0.00000000000E+00 -0.00000000000E+00 -0.45593999997E+02  0.45594000000E+02  0.51100000000E-03 0. -1.
    9900012    2    1    2    0    0 -0.39632290445E+00 -0.41516357694E+00 -0.10313883270E+01  0.90007663386E+02  0.89999923743E+02 0.  0.
        -12    1    1    2    0    0  0.39632290445E+00  0.41516357694E+00  0.10313883270E+01  0.11803366136E+01  0.00000000000E+00 0.  1.
         11    1    3    3    0    0 -0.85645220380E+01  0.59903803729E+01 -0.36107973061E+02  0.37590177089E+02  0.51100000000E-03 0. -1.
        -11    1    3    3    0    0 -0.77527458555E+01 -0.32649431461E+01 -0.45735347901E+01  0.95750792574E+01  0.51100000000E-03 0.  1.
        -12    1    3    3    0    0  0.15920944989E+02 -0.31406008037E+01  0.39650119524E+02  0.42842407040E+02  0.00000000000E+00 0.  1.
</event>
<event>
 7    1  0.1910099E-015  0.9000770E+02  0.7816164E-02  0.1186339E+00
        -11   -1    0    0    0    0  0.00000000000E+00  0.00000000000E+00  0.45593999997E+02  0.45594000000E+02  0.51100000000E-03 0. -1.
         11   -1    0    0    0    0 -0.00000000000E+00 -0.00000000000E+00 -0.45593999997E+02  0.45594000000E+02  0.51100000000E-03 0.  1.
    9900012    2    1    2    0    0 -0.60183578402E+00  0.97088803151E+00  0.29711471134E+00  0.90007700448E+02  0.89999961294E+02 0.  0.
        -12    1    1    2    0    0  0.60183578402E+00 -0.97088803151E+00 -0.29711471134E+00  0.11802995520E+01  0.00000000000E+00 0.  1.
         11    1    3    3    0    0  0.38574478361E+01  0.32130277527E+01  0.15086118364E+02  0.15899510015E+02  0.51100000000E-03 0. -1.
        -11    1    3    3    0    0 -0.19763899966E+02  0.25811704215E+02  0.96119585432E+01  0.33900524533E+02  0.51100000000E-03 0.  1.
         12    1    3    3    0    0  0.15304616346E+02 -0.28053843936E+02 -0.24400962196E+02  0.40207665900E+02  0.00000000000E+00 0. -1.
</event>
<event>
 7    1  0.1910099E-015  0.9000776E+02  0.7816164E-02  0.1186339E+00
        -11   -1    0    0    0    0  0.00000000000E+00  0.00000000000E+00  0.45593999997E+02  0.45594000000E+02  0.51100000000E-03 0. -1.
         11   -1    0    0    0    0 -0.00000000000E+00 -0.00000000000E+00 -0.45593999997E+02  0.45594000000E+02  0.51100000000E-03 0.  1.
    9900012    2    1    2    0    0  0.46638161578E+00  0.47415254420E+00  0.97500241557E+00  0.90007761822E+02  0.90000023478E+02 0.  0.
        -12    1    1    2    0    0 -0.46638161578E+00 -0.47415254420E+00 -0.97500241557E+00  0.11802381781E+01  0.00000000000E+00 0.  1.
         11    1    3    3    0    0 -0.22382272396E+01  0.34975173784E+02 -0.22208741405E+02  0.41490970553E+02  0.51100000000E-03 0. -1.
        -11    1    3    3    0    0  0.79181416178E+01 -0.48192255495E+01 -0.17133751636E+01  0.94264286073E+01  0.51100000000E-03 0.  1.
        -12    1    3    3    0    0 -0.52135327625E+01 -0.29681795690E+02  0.24897118984E+02  0.39090362661E+02  0.00000000000E+00 0.  1.
</event>
<event>
 7    1  0.1910099E-015  0.9000773E+02  0.7816164E-02  0.1186339E+00
        -11   -1    0    0    0    0  0.00000000000E+00  0.00000000000E+00  0.45593999997E+02  0.45594000000E+02  0.51100000000E-03 0.  1.
         11   -1    0    0    0    0 -0.00000000000E+00 -0.00000000000E+00 -0.45593999997E+02  0.45594000000E+02  0.51100000000E-03 0. -1.
    9900012    2    1    2    0    0  0.10884724392E+00  0.23945766613E+00 -0.11505889471E+01  0.90007727734E+02  0.89999988940E+02 0.  0.
        -12    1    1    2    0    0 -0.10884724392E+00 -0.23945766613E+00  0.11505889471E+01  0.11802722659E+01  0.00000000000E+00 0.  1.
         11    1    3    3    0    0  0.25684137532E+01  0.27838780039E+01 -0.47121502162E+01  0.60457494051E+01  0.51100000000E-03 0. -1.
        -11    1    3    3    0    0  0.33145983129E+02 -0.19235610629E+02  0.17647998432E+02  0.42191429968E+02  0.51100000000E-03 0.  1.
         12    1    3    3    0    0 -0.35605549638E+02  0.16691190292E+02 -0.14086437163E+02  0.41770548360E+02  0.00000000000E+00 0. -1.
</event>
<event>
 7    1  0.1910099E-015  0.9000769E+02  0.7816164E-02  0.1186339E+00
        -11   -1    0    0    0    0  0.00000000000E+00  0.00000000000E+00  0.45593999997E+02  0.45594000000E+02  0.51100000000E-03 0.  1.
         11   -1    0    0    0    0 -0.00000000000E+00 -0.00000000000E+00 -0.45593999997E+02  0.45594000000E+02  0.51100000000E-03 0. -1.
    9900012    2    1    2    0    0 -0.72177777920E-01 -0.11462574084E+01 -0.27204855199E+00  0.90007692374E+02  0.89999953113E+02 0.  0.
        -12    1    1    2    0    0  0.72177777920E-01  0.11462574084E+01  0.27204855199E+00  0.11803076262E+01  0.00000000000E+00 0.  1.
         11    1    3    3    0    0 -0.14663688562E+02 -0.34930279964E+02 -0.15421800505E+01  0.37914727220E+02  0.51100000000E-03 0. -1.
        -11    1    3    3    0    0 -0.85324807119E+01 -0.14299341204E+01  0.46644013963E+01  0.98287628588E+01  0.51100000000E-03 0.  1.
        -12    1    3    3    0    0  0.23123991496E+02  0.35213956676E+02 -0.33942698977E+01  0.42264202295E+02  0.00000000000E+00 0.  1.
</event>
<event>
 7    1  0.1910099E-015  0.9000767E+02  0.7816164E-02  0.1186339E+00
        -11   -1    0    0    0    0  0.00000000000E+00  0.00000000000E+00  0.45593999997E+02  0.45594000000E+02  0.51100000000E-03 0.  1.
         11   -1    0    0    0    0 -0.00000000000E+00 -0.00000000000E+00 -0.45593999997E+02  0.45594000000E+02  0.51100000000E-03 0. -1.
    9900012    2    1    2    0    0 -0.33080232109E+00 -0.68051402707E+00 -0.90589668562E+00  0.90007670249E+02  0.89999930696E+02 0.  0.
        -12    1    1    2    0    0  0.33080232109E+00  0.68051402707E+00  0.90589668562E+00  0.11803297513E+01  0.00000000000E+00 0.  1.
         11    1    3    3    0    0 -0.10002343244E+02  0.72103855756E+01  0.32853754413E+01  0.12760494605E+02  0.51100000000E-03 0. -1.
        -11    1    3    3    0    0  0.12268336876E+02  0.26679808122E+02  0.19506341628E+02  0.35253675200E+02  0.51100000000E-03 0.  1.
         12    1    3    3    0    0 -0.25967959531E+01 -0.34570707725E+02 -0.23697613755E+02  0.41993500444E+02  0.00000000000E+00 0. -1.
</event>
<event>
 7    1  0.1910099E-015  0.9000786E+02  0.7816164E-02  0.1186339E+00
        -11   -1    0    0    0    0  0.00000000000E+00  0.00000000000E+00  0.45593999997E+02  0.45594000000E+02  0.51100000000E-03 0.  1.
         11   -1    0    0    0    0 -0.00000000000E+00 -0.00000000000E+00 -0.45593999997E+02  0.45594000000E+02  0.51100000000E-03 0. -1.
    9900012    2    1    2    0    0 -0.88797506575E+00  0.71963178496E+00 -0.29387406003E+00  0.90007859506E+02  0.90000122451E+02 0.  0.
        -12    1    1    2    0    0  0.88797506575E+00 -0.71963178496E+00  0.29387406003E+00  0.11801404944E+01  0.00000000000E+00 0.  1.
         11    1    3    3    0    0  0.92192472709E+01  0.90556331291E+01  0.29520312758E+01  0.13255696908E+02  0.51100000000E-03 0. -1.
        -11    1    3    3    0    0  0.22898584559E+02  0.35596025731E+01  0.23219986192E+02  0.32805238976E+02  0.51100000000E-03 0.  1.
         12    1    3    3    0    0 -0.33005806895E+02 -0.11895603917E+02 -0.26465891528E+02  0.43946923621E+02  0.00000000000E+00 0. -1.
</event>
<event>
 7    1  0.1910099E-015  0.9000778E+02  0.7816164E-02  0.1186339E+00
        -11   -1    0    0    0    0  0.00000000000E+00  0.00000000000E+00  0.45593999997E+02  0.45594000000E+02  0.51100000000E-03 0.  1.
         11   -1    0    0    0    0 -0.00000000000E+00 -0.00000000000E+00 -0.45593999997E+02  0.45594000000E+02  0.51100000000E-03 0. -1.
    9900012    2    1    2    0    0  0.91636427579E+00  0.64652850330E+00  0.36767788245E+00  0.90007784080E+02  0.90000046030E+02 0.  0.
        -12    1    1    2    0    0 -0.91636427579E+00 -0.64652850330E+00 -0.36767788245E+00  0.11802159196E+01  0.00000000000E+00 0.  1.
         11    1    3    3    0    0 -0.58282147218E+01 -0.53287874243E+01 -0.51461728958E+01  0.94258770410E+01  0.51100000000E-03 0. -1.
        -11    1    3    3    0    0 -0.36055869802E+02 -0.32867606284E+01  0.64770590177E+01  0.36780169064E+02  0.51100000000E-03 0.  1.
         12    1    3    3    0    0  0.42800448799E+02  0.92620765560E+01 -0.96320823944E+00  0.43801737975E+02  0.00000000000E+00 0. -1.
</event>
<event>
 7    1  0.1910099E-015  0.9000774E+02  0.7816164E-02  0.1186339E+00
        -11   -1    0    0    0    0  0.00000000000E+00  0.00000000000E+00  0.45593999997E+02  0.45594000000E+02  0.51100000000E-03 0. -1.
         11   -1    0    0    0    0 -0.00000000000E+00 -0.00000000000E+00 -0.45593999997E+02  0.45594000000E+02  0.51100000000E-03 0.  1.
    9900012    2    1    2    0    0  0.10404330585E+01 -0.54466562028E+00 -0.11773236246E+00  0.90007736260E+02  0.89999997579E+02 0.  0.
        -12    1    1    2    0    0 -0.10404330585E+01  0.54466562028E+00  0.11773236246E+00  0.11802637401E+01  0.00000000000E+00 0.  1.
         11    1    3    3    0    0 -0.69717767094E+01  0.37063259720E+01  0.33686498135E+01  0.85843068749E+01  0.51100000000E-03 0. -1.
        -11    1    3    3    0    0  0.14695680249E+02  0.36858121398E+02 -0.26061665924E+01  0.39765264183E+02  0.51100000000E-03 0.  1.
         12    1    3    3    0    0 -0.66834704813E+01 -0.41109112990E+02 -0.88021558352E+00  0.41658165202E+02  0.00000000000E+00 0. -1.
</event>
<event>
 7    1  0.1910099E-015  0.9000781E+02  0.7816164E-02  0.1186339E+00
        -11   -1    0    0    0    0  0.00000000000E+00  0.00000000000E+00  0.45593999997E+02  0.45594000000E+02  0.51100000000E-03 0.  1.
         11   -1    0    0    0    0 -0.00000000000E+00 -0.00000000000E+00 -0.45593999997E+02  0.45594000000E+02  0.51100000000E-03 0. -1.
    9900012    2    1    2    0    0 -0.44976957873E-02 -0.11795128062E+01 -0.39617899766E-01  0.90007813461E+02  0.90000075799E+02 0.  0.
        -12    1    1    2    0    0  0.44976957873E-02  0.11795128062E+01  0.39617899766E-01  0.11801865391E+01  0.00000000000E+00 0.  1.
         11    1    3    3    0    0 -0.54699675130E+00 -0.29960517876E+02 -0.11827595660E+02  0.32215273648E+02  0.51100000000E-03 0. -1.
        -11    1    3    3    0    0  0.47574907521E+01 -0.84294504642E+01 -0.10445963120E+02  0.14241049791E+02  0.51100000000E-03 0.  1.
        -12    1    3    3    0    0 -0.42149916966E+01  0.37210455534E+02  0.22233940880E+02  0.43551490022E+02  0.00000000000E+00 0.  1.
</event>
<event>
 7    1  0.1910099E-015  0.9000772E+02  0.7816164E-02  0.1186339E+00
        -11   -1    0    0    0    0  0.00000000000E+00  0.00000000000E+00  0.45593999997E+02  0.45594000000E+02  0.51100000000E-03 0. -1.
         11   -1    0    0    0    0 -0.00000000000E+00 -0.00000000000E+00 -0.45593999997E+02  0.45594000000E+02  0.51100000000E-03 0.  1.
    9900012    2    1    2    0    0  0.11142935015E+01 -0.21173795504E+00 -0.32646496065E+00  0.90007719381E+02  0.89999980477E+02 0.  0.
        -12    1    1    2    0    0 -0.11142935015E+01  0.21173795504E+00  0.32646496065E+00  0.11802806190E+01  0.00000000000E+00 0.  1.
         11    1    3    3    0    0 -0.26796044069E+02 -0.28289226368E+02  0.11846809459E+02  0.40726590833E+02  0.51100000000E-03 0. -1.
        -11    1    3    3    0    0  0.76125614419E+00  0.16452229810E+02 -0.10841323078E+02  0.19717749947E+02  0.51100000000E-03 0.  1.
        -12    1    3    3    0    0  0.27149081427E+02  0.11625258603E+02 -0.13319513422E+01  0.29563378601E+02  0.00000000000E+00 0.  1.
</event>
<event>
 7    1  0.1910099E-015  0.9000775E+02  0.7816164E-02  0.1186339E+00
        -11   -1    0    0    0    0  0.00000000000E+00  0.00000000000E+00  0.45593999997E+02  0.45594000000E+02  0.51100000000E-03 0. -1.
         11   -1    0    0    0    0 -0.00000000000E+00 -0.00000000000E+00 -0.45593999997E+02  0.45594000000E+02  0.51100000000E-03 0.  1.
    9900012    2    1    2    0    0  0.95603151606E+00  0.47643837155E-01 -0.69046006788E+00  0.90007745239E+02  0.90000006676E+02 0.  0.
        -12    1    1    2    0    0 -0.95603151606E+00 -0.47643837155E-01  0.69046006788E+00  0.11802547607E+01  0.00000000000E+00 0.  1.
         11    1    3    3    0    0 -0.18030353950E+01  0.16269404078E+01  0.31591040543E+01  0.39846970290E+01  0.51100000000E-03 0. -1.
        -11    1    3    3    0    0 -0.24625749792E+02 -0.10888722008E+02  0.30785403390E+02  0.40899057225E+02  0.51100000000E-03 0.  1.
         12    1    3    3    0    0  0.27384816704E+02  0.93094254369E+01 -0.34634967512E+02  0.45123990985E+02  0.00000000000E+00 0. -1.
</event>
<event>
 7    1  0.1910099E-015  0.9000771E+02  0.7816164E-02  0.1186339E+00
        -11   -1    0    0    0    0  0.00000000000E+00  0.00000000000E+00  0.45593999997E+02  0.45594000000E+02  0.51100000000E-03 0. -1.
         11   -1    0    0    0    0 -0.00000000000E+00 -0.00000000000E+00 -0.45593999997E+02  0.45594000000E+02  0.51100000000E-03 0.  1.
    9900012    2    1    2    0    0  0.59161763566E-01  0.77411503153E+00  0.88901042005E+00  0.90007706086E+02  0.89999967006E+02 0.  0.
        -12    1    1    2    0    0 -0.59161763566E-01 -0.77411503153E+00 -0.88901042005E+00  0.11802939139E+01  0.00000000000E+00 0.  1.
         11    1    3    3    0    0  0.30547264744E+02 -0.19299153541E+02 -0.71072692391E+01  0.36825344357E+02  0.51100000000E-03 0. -1.
        -11    1    3    3    0    0  0.41581814105E+01 -0.71933511866E+01 -0.32482838924E+00  0.83150639011E+01  0.51100000000E-03 0.  1.
        -12    1    3    3    0    0 -0.34646284391E+02  0.27266619759E+02  0.83211080484E+01  0.44867297827E+02  0.00000000000E+00 0.  1.
</event>
<event>
 7    1  0.1910099E-015  0.9000774E+02  0.7816164E-02  0.1186339E+00
        -11   -1    0    0    0    0  0.00000000000E+00  0.00000000000E+00  0.45593999997E+02  0.45594000000E+02  0.51100000000E-03 0. -1.
         11   -1    0    0    0    0 -0.00000000000E+00 -0.00000000000E+00 -0.45593999997E+02  0.45594000000E+02  0.51100000000E-03 0.  1.
    9900012    2    1    2    0    0  0.91455714843E+00 -0.73477348594E+00 -0.12928544145E+00  0.90007736649E+02  0.89999997972E+02 0.  0.
        -12    1    1    2    0    0 -0.91455714843E+00  0.73477348594E+00  0.12928544145E+00  0.11802633514E+01  0.00000000000E+00 0.  1.
         11    1    3    3    0    0  0.16051462738E+01 -0.56170772041E+01 -0.10730067207E+02  0.12217298941E+02  0.51100000000E-03 0. -1.
        -11    1    3    3    0    0  0.24408095876E+02  0.27086373180E+02 -0.10802418645E+02  0.38027871426E+02  0.51100000000E-03 0.  1.
         12    1    3    3    0    0 -0.25098685002E+02 -0.22204069462E+02  0.21403200410E+02  0.39762566282E+02  0.00000000000E+00 0. -1.
</event>
<event>
 7    1  0.1910099E-015  0.9000784E+02  0.7816164E-02  0.1186339E+00
        -11   -1    0    0    0    0  0.00000000000E+00  0.00000000000E+00  0.45593999997E+02  0.45594000000E+02  0.51100000000E-03 0. -1.
         11   -1    0    0    0    0 -0.00000000000E+00 -0.00000000000E+00 -0.45593999997E+02  0.45594000000E+02  0.51100000000E-03 0.  1.
    9900012    2    1    2    0    0 -0.53228074603E+00  0.15678164813E+00  0.10415689701E+01  0.90007843571E+02  0.90000106306E+02 0.  0.
        -12    1    1    2    0    0  0.53228074603E+00 -0.15678164813E+00 -0.10415689701E+01  0.11801564291E+01  0.00000000000E+00 0.  1.
         11    1    3    3    0    0 -0.59362323978E+01 -0.47499005720E+01 -0.16662136045E+02  0.18314671397E+02  0.51100000000E-03 0. -1.
        -11    1    3    3    0    0 -0.11973997153E+02  0.33732381718E+02  0.99749103941E+01  0.37158431369E+02  0.51100000000E-03 0.  1.
         12    1    3    3    0    0  0.17377948805E+02 -0.28825699498E+02  0.77287946210E+01  0.34534740805E+02  0.00000000000E+00 0. -1.
</event>
<event>
 7    1  0.1910099E-015  0.9000772E+02  0.7816164E-02  0.1186339E+00
        -11   -1    0    0    0    0  0.00000000000E+00  0.00000000000E+00  0.45593999997E+02  0.45594000000E+02  0.51100000000E-03 0. -1.
         11   -1    0    0    0    0 -0.00000000000E+00 -0.00000000000E+00 -0.45593999997E+02  0.45594000000E+02  0.51100000000E-03 0.  1.
    9900012    2    1    2    0    0 -0.10916305840E+01  0.39719705923E+00  0.20892404056E+00  0.90007715250E+02  0.89999976292E+02 0.  0.
        -12    1    1    2    0    0  0.10916305840E+01 -0.39719705923E+00 -0.20892404056E+00  0.11802847497E+01  0.00000000000E+00 0.  1.
         11    1    3    3    0    0 -0.76968793364E+01 -0.25830616888E+02 -0.24147917632E+02  0.36188183797E+02  0.51100000000E-03 0. -1.
        -11    1    3    3    0    0 -0.42242923599E+01 -0.32434587906E+01 -0.74290884993E+01  0.91408985915E+01  0.51100000000E-03 0.  1.
        -12    1    3    3    0    0  0.10829541112E+02  0.29471272738E+02  0.31785930172E+02  0.44678632861E+02  0.00000000000E+00 0.  1.
</event>
<event>
 7    1  0.1910099E-015  0.9000775E+02  0.7816164E-02  0.1186339E+00
        -11   -1    0    0    0    0  0.00000000000E+00  0.00000000000E+00  0.45593999997E+02  0.45594000000E+02  0.51100000000E-03 0. -1.
         11   -1    0    0    0    0 -0.00000000000E+00 -0.00000000000E+00 -0.45593999997E+02  0.45594000000E+02  0.51100000000E-03 0.  1.
    9900012    2    1    2    0    0  0.47611931307E+00  0.45685121572E+00  0.97855954125E+00  0.90007753666E+02  0.90000015214E+02 0.  0.
        -12    1    1    2    0    0 -0.47611931307E+00 -0.45685121572E+00 -0.97855954125E+00  0.11802463342E+01  0.00000000000E+00 0.  1.
         11    1    3    3    0    0 -0.55937873624E+01  0.47989830944E+01 -0.10137862740E+02  0.12533832494E+02  0.51100000000E-03 0. -1.
        -11    1    3    3    0    0 -0.29000746582E+02  0.17923544313E+02  0.11348252284E+02  0.35931595751E+02  0.51100000000E-03 0.  1.
         12    1    3    3    0    0  0.35070653258E+02 -0.22265676192E+02 -0.23183000362E+00  0.41542325421E+02  0.00000000000E+00 0. -1.
</event>
<event>
 7    1  0.1910099E-015  0.9000779E+02  0.7816164E-02  0.1186339E+00
        -11   -1    0    0    0    0  0.00000000000E+00  0.00000000000E+00  0.45593999997E+02  0.45594000000E+02  0.51100000000E-03 0. -1.
         11   -1    0    0    0    0 -0.00000000000E+00 -0.00000000000E+00 -0.45593999997E+02  0.45594000000E+02  0.51100000000E-03 0.  1.
    9900012    2    1    2    0    0 -0.97332390894E+00  0.44949964018E+00 -0.49345239672E+00  0.90007786195E+02  0.90000048173E+02 0.  0.
        -12    1    1    2    0    0  0.97332390894E+00 -0.44949964018E+00  0.49345239672E+00  0.11802138052E+01  0.00000000000E+00 0.  1.
         11    1    3    3    0    0 -0.55246177115E+01 -0.34721359912E+01 -0.10108387383E+02  0.12031484736E+02  0.51100000000E-03 0. -1.
        -11    1    3    3    0    0  0.30029337158E+01  0.39441057622E+02 -0.43186957261E+01  0.39790272307E+02  0.51100000000E-03 0.  1.
         12    1    3    3    0    0  0.15483600868E+01 -0.35519421991E+02  0.13933630713E+02  0.38186029151E+02  0.00000000000E+00 0. -1.
</event>
<event>
 7    1  0.1910099E-015  0.9000771E+02  0.7816164E-02  0.1186339E+00
        -11   -1    0    0    0    0  0.00000000000E+00  0.00000000000E+00  0.45593999997E+02  0.45594000000E+02  0.51100000000E-03 0.  1.
         11   -1    0    0    0    0 -0.00000000000E+00 -0.00000000000E+00 -0.45593999997E+02  0.45594000000E+02  0.51100000000E-03 0. -1.
    9900012    2    1    2    0    0  0.41631940405E+00 -0.15822731737E+00 -0.10930353657E+01  0.90007710188E+02  0.89999971162E+02 0.  0.
        -12    1    1    2    0    0 -0.41631940405E+00  0.15822731737E+00  0.10930353657E+01  0.11802898122E+01  0.00000000000E+00 0.  1.
         11    1    3    3    0    0 -0.63662888742E+01 -0.10844562591E+01  0.37826316875E+01  0.74842489371E+01  0.51100000000E-03 0. -1.
        -11    1    3    3    0    0  0.42730763327E+01 -0.34011174501E+02 -0.24722855860E+02  0.42263918115E+02  0.51100000000E-03 0.  1.
         12    1    3    3    0    0  0.25095319456E+01  0.34937403443E+02  0.19847188807E+02  0.40259543135E+02  0.00000000000E+00 0. -1.
</event>
<event>
 7    1  0.1910099E-015  0.9000775E+02  0.7816164E-02  0.1186339E+00
        -11   -1    0    0    0    0  0.00000000000E+00  0.00000000000E+00  0.45593999997E+02  0.45594000000E+02  0.51100000000E-03 0.  1.
         11   -1    0    0    0    0 -0.00000000000E+00 -0.00000000000E+00 -0.45593999997E+02  0.45594000000E+02  0.51100000000E-03 0. -1.
    9900012    2    1    2    0    0 -0.84824260828E+00 -0.57475106670E+00 -0.58577744894E+00  0.90007750225E+02  0.90000011728E+02 0.  0.
        -12    1    1    2    0    0  0.84824260828E+00  0.57475106670E+00  0.58577744894E+00  0.11802497748E+01  0.00000000000E+00 0.  1.
         11    1    3    3    0    0  0.18549916044E+02  0.25716858792E+02 -0.16706714571E+02  0.35840905728E+02  0.51100000000E-03 0. -1.
        -11    1    3    3    0    0  0.79283751227E+01  0.40209528972E+01 -0.26058754548E+01  0.92637887192E+01  0.51100000000E-03 0.  1.
        -12    1    3    3    0    0 -0.27326533774E+02 -0.30312562756E+02  0.18726812576E+02  0.44903055778E+02  0.00000000000E+00 0.  1.
</event>
<event>
 7    1  0.1910099E-015  0.9000776E+02  0.7816164E-02  0.1186339E+00
        -11   -1    0    0    0    0  0.00000000000E+00  0.00000000000E+00  0.45593999997E+02  0.45594000000E+02  0.51100000000E-03 0. -1.
         11   -1    0    0    0    0 -0.00000000000E+00 -0.00000000000E+00 -0.45593999997E+02  0.45594000000E+02  0.51100000000E-03 0.  1.
    9900012    2    1    2    0    0 -0.29296515545E+00 -0.11344597767E+01  0.14190849604E+00  0.90007760368E+02  0.90000022005E+02 0.  0.
        -12    1    1    2    0    0  0.29296515545E+00  0.11344597767E+01 -0.14190849604E+00  0.11802396318E+01  0.00000000000E+00 0.  1.
         11    1    3    3    0    0 -0.32898624715E+02  0.18671129999E+02  0.14218021526E+02  0.40411418435E+02  0.51100000000E-03 0. -1.
        -11    1    3    3    0    0  0.41645715535E+01  0.41391635798E+01  0.50877900902E+01  0.77692946674E+01  0.51100000000E-03 0.  1.
        -12    1    3    3    0    0  0.28441088006E+02 -0.23944753355E+02 -0.19163903120E+02  0.41827047266E+02  0.00000000000E+00 0.  1.
</event>
<event>
 7    1  0.1910099E-015  0.9000786E+02  0.7816164E-02  0.1186339E+00
        -11   -1    0    0    0    0  0.00000000000E+00  0.00000000000E+00  0.45593999997E+02  0.45594000000E+02  0.51100000000E-03 0. -1.
         11   -1    0    0    0    0 -0.00000000000E+00 -0.00000000000E+00 -0.45593999997E+02  0.45594000000E+02  0.51100000000E-03 0.  1.
    9900012    2    1    2    0    0 -0.35466129104E+00 -0.10192761858E+01  0.47752419612E+00  0.90007856817E+02  0.90000119727E+02 0.  0.
        -12    1    1    2    0    0  0.35466129104E+00  0.10192761858E+01 -0.47752419612E+00  0.11801431829E+01  0.00000000000E+00 0.  1.
         11    1    3    3    0    0 -0.95602744762E+01 -0.14273359403E+01 -0.41576638300E+01  0.10522466666E+02  0.51100000000E-03 0. -1.
        -11    1    3    3    0    0 -0.78580593579E+01  0.22258186939E+02 -0.28027604709E+02  0.36643179565E+02  0.51100000000E-03 0.  1.
         12    1    3    3    0    0  0.17063672543E+02 -0.21850127185E+02  0.32662792735E+02  0.42842210586E+02  0.00000000000E+00 0. -1.
</event>
<event>
 7    1  0.1910099E-015  0.9000773E+02  0.7816164E-02  0.1186339E+00
        -11   -1    0    0    0    0  0.00000000000E+00  0.00000000000E+00  0.45593999997E+02  0.45594000000E+02  0.51100000000E-03 0.  1.
         11   -1    0    0    0    0 -0.00000000000E+00 -0.00000000000E+00 -0.45593999997E+02  0.45594000000E+02  0.51100000000E-03 0. -1.
    9900012    2    1    2    0    0  0.58158729379E+00  0.70619251979E+00  0.74570900482E+00  0.90007731566E+02  0.89999992823E+02 0.  0.
        -12    1    1    2    0    0 -0.58158729379E+00 -0.70619251979E+00 -0.74570900482E+00  0.11802684335E+01  0.00000000000E+00 0.  1.
         11    1    3    3    0    0 -0.21896659698E+01  0.35066542493E+02 -0.19895676464E+02  0.40376911493E+02  0.51100000000E-03 0. -1.
        -11    1    3    3    0    0  0.37894472942E+01 -0.66639974664E+01 -0.70771469223E+01  0.10433349503E+02  0.51100000000E-03 0.  1.
        -12    1    3    3    0    0 -0.10181940306E+01 -0.27696352506E+02  0.27718532391E+02  0.39197470571E+02  0.00000000000E+00 0.  1.
</event>
<event>
 7    1  0.1910099E-015  0.9000774E+02  0.7816164E-02  0.1186339E+00
        -11   -1    0    0    0    0  0.00000000000E+00  0.00000000000E+00  0.45593999997E+02  0.45594000000E+02  0.51100000000E-03 0. -1.
         11   -1    0    0    0    0 -0.00000000000E+00 -0.00000000000E+00 -0.45593999997E+02  0.45594000000E+02  0.51100000000E-03 0.  1.
    9900012    2    1    2    0    0  0.12432185049E+00  0.68010510715E+00  0.95656497556E+00  0.90007739253E+02  0.90000000611E+02 0.  0.
        -12    1    1    2    0    0 -0.12432185049E+00 -0.68010510715E+00 -0.95656497556E+00  0.11802607474E+01  0.00000000000E+00 0.  1.
         11    1    3    3    0    0  0.76865105944E+01  0.78254474928E+01  0.34091359371E+02  0.35812579600E+02  0.51100000000E-03 0. -1.
        -11    1    3    3    0    0  0.85661541789E-01  0.87933603708E+00  0.98064355330E+01  0.98461539644E+01  0.51100000000E-03 0.  1.
        -12    1    3    3    0    0 -0.76478502857E+01 -0.80246784227E+01 -0.42941229928E+02  0.44349005688E+02  0.00000000000E+00 0.  1.
</event>
<event>
 7    1  0.1910099E-015  0.9000784E+02  0.7816164E-02  0.1186339E+00
        -11   -1    0    0    0    0  0.00000000000E+00  0.00000000000E+00  0.45593999997E+02  0.45594000000E+02  0.51100000000E-03 0.  1.
         11   -1    0    0    0    0 -0.00000000000E+00 -0.00000000000E+00 -0.45593999997E+02  0.45594000000E+02  0.51100000000E-03 0. -1.
    9900012    2    1    2    0    0 -0.58026822260E+00  0.89457480227E+00 -0.50576632250E+00  0.90007841172E+02  0.90000103875E+02 0.  0.
        -12    1    1    2    0    0  0.58026822260E+00 -0.89457480227E+00  0.50576632250E+00  0.11801588283E+01  0.00000000000E+00 0.  1.
         11    1    3    3    0    0  0.24102004307E+02 -0.24957986312E+02 -0.17488419308E+02  0.38854246904E+02  0.51100000000E-03 0. -1.
        -11    1    3    3    0    0 -0.43384931513E+01 -0.42629406285E+01 -0.56812238827E+01  0.83229496389E+01  0.51100000000E-03 0.  1.
        -12    1    3    3    0    0 -0.20343779379E+02  0.30115501742E+02  0.22663876868E+02  0.42830644628E+02  0.00000000000E+00 0.  1.
</event>
<event>
 7    1  0.1910099E-015  0.9000756E+02  0.7816164E-02  0.1186339E+00
        -11   -1    0    0    0    0  0.00000000000E+00  0.00000000000E+00  0.45593999997E+02  0.45594000000E+02  0.51100000000E-03 0. -1.
         11   -1    0    0    0    0 -0.00000000000E+00 -0.00000000000E+00 -0.45593999997E+02  0.45594000000E+02  0.51100000000E-03 0.  1.
    9900012    2    1    2    0    0 -0.96036080147E+00  0.38176404098E+00  0.57043275601E+00  0.90007563563E+02  0.89999822602E+02 0.  0.
        -12    1    1    2    0    0  0.96036080147E+00 -0.38176404098E+00 -0.57043275601E+00  0.11804364367E+01  0.00000000000E+00 0.  1.
         11    1    3    3    0    0 -0.23249834349E+02  0.22963461411E+02 -0.30447144288E+01  0.32819897066E+02  0.51100000000E-03 0. -1.
        -11    1    3    3    0    0 -0.12978807788E+02 -0.51890726166E+01 -0.81011637087E+01  0.16155642356E+02  0.51100000000E-03 0.  1.
        -12    1    3    3    0    0  0.35268281336E+02 -0.17392624753E+02  0.11716310893E+02  0.41032024141E+02  0.00000000000E+00 0.  1.
</event>
<event>
 7    1  0.1910099E-015  0.9000761E+02  0.7816164E-02  0.1186339E+00
        -11   -1    0    0    0    0  0.00000000000E+00  0.00000000000E+00  0.45593999997E+02  0.45594000000E+02  0.51100000000E-03 0.  1.
         11   -1    0    0    0    0 -0.00000000000E+00 -0.00000000000E+00 -0.45593999997E+02  0.45594000000E+02  0.51100000000E-03 0. -1.
    9900012    2    1    2    0    0 -0.10752236504E+01 -0.23606784574E+00 -0.42601672078E+00  0.90007608466E+02  0.89999868098E+02 0.  0.
        -12    1    1    2    0    0  0.10752236504E+01  0.23606784574E+00  0.42601672078E+00  0.11803915336E+01  0.00000000000E+00 0.  1.
         11    1    3    3    0    0 -0.26633256642E+02 -0.17804246356E+02 -0.28360569529E+02  0.42786019351E+02  0.51100000000E-03 0. -1.
        -11    1    3    3    0    0  0.13658909759E+01 -0.48779892439E+01  0.40012731222E+01  0.64552787764E+01  0.51100000000E-03 0.  1.
        -12    1    3    3    0    0  0.24192142015E+02  0.22446167754E+02  0.23933279686E+02  0.40766310339E+02  0.00000000000E+00 0.  1.
</event>
<event>
 7    1  0.1910099E-015  0.9000776E+02  0.7816164E-02  0.1186339E+00
        -11   -1    0    0    0    0  0.00000000000E+00  0.00000000000E+00  0.45593999997E+02  0.45594000000E+02  0.51100000000E-03 0.  1.
         11   -1    0    0    0    0 -0.00000000000E+00 -0.00000000000E+00 -0.45593999997E+02  0.45594000000E+02  0.51100000000E-03 0. -1.
    9900012    2    1    2    0    0  0.23065863627E+00 -0.89717381251E+00 -0.73132452803E+00  0.90007762811E+02  0.90000024480E+02 0.  0.
        -12    1    1    2    0    0 -0.23065863627E+00  0.89717381251E+00  0.73132452803E+00  0.11802371887E+01  0.00000000000E+00 0.  1.
         11    1    3    3    0    0 -0.18575214471E+01 -0.63443320956E+01  0.51877956930E+01  0.84032231958E+01  0.51100000000E-03 0. -1.
        -11    1    3    3    0    0 -0.23984904374E+02  0.15037535008E+02  0.26592491197E+02  0.38840232818E+02  0.51100000000E-03 0.  1.
         12    1    3    3    0    0  0.26073084458E+02 -0.95903767254E+01 -0.32511611418E+02  0.42764306798E+02  0.00000000000E+00 0. -1.
</event>
<event>
 7    1  0.1910099E-015  0.9000773E+02  0.7816164E-02  0.1186339E+00
        -11   -1    0    0    0    0  0.00000000000E+00  0.00000000000E+00  0.45593999997E+02  0.45594000000E+02  0.51100000000E-03 0. -1.
         11   -1    0    0    0    0 -0.00000000000E+00 -0.00000000000E+00 -0.45593999997E+02  0.45594000000E+02  0.51100000000E-03 0.  1.
    9900012    2    1    2    0    0 -0.11621827885E+01 -0.13029676710E+00 -0.15937754215E+00  0.90007725760E+02  0.89999986940E+02 0.  0.
        -12    1    1    2    0    0  0.11621827885E+01  0.13029676710E+00  0.15937754215E+00  0.11802742403E+01  0.00000000000E+00 0.  1.
         11    1    3    3    0    0  0.16841687894E+02 -0.20630023980E+02  0.24829473627E+02  0.36410755298E+02  0.51100000000E-03 0. -1.
        -11    1    3    3    0    0 -0.16070937417E+01  0.88907524454E+00  0.10054613875E+02  0.10220981632E+02  0.51100000000E-03 0.  1.
        -12    1    3    3    0    0 -0.16396776941E+02  0.19610651968E+02 -0.35043465044E+02  0.43375988830E+02  0.00000000000E+00 0.  1.
</event>
<event>
 7    1  0.1910099E-015  0.9000784E+02  0.7816164E-02  0.1186339E+00
        -11   -1    0    0    0    0  0.00000000000E+00  0.00000000000E+00  0.45593999997E+02  0.45594000000E+02  0.51100000000E-03 0.  1.
         11   -1    0    0    0    0 -0.00000000000E+00 -0.00000000000E+00 -0.45593999997E+02  0.45594000000E+02  0.51100000000E-03 0. -1.
    9900012    2    1    2    0    0  0.84019878880E+00 -0.26097135022E+00 -0.78659897510E+00  0.90007839842E+02  0.90000102528E+02 0.  0.
        -12    1    1    2    0    0 -0.84019878880E+00  0.26097135022E+00  0.78659897510E+00  0.11801601578E+01  0.00000000000E+00 0.  1.
         11    1    3    3    0    0 -0.33714269708E+01  0.91576259633E+00 -0.14900694876E+02  0.15304765565E+02  0.51100000000E-03 0. -1.
        -11    1    3    3    0    0 -0.26291420981E+02  0.40372656020E+01  0.29853747375E+02  0.39984804155E+02  0.51100000000E-03 0.  1.
         12    1    3    3    0    0  0.30503046741E+02 -0.52139995486E+01 -0.15739651473E+02  0.34718270122E+02  0.00000000000E+00 0. -1.
</event>
<event>
 7    1  0.1910099E-015  0.9000768E+02  0.7816164E-02  0.1186339E+00
        -11   -1    0    0    0    0  0.00000000000E+00  0.00000000000E+00  0.45593999997E+02  0.45594000000E+02  0.51100000000E-03 0.  1.
         11   -1    0    0    0    0 -0.00000000000E+00 -0.00000000000E+00 -0.45593999997E+02  0.45594000000E+02  0.51100000000E-03 0. -1.
    9900012    2    1    2    0    0 -0.78190216680E+00 -0.35517011436E+00 -0.80970974376E+00  0.90007683654E+02  0.89999944278E+02 0.  0.
        -12    1    1    2    0    0  0.78190216680E+00  0.35517011436E+00  0.80970974376E+00  0.11803163465E+01  0.00000000000E+00 0.  1.
         11    1    3    3    0    0 -0.99719274595E+01 -0.22007141584E+02  0.37578468708E+01  0.24451483213E+02  0.51100000000E-03 0. -1.
        -11    1    3    3    0    0 -0.13603924894E+02  0.29048879107E+02  0.14237792653E+02  0.35094428187E+02  0.51100000000E-03 0.  1.
         12    1    3    3    0    0  0.22793950187E+02 -0.73969076367E+01 -0.18805349268E+02  0.30461772253E+02  0.00000000000E+00 0. -1.
</event>
<event>
 7    1  0.1910099E-015  0.9000776E+02  0.7816164E-02  0.1186339E+00
        -11   -1    0    0    0    0  0.00000000000E+00  0.00000000000E+00  0.45593999997E+02  0.45594000000E+02  0.51100000000E-03 0. -1.
         11   -1    0    0    0    0 -0.00000000000E+00 -0.00000000000E+00 -0.45593999997E+02  0.45594000000E+02  0.51100000000E-03 0.  1.
    9900012    2    1    2    0    0 -0.12025243475E+00  0.78303768022E+00 -0.87484759959E+00  0.90007759779E+02  0.90000021408E+02 0.  0.
        -12    1    1    2    0    0  0.12025243475E+00 -0.78303768022E+00  0.87484759959E+00  0.11802402210E+01  0.00000000000E+00 0.  1.
         11    1    3    3    0    0  0.13649971125E+02 -0.23464242670E+02  0.30251683682E+02  0.40645501124E+02  0.51100000000E-03 0. -1.
        -11    1    3    3    0    0  0.70291910428E+01  0.97268474465E+00 -0.59178086204E+01  0.92399189097E+01  0.51100000000E-03 0.  1.
        -12    1    3    3    0    0 -0.20799414603E+02  0.23274595605E+02 -0.25208722661E+02  0.40122339745E+02  0.00000000000E+00 0.  1.
</event>
<event>
 7    1  0.1910099E-015  0.9000810E+02  0.7816164E-02  0.1186338E+00
        -11   -1    0    0    0    0  0.00000000000E+00  0.00000000000E+00  0.45593999997E+02  0.45594000000E+02  0.51100000000E-03 0. -1.
         11   -1    0    0    0    0 -0.00000000000E+00 -0.00000000000E+00 -0.45593999997E+02  0.45594000000E+02  0.51100000000E-03 0.  1.
    9900012    2    1    2    0    0 -0.19121526540E-02 -0.56405150266E+00  0.10363429777E+01  0.90008099783E+02  0.90000365900E+02 0.  0.
        -12    1    1    2    0    0  0.19121526540E-02  0.56405150266E+00 -0.10363429777E+01  0.11799002167E+01  0.00000000000E+00 0.  1.
         11    1    3    3    0    0 -0.14266292194E+02 -0.37876121226E+02 -0.10978525487E+02  0.41936328812E+02  0.51100000000E-03 0. -1.
        -11    1    3    3    0    0 -0.61685491606E+01  0.60094046436E+01 -0.56533381429E+00  0.86303850146E+01  0.51100000000E-03 0.  1.
        -12    1    3    3    0    0  0.20432929202E+02  0.31302665079E+02  0.12580202279E+02  0.39441385957E+02  0.00000000000E+00 0.  1.
</event>
<event>
 7    1  0.1910099E-015  0.9000774E+02  0.7816164E-02  0.1186339E+00
        -11   -1    0    0    0    0  0.00000000000E+00  0.00000000000E+00  0.45593999997E+02  0.45594000000E+02  0.51100000000E-03 0. -1.
         11   -1    0    0    0    0 -0.00000000000E+00 -0.00000000000E+00 -0.45593999997E+02  0.45594000000E+02  0.51100000000E-03 0.  1.
    9900012    2    1    2    0    0 -0.48373292255E+00 -0.10735092672E+01  0.81161245874E-01  0.90007742895E+02  0.90000004301E+02 0.  0.
        -12    1    1    2    0    0  0.48373292255E+00  0.10735092672E+01 -0.81161245874E-01  0.11802571054E+01  0.00000000000E+00 0.  1.
         11    1    3    3    0    0  0.21654126924E+02  0.24335170999E+02 -0.35208817783E+01  0.32764284963E+02  0.51100000000E-03 0. -1.
        -11    1    3    3    0    0 -0.54298747446E+01  0.11870215705E+02  0.92565153970E+01  0.16002144800E+02  0.51100000000E-03 0.  1.
        -12    1    3    3    0    0 -0.16707985102E+02 -0.37278895972E+02 -0.56544723728E+01  0.41241313132E+02  0.00000000000E+00 0.  1.
</event>
<event>
 7    1  0.1910099E-015  0.9000680E+02  0.7816164E-02  0.1186341E+00
        -11   -1    0    0    0    0  0.00000000000E+00  0.00000000000E+00  0.45593999997E+02  0.45594000000E+02  0.51100000000E-03 0. -1.
         11   -1    0    0    0    0 -0.00000000000E+00 -0.00000000000E+00 -0.45593999997E+02  0.45594000000E+02  0.51100000000E-03 0.  1.
    9900012    2    1    2    0    0 -0.17237923338E+00  0.10561544435E+01 -0.50006124294E+00  0.90006798046E+02  0.89999046976E+02 0.  0.
        -12    1    1    2    0    0  0.17237923338E+00 -0.10561544435E+01  0.50006124294E+00  0.11812019537E+01  0.00000000000E+00 0.  1.
         11    1    3    3    0    0 -0.28644994666E+01  0.36421252142E+02  0.13121808806E+02  0.38818743300E+02  0.51100000000E-03 0. -1.
        -11    1    3    3    0    0  0.36949031194E+00  0.40688792593E+01  0.58593899972E+01  0.71431612692E+01  0.51100000000E-03 0.  1.
        -12    1    3    3    0    0  0.23226299213E+01 -0.39433976958E+02 -0.19481260046E+02  0.44044893477E+02  0.00000000000E+00 0.  1.
</event>
<event>
 7    1  0.1910099E-015  0.9000756E+02  0.7816164E-02  0.1186339E+00
        -11   -1    0    0    0    0  0.00000000000E+00  0.00000000000E+00  0.45593999997E+02  0.45594000000E+02  0.51100000000E-03 0.  1.
         11   -1    0    0    0    0 -0.00000000000E+00 -0.00000000000E+00 -0.45593999997E+02  0.45594000000E+02  0.51100000000E-03 0. -1.
    9900012    2    1    2    0    0  0.64791010964E+00 -0.70120259299E+00  0.69424424810E+00  0.90007556159E+02  0.89999815100E+02 0.  0.
        -12    1    1    2    0    0 -0.64791010964E+00  0.70120259299E+00 -0.69424424810E+00  0.11804438414E+01  0.00000000000E+00 0.  1.
         11    1    3    3    0    0 -0.50975572135E+00 -0.90374480495E+01  0.60789742042E+01  0.10903634521E+02  0.51100000000E-03 0. -1.
        -11    1    3    3    0    0 -0.11074712147E+02 -0.26195681302E+02  0.19794421446E+02  0.34650859854E+02  0.51100000000E-03 0.  1.
         12    1    3    3    0    0  0.12232377978E+02  0.34531926758E+02 -0.25179151402E+02  0.44453061783E+02  0.00000000000E+00 0. -1.
</event>
<event>
 7    1  0.1910099E-015  0.9000778E+02  0.7816164E-02  0.1186339E+00
        -11   -1    0    0    0    0  0.00000000000E+00  0.00000000000E+00  0.45593999997E+02  0.45594000000E+02  0.51100000000E-03 0.  1.
         11   -1    0    0    0    0 -0.00000000000E+00 -0.00000000000E+00 -0.45593999997E+02  0.45594000000E+02  0.51100000000E-03 0. -1.
    9900012    2    1    2    0    0  0.11297371046E-01 -0.87620224949E+00 -0.79061333866E+00  0.90007776520E+02  0.90000038370E+02 0.  0.
        -12    1    1    2    0    0 -0.11297371046E-01  0.87620224949E+00  0.79061333866E+00  0.11802234805E+01  0.00000000000E+00 0.  1.
         11    1    3    3    0    0 -0.13368130065E+02 -0.37646018220E+02  0.11118267992E+02  0.41467402530E+02  0.51100000000E-03 0. -1.
        -11    1    3    3    0    0 -0.78341772442E+00  0.62201075028E+01  0.74201882918E+01  0.97140452555E+01  0.51100000000E-03 0.  1.
        -12    1    3    3    0    0  0.14162845160E+02  0.30549708467E+02 -0.19329069622E+02  0.38826328734E+02  0.00000000000E+00 0.  1.
</event>
<event>
 7    1  0.1910099E-015  0.9000776E+02  0.7816164E-02  0.1186339E+00
        -11   -1    0    0    0    0  0.00000000000E+00  0.00000000000E+00  0.45593999997E+02  0.45594000000E+02  0.51100000000E-03 0. -1.
         11   -1    0    0    0    0 -0.00000000000E+00 -0.00000000000E+00 -0.45593999997E+02  0.45594000000E+02  0.51100000000E-03 0.  1.
    9900012    2    1    2    0    0 -0.12028237258E+00  0.11735452679E+01 -0.36026071777E-01  0.90007756710E+02  0.90000018299E+02 0.  0.
        -12    1    1    2    0    0  0.12028237258E+00 -0.11735452679E+01  0.36026071777E-01  0.11802432897E+01  0.00000000000E+00 0.  1.
         11    1    3    3    0    0 -0.82527864979E+01  0.23972899266E+02  0.91912391330E+01  0.26968263965E+02  0.51100000000E-03 0. -1.
        -11    1    3    3    0    0 -0.10362150231E+02  0.15632910412E+02  0.22012651645E+01  0.18884057137E+02  0.51100000000E-03 0.  1.
         12    1    3    3    0    0  0.18494654356E+02 -0.38432264410E+02 -0.11428530369E+02  0.44155435609E+02  0.00000000000E+00 0. -1.
</event>
<event>
 7    1  0.1910099E-015  0.9000723E+02  0.7816164E-02  0.1186340E+00
        -11   -1    0    0    0    0  0.00000000000E+00  0.00000000000E+00  0.45593999997E+02  0.45594000000E+02  0.51100000000E-03 0. -1.
         11   -1    0    0    0    0 -0.00000000000E+00 -0.00000000000E+00 -0.45593999997E+02  0.45594000000E+02  0.51100000000E-03 0.  1.
    9900012    2    1    2    0    0 -0.25501934978E+00  0.80433980476E+00  0.82596406286E+00  0.90007231596E+02  0.89999486252E+02 0.  0.
        -12    1    1    2    0    0  0.25501934978E+00 -0.80433980476E+00 -0.82596406286E+00  0.11807684038E+01  0.00000000000E+00 0.  1.
         11    1    3    3    0    0 -0.81932354393E+01  0.43806173287E+01 -0.41798811985E+01  0.10187753542E+02  0.51100000000E-03 0. -1.
        -11    1    3    3    0    0  0.21880789081E+02  0.45537268416E+01 -0.32238815885E+02  0.39228135424E+02  0.51100000000E-03 0.  1.
         12    1    3    3    0    0 -0.13942572992E+02 -0.81300043655E+01  0.37244661146E+02  0.40591342630E+02  0.00000000000E+00 0. -1.
</event>
<event>
 7    1  0.1910099E-015  0.9000775E+02  0.7816164E-02  0.1186339E+00
        -11   -1    0    0    0    0  0.00000000000E+00  0.00000000000E+00  0.45593999997E+02  0.45594000000E+02  0.51100000000E-03 0. -1.
         11   -1    0    0    0    0 -0.00000000000E+00 -0.00000000000E+00 -0.45593999997E+02  0.45594000000E+02  0.51100000000E-03 0.  1.
    9900012    2    1    2    0    0 -0.80170385945E+00  0.38850150335E+00  0.77415980436E+00  0.90007751764E+02  0.90000013287E+02 0.  0.
        -12    1    1    2    0    0  0.80170385945E+00 -0.38850150335E+00 -0.77415980436E+00  0.11802482362E+01  0.00000000000E+00 0.  1.
         11    1    3    3    0    0 -0.12777973771E+02  0.32698908838E+02  0.12900128752E+02  0.37401986244E+02  0.51100000000E-03 0. -1.
        -11    1    3    3    0    0 -0.30469363359E+01  0.70550023334E+01 -0.65620260789E+01  0.10105298881E+02  0.51100000000E-03 0.  1.
        -12    1    3    3    0    0  0.15023206248E+02 -0.39365409668E+02 -0.55639428692E+01  0.42500466639E+02  0.00000000000E+00 0.  1.
</event>
<event>
 7    1  0.1910099E-015  0.9000774E+02  0.7816164E-02  0.1186339E+00
        -11   -1    0    0    0    0  0.00000000000E+00  0.00000000000E+00  0.45593999997E+02  0.45594000000E+02  0.51100000000E-03 0.  1.
         11   -1    0    0    0    0 -0.00000000000E+00 -0.00000000000E+00 -0.45593999997E+02  0.45594000000E+02  0.51100000000E-03 0. -1.
    9900012    2    1    2    0    0  0.42851726300E-01 -0.11034772919E+01 -0.41656464413E+00  0.90007735408E+02  0.89999996715E+02 0.  0.
        -12    1    1    2    0    0 -0.42851726300E-01  0.11034772919E+01  0.41656464413E+00  0.11802645919E+01  0.00000000000E+00 0.  1.
         11    1    3    3    0    0  0.17928182303E+01 -0.89881273405E+01 -0.53619104991E+01  0.10618413947E+02  0.51100000000E-03 0. -1.
        -11    1    3    3    0    0 -0.29851522057E+02 -0.22829980637E+02  0.33205538801E+01  0.37727277444E+02  0.51100000000E-03 0.  1.
         12    1    3    3    0    0  0.28101555553E+02  0.30714630686E+02  0.16247919749E+01  0.41662044016E+02  0.00000000000E+00 0. -1.
</event>
<event>
 7    1  0.1910099E-015  0.9000774E+02  0.7816164E-02  0.1186339E+00
        -11   -1    0    0    0    0  0.00000000000E+00  0.00000000000E+00  0.45593999997E+02  0.45594000000E+02  0.51100000000E-03 0. -1.
         11   -1    0    0    0    0 -0.00000000000E+00 -0.00000000000E+00 -0.45593999997E+02  0.45594000000E+02  0.51100000000E-03 0.  1.
    9900012    2    1    2    0    0 -0.34254226931E+00 -0.96488398941E+00 -0.58708671804E+00  0.90007742768E+02  0.90000004172E+02 0.  0.
        -12    1    1    2    0    0  0.34254226931E+00  0.96488398941E+00  0.58708671804E+00  0.11802572320E+01  0.00000000000E+00 0.  1.
         11    1    3    3    0    0 -0.10794945876E+02  0.12388883289E+02 -0.36772990013E+02  0.40277389195E+02  0.51100000000E-03 0. -1.
        -11    1    3    3    0    0 -0.83037727958E+01  0.21537558822E+01  0.42363643481E+01  0.95675540341E+01  0.51100000000E-03 0.  1.
        -12    1    3    3    0    0  0.18756176403E+02 -0.15507523161E+02  0.31949538947E+02  0.40162799538E+02  0.00000000000E+00 0.  1.
</event>
<event>
 7    1  0.1910099E-015  0.9000765E+02  0.7816164E-02  0.1186339E+00
        -11   -1    0    0    0    0  0.00000000000E+00  0.00000000000E+00  0.45593999997E+02  0.45594000000E+02  0.51100000000E-03 0.  1.
         11   -1    0    0    0    0 -0.00000000000E+00 -0.00000000000E+00 -0.45593999997E+02  0.45594000000E+02  0.51100000000E-03 0. -1.
    9900012    2    1    2    0    0  0.27972053345E+00 -0.28264114463E-01 -0.11463749676E+01  0.90007653439E+02  0.89999913665E+02 0.  0.
        -12    1    1    2    0    0 -0.27972053345E+00  0.28264114463E-01  0.11463749676E+01  0.11803465607E+01  0.00000000000E+00 0.  1.
         11    1    3    3    0    0 -0.17954689360E+02  0.24945924606E+01 -0.23250008480E+02  0.29481464621E+02  0.51100000000E-03 0. -1.
        -11    1    3    3    0    0 -0.74933114597E+01 -0.74071851909E+00 -0.14154000058E+02  0.16032283008E+02  0.51100000000E-03 0.  1.
        -12    1    3    3    0    0  0.25727721353E+02 -0.17821380560E+01  0.36257633571E+02  0.44493905810E+02  0.00000000000E+00 0.  1.
</event>
<event>
 7    1  0.1910099E-015  0.9000772E+02  0.7816164E-02  0.1186339E+00
        -11   -1    0    0    0    0  0.00000000000E+00  0.00000000000E+00  0.45593999997E+02  0.45594000000E+02  0.51100000000E-03 0.  1.
         11   -1    0    0    0    0 -0.00000000000E+00 -0.00000000000E+00 -0.45593999997E+02  0.45594000000E+02  0.51100000000E-03 0. -1.
    9900012    2    1    2    0    0  0.15417747575E-01  0.77792050066E-01 -0.11776162557E+01  0.90007716409E+02  0.89999977465E+02 0.  0.
        -12    1    1    2    0    0 -0.15417747575E-01 -0.77792050066E-01  0.11776162557E+01  0.11802835912E+01  0.00000000000E+00 0.  1.
         11    1    3    3    0    0  0.90955813583E+01 -0.65927330573E+00  0.41051894990E+01  0.10000841096E+02  0.51100000000E-03 0. -1.
        -11    1    3    3    0    0  0.27027654648E+02 -0.17761467862E+02 -0.18597596730E+02  0.37307297688E+02  0.51100000000E-03 0.  1.
         12    1    3    3    0    0 -0.36107818259E+02  0.18498533218E+02  0.13314790976E+02  0.42699577625E+02  0.00000000000E+00 0. -1.
</event>
<event>
 7    1  0.1910099E-015  0.9000758E+02  0.7816164E-02  0.1186339E+00
        -11   -1    0    0    0    0  0.00000000000E+00  0.00000000000E+00  0.45593999997E+02  0.45594000000E+02  0.51100000000E-03 0.  1.
         11   -1    0    0    0    0 -0.00000000000E+00 -0.00000000000E+00 -0.45593999997E+02  0.45594000000E+02  0.51100000000E-03 0. -1.
    9900012    2    1    2    0    0  0.74448651612E+00  0.72663996812E+00 -0.55779400587E+00  0.90007576360E+02  0.89999835568E+02 0.  0.
        -12    1    1    2    0    0 -0.74448651612E+00 -0.72663996812E+00  0.55779400587E+00  0.11804236396E+01  0.00000000000E+00 0.  1.
         11    1    3    3    0    0  0.30190481791E+01  0.27412282523E+01 -0.36199815807E+02  0.36428775013E+02  0.51100000000E-03 0. -1.
        -11    1    3    3    0    0 -0.64385351220E+01  0.60064808228E+01 -0.62018300429E+01  0.10770108752E+02  0.51100000000E-03 0.  1.
        -12    1    3    3    0    0  0.41639734590E+01 -0.80210691070E+01  0.41843851844E+02  0.42808692595E+02  0.00000000000E+00 0.  1.
</event>
<event>
 7    1  0.1910099E-015  0.9000777E+02  0.7816164E-02  0.1186339E+00
        -11   -1    0    0    0    0  0.00000000000E+00  0.00000000000E+00  0.45593999997E+02  0.45594000000E+02  0.51100000000E-03 0.  1.
         11   -1    0    0    0    0 -0.00000000000E+00 -0.00000000000E+00 -0.45593999997E+02  0.45594000000E+02  0.51100000000E-03 0. -1.
    9900012    2    1    2    0    0 -0.61487951491E+00 -0.94596341955E+00 -0.34643501829E+00  0.90007770857E+02  0.90000032632E+02 0.  0.
        -12    1    1    2    0    0  0.61487951491E+00  0.94596341955E+00  0.34643501829E+00  0.11802291434E+01  0.00000000000E+00 0.  1.
         11    1    3    3    0    0 -0.14705603196E+02  0.29378111542E+02 -0.25042480596E+02  0.41309248817E+02  0.51100000000E-03 0. -1.
        -11    1    3    3    0    0  0.59179913768E+01 -0.40856985646E+01 -0.45947597542E+01  0.85338954855E+01  0.51100000000E-03 0.  1.
        -12    1    3    3    0    0  0.81727323046E+01 -0.26238376397E+02  0.29290805332E+02  0.40164626554E+02  0.00000000000E+00 0.  1.
</event>
<event>
 7    1  0.1910099E-015  0.9000778E+02  0.7816164E-02  0.1186339E+00
        -11   -1    0    0    0    0  0.00000000000E+00  0.00000000000E+00  0.45593999997E+02  0.45594000000E+02  0.51100000000E-03 0.  1.
         11   -1    0    0    0    0 -0.00000000000E+00 -0.00000000000E+00 -0.45593999997E+02  0.45594000000E+02  0.51100000000E-03 0. -1.
    9900012    2    1    2    0    0 -0.98146768756E+00  0.54556057769E+00  0.36331366936E+00  0.90007783076E+02  0.90000045012E+02 0.  0.
        -12    1    1    2    0    0  0.98146768756E+00 -0.54556057769E+00 -0.36331366936E+00  0.11802169241E+01  0.00000000000E+00 0.  1.
         11    1    3    3    0    0  0.24219764859E+02  0.23995359740E+02 -0.13930602603E+02  0.36829824708E+02  0.51100000000E-03 0. -1.
        -11    1    3    3    0    0 -0.21151269320E+01  0.96220206618E+01  0.72572189469E+01  0.12236186933E+02  0.51100000000E-03 0.  1.
        -12    1    3    3    0    0 -0.23086105615E+02 -0.33071819824E+02  0.70366973254E+01  0.40941771435E+02  0.00000000000E+00 0.  1.
</event>
<event>
 7    1  0.1910099E-015  0.9000774E+02  0.7816164E-02  0.1186339E+00
        -11   -1    0    0    0    0  0.00000000000E+00  0.00000000000E+00  0.45593999997E+02  0.45594000000E+02  0.51100000000E-03 0.  1.
         11   -1    0    0    0    0 -0.00000000000E+00 -0.00000000000E+00 -0.45593999997E+02  0.45594000000E+02  0.51100000000E-03 0. -1.
    9900012    2    1    2    0    0 -0.85787655061E+00 -0.80575474146E+00  0.88443512917E-01  0.90007739379E+02  0.90000000738E+02 0.  0.
        -12    1    1    2    0    0  0.85787655061E+00  0.80575474146E+00 -0.88443512917E-01  0.11802606214E+01  0.00000000000E+00 0.  1.
         11    1    3    3    0    0 -0.44759565678E+01 -0.72164896212E+00  0.82770707599E+01  0.94374183465E+01  0.51100000000E-03 0. -1.
        -11    1    3    3    0    0  0.20164935009E+02 -0.16850529095E+02  0.27353025878E+02  0.37930897164E+02  0.51100000000E-03 0.  1.
         12    1    3    3    0    0 -0.16546854992E+02  0.16766423316E+02 -0.35541653125E+02  0.42639423868E+02  0.00000000000E+00 0. -1.
</event>
<event>
 7    1  0.1910099E-015  0.9000775E+02  0.7816164E-02  0.1186339E+00
        -11   -1    0    0    0    0  0.00000000000E+00  0.00000000000E+00  0.45593999997E+02  0.45594000000E+02  0.51100000000E-03 0.  1.
         11   -1    0    0    0    0 -0.00000000000E+00 -0.00000000000E+00 -0.45593999997E+02  0.45594000000E+02  0.51100000000E-03 0. -1.
    9900012    2    1    2    0    0 -0.18661275089E+00  0.86484024591E+00 -0.78117075958E+00  0.90007745483E+02  0.90000006923E+02 0.  0.
        -12    1    1    2    0    0  0.18661275089E+00 -0.86484024591E+00  0.78117075958E+00  0.11802545172E+01  0.00000000000E+00 0.  1.
         11    1    3    3    0    0 -0.74001168898E+01  0.69356391327E+00  0.65545865587E+01  0.99098620626E+01  0.51100000000E-03 0. -1.
        -11    1    3    3    0    0 -0.26058766702E+02  0.10278042287E+02  0.21187460569E+02  0.35122727127E+02  0.51100000000E-03 0.  1.
         12    1    3    3    0    0  0.33272270840E+02 -0.10106765955E+02 -0.28523217887E+02  0.44975156293E+02  0.00000000000E+00 0. -1.
</event>
<event>
 7    1  0.1910099E-015  0.9000771E+02  0.7816164E-02  0.1186339E+00
        -11   -1    0    0    0    0  0.00000000000E+00  0.00000000000E+00  0.45593999997E+02  0.45594000000E+02  0.51100000000E-03 0. -1.
         11   -1    0    0    0    0 -0.00000000000E+00 -0.00000000000E+00 -0.45593999997E+02  0.45594000000E+02  0.51100000000E-03 0.  1.
    9900012    2    1    2    0    0  0.63150275122E+00 -0.46449697051E+00  0.88234189004E+00  0.90007711742E+02  0.89999972737E+02 0.  0.
        -12    1    1    2    0    0 -0.63150275122E+00  0.46449697051E+00 -0.88234189004E+00  0.11802882577E+01  0.00000000000E+00 0.  1.
         11    1    3    3    0    0 -0.95247487328E+01  0.40377169414E+01 -0.25481278515E+01  0.10654433459E+02  0.51100000000E-03 0. -1.
        -11    1    3    3    0    0 -0.26283251966E+02  0.10285838901E+02 -0.19053639592E+02  0.34053619452E+02  0.51100000000E-03 0.  1.
         12    1    3    3    0    0  0.36439503450E+02 -0.14788052813E+02  0.22484109334E+02  0.45299658831E+02  0.00000000000E+00 0. -1.
</event>
<event>
 7    1  0.1910099E-015  0.9000776E+02  0.7816164E-02  0.1186339E+00
        -11   -1    0    0    0    0  0.00000000000E+00  0.00000000000E+00  0.45593999997E+02  0.45594000000E+02  0.51100000000E-03 0.  1.
         11   -1    0    0    0    0 -0.00000000000E+00 -0.00000000000E+00 -0.45593999997E+02  0.45594000000E+02  0.51100000000E-03 0. -1.
    9900012    2    1    2    0    0 -0.72505990007E+00 -0.80735990635E-02 -0.93122941223E+00  0.90007760507E+02  0.90000022146E+02 0.  0.
        -12    1    1    2    0    0  0.72505990007E+00  0.80735990635E-02  0.93122941223E+00  0.11802394926E+01  0.00000000000E+00 0.  1.
         11    1    3    3    0    0 -0.22326202781E+02 -0.74496786780E+01 -0.32268436923E+02  0.39940068412E+02  0.51100000000E-03 0. -1.
        -11    1    3    3    0    0 -0.56041644007E+01  0.66520143914E+01  0.18379663898E+00  0.86999848022E+01  0.51100000000E-03 0.  1.
        -12    1    3    3    0    0  0.27205307282E+02  0.78959068754E+00  0.31153410872E+02  0.41367707293E+02  0.00000000000E+00 0.  1.
</event>
<event>
 7    1  0.1910099E-015  0.9000675E+02  0.7816164E-02  0.1186341E+00
        -11   -1    0    0    0    0  0.00000000000E+00  0.00000000000E+00  0.45593999997E+02  0.45594000000E+02  0.51100000000E-03 0. -1.
         11   -1    0    0    0    0 -0.00000000000E+00 -0.00000000000E+00 -0.45593999997E+02  0.45594000000E+02  0.51100000000E-03 0.  1.
    9900012    2    1    2    0    0  0.75666277310E+00 -0.80731312845E+00  0.41360194564E+00  0.90006746594E+02  0.89998994844E+02 0.  0.
        -12    1    1    2    0    0 -0.75666277310E+00  0.80731312845E+00 -0.41360194564E+00  0.11812534059E+01  0.00000000000E+00 0.  1.
         11    1    3    3    0    0 -0.65099426149E+01 -0.87947411184E+01 -0.19774311433E+01  0.11119220223E+02  0.51100000000E-03 0. -1.
        -11    1    3    3    0    0 -0.28705898082E+02  0.21542911669E+02 -0.11995317769E+02  0.37841951278E+02  0.51100000000E-03 0.  1.
         12    1    3    3    0    0  0.35972503470E+02 -0.13555483679E+02  0.14386350858E+02  0.41045575093E+02  0.00000000000E+00 0. -1.
</event>
<event>
 7    1  0.1910099E-015  0.9000773E+02  0.7816164E-02  0.1186339E+00
        -11   -1    0    0    0    0  0.00000000000E+00  0.00000000000E+00  0.45593999997E+02  0.45594000000E+02  0.51100000000E-03 0.  1.
         11   -1    0    0    0    0 -0.00000000000E+00 -0.00000000000E+00 -0.45593999997E+02  0.45594000000E+02  0.51100000000E-03 0. -1.
    9900012    2    1    2    0    0  0.94214759334E-01 -0.17410345096E+00 -0.11635481651E+01  0.90007731910E+02  0.89999993171E+02 0.  0.
        -12    1    1    2    0    0 -0.94214759334E-01  0.17410345096E+00  0.11635481651E+01  0.11802680903E+01  0.00000000000E+00 0.  1.
         11    1    3    3    0    0 -0.30360133772E+02  0.17196012140E+02 -0.97769548509E+01  0.36235747579E+02  0.51100000000E-03 0. -1.
        -11    1    3    3    0    0 -0.81425713627E+01 -0.43445233053E+01 -0.54007093442E+01  0.10693175994E+02  0.51100000000E-03 0.  1.
        -12    1    3    3    0    0  0.38596919894E+02 -0.13025592286E+02  0.14014116030E+02  0.43078808338E+02  0.00000000000E+00 0.  1.
</event>
<event>
 7    1  0.1910099E-015  0.9000775E+02  0.7816164E-02  0.1186339E+00
        -11   -1    0    0    0    0  0.00000000000E+00  0.00000000000E+00  0.45593999997E+02  0.45594000000E+02  0.51100000000E-03 0. -1.
         11   -1    0    0    0    0 -0.00000000000E+00 -0.00000000000E+00 -0.45593999997E+02  0.45594000000E+02  0.51100000000E-03 0.  1.
    9900012    2    1    2    0    0 -0.59207660029E+00 -0.10191278657E+01 -0.61794314607E-01  0.90007747974E+02  0.90000009447E+02 0.  0.
        -12    1    1    2    0    0  0.59207660029E+00  0.10191278657E+01  0.61794314607E-01  0.11802520259E+01  0.00000000000E+00 0.  1.
         11    1    3    3    0    0  0.13518777864E+02  0.13372249878E+01 -0.82357832138E+01  0.15886272408E+02  0.51100000000E-03 0. -1.
        -11    1    3    3    0    0 -0.21945987604E+02 -0.19395060945E+02 -0.23339189531E+02  0.37450133901E+02  0.51100000000E-03 0.  1.
         12    1    3    3    0    0  0.78351331391E+01  0.17038708092E+02  0.31513178430E+02  0.36671341665E+02  0.00000000000E+00 0. -1.
</event>
<event>
 7    1  0.1910099E-015  0.9000767E+02  0.7816164E-02  0.1186339E+00
        -11   -1    0    0    0    0  0.00000000000E+00  0.00000000000E+00  0.45593999997E+02  0.45594000000E+02  0.51100000000E-03 0.  1.
         11   -1    0    0    0    0 -0.00000000000E+00 -0.00000000000E+00 -0.45593999997E+02  0.45594000000E+02  0.51100000000E-03 0. -1.
    9900012    2    1    2    0    0  0.40445209917E-01  0.88069615970E+00 -0.78479749161E+00  0.90007674349E+02  0.89999934850E+02 0.  0.
        -12    1    1    2    0    0 -0.40445209917E-01 -0.88069615970E+00  0.78479749161E+00  0.11803256515E+01  0.00000000000E+00 0.  1.
         11    1    3    3    0    0 -0.16663911943E+01 -0.83338756929E+01 -0.55350229922E+00  0.85168485212E+01  0.51100000000E-03 0. -1.
        -11    1    3    3    0    0 -0.28654237707E+02  0.20137873829E+02  0.22851069039E+02  0.41818305291E+02  0.51100000000E-03 0.  1.
         12    1    3    3    0    0  0.30361074111E+02 -0.10923301977E+02 -0.23082364231E+02  0.39672520537E+02  0.00000000000E+00 0. -1.
</event>
<event>
 7    1  0.1910099E-015  0.9000774E+02  0.7816164E-02  0.1186339E+00
        -11   -1    0    0    0    0  0.00000000000E+00  0.00000000000E+00  0.45593999997E+02  0.45594000000E+02  0.51100000000E-03 0.  1.
         11   -1    0    0    0    0 -0.00000000000E+00 -0.00000000000E+00 -0.45593999997E+02  0.45594000000E+02  0.51100000000E-03 0. -1.
    9900012    2    1    2    0    0  0.91920096073E-01 -0.10541519378E+01 -0.52280427769E+00  0.90007741586E+02  0.90000002975E+02 0.  0.
        -12    1    1    2    0    0 -0.91920096073E-01  0.10541519378E+01  0.52280427769E+00  0.11802584144E+01  0.00000000000E+00 0.  1.
         11    1    3    3    0    0 -0.14595396515E+01 -0.95757502955E+00 -0.88171541543E+01  0.89882931401E+01  0.51100000000E-03 0. -1.
        -11    1    3    3    0    0 -0.34797885722E+02 -0.12901881185E+01  0.23062500110E+02  0.41766450024E+02  0.51100000000E-03 0.  1.
         12    1    3    3    0    0  0.36349345469E+02  0.11936112102E+01 -0.14768150233E+02  0.39252998421E+02  0.00000000000E+00 0. -1.
</event>
<event>
 7    1  0.1910099E-015  0.9000777E+02  0.7816164E-02  0.1186339E+00
        -11   -1    0    0    0    0  0.00000000000E+00  0.00000000000E+00  0.45593999997E+02  0.45594000000E+02  0.51100000000E-03 0. -1.
         11   -1    0    0    0    0 -0.00000000000E+00 -0.00000000000E+00 -0.45593999997E+02  0.45594000000E+02  0.51100000000E-03 0.  1.
    9900012    2    1    2    0    0  0.71327343176E+00 -0.25283015525E+00  0.90568032432E+00  0.90007771664E+02  0.90000033450E+02 0.  0.
        -12    1    1    2    0    0 -0.71327343176E+00  0.25283015525E+00 -0.90568032432E+00  0.11802283363E+01  0.00000000000E+00 0.  1.
         11    1    3    3    0    0  0.11510552632E+02 -0.38044225450E+02 -0.46463227474E+00  0.39750116923E+02  0.51100000000E-03 0. -1.
        -11    1    3    3    0    0 -0.64336832934E+01  0.46635642373E+01 -0.11896539966E+02  0.14306249528E+02  0.51100000000E-03 0.  1.
        -12    1    3    3    0    0 -0.43635959072E+01  0.33127831057E+02  0.13266852565E+02  0.35951405213E+02  0.00000000000E+00 0.  1.
</event>
<event>
 7    1  0.1910099E-015  0.9000779E+02  0.7816164E-02  0.1186339E+00
        -11   -1    0    0    0    0  0.00000000000E+00  0.00000000000E+00  0.45593999997E+02  0.45594000000E+02  0.51100000000E-03 0.  1.
         11   -1    0    0    0    0 -0.00000000000E+00 -0.00000000000E+00 -0.45593999997E+02  0.45594000000E+02  0.51100000000E-03 0. -1.
    9900012    2    1    2    0    0  0.62914207565E-03  0.40278841940E+00 -0.11093534267E+01  0.90007786489E+02  0.90000048470E+02 0.  0.
        -12    1    1    2    0    0 -0.62914207565E-03 -0.40278841940E+00  0.11093534267E+01  0.11802135112E+01  0.00000000000E+00 0.  1.
         11    1    3    3    0    0  0.16164733663E+02  0.29244030037E+02 -0.20032895225E+02  0.38959322358E+02  0.51100000000E-03 0. -1.
        -11    1    3    3    0    0 -0.59229165680E+01  0.28439017942E+01 -0.64321669163E+01  0.91946446145E+01  0.51100000000E-03 0.  1.
        -12    1    3    3    0    0 -0.10241187953E+02 -0.31685143412E+02  0.25355708714E+02  0.41853819517E+02  0.00000000000E+00 0.  1.
</event>
<event>
 7    1  0.1910099E-015  0.9000774E+02  0.7816164E-02  0.1186339E+00
        -11   -1    0    0    0    0  0.00000000000E+00  0.00000000000E+00  0.45593999997E+02  0.45594000000E+02  0.51100000000E-03 0.  1.
         11   -1    0    0    0    0 -0.00000000000E+00 -0.00000000000E+00 -0.45593999997E+02  0.45594000000E+02  0.51100000000E-03 0. -1.
    9900012    2    1    2    0    0  0.11049734123E+01 -0.30969183789E+00 -0.27594177870E+00  0.90007737681E+02  0.89999999018E+02 0.  0.
        -12    1    1    2    0    0 -0.11049734123E+01  0.30969183789E+00  0.27594177870E+00  0.11802623190E+01  0.00000000000E+00 0.  1.
         11    1    3    3    0    0  0.58214066874E+01 -0.39788466174E+02 -0.12606237052E+02  0.42141761106E+02  0.51100000000E-03 0. -1.
        -11    1    3    3    0    0  0.68558435656E+01  0.60056042760E+01 -0.25281000225E+01  0.94583911794E+01  0.51100000000E-03 0.  1.
        -12    1    3    3    0    0 -0.11572276841E+02  0.33473170060E+02  0.14858395296E+02  0.38407585395E+02  0.00000000000E+00 0.  1.
</event>
<event>
 7    1  0.1910099E-015  0.9000775E+02  0.7816164E-02  0.1186339E+00
        -11   -1    0    0    0    0  0.00000000000E+00  0.00000000000E+00  0.45593999997E+02  0.45594000000E+02  0.51100000000E-03 0. -1.
         11   -1    0    0    0    0 -0.00000000000E+00 -0.00000000000E+00 -0.45593999997E+02  0.45594000000E+02  0.51100000000E-03 0.  1.
    9900012    2    1    2    0    0 -0.22399244187E+00 -0.64685041514E+00  0.96146351748E+00  0.90007745718E+02  0.90000007162E+02 0.  0.
        -12    1    1    2    0    0  0.22399244187E+00  0.64685041514E+00 -0.96146351748E+00  0.11802542815E+01  0.00000000000E+00 0.  1.
         11    1    3    3    0    0  0.13418142710E+02  0.29239805773E+01 -0.92057500578E+01  0.16533059324E+02  0.51100000000E-03 0. -1.
        -11    1    3    3    0    0 -0.89815441904E+01 -0.16614903455E+02 -0.27488687006E+02  0.33351927478E+02  0.51100000000E-03 0.  1.
         12    1    3    3    0    0 -0.46605909617E+01  0.13044072463E+02  0.37655900582E+02  0.40122758917E+02  0.00000000000E+00 0. -1.
</event>
<event>
 7    1  0.1910099E-015  0.9000771E+02  0.7816164E-02  0.1186339E+00
        -11   -1    0    0    0    0  0.00000000000E+00  0.00000000000E+00  0.45593999997E+02  0.45594000000E+02  0.51100000000E-03 0. -1.
         11   -1    0    0    0    0 -0.00000000000E+00 -0.00000000000E+00 -0.45593999997E+02  0.45594000000E+02  0.51100000000E-03 0.  1.
    9900012    2    1    2    0    0 -0.56660717724E+00 -0.10100851129E+01  0.22754448929E+00  0.90007706764E+02  0.89999967693E+02 0.  0.
        -12    1    1    2    0    0  0.56660717724E+00  0.10100851129E+01 -0.22754448929E+00  0.11802932361E+01  0.00000000000E+00 0.  1.
         11    1    3    3    0    0 -0.24567897148E+02  0.21199240943E+02 -0.35067431813E+01  0.32638729063E+02  0.51100000000E-03 0. -1.
        -11    1    3    3    0    0 -0.94579728826E+01 -0.12189457669E+01 -0.11584001412E+02  0.15004271685E+02  0.51100000000E-03 0.  1.
        -12    1    3    3    0    0  0.33459262853E+02 -0.20990380289E+02  0.15318289083E+02  0.42364706016E+02  0.00000000000E+00 0.  1.
</event>
<event>
 7    1  0.1910099E-015  0.9000777E+02  0.7816164E-02  0.1186339E+00
        -11   -1    0    0    0    0  0.00000000000E+00  0.00000000000E+00  0.45593999997E+02  0.45594000000E+02  0.51100000000E-03 0. -1.
         11   -1    0    0    0    0 -0.00000000000E+00 -0.00000000000E+00 -0.45593999997E+02  0.45594000000E+02  0.51100000000E-03 0.  1.
    9900012    2    1    2    0    0  0.54243617987E+00 -0.77090908553E+00  0.71021889227E+00  0.90007767522E+02  0.90000029253E+02 0.  0.
        -12    1    1    2    0    0 -0.54243617987E+00  0.77090908553E+00 -0.71021889227E+00  0.11802324781E+01  0.00000000000E+00 0.  1.
         11    1    3    3    0    0  0.20098496587E+02 -0.14107968594E+02  0.34490965722E+02  0.42339237825E+02  0.51100000000E-03 0. -1.
        -11    1    3    3    0    0  0.50237877742E+01  0.63701760849E+00 -0.99026269466E+01  0.11122331399E+02  0.51100000000E-03 0.  1.
        -12    1    3    3    0    0 -0.24579848181E+02  0.12700041900E+02 -0.23878119884E+02  0.36546198298E+02  0.00000000000E+00 0.  1.
</event>
<event>
 7    1  0.1910099E-015  0.9000772E+02  0.7816164E-02  0.1186339E+00
        -11   -1    0    0    0    0  0.00000000000E+00  0.00000000000E+00  0.45593999997E+02  0.45594000000E+02  0.51100000000E-03 0.  1.
         11   -1    0    0    0    0 -0.00000000000E+00 -0.00000000000E+00 -0.45593999997E+02  0.45594000000E+02  0.51100000000E-03 0. -1.
    9900012    2    1    2    0    0 -0.26459330943E+00  0.59991824597E+00 -0.98140509700E+00  0.90007717201E+02  0.89999978268E+02 0.  0.
        -12    1    1    2    0    0  0.26459330943E+00 -0.59991824597E+00  0.98140509700E+00  0.11802827990E+01  0.00000000000E+00 0.  1.
         11    1    3    3    0    0 -0.33652283334E+02  0.21904228901E+02  0.55824291511E+01  0.40539301089E+02  0.51100000000E-03 0. -1.
        -11    1    3    3    0    0 -0.30669174113E+01 -0.70226739932E+01  0.43653384396E+01  0.88193033952E+01  0.51100000000E-03 0.  1.
        -12    1    3    3    0    0  0.36454607435E+02 -0.14281636662E+02 -0.10929172688E+02  0.40649112717E+02  0.00000000000E+00 0.  1.
</event>
<event>
 7    1  0.1910099E-015  0.9000808E+02  0.7816164E-02  0.1186338E+00
        -11   -1    0    0    0    0  0.00000000000E+00  0.00000000000E+00  0.45593999997E+02  0.45594000000E+02  0.51100000000E-03 0. -1.
         11   -1    0    0    0    0 -0.00000000000E+00 -0.00000000000E+00 -0.45593999997E+02  0.45594000000E+02  0.51100000000E-03 0.  1.
    9900012    2    1    2    0    0 -0.78904475820E+00  0.38487747616E+00  0.78834478317E+00  0.90008080596E+02  0.90000346459E+02 0.  0.
        -12    1    1    2    0    0  0.78904475820E+00 -0.38487747616E+00 -0.78834478317E+00  0.11799194037E+01  0.00000000000E+00 0.  1.
         11    1    3    3    0    0  0.78377441243E+01 -0.15912091760E+01  0.47165167702E+00  0.80115313870E+01  0.51100000000E-03 0. -1.
        -11    1    3    3    0    0 -0.90099943897E+01 -0.69080784023E+01 -0.39551446885E+02  0.41148736275E+02  0.51100000000E-03 0.  1.
         12    1    3    3    0    0  0.38320550718E+00  0.88841650545E+01  0.39868139991E+02  0.40847812934E+02  0.00000000000E+00 0. -1.
</event>
<event>
 7    1  0.1910099E-015  0.9000772E+02  0.7816164E-02  0.1186339E+00
        -11   -1    0    0    0    0  0.00000000000E+00  0.00000000000E+00  0.45593999997E+02  0.45594000000E+02  0.51100000000E-03 0. -1.
         11   -1    0    0    0    0 -0.00000000000E+00 -0.00000000000E+00 -0.45593999997E+02  0.45594000000E+02  0.51100000000E-03 0.  1.
    9900012    2    1    2    0    0 -0.13941908121E+00  0.15454405079E+00  0.11617781062E+01  0.90007724646E+02  0.89999985811E+02 0.  0.
        -12    1    1    2    0    0  0.13941908121E+00 -0.15454405079E+00 -0.11617781062E+01  0.11802753543E+01  0.00000000000E+00 0.  1.
         11    1    3    3    0    0  0.45221903717E+01 -0.76111729162E+01  0.71002120234E+01  0.11348707854E+02  0.51100000000E-03 0. -1.
        -11    1    3    3    0    0  0.35549124865E+02  0.99784133487E+01 -0.98037108175E+01  0.38202378953E+02  0.51100000000E-03 0.  1.
         12    1    3    3    0    0 -0.40210734318E+02 -0.22126963818E+01  0.38652769003E+01  0.40456637838E+02  0.00000000000E+00 0. -1.
</event>
<event>
 7    1  0.1910099E-015  0.9000735E+02  0.7816164E-02  0.1186340E+00
        -11   -1    0    0    0    0  0.00000000000E+00  0.00000000000E+00  0.45593999997E+02  0.45594000000E+02  0.51100000000E-03 0.  1.
         11   -1    0    0    0    0 -0.00000000000E+00 -0.00000000000E+00 -0.45593999997E+02  0.45594000000E+02  0.51100000000E-03 0. -1.
    9900012    2    1    2    0    0  0.21209142499E+00  0.51251054290E+00 -0.10422488106E+01  0.90007350851E+02  0.89999607082E+02 0.  0.
        -12    1    1    2    0    0 -0.21209142499E+00 -0.51251054290E+00  0.10422488106E+01  0.11806491487E+01  0.00000000000E+00 0.  1.
         11    1    3    3    0    0 -0.96216318293E+01 -0.25232115544E+02 -0.21732881172E+02  0.34663432867E+02  0.51100000000E-03 0. -1.
        -11    1    3    3    0    0 -0.40312386396E+01  0.33407795306E+00 -0.11417895150E+02  0.12113249892E+02  0.51100000000E-03 0.  1.
        -12    1    3    3    0    0  0.13864961894E+02  0.25410548133E+02  0.32108527510E+02  0.43230668092E+02  0.00000000000E+00 0.  1.
</event>
<event>
 7    1  0.1910099E-015  0.9000675E+02  0.7816164E-02  0.1186341E+00
        -11   -1    0    0    0    0  0.00000000000E+00  0.00000000000E+00  0.45593999997E+02  0.45594000000E+02  0.51100000000E-03 0. -1.
         11   -1    0    0    0    0 -0.00000000000E+00 -0.00000000000E+00 -0.45593999997E+02  0.45594000000E+02  0.51100000000E-03 0.  1.
    9900012    2    1    2    0    0 -0.10339279470E+01 -0.31592270382E+00  0.47595874961E+00  0.90006750286E+02  0.89998998585E+02 0.  0.
        -12    1    1    2    0    0  0.10339279470E+01  0.31592270382E+00 -0.47595874961E+00  0.11812497135E+01  0.00000000000E+00 0.  1.
         11    1    3    3    0    0  0.18777986393E+01 -0.30602752870E+01  0.86097386459E+01  0.93283981676E+01  0.51100000000E-03 0. -1.
        -11    1    3    3    0    0  0.38101925873E+02  0.24973175495E+01  0.26328151799E+01  0.38274339527E+02  0.51100000000E-03 0.  1.
         12    1    3    3    0    0 -0.41013652459E+02  0.24703503362E+00 -0.10766595076E+02  0.42404012592E+02  0.00000000000E+00 0. -1.
</event>
<event>
 7    1  0.1910099E-015  0.9000770E+02  0.7816164E-02  0.1186339E+00
        -11   -1    0    0    0    0  0.00000000000E+00  0.00000000000E+00  0.45593999997E+02  0.45594000000E+02  0.51100000000E-03 0.  1.
         11   -1    0    0    0    0 -0.00000000000E+00 -0.00000000000E+00 -0.45593999997E+02  0.45594000000E+02  0.51100000000E-03 0. -1.
    9900012    2    1    2    0    0  0.87609966051E+00  0.17481450627E+00 -0.77136701268E+00  0.90007695889E+02  0.89999956674E+02 0.  0.
        -12    1    1    2    0    0 -0.87609966051E+00 -0.17481450627E+00  0.77136701268E+00  0.11803041112E+01  0.00000000000E+00 0.  1.
         11    1    3    3    0    0 -0.10653603572E+02 -0.82202739406E+00 -0.37265956313E+02  0.38767595983E+02  0.51100000000E-03 0. -1.
        -11    1    3    3    0    0  0.61599892616E+01  0.64836383196E+01 -0.41624833521E+01  0.98645477078E+01  0.51100000000E-03 0.  1.
        -12    1    3    3    0    0  0.53697139709E+01 -0.54867964192E+01  0.40657072652E+02  0.41375552198E+02  0.00000000000E+00 0.  1.
</event>
<event>
 7    1  0.1910099E-015  0.9000767E+02  0.7816164E-02  0.1186339E+00
        -11   -1    0    0    0    0  0.00000000000E+00  0.00000000000E+00  0.45593999997E+02  0.45594000000E+02  0.51100000000E-03 0. -1.
         11   -1    0    0    0    0 -0.00000000000E+00 -0.00000000000E+00 -0.45593999997E+02  0.45594000000E+02  0.51100000000E-03 0.  1.
    9900012    2    1    2    0    0  0.11521928578E+01 -0.13056869289E+00  0.22041957136E+00  0.90007668965E+02  0.89999929395E+02 0.  0.
        -12    1    1    2    0    0 -0.11521928578E+01  0.13056869289E+00 -0.22041957136E+00  0.11803310351E+01  0.00000000000E+00 0.  1.
         11    1    3    3    0    0 -0.32754881139E+02  0.11399404087E+02 -0.16857913193E+02  0.38561870928E+02  0.51100000000E-03 0. -1.
        -11    1    3    3    0    0 -0.35765104407E+01  0.59530683436E+01  0.42486079889E+01  0.81413217440E+01  0.51100000000E-03 0.  1.
        -12    1    3    3    0    0  0.37483584437E+02 -0.17483041124E+02  0.12829724775E+02  0.43304476293E+02  0.00000000000E+00 0.  1.
</event>
<event>
 7    1  0.1910099E-015  0.9000773E+02  0.7816164E-02  0.1186339E+00
        -11   -1    0    0    0    0  0.00000000000E+00  0.00000000000E+00  0.45593999997E+02  0.45594000000E+02  0.51100000000E-03 0.  1.
         11   -1    0    0    0    0 -0.00000000000E+00 -0.00000000000E+00 -0.45593999997E+02  0.45594000000E+02  0.51100000000E-03 0. -1.
    9900012    2    1    2    0    0  0.74549552008E+00  0.36102174659E+00 -0.84079696156E+00  0.90007728928E+02  0.89999990150E+02 0.  0.
        -12    1    1    2    0    0 -0.74549552008E+00 -0.36102174659E+00  0.84079696156E+00  0.11802710716E+01  0.00000000000E+00 0.  1.
         11    1    3    3    0    0  0.38225164109E+01 -0.13076524596E+02  0.53838767563E+01  0.14649001892E+02  0.51100000000E-03 0. -1.
        -11    1    3    3    0    0  0.24862028376E+02 -0.19656925703E+02 -0.74782035856E+00  0.31702908677E+02  0.51100000000E-03 0.  1.
         12    1    3    3    0    0 -0.27939049266E+02  0.33094472046E+02 -0.54768533593E+01  0.43655818360E+02  0.00000000000E+00 0. -1.
</event>
<event>
 7    1  0.2058765E-015  0.9000763E+02  0.7816164E-02  0.1186339E+00
        -11   -1    0    0    0    0  0.00000000000E+00  0.00000000000E+00  0.45593999997E+02  0.45594000000E+02  0.51100000000E-03 0. -1.
         11   -1    0    0    0    0 -0.00000000000E+00 -0.00000000000E+00 -0.45593999997E+02  0.45594000000E+02  0.51100000000E-03 0.  1.
    9900012    2    1    2    0    0 -0.31782866535E+00  0.53548085985E+00  0.10027612238E+01  0.90007625109E+02  0.89999884960E+02 0.  0.
        -12    1    1    2    0    0  0.31782866535E+00 -0.53548085985E+00 -0.10027612238E+01  0.11803748912E+01  0.00000000000E+00 0.  1.
         11    1    3    3    0    0 -0.38887519004E+01  0.38683301137E+01  0.88844458172E+01  0.10441252174E+02  0.51100000000E-03 0. -1.
        -11    1    3    3    0    0 -0.16697037243E+02  0.32591316131E+02 -0.10904381166E+02  0.38208513040E+02  0.51100000000E-03 0.  1.
         12    1    3    3    0    0  0.20267960478E+02 -0.35924165385E+02  0.30226965731E+01  0.41357859895E+02  0.00000000000E+00 0. -1.
</event>
<event>
 7    1  0.1910099E-015  0.9000688E+02  0.7816164E-02  0.1186341E+00
        -11   -1    0    0    0    0  0.00000000000E+00  0.00000000000E+00  0.45593999997E+02  0.45594000000E+02  0.51100000000E-03 0.  1.
         11   -1    0    0    0    0 -0.00000000000E+00 -0.00000000000E+00 -0.45593999997E+02  0.45594000000E+02  0.51100000000E-03 0. -1.
    9900012    2    1    2    0    0 -0.72891658348E+00  0.34263861648E+00 -0.86389798583E+00  0.90006881743E+02  0.89999131778E+02 0.  0.
        -12    1    1    2    0    0  0.72891658348E+00 -0.34263861648E+00  0.86389798583E+00  0.11811182570E+01  0.00000000000E+00 0.  1.
         11    1    3    3    0    0 -0.18687073598E+02 -0.34883742225E+02 -0.67652009743E+01  0.40147853439E+02  0.51100000000E-03 0. -1.
        -11    1    3    3    0    0 -0.54913180422E+01  0.77289356168E+01 -0.66746596460E+01  0.11594917044E+02  0.51100000000E-03 0.  1.
        -12    1    3    3    0    0  0.23449475057E+02  0.27497445224E+02  0.12575962634E+02  0.38264111260E+02  0.00000000000E+00 0.  1.
</event>
<event>
 7    1  0.1910099E-015  0.9000798E+02  0.7816164E-02  0.1186339E+00
        -11   -1    0    0    0    0  0.00000000000E+00  0.00000000000E+00  0.45593999997E+02  0.45594000000E+02  0.51100000000E-03 0.  1.
         11   -1    0    0    0    0 -0.00000000000E+00 -0.00000000000E+00 -0.45593999997E+02  0.45594000000E+02  0.51100000000E-03 0. -1.
    9900012    2    1    2    0    0 -0.58260217925E-01 -0.35619323503E+00 -0.11234656111E+01  0.90007981842E+02  0.90000246402E+02 0.  0.
        -12    1    1    2    0    0  0.58260217925E-01  0.35619323503E+00  0.11234656111E+01  0.11800181579E+01  0.00000000000E+00 0.  1.
         11    1    3    3    0    0 -0.10494461327E+02  0.16235073497E+02 -0.12469321052E+02  0.23004245211E+02  0.51100000000E-03 0. -1.
        -11    1    3    3    0    0 -0.90279442383E+01  0.18202068672E+02  0.17310740484E+02  0.26692336306E+02  0.51100000000E-03 0.  1.
         12    1    3    3    0    0  0.19464145347E+02 -0.34793335403E+02 -0.59648850431E+01  0.40311400325E+02  0.00000000000E+00 0. -1.
</event>
<event>
 7    1  0.1910099E-015  0.9000775E+02  0.7816164E-02  0.1186339E+00
        -11   -1    0    0    0    0  0.00000000000E+00  0.00000000000E+00  0.45593999997E+02  0.45594000000E+02  0.51100000000E-03 0.  1.
         11   -1    0    0    0    0 -0.00000000000E+00 -0.00000000000E+00 -0.45593999997E+02  0.45594000000E+02  0.51100000000E-03 0. -1.
    9900012    2    1    2    0    0  0.11323731831E+01 -0.68071246602E-01  0.32571363669E+00  0.90007749140E+02  0.90000010628E+02 0.  0.
        -12    1    1    2    0    0 -0.11323731831E+01  0.68071246602E-01 -0.32571363669E+00  0.11802508604E+01  0.00000000000E+00 0.  1.
         11    1    3    3    0    0 -0.11992313856E+02 -0.56796404999E+01 -0.52992847759E+01  0.14288328357E+02  0.51100000000E-03 0. -1.
        -11    1    3    3    0    0 -0.42761199187E+00  0.28598406584E+02  0.28643685745E+02  0.40478543013E+02  0.51100000000E-03 0.  1.
         12    1    3    3    0    0  0.13552299031E+02 -0.22986837330E+02 -0.23018687332E+02  0.35240877770E+02  0.00000000000E+00 0. -1.
</event>
<event>
 7    1  0.1910099E-015  0.9000775E+02  0.7816164E-02  0.1186339E+00
        -11   -1    0    0    0    0  0.00000000000E+00  0.00000000000E+00  0.45593999997E+02  0.45594000000E+02  0.51100000000E-03 0. -1.
         11   -1    0    0    0    0 -0.00000000000E+00 -0.00000000000E+00 -0.45593999997E+02  0.45594000000E+02  0.51100000000E-03 0.  1.
    9900012    2    1    2    0    0  0.10407680343E+01  0.10103338280E-01  0.55649183741E+00  0.90007752846E+02  0.90000014384E+02 0.  0.
        -12    1    1    2    0    0 -0.10407680343E+01 -0.10103338280E-01 -0.55649183741E+00  0.11802471537E+01  0.00000000000E+00 0.  1.
         11    1    3    3    0    0  0.37384674462E+01 -0.27078088752E+02  0.30908729353E+02  0.41261950751E+02  0.51100000000E-03 0. -1.
        -11    1    3    3    0    0 -0.85985632729E+01  0.50549176905E+01  0.94445891083E+00  0.10018956338E+02  0.51100000000E-03 0.  1.
        -12    1    3    3    0    0  0.59008638611E+01  0.22033274400E+02 -0.31296696426E+02  0.38726845757E+02  0.00000000000E+00 0.  1.
</event>
<event>
 7    1  0.1910099E-015  0.9000772E+02  0.7816164E-02  0.1186339E+00
        -11   -1    0    0    0    0  0.00000000000E+00  0.00000000000E+00  0.45593999997E+02  0.45594000000E+02  0.51100000000E-03 0.  1.
         11   -1    0    0    0    0 -0.00000000000E+00 -0.00000000000E+00 -0.45593999997E+02  0.45594000000E+02  0.51100000000E-03 0. -1.
    9900012    2    1    2    0    0  0.12369461058E+00 -0.10511662828E+01 -0.52231914304E+00  0.90007716899E+02  0.89999977962E+02 0.  0.
        -12    1    1    2    0    0 -0.12369461058E+00  0.10511662828E+01  0.52231914304E+00  0.11802831007E+01  0.00000000000E+00 0.  1.
         11    1    3    3    0    0  0.33513829519E+02 -0.44885290913E+01  0.46019950268E+01  0.34124800672E+02  0.51100000000E-03 0. -1.
        -11    1    3    3    0    0  0.10721133093E+02 -0.28099076913E+01 -0.14998830801E+01  0.11184271346E+02  0.51100000000E-03 0.  1.
        -12    1    3    3    0    0 -0.44111268002E+02  0.62472704999E+01 -0.36244310897E+01  0.44698644880E+02  0.00000000000E+00 0.  1.
</event>
<event>
 7    1  0.1910099E-015  0.9000772E+02  0.7816164E-02  0.1186339E+00
        -11   -1    0    0    0    0  0.00000000000E+00  0.00000000000E+00  0.45593999997E+02  0.45594000000E+02  0.51100000000E-03 0. -1.
         11   -1    0    0    0    0 -0.00000000000E+00 -0.00000000000E+00 -0.45593999997E+02  0.45594000000E+02  0.51100000000E-03 0.  1.
    9900012    2    1    2    0    0  0.19831289273E+00 -0.10983268734E+01  0.38393151591E+00  0.90007723196E+02  0.89999984343E+02 0.  0.
        -12    1    1    2    0    0 -0.19831289273E+00  0.10983268734E+01 -0.38393151591E+00  0.11802768036E+01  0.00000000000E+00 0.  1.
         11    1    3    3    0    0  0.65104096548E+01  0.44522562740E+01  0.47736233037E+01  0.92193003807E+01  0.51100000000E-03 0. -1.
        -11    1    3    3    0    0  0.58370307194E+01  0.87793793618E+01 -0.39546020884E+02  0.40927206081E+02  0.51100000000E-03 0.  1.
         12    1    3    3    0    0 -0.12149127481E+02 -0.14329962509E+02  0.35156329096E+02  0.39861216735E+02  0.00000000000E+00 0. -1.
</event>
<event>
 7    1  0.1910099E-015  0.9000771E+02  0.7816164E-02  0.1186339E+00
        -11   -1    0    0    0    0  0.00000000000E+00  0.00000000000E+00  0.45593999997E+02  0.45594000000E+02  0.51100000000E-03 0. -1.
         11   -1    0    0    0    0 -0.00000000000E+00 -0.00000000000E+00 -0.45593999997E+02  0.45594000000E+02  0.51100000000E-03 0.  1.
    9900012    2    1    2    0    0 -0.88344173378E+00  0.19247706743E+00  0.75865867925E+00  0.90007712022E+02  0.89999973021E+02 0.  0.
        -12    1    1    2    0    0  0.88344173378E+00 -0.19247706743E+00 -0.75865867925E+00  0.11802879776E+01  0.00000000000E+00 0.  1.
         11    1    3    3    0    0  0.65760226375E+01  0.23892768076E+02  0.26600398933E+02  0.36355050044E+02  0.51100000000E-03 0. -1.
        -11    1    3    3    0    0  0.27189993961E+01  0.33216666755E+01  0.80531044160E+01  0.91257283663E+01  0.51100000000E-03 0.  1.
        -12    1    3    3    0    0 -0.10178463767E+02 -0.27021957684E+02 -0.33894844670E+02  0.44526933612E+02  0.00000000000E+00 0.  1.
</event>
<event>
 7    1  0.1910099E-015  0.9000762E+02  0.7816164E-02  0.1186339E+00
        -11   -1    0    0    0    0  0.00000000000E+00  0.00000000000E+00  0.45593999997E+02  0.45594000000E+02  0.51100000000E-03 0. -1.
         11   -1    0    0    0    0 -0.00000000000E+00 -0.00000000000E+00 -0.45593999997E+02  0.45594000000E+02  0.51100000000E-03 0.  1.
    9900012    2    1    2    0    0  0.10321095669E+01  0.38708748093E-01  0.57144171660E+00  0.90007621179E+02  0.89999880979E+02 0.  0.
        -12    1    1    2    0    0 -0.10321095669E+01 -0.38708748093E-01 -0.57144171660E+00  0.11803788208E+01  0.00000000000E+00 0.  1.
         11    1    3    3    0    0  0.93770113228E+01 -0.53121366117E+01 -0.35114505736E+01  0.11334788137E+02  0.51100000000E-03 0. -1.
        -11    1    3    3    0    0  0.34354526465E+02  0.95529506331E+01  0.15036345499E+01  0.35689680183E+02  0.51100000000E-03 0.  1.
         12    1    3    3    0    0 -0.42699428221E+02 -0.42021052733E+01  0.25792577403E+01  0.42983152858E+02  0.00000000000E+00 0. -1.
</event>
<event>
 7    1  0.1910099E-015  0.9000774E+02  0.7816164E-02  0.1186339E+00
        -11   -1    0    0    0    0  0.00000000000E+00  0.00000000000E+00  0.45593999997E+02  0.45594000000E+02  0.51100000000E-03 0.  1.
         11   -1    0    0    0    0 -0.00000000000E+00 -0.00000000000E+00 -0.45593999997E+02  0.45594000000E+02  0.51100000000E-03 0. -1.
    9900012    2    1    2    0    0  0.30415780383E-01 -0.15210683298E+00 -0.11700187474E+01  0.90007743470E+02  0.90000004883E+02 0.  0.
        -12    1    1    2    0    0 -0.30415780383E-01  0.15210683298E+00  0.11700187474E+01  0.11802565304E+01  0.00000000000E+00 0.  1.
         11    1    3    3    0    0 -0.30859617225E+02  0.28212904913E+02  0.10230709319E+02  0.43045921901E+02  0.51100000000E-03 0. -1.
        -11    1    3    3    0    0  0.86673069878E+00  0.16307364886E+00 -0.49727789898E+01  0.50503808036E+01  0.51100000000E-03 0.  1.
        -12    1    3    3    0    0  0.30023302306E+02 -0.28528085395E+02 -0.64279490769E+01  0.41911440765E+02  0.00000000000E+00 0.  1.
</event>
<event>
 7    1  0.1910099E-015  0.9000761E+02  0.7816164E-02  0.1186339E+00
        -11   -1    0    0    0    0  0.00000000000E+00  0.00000000000E+00  0.45593999997E+02  0.45594000000E+02  0.51100000000E-03 0.  1.
         11   -1    0    0    0    0 -0.00000000000E+00 -0.00000000000E+00 -0.45593999997E+02  0.45594000000E+02  0.51100000000E-03 0. -1.
    9900012    2    1    2    0    0 -0.83502078465E+00  0.83413988586E+00 -0.16240833824E-01  0.90007613273E+02  0.89999872968E+02 0.  0.
        -12    1    1    2    0    0  0.83502078465E+00 -0.83413988586E+00  0.16240833824E-01  0.11803867267E+01  0.00000000000E+00 0.  1.
         11    1    3    3    0    0  0.22777830014E+01 -0.50546753304E+01  0.46932656011E+01  0.72639369739E+01  0.51100000000E-03 0. -1.
        -11    1    3    3    0    0  0.37446008507E+02 -0.79670850491E+01 -0.99718820395E+01  0.39561552408E+02  0.51100000000E-03 0.  1.
         12    1    3    3    0    0 -0.40558812293E+02  0.13855900265E+02  0.52623756046E+01  0.43182123891E+02  0.00000000000E+00 0. -1.
</event>
<event>
 7    1  0.2677274E-015  0.9000775E+02  0.7816164E-02  0.1186339E+00
        -11   -1    0    0    0    0  0.00000000000E+00  0.00000000000E+00  0.45593999997E+02  0.45594000000E+02  0.51100000000E-03 0.  1.
         11   -1    0    0    0    0 -0.00000000000E+00 -0.00000000000E+00 -0.45593999997E+02  0.45594000000E+02  0.51100000000E-03 0. -1.
    9900012    2    1    2    0    0 -0.11426917927E+00  0.59320089332E+00 -0.10139249406E+01  0.90007750649E+02  0.90000012158E+02 0.  0.
        -12    1    1    2    0    0  0.11426917927E+00 -0.59320089332E+00  0.10139249406E+01  0.11802493509E+01  0.00000000000E+00 0.  1.
         11    1    3    3    0    0 -0.29838585222E+01 -0.85072037024E+01 -0.33923522500E+01  0.96324441636E+01  0.51100000000E-03 0. -1.
        -11    1    3    3    0    0 -0.11532939516E+02 -0.20193609835E+02  0.29760247725E+02  0.37768544014E+02  0.51100000000E-03 0.  1.
         12    1    3    3    0    0  0.14402528859E+02  0.29294014431E+02 -0.27381820416E+02  0.42606762471E+02  0.00000000000E+00 0. -1.
</event>
<event>
 7    1  0.1910099E-015  0.9000778E+02  0.7816164E-02  0.1186339E+00
        -11   -1    0    0    0    0  0.00000000000E+00  0.00000000000E+00  0.45593999997E+02  0.45594000000E+02  0.51100000000E-03 0. -1.
         11   -1    0    0    0    0 -0.00000000000E+00 -0.00000000000E+00 -0.45593999997E+02  0.45594000000E+02  0.51100000000E-03 0.  1.
    9900012    2    1    2    0    0 -0.39971554341E+00  0.72561606294E+00  0.84060749767E+00  0.90007783007E+02  0.90000044942E+02 0.  0.
        -12    1    1    2    0    0  0.39971554341E+00 -0.72561606294E+00 -0.84060749767E+00  0.11802169934E+01  0.00000000000E+00 0.  1.
         11    1    3    3    0    0  0.92419351423E+01  0.24673984807E+02  0.30150099988E+02  0.40040572186E+02  0.51100000000E-03 0. -1.
        -11    1    3    3    0    0  0.46445160695E+01 -0.70797805531E+01  0.44875938871E+01  0.95829703827E+01  0.51100000000E-03 0.  1.
        -12    1    3    3    0    0 -0.14286166755E+02 -0.16868588191E+02 -0.33797086378E+02  0.40384240438E+02  0.00000000000E+00 0.  1.
</event>
<event>
 7    1  0.1910099E-015  0.9000772E+02  0.7816164E-02  0.1186339E+00
        -11   -1    0    0    0    0  0.00000000000E+00  0.00000000000E+00  0.45593999997E+02  0.45594000000E+02  0.51100000000E-03 0.  1.
         11   -1    0    0    0    0 -0.00000000000E+00 -0.00000000000E+00 -0.45593999997E+02  0.45594000000E+02  0.51100000000E-03 0. -1.
    9900012    2    1    2    0    0 -0.64439122102E+00  0.68624177417E+00 -0.71196568740E+00  0.90007719119E+02  0.89999980211E+02 0.  0.
        -12    1    1    2    0    0  0.64439122102E+00 -0.68624177417E+00  0.71196568740E+00  0.11802808811E+01  0.00000000000E+00 0.  1.
         11    1    3    3    0    0 -0.36919409480E+01  0.77834975376E+01 -0.26403188522E+02  0.27773037758E+02  0.51100000000E-03 0. -1.
        -11    1    3    3    0    0  0.11986940234E+02  0.22175329361E+02  0.17045299676E+02  0.30429824346E+02  0.51100000000E-03 0.  1.
         12    1    3    3    0    0 -0.89393905073E+01 -0.29272585124E+02  0.86459231593E+01  0.31804857015E+02  0.00000000000E+00 0. -1.
</event>
<event>
 7    1  0.1910099E-015  0.9000783E+02  0.7816164E-02  0.1186339E+00
        -11   -1    0    0    0    0  0.00000000000E+00  0.00000000000E+00  0.45593999997E+02  0.45594000000E+02  0.51100000000E-03 0. -1.
         11   -1    0    0    0    0 -0.00000000000E+00 -0.00000000000E+00 -0.45593999997E+02  0.45594000000E+02  0.51100000000E-03 0.  1.
    9900012    2    1    2    0    0  0.63756557622E+00  0.92206908939E+00 -0.36890911398E+00  0.90007832553E+02  0.90000095142E+02 0.  0.
        -12    1    1    2    0    0 -0.63756557622E+00 -0.92206908939E+00  0.36890911398E+00  0.11801674474E+01  0.00000000000E+00 0.  1.
         11    1    3    3    0    0  0.65573329831E+01  0.55434538727E+01  0.26909492776E+01  0.89983167851E+01  0.51100000000E-03 0. -1.
        -11    1    3    3    0    0  0.23242531207E+02  0.26805599448E+02  0.87453684262E+01  0.36540893364E+02  0.51100000000E-03 0.  1.
         12    1    3    3    0    0 -0.29162298614E+02 -0.31426984231E+02 -0.11805226818E+02  0.44468622404E+02  0.00000000000E+00 0. -1.
</event>
<event>
 7    1  0.1910099E-015  0.9000741E+02  0.7816164E-02  0.1186340E+00
        -11   -1    0    0    0    0  0.00000000000E+00  0.00000000000E+00  0.45593999997E+02  0.45594000000E+02  0.51100000000E-03 0. -1.
         11   -1    0    0    0    0 -0.00000000000E+00 -0.00000000000E+00 -0.45593999997E+02  0.45594000000E+02  0.51100000000E-03 0.  1.
    9900012    2    1    2    0    0  0.59117406645E+00  0.10217436127E+01 -0.18584951724E-01  0.90007410238E+02  0.89999667252E+02 0.  0.
        -12    1    1    2    0    0 -0.59117406645E+00 -0.10217436127E+01  0.18584951724E-01  0.11805897625E+01  0.00000000000E+00 0.  1.
         11    1    3    3    0    0  0.91085668835E+00  0.77644643361E+01 -0.29340236047E+01  0.83501533583E+01  0.51100000000E-03 0. -1.
        -11    1    3    3    0    0  0.27328365022E+02 -0.12713635735E+02 -0.27015165731E+02  0.40475860067E+02  0.51100000000E-03 0.  1.
         12    1    3    3    0    0 -0.27648047644E+02  0.59709150119E+01  0.29930604384E+02  0.41181396812E+02  0.00000000000E+00 0. -1.
</event>
<event>
 7    1  0.1910099E-015  0.9000767E+02  0.7816164E-02  0.1186339E+00
        -11   -1    0    0    0    0  0.00000000000E+00  0.00000000000E+00  0.45593999997E+02  0.45594000000E+02  0.51100000000E-03 0. -1.
         11   -1    0    0    0    0 -0.00000000000E+00 -0.00000000000E+00 -0.45593999997E+02  0.45594000000E+02  0.51100000000E-03 0.  1.
    9900012    2    1    2    0    0  0.77780965362E-01 -0.11593117889E+01 -0.20769276405E+00  0.90007665307E+02  0.89999925689E+02 0.  0.
        -12    1    1    2    0    0 -0.77780965362E-01  0.11593117889E+01  0.20769276405E+00  0.11803346927E+01  0.00000000000E+00 0.  1.
         11    1    3    3    0    0 -0.51330591289E+01  0.40537140690E+02  0.43991315039E+00  0.40863205885E+02  0.51100000000E-03 0. -1.
        -11    1    3    3    0    0 -0.49067638985E+01 -0.51160313509E+01  0.75064703962E+01  0.10324592331E+02  0.51100000000E-03 0.  1.
        -12    1    3    3    0    0  0.10117603993E+02 -0.36580421128E+02 -0.81540763106E+01  0.38819867091E+02  0.00000000000E+00 0.  1.
</event>
<event>
 7    1  0.1910099E-015  0.9000777E+02  0.7816164E-02  0.1186339E+00
        -11   -1    0    0    0    0  0.00000000000E+00  0.00000000000E+00  0.45593999997E+02  0.45594000000E+02  0.51100000000E-03 0. -1.
         11   -1    0    0    0    0 -0.00000000000E+00 -0.00000000000E+00 -0.45593999997E+02  0.45594000000E+02  0.51100000000E-03 0.  1.
    9900012    2    1    2    0    0  0.54407831326E+00 -0.98068101141E+00  0.36767208590E+00  0.90007771539E+02  0.90000033323E+02 0.  0.
        -12    1    1    2    0    0 -0.54407831326E+00  0.98068101141E+00 -0.36767208590E+00  0.11802284609E+01  0.00000000000E+00 0.  1.
         11    1    3    3    0    0  0.98315851626E+01  0.30619445712E+01  0.10771163880E+01  0.10353538107E+02  0.51100000000E-03 0. -1.
        -11    1    3    3    0    0  0.18186473713E+02 -0.32874225952E+02  0.90630313140E+01  0.38647135662E+02  0.51100000000E-03 0.  1.
         12    1    3    3    0    0 -0.27473980562E+02  0.28831600369E+02 -0.97724756162E+01  0.41007097769E+02  0.00000000000E+00 0. -1.
</event>
<event>
 7    1  0.1939207E-015  0.9000740E+02  0.7816164E-02  0.1186340E+00
        -11   -1    0    0    0    0  0.00000000000E+00  0.00000000000E+00  0.45593999997E+02  0.45594000000E+02  0.51100000000E-03 0. -1.
         11   -1    0    0    0    0 -0.00000000000E+00 -0.00000000000E+00 -0.45593999997E+02  0.45594000000E+02  0.51100000000E-03 0.  1.
    9900012    2    1    2    0    0  0.77109843082E+00  0.20514296319E+00  0.87013677528E+00  0.90007400816E+02  0.89999657706E+02 0.  0.
        -12    1    1    2    0    0 -0.77109843082E+00 -0.20514296319E+00 -0.87013677528E+00  0.11805991839E+01  0.00000000000E+00 0.  1.
         11    1    3    3    0    0  0.72739668947E+01 -0.78518632519E+00 -0.52040707657E+01  0.89782773819E+01  0.51100000000E-03 0. -1.
        -11    1    3    3    0    0 -0.20312078425E+02 -0.30137471379E+02 -0.16767053125E+02  0.40024764606E+02  0.51100000000E-03 0.  1.
         12    1    3    3    0    0  0.13809209961E+02  0.31127800667E+02  0.22841260666E+02  0.41004358828E+02  0.00000000000E+00 0. -1.
</event>
<event>
 7    1  0.1910099E-015  0.9000774E+02  0.7816164E-02  0.1186339E+00
        -11   -1    0    0    0    0  0.00000000000E+00  0.00000000000E+00  0.45593999997E+02  0.45594000000E+02  0.51100000000E-03 0. -1.
         11   -1    0    0    0    0 -0.00000000000E+00 -0.00000000000E+00 -0.45593999997E+02  0.45594000000E+02  0.51100000000E-03 0.  1.
    9900012    2    1    2    0    0  0.10609337679E+01  0.12311797917E+00  0.50226776581E+00  0.90007740958E+02  0.90000002339E+02 0.  0.
        -12    1    1    2    0    0 -0.10609337679E+01 -0.12311797917E+00 -0.50226776581E+00  0.11802590416E+01  0.00000000000E+00 0.  1.
         11    1    3    3    0    0  0.55681534607E+01 -0.26985341751E+02  0.23791061220E+02  0.36403675592E+02  0.51100000000E-03 0. -1.
        -11    1    3    3    0    0 -0.66433424416E+01 -0.24179262466E+01  0.79009103077E+01  0.10602110643E+02  0.51100000000E-03 0.  1.
        -12    1    3    3    0    0  0.21361227489E+01  0.29526385977E+02 -0.31189703762E+02  0.43001954723E+02  0.00000000000E+00 0.  1.
</event>
<event>
 7    1  0.1910099E-015  0.9000772E+02  0.7816164E-02  0.1186339E+00
        -11   -1    0    0    0    0  0.00000000000E+00  0.00000000000E+00  0.45593999997E+02  0.45594000000E+02  0.51100000000E-03 0.  1.
         11   -1    0    0    0    0 -0.00000000000E+00 -0.00000000000E+00 -0.45593999997E+02  0.45594000000E+02  0.51100000000E-03 0. -1.
    9900012    2    1    2    0    0 -0.26157289371E+00 -0.19273841617E+00 -0.11346741261E+01  0.90007722978E+02  0.89999984122E+02 0.  0.
        -12    1    1    2    0    0  0.26157289371E+00  0.19273841617E+00  0.11346741261E+01  0.11802770218E+01  0.00000000000E+00 0.  1.
         11    1    3    3    0    0  0.69589502669E+00 -0.96906554174E+01 -0.83138230891E+00  0.97511163008E+01  0.51100000000E-03 0. -1.
        -11    1    3    3    0    0 -0.46815855422E+01 -0.35133299717E+02 -0.11458693385E+01  0.35462360454E+02  0.51100000000E-03 0.  1.
         12    1    3    3    0    0  0.37241176218E+01  0.44631216718E+02  0.84257752133E+00  0.44794246223E+02  0.00000000000E+00 0. -1.
</event>
<event>
 7    1  0.1910099E-015  0.9000770E+02  0.7816164E-02  0.1186339E+00
        -11   -1    0    0    0    0  0.00000000000E+00  0.00000000000E+00  0.45593999997E+02  0.45594000000E+02  0.51100000000E-03 0.  1.
         11   -1    0    0    0    0 -0.00000000000E+00 -0.00000000000E+00 -0.45593999997E+02  0.45594000000E+02  0.51100000000E-03 0. -1.
    9900012    2    1    2    0    0  0.53804459238E+00  0.46823173944E+00 -0.94041681621E+00  0.90007696338E+02  0.89999957130E+02 0.  0.
        -12    1    1    2    0    0 -0.53804459238E+00 -0.46823173944E+00  0.94041681621E+00  0.11803036615E+01  0.00000000000E+00 0.  1.
         11    1    3    3    0    0  0.31087569933E+01  0.18300577844E+01 -0.33523287199E+02  0.33716824679E+02  0.51100000000E-03 0. -1.
        -11    1    3    3    0    0  0.12250711462E+02  0.53806035049E+01 -0.58104297898E+01  0.14587389074E+02  0.51100000000E-03 0.  1.
        -12    1    3    3    0    0 -0.14821423863E+02 -0.67424295498E+01  0.38393300173E+02  0.41703482585E+02  0.00000000000E+00 0.  1.
</event>
<event>
 7    1  0.1910099E-015  0.9000771E+02  0.7816164E-02  0.1186339E+00
        -11   -1    0    0    0    0  0.00000000000E+00  0.00000000000E+00  0.45593999997E+02  0.45594000000E+02  0.51100000000E-03 0.  1.
         11   -1    0    0    0    0 -0.00000000000E+00 -0.00000000000E+00 -0.45593999997E+02  0.45594000000E+02  0.51100000000E-03 0. -1.
    9900012    2    1    2    0    0  0.44115554455E-01  0.10769310168E+01 -0.48098680243E+00  0.90007714060E+02  0.89999975085E+02 0.  0.
        -12    1    1    2    0    0 -0.44115554455E-01 -0.10769310168E+01  0.48098680243E+00  0.11802859404E+01  0.00000000000E+00 0.  1.
         11    1    3    3    0    0 -0.32840648861E+01 -0.60963897079E+01  0.66017379716E+01  0.95673399727E+01  0.51100000000E-03 0. -1.
        -11    1    3    3    0    0 -0.28321726409E+02  0.28366111916E+02  0.51969623676E+01  0.40419857869E+02  0.51100000000E-03 0.  1.
         12    1    3    3    0    0  0.31649906850E+02 -0.21192791191E+02 -0.12279687142E+02  0.40020516218E+02  0.00000000000E+00 0. -1.
</event>
<event>
 7    1  0.1910099E-015  0.9000776E+02  0.7816164E-02  0.1186339E+00
        -11   -1    0    0    0    0  0.00000000000E+00  0.00000000000E+00  0.45593999997E+02  0.45594000000E+02  0.51100000000E-03 0. -1.
         11   -1    0    0    0    0 -0.00000000000E+00 -0.00000000000E+00 -0.45593999997E+02  0.45594000000E+02  0.51100000000E-03 0.  1.
    9900012    2    1    2    0    0 -0.11110291858E+01 -0.31025334993E-01 -0.39701769162E+00  0.90007757876E+02  0.90000019480E+02 0.  0.
        -12    1    1    2    0    0  0.11110291858E+01  0.31025334993E-01  0.39701769162E+00  0.11802421237E+01  0.00000000000E+00 0.  1.
         11    1    3    3    0    0 -0.97203477494E+01 -0.38741023664E+02  0.86793998478E+01  0.40874002213E+02  0.51100000000E-03 0. -1.
        -11    1    3    3    0    0 -0.97719831488E+00 -0.19927414720E+01 -0.69139430451E+01  0.72614422681E+01  0.51100000000E-03 0.  1.
        -12    1    3    3    0    0  0.95865168785E+01  0.40702739801E+02 -0.21624744944E+01  0.41872313396E+02  0.00000000000E+00 0.  1.
</event>
<event>
 7    1  0.1910099E-015  0.9000779E+02  0.7816164E-02  0.1186339E+00
        -11   -1    0    0    0    0  0.00000000000E+00  0.00000000000E+00  0.45593999997E+02  0.45594000000E+02  0.51100000000E-03 0. -1.
         11   -1    0    0    0    0 -0.00000000000E+00 -0.00000000000E+00 -0.45593999997E+02  0.45594000000E+02  0.51100000000E-03 0.  1.
    9900012    2    1    2    0    0  0.18571675827E+00  0.27963450703E+00  0.11314678930E+01  0.90007785712E+02  0.90000047684E+02 0.  0.
        -12    1    1    2    0    0 -0.18571675827E+00 -0.27963450703E+00 -0.11314678930E+01  0.11802142876E+01  0.00000000000E+00 0.  1.
         11    1    3    3    0    0  0.66737983671E+01  0.47274812832E+01  0.43878455137E+01  0.92812635153E+01  0.51100000000E-03 0. -1.
        -11    1    3    3    0    0  0.29386657195E+02  0.93327710454E+01  0.19096778295E+02  0.36267935949E+02  0.51100000000E-03 0.  1.
         12    1    3    3    0    0 -0.35874738804E+02 -0.13780617822E+02 -0.22353155915E+02  0.44458586248E+02  0.00000000000E+00 0. -1.
</event>
<event>
 7    1  0.1910099E-015  0.9000768E+02  0.7816164E-02  0.1186339E+00
        -11   -1    0    0    0    0  0.00000000000E+00  0.00000000000E+00  0.45593999997E+02  0.45594000000E+02  0.51100000000E-03 0.  1.
         11   -1    0    0    0    0 -0.00000000000E+00 -0.00000000000E+00 -0.45593999997E+02  0.45594000000E+02  0.51100000000E-03 0. -1.
    9900012    2    1    2    0    0  0.98810183395E+00 -0.42246290931E+00  0.48818742913E+00  0.90007683470E+02  0.89999944092E+02 0.  0.
        -12    1    1    2    0    0 -0.98810183395E+00  0.42246290931E+00 -0.48818742913E+00  0.11803165296E+01  0.00000000000E+00 0.  1.
         11    1    3    3    0    0  0.34798491543E+02 -0.13394952987E+00  0.57610587410E+01  0.35272407831E+02  0.51100000000E-03 0. -1.
        -11    1    3    3    0    0  0.37519419389E+01 -0.54435500643E+01  0.11509048559E+02  0.13272810728E+02  0.51100000000E-03 0.  1.
        -12    1    3    3    0    0 -0.37562331648E+02  0.51550366848E+01 -0.16781919871E+02  0.41462464912E+02  0.00000000000E+00 0.  1.
</event>
<event>
 7    1  0.1910099E-015  0.9000794E+02  0.7816164E-02  0.1186339E+00
        -11   -1    0    0    0    0  0.00000000000E+00  0.00000000000E+00  0.45593999997E+02  0.45594000000E+02  0.51100000000E-03 0. -1.
         11   -1    0    0    0    0 -0.00000000000E+00 -0.00000000000E+00 -0.45593999997E+02  0.45594000000E+02  0.51100000000E-03 0.  1.
    9900012    2    1    2    0    0 -0.76895340600E+00 -0.29899946987E+00  0.84371876508E+00  0.90007935858E+02  0.90000199812E+02 0.  0.
        -12    1    1    2    0    0  0.76895340600E+00  0.29899946987E+00 -0.84371876508E+00  0.11800641415E+01  0.00000000000E+00 0.  1.
         11    1    3    3    0    0 -0.10394518861E+01 -0.17080009509E+01 -0.82411231260E+01  0.84802027164E+01  0.51100000000E-03 0. -1.
        -11    1    3    3    0    0 -0.10531746709E+02 -0.17558647803E+02 -0.30258461894E+02  0.36534891787E+02  0.51100000000E-03 0.  1.
         12    1    3    3    0    0  0.10802245189E+02  0.18967649284E+02  0.39343303785E+02  0.44992841355E+02  0.00000000000E+00 0. -1.
</event>
<event>
 7    1  0.1910099E-015  0.9000785E+02  0.7816164E-02  0.1186339E+00
        -11   -1    0    0    0    0  0.00000000000E+00  0.00000000000E+00  0.45593999997E+02  0.45594000000E+02  0.51100000000E-03 0.  1.
         11   -1    0    0    0    0 -0.00000000000E+00 -0.00000000000E+00 -0.45593999997E+02  0.45594000000E+02  0.51100000000E-03 0. -1.
    9900012    2    1    2    0    0  0.89519267792E+00  0.76284954646E+00  0.97168130930E-01  0.90007851278E+02  0.90000114114E+02 0.  0.
        -12    1    1    2    0    0 -0.89519267792E+00 -0.76284954646E+00 -0.97168130930E-01  0.11801487223E+01  0.00000000000E+00 0.  1.
         11    1    3    3    0    0  0.78923623582E+01  0.10425740267E+02 -0.28687783360E+02  0.31527358882E+02  0.51100000000E-03 0. -1.
        -11    1    3    3    0    0  0.21089144927E+02 -0.46665748088E+01  0.74146619305E+01  0.22836509497E+02  0.51100000000E-03 0.  1.
        -12    1    3    3    0    0 -0.28086314608E+02 -0.49963159116E+01  0.21370289561E+02  0.35643982898E+02  0.00000000000E+00 0.  1.
</event>
<event>
 7    1  0.1910099E-015  0.9000775E+02  0.7816164E-02  0.1186339E+00
        -11   -1    0    0    0    0  0.00000000000E+00  0.00000000000E+00  0.45593999997E+02  0.45594000000E+02  0.51100000000E-03 0. -1.
         11   -1    0    0    0    0 -0.00000000000E+00 -0.00000000000E+00 -0.45593999997E+02  0.45594000000E+02  0.51100000000E-03 0.  1.
    9900012    2    1    2    0    0  0.94274580005E+00 -0.61388573708E+00 -0.35689719710E+00  0.90007745387E+02  0.90000006826E+02 0.  0.
        -12    1    1    2    0    0 -0.94274580005E+00  0.61388573708E+00  0.35689719710E+00  0.11802546128E+01  0.00000000000E+00 0.  1.
         11    1    3    3    0    0  0.70291800732E+01 -0.37413649952E+02  0.12244042694E+02  0.39988837905E+02  0.51100000000E-03 0. -1.
        -11    1    3    3    0    0  0.17495443322E+01 -0.12816025987E+01 -0.10888096711E+02  0.11101984545E+02  0.51100000000E-03 0.  1.
        -12    1    3    3    0    0 -0.78359786054E+01  0.38081366814E+02 -0.17128431802E+01  0.38916922937E+02  0.00000000000E+00 0.  1.
</event>
<event>
 7    1  0.1910099E-015  0.9000782E+02  0.7816164E-02  0.1186339E+00
        -11   -1    0    0    0    0  0.00000000000E+00  0.00000000000E+00  0.45593999997E+02  0.45594000000E+02  0.51100000000E-03 0. -1.
         11   -1    0    0    0    0 -0.00000000000E+00 -0.00000000000E+00 -0.45593999997E+02  0.45594000000E+02  0.51100000000E-03 0.  1.
    9900012    2    1    2    0    0 -0.97959222133E-01 -0.11760802437E+01 -0.81598815150E-02  0.90007818941E+02  0.90000081351E+02 0.  0.
        -12    1    1    2    0    0  0.97959222133E-01  0.11760802437E+01  0.81598815150E-02  0.11801810592E+01  0.00000000000E+00 0.  1.
         11    1    3    3    0    0  0.84695992490E+01 -0.38752914386E+02  0.92389841409E+01  0.40729366715E+02  0.51100000000E-03 0. -1.
        -11    1    3    3    0    0  0.92291714345E+01  0.48376809846E+01  0.14238904568E+01  0.10517044593E+02  0.51100000000E-03 0.  1.
        -12    1    3    3    0    0 -0.17796729906E+02  0.32739153157E+02 -0.10671034479E+02  0.38761407633E+02  0.00000000000E+00 0.  1.
</event>
<event>
 7    1  0.1910099E-015  0.9000771E+02  0.7816164E-02  0.1186339E+00
        -11   -1    0    0    0    0  0.00000000000E+00  0.00000000000E+00  0.45593999997E+02  0.45594000000E+02  0.51100000000E-03 0.  1.
         11   -1    0    0    0    0 -0.00000000000E+00 -0.00000000000E+00 -0.45593999997E+02  0.45594000000E+02  0.51100000000E-03 0. -1.
    9900012    2    1    2    0    0 -0.10040998449E+01 -0.58153246833E+00 -0.21609719897E+00  0.90007705753E+02  0.89999966669E+02 0.  0.
        -12    1    1    2    0    0  0.10040998449E+01  0.58153246833E+00  0.21609719897E+00  0.11802942471E+01  0.00000000000E+00 0.  1.
         11    1    3    3    0    0  0.15308626882E+01  0.29863123765E+02 -0.19532753412E+02  0.35716636987E+02  0.51100000000E-03 0. -1.
        -11    1    3    3    0    0 -0.63975074732E+01 -0.37093407989E+01 -0.11272583058E+02  0.13481781785E+02  0.51100000000E-03 0.  1.
        -12    1    3    3    0    0  0.38625449402E+01 -0.26735315434E+02  0.30589239270E+02  0.40809286981E+02  0.00000000000E+00 0.  1.
</event>
<event>
 7    1  0.1910099E-015  0.9000774E+02  0.7816164E-02  0.1186339E+00
        -11   -1    0    0    0    0  0.00000000000E+00  0.00000000000E+00  0.45593999997E+02  0.45594000000E+02  0.51100000000E-03 0.  1.
         11   -1    0    0    0    0 -0.00000000000E+00 -0.00000000000E+00 -0.45593999997E+02  0.45594000000E+02  0.51100000000E-03 0. -1.
    9900012    2    1    2    0    0  0.63870012617E+00 -0.16427994992E+00 -0.97881649353E+00  0.90007742621E+02  0.90000004023E+02 0.  0.
        -12    1    1    2    0    0 -0.63870012617E+00  0.16427994992E+00  0.97881649353E+00  0.11802573792E+01  0.00000000000E+00 0.  1.
         11    1    3    3    0    0 -0.72042918514E+01  0.50650762432E+01  0.73738699767E+01  0.11486112359E+02  0.51100000000E-03 0. -1.
        -11    1    3    3    0    0  0.22076968648E+02  0.61590970641E+01  0.28996583813E+02  0.36961180912E+02  0.51100000000E-03 0.  1.
         12    1    3    3    0    0 -0.14233976670E+02 -0.11388453257E+02 -0.37349270283E+02  0.41560449350E+02  0.00000000000E+00 0. -1.
</event>
<event>
 7    1  0.1910099E-015  0.9000759E+02  0.7816164E-02  0.1186339E+00
        -11   -1    0    0    0    0  0.00000000000E+00  0.00000000000E+00  0.45593999997E+02  0.45594000000E+02  0.51100000000E-03 0. -1.
         11   -1    0    0    0    0 -0.00000000000E+00 -0.00000000000E+00 -0.45593999997E+02  0.45594000000E+02  0.51100000000E-03 0.  1.
    9900012    2    1    2    0    0 -0.64850131257E+00 -0.28332228508E+00  0.94474570037E+00  0.90007589094E+02  0.89999848469E+02 0.  0.
        -12    1    1    2    0    0  0.64850131257E+00  0.28332228508E+00 -0.94474570037E+00  0.11804109064E+01  0.00000000000E+00 0.  1.
         11    1    3    3    0    0  0.24652421885E+02  0.24418226133E+02 -0.10739083982E+02  0.36322439308E+02  0.51100000000E-03 0. -1.
        -11    1    3    3    0    0 -0.10622055666E+01  0.96841223790E+01 -0.87268505483E+00  0.97812108854E+01  0.51100000000E-03 0.  1.
        -12    1    3    3    0    0 -0.24238717631E+02 -0.34385670797E+02  0.12556514738E+02  0.43903938900E+02  0.00000000000E+00 0.  1.
</event>
<event>
 7    1  0.1910099E-015  0.9000773E+02  0.7816164E-02  0.1186339E+00
        -11   -1    0    0    0    0  0.00000000000E+00  0.00000000000E+00  0.45593999997E+02  0.45594000000E+02  0.51100000000E-03 0.  1.
         11   -1    0    0    0    0 -0.00000000000E+00 -0.00000000000E+00 -0.45593999997E+02  0.45594000000E+02  0.51100000000E-03 0. -1.
    9900012    2    1    2    0    0  0.57884301702E+00 -0.88381670709E+00 -0.52615438552E+00  0.90007733230E+02  0.89999994509E+02 0.  0.
        -12    1    1    2    0    0 -0.57884301702E+00  0.88381670709E+00  0.52615438552E+00  0.11802667696E+01  0.00000000000E+00 0.  1.
         11    1    3    3    0    0  0.21416482740E+01  0.91972514267E+01  0.58026511215E+00  0.94611203880E+01  0.51100000000E-03 0. -1.
        -11    1    3    3    0    0  0.11841032260E+02 -0.43063652917E+02  0.26884443948E+01  0.44742775742E+02  0.51100000000E-03 0.  1.
         12    1    3    3    0    0 -0.13403837517E+02  0.32982584783E+02 -0.37948638925E+01  0.35803837101E+02  0.00000000000E+00 0. -1.
</event>
<event>
 7    1  0.1910099E-015  0.9000768E+02  0.7816164E-02  0.1186339E+00
        -11   -1    0    0    0    0  0.00000000000E+00  0.00000000000E+00  0.45593999997E+02  0.45594000000E+02  0.51100000000E-03 0.  1.
         11   -1    0    0    0    0 -0.00000000000E+00 -0.00000000000E+00 -0.45593999997E+02  0.45594000000E+02  0.51100000000E-03 0. -1.
    9900012    2    1    2    0    0 -0.15178496186E+00 -0.70298349200E+00 -0.93591144890E+00  0.90007680253E+02  0.89999940832E+02 0.  0.
        -12    1    1    2    0    0  0.15178496186E+00  0.70298349200E+00  0.93591144890E+00  0.11803197469E+01  0.00000000000E+00 0.  1.
         11    1    3    3    0    0 -0.60805898884E+01 -0.71525397900E+01 -0.43934124780E+01  0.10365060169E+02  0.51100000000E-03 0. -1.
        -11    1    3    3    0    0 -0.21018199802E+02 -0.27121395785E+02 -0.77133605407E+01  0.35168604797E+02  0.51100000000E-03 0.  1.
         12    1    3    3    0    0  0.26947004729E+02  0.33570952083E+02  0.11170861570E+02  0.44474015288E+02  0.00000000000E+00 0. -1.
</event>
<event>
 7    1  0.1910099E-015  0.9000775E+02  0.7816164E-02  0.1186339E+00
        -11   -1    0    0    0    0  0.00000000000E+00  0.00000000000E+00  0.45593999997E+02  0.45594000000E+02  0.51100000000E-03 0.  1.
         11   -1    0    0    0    0 -0.00000000000E+00 -0.00000000000E+00 -0.45593999997E+02  0.45594000000E+02  0.51100000000E-03 0. -1.
    9900012    2    1    2    0    0  0.68634708533E+00  0.62594948632E+00  0.72807691208E+00  0.90007753809E+02  0.90000015359E+02 0.  0.
        -12    1    1    2    0    0 -0.68634708533E+00 -0.62594948632E+00 -0.72807691208E+00  0.11802461908E+01  0.00000000000E+00 0.  1.
         11    1    3    3    0    0  0.39864736382E+01  0.67099944487E+01 -0.29785227076E+01  0.83538970158E+01  0.51100000000E-03 0. -1.
        -11    1    3    3    0    0 -0.41054591843E+01  0.37563388856E+02  0.39983124943E+01  0.37998019429E+02  0.51100000000E-03 0.  1.
         12    1    3    3    0    0  0.80533263135E+00 -0.43647433818E+02 -0.29171287455E+00  0.43655837364E+02  0.00000000000E+00 0. -1.
</event>
<event>
 7    1  0.1910099E-015  0.9000776E+02  0.7816164E-02  0.1186339E+00
        -11   -1    0    0    0    0  0.00000000000E+00  0.00000000000E+00  0.45593999997E+02  0.45594000000E+02  0.51100000000E-03 0. -1.
         11   -1    0    0    0    0 -0.00000000000E+00 -0.00000000000E+00 -0.45593999997E+02  0.45594000000E+02  0.51100000000E-03 0.  1.
    9900012    2    1    2    0    0 -0.57852070491E-01  0.43656834503E+00  0.10949974452E+01  0.90007763504E+02  0.90000025182E+02 0.  0.
        -12    1    1    2    0    0  0.57852070491E-01 -0.43656834503E+00 -0.10949974452E+01  0.11802364962E+01  0.00000000000E+00 0.  1.
         11    1    3    3    0    0 -0.17047711007E+02  0.36440766424E+01  0.34936764845E+02  0.39044606328E+02  0.51100000000E-03 0. -1.
        -11    1    3    3    0    0 -0.27257772090E+01  0.96274351954E+01 -0.32109220740E+00  0.10011017446E+02  0.51100000000E-03 0.  1.
        -12    1    3    3    0    0  0.19715636146E+02 -0.12834943493E+02 -0.33520675193E+02  0.40952139730E+02  0.00000000000E+00 0.  1.
</event>
<event>
 7    1  0.1910099E-015  0.9000773E+02  0.7816164E-02  0.1186339E+00
        -11   -1    0    0    0    0  0.00000000000E+00  0.00000000000E+00  0.45593999997E+02  0.45594000000E+02  0.51100000000E-03 0. -1.
         11   -1    0    0    0    0 -0.00000000000E+00 -0.00000000000E+00 -0.45593999997E+02  0.45594000000E+02  0.51100000000E-03 0.  1.
    9900012    2    1    2    0    0 -0.18625564896E+00 -0.11438442722E+01  0.22354252762E+00  0.90007727935E+02  0.89999989144E+02 0.  0.
        -12    1    1    2    0    0  0.18625564896E+00  0.11438442722E+01 -0.22354252762E+00  0.11802720650E+01  0.00000000000E+00 0.  1.
         11    1    3    3    0    0 -0.40556409654E+01  0.80315654288E+01 -0.44506977526E+01  0.10038076391E+02  0.51100000000E-03 0. -1.
        -11    1    3    3    0    0 -0.10308151474E+02  0.30911763163E+02 -0.11386183346E+02  0.34517245836E+02  0.51100000000E-03 0.  1.
         12    1    3    3    0    0  0.14177536790E+02 -0.40087172864E+02  0.16060423626E+02  0.45452405709E+02  0.00000000000E+00 0. -1.
</event>
<event>
 7    1  0.1910099E-015  0.9000772E+02  0.7816164E-02  0.1186339E+00
        -11   -1    0    0    0    0  0.00000000000E+00  0.00000000000E+00  0.45593999997E+02  0.45594000000E+02  0.51100000000E-03 0.  1.
         11   -1    0    0    0    0 -0.00000000000E+00 -0.00000000000E+00 -0.45593999997E+02  0.45594000000E+02  0.51100000000E-03 0. -1.
    9900012    2    1    2    0    0 -0.99690292351E+00 -0.22060874047E+00 -0.59210128860E+00  0.90007717156E+02  0.89999978223E+02 0.  0.
        -12    1    1    2    0    0  0.99690292351E+00  0.22060874047E+00  0.59210128860E+00  0.11802828437E+01  0.00000000000E+00 0.  1.
         11    1    3    3    0    0 -0.59178263524E+01  0.52466804671E+01  0.67591688157E+01  0.10403590150E+02  0.51100000000E-03 0. -1.
        -11    1    3    3    0    0  0.31860872468E+02  0.10240026078E+02  0.19256574976E+02  0.38610736960E+02  0.51100000000E-03 0.  1.
         12    1    3    3    0    0 -0.26939949039E+02 -0.15707315285E+02 -0.26607845080E+02  0.40993390047E+02  0.00000000000E+00 0. -1.
</event>
<event>
 7    1  0.1910099E-015  0.9000773E+02  0.7816164E-02  0.1186339E+00
        -11   -1    0    0    0    0  0.00000000000E+00  0.00000000000E+00  0.45593999997E+02  0.45594000000E+02  0.51100000000E-03 0. -1.
         11   -1    0    0    0    0 -0.00000000000E+00 -0.00000000000E+00 -0.45593999997E+02  0.45594000000E+02  0.51100000000E-03 0.  1.
    9900012    2    1    2    0    0  0.73034420145E+00  0.36524686114E+00  0.85218649027E+00  0.90007733193E+02  0.89999994471E+02 0.  0.
        -12    1    1    2    0    0 -0.73034420145E+00 -0.36524686114E+00 -0.85218649027E+00  0.11802668073E+01  0.00000000000E+00 0.  1.
         11    1    3    3    0    0 -0.55458189524E+01 -0.40563452727E+01 -0.20536688785E+01  0.71713039921E+01  0.51100000000E-03 0. -1.
        -11    1    3    3    0    0 -0.11125133065E+02 -0.24734925658E+02 -0.26499849921E+02  0.37918691686E+02  0.51100000000E-03 0.  1.
         12    1    3    3    0    0  0.17401296219E+02  0.29156517792E+02  0.29405705290E+02  0.44917737515E+02  0.00000000000E+00 0. -1.
</event>
<event>
 7    1  0.1910099E-015  0.9000760E+02  0.7816164E-02  0.1186339E+00
        -11   -1    0    0    0    0  0.00000000000E+00  0.00000000000E+00  0.45593999997E+02  0.45594000000E+02  0.51100000000E-03 0. -1.
         11   -1    0    0    0    0 -0.00000000000E+00 -0.00000000000E+00 -0.45593999997E+02  0.45594000000E+02  0.51100000000E-03 0.  1.
    9900012    2    1    2    0    0  0.25896274439E+00 -0.97531107861E-01  0.11475031824E+01  0.90007602790E+02  0.89999862347E+02 0.  0.
        -12    1    1    2    0    0 -0.25896274439E+00  0.97531107861E-01 -0.11475031824E+01  0.11803972101E+01  0.00000000000E+00 0.  1.
         11    1    3    3    0    0 -0.34515552082E+02 -0.41893604883E+01  0.17034252059E+02  0.38717435611E+02  0.51100000000E-03 0. -1.
        -11    1    3    3    0    0 -0.44174954249E+01 -0.14629945590E+01  0.47503379965E+01  0.66498368590E+01  0.51100000000E-03 0.  1.
        -12    1    3    3    0    0  0.39192010251E+02  0.55548239395E+01 -0.20637086873E+02  0.44640330320E+02  0.00000000000E+00 0.  1.
</event>
<event>
 7    1  0.1910099E-015  0.9000778E+02  0.7816164E-02  0.1186339E+00
        -11   -1    0    0    0    0  0.00000000000E+00  0.00000000000E+00  0.45593999997E+02  0.45594000000E+02  0.51100000000E-03 0.  1.
         11   -1    0    0    0    0 -0.00000000000E+00 -0.00000000000E+00 -0.45593999997E+02  0.45594000000E+02  0.51100000000E-03 0. -1.
    9900012    2    1    2    0    0  0.28212156968E+00  0.94206928317E+00 -0.65255220024E+00  0.90007783288E+02  0.90000045227E+02 0.  0.
        -12    1    1    2    0    0 -0.28212156968E+00 -0.94206928317E+00  0.65255220024E+00  0.11802167125E+01  0.00000000000E+00 0.  1.
         11    1    3    3    0    0 -0.91020853280E+01 -0.53413598743E+00  0.96279994870E+01  0.13260152071E+02  0.51100000000E-03 0. -1.
        -11    1    3    3    0    0  0.15900515854E+02  0.28654634679E+02  0.17661495533E+02  0.37226911203E+02  0.51100000000E-03 0.  1.
         12    1    3    3    0    0 -0.65163089561E+01 -0.27178429409E+02 -0.27942047220E+02  0.39520720013E+02  0.00000000000E+00 0. -1.
</event>
<event>
 7    1  0.1910099E-015  0.9000775E+02  0.7816164E-02  0.1186339E+00
        -11   -1    0    0    0    0  0.00000000000E+00  0.00000000000E+00  0.45593999997E+02  0.45594000000E+02  0.51100000000E-03 0.  1.
         11   -1    0    0    0    0 -0.00000000000E+00 -0.00000000000E+00 -0.45593999997E+02  0.45594000000E+02  0.51100000000E-03 0. -1.
    9900012    2    1    2    0    0  0.37315372680E+00  0.91039127323E+00  0.65186249904E+00  0.90007753970E+02  0.90000015522E+02 0.  0.
        -12    1    1    2    0    0 -0.37315372680E+00 -0.91039127323E+00 -0.65186249904E+00  0.11802460302E+01  0.00000000000E+00 0.  1.
         11    1    3    3    0    0 -0.11395135221E+02  0.38773753227E+02  0.28409243716E+01  0.40513255825E+02  0.51100000000E-03 0. -1.
        -11    1    3    3    0    0  0.87490789587E+01  0.23360131933E+01 -0.14796666251E+01  0.91756609487E+01  0.51100000000E-03 0.  1.
        -12    1    3    3    0    0  0.30192099889E+01 -0.40199375147E+02 -0.70939524749E+00  0.40318837196E+02  0.00000000000E+00 0.  1.
</event>
<event>
 7    1  0.1910099E-015  0.9000786E+02  0.7816164E-02  0.1186339E+00
        -11   -1    0    0    0    0  0.00000000000E+00  0.00000000000E+00  0.45593999997E+02  0.45594000000E+02  0.51100000000E-03 0. -1.
         11   -1    0    0    0    0 -0.00000000000E+00 -0.00000000000E+00 -0.45593999997E+02  0.45594000000E+02  0.51100000000E-03 0.  1.
    9900012    2    1    2    0    0 -0.32591038463E+00  0.10265075455E+01  0.48247962465E+00  0.90007863606E+02  0.90000126606E+02 0.  0.
        -12    1    1    2    0    0  0.32591038463E+00 -0.10265075455E+01 -0.48247962465E+00  0.11801363938E+01  0.00000000000E+00 0.  1.
         11    1    3    3    0    0  0.38114794701E+01  0.48096702796E+01  0.41000326245E+01  0.73804181272E+01  0.51100000000E-03 0. -1.
        -11    1    3    3    0    0  0.63484511814E+01  0.98014378620E+01 -0.40391878637E+02  0.42046104179E+02  0.51100000000E-03 0.  1.
         12    1    3    3    0    0 -0.10485841036E+02 -0.13584600596E+02  0.36774325637E+02  0.40581341300E+02  0.00000000000E+00 0. -1.
</event>
<event>
 7    1  0.1910099E-015  0.9000695E+02  0.7816164E-02  0.1186341E+00
        -11   -1    0    0    0    0  0.00000000000E+00  0.00000000000E+00  0.45593999997E+02  0.45594000000E+02  0.51100000000E-03 0.  1.
         11   -1    0    0    0    0 -0.00000000000E+00 -0.00000000000E+00 -0.45593999997E+02  0.45594000000E+02  0.51100000000E-03 0. -1.
    9900012    2    1    2    0    0  0.32668653279E+00 -0.80894741670E+00 -0.79609681038E+00  0.90006945325E+02  0.89999196200E+02 0.  0.
        -12    1    1    2    0    0 -0.32668653279E+00  0.80894741670E+00  0.79609681038E+00  0.11810546749E+01  0.00000000000E+00 0.  1.
         11    1    3    3    0    0  0.59429167748E+01  0.52421967792E+01  0.63613116773E+01  0.10161947322E+02  0.51100000000E-03 0. -1.
        -11    1    3    3    0    0  0.26807724137E+02 -0.27173016586E+02  0.66748992048E+01  0.38750241076E+02  0.51100000000E-03 0.  1.
         12    1    3    3    0    0 -0.32423954378E+02  0.21121872390E+02 -0.13832307693E+02  0.41094756927E+02  0.00000000000E+00 0. -1.
</event>
<event>
 7    1  0.1910099E-015  0.9000771E+02  0.7816164E-02  0.1186339E+00
        -11   -1    0    0    0    0  0.00000000000E+00  0.00000000000E+00  0.45593999997E+02  0.45594000000E+02  0.51100000000E-03 0.  1.
         11   -1    0    0    0    0 -0.00000000000E+00 -0.00000000000E+00 -0.45593999997E+02  0.45594000000E+02  0.51100000000E-03 0. -1.
    9900012    2    1    2    0    0  0.76452254266E+00 -0.78916945463E+00  0.43104633212E+00  0.90007710168E+02  0.89999971143E+02 0.  0.
        -12    1    1    2    0    0 -0.76452254266E+00  0.78916945463E+00 -0.43104633212E+00  0.11802898317E+01  0.00000000000E+00 0.  1.
         11    1    3    3    0    0  0.13690358682E+01 -0.24252217075E+02 -0.33442724224E+02  0.41333522666E+02  0.51100000000E-03 0. -1.
        -11    1    3    3    0    0 -0.70930035901E+01 -0.13896931824E+01  0.15580769002E+01  0.73938860525E+01  0.51100000000E-03 0.  1.
        -12    1    3    3    0    0  0.64884902646E+01  0.24852740803E+02  0.32315693655E+02  0.41280301449E+02  0.00000000000E+00 0.  1.
</event>
<event>
 7    1  0.1910099E-015  0.9000768E+02  0.7816164E-02  0.1186339E+00
        -11   -1    0    0    0    0  0.00000000000E+00  0.00000000000E+00  0.45593999997E+02  0.45594000000E+02  0.51100000000E-03 0. -1.
         11   -1    0    0    0    0 -0.00000000000E+00 -0.00000000000E+00 -0.45593999997E+02  0.45594000000E+02  0.51100000000E-03 0.  1.
    9900012    2    1    2    0    0 -0.10354869197E+01 -0.44154822767E-01  0.56477020700E+00  0.90007683010E+02  0.89999943626E+02 0.  0.
        -12    1    1    2    0    0  0.10354869197E+01  0.44154822767E-01 -0.56477020700E+00  0.11803169896E+01  0.00000000000E+00 0.  1.
         11    1    3    3    0    0 -0.18319676574E+02  0.15994268913E+02  0.28380604960E+02  0.37374937137E+02  0.51100000000E-03 0. -1.
        -11    1    3    3    0    0 -0.53406201675E+01  0.71006660462E+01  0.14474338376E+01  0.90020412712E+01  0.51100000000E-03 0.  1.
        -12    1    3    3    0    0  0.22624809822E+02 -0.23139089782E+02 -0.29263268591E+02  0.43630704602E+02  0.00000000000E+00 0.  1.
</event>
<event>
 7    1  0.1910099E-015  0.9000768E+02  0.7816164E-02  0.1186339E+00
        -11   -1    0    0    0    0  0.00000000000E+00  0.00000000000E+00  0.45593999997E+02  0.45594000000E+02  0.51100000000E-03 0. -1.
         11   -1    0    0    0    0 -0.00000000000E+00 -0.00000000000E+00 -0.45593999997E+02  0.45594000000E+02  0.51100000000E-03 0.  1.
    9900012    2    1    2    0    0 -0.10489064004E+01 -0.41268732232E+00 -0.35018900252E+00  0.90007683178E+02  0.89999943796E+02 0.  0.
        -12    1    1    2    0    0  0.10489064004E+01  0.41268732232E+00  0.35018900252E+00  0.11803168220E+01  0.00000000000E+00 0.  1.
         11    1    3    3    0    0  0.12382041854E+02  0.32298515188E+02  0.56260152418E+01  0.35045129356E+02  0.51100000000E-03 0. -1.
        -11    1    3    3    0    0  0.78321746463E+01  0.60791302644E+01 -0.39741711377E+01  0.10681424107E+02  0.51100000000E-03 0.  1.
        -12    1    3    3    0    0 -0.21263122901E+02 -0.38790332775E+02 -0.20020331066E+01  0.44281129715E+02  0.00000000000E+00 0.  1.
</event>
<event>
 7    1  0.1910099E-015  0.9000742E+02  0.7816164E-02  0.1186340E+00
        -11   -1    0    0    0    0  0.00000000000E+00  0.00000000000E+00  0.45593999997E+02  0.45594000000E+02  0.51100000000E-03 0. -1.
         11   -1    0    0    0    0 -0.00000000000E+00 -0.00000000000E+00 -0.45593999997E+02  0.45594000000E+02  0.51100000000E-03 0.  1.
    9900012    2    1    2    0    0  0.52107484287E+00  0.74925049733E+00 -0.74890964121E+00  0.90007423467E+02  0.89999680656E+02 0.  0.
        -12    1    1    2    0    0 -0.52107484287E+00 -0.74925049733E+00  0.74890964121E+00  0.11805765330E+01  0.00000000000E+00 0.  1.
         11    1    3    3    0    0 -0.30367928535E+01 -0.40115749678E+02  0.10824324955E+02  0.41661270913E+02  0.51100000000E-03 0. -1.
        -11    1    3    3    0    0  0.51495645482E+01  0.31906779203E+01  0.43047331247E+01  0.74316329406E+01  0.51100000000E-03 0.  1.
        -12    1    3    3    0    0 -0.15916968518E+01  0.37674322255E+02 -0.15877967721E+02  0.40914519614E+02  0.00000000000E+00 0.  1.
</event>
<event>
 7    1  0.1910099E-015  0.9000762E+02  0.7816164E-02  0.1186339E+00
        -11   -1    0    0    0    0  0.00000000000E+00  0.00000000000E+00  0.45593999997E+02  0.45594000000E+02  0.51100000000E-03 0. -1.
         11   -1    0    0    0    0 -0.00000000000E+00 -0.00000000000E+00 -0.45593999997E+02  0.45594000000E+02  0.51100000000E-03 0.  1.
    9900012    2    1    2    0    0  0.11093150636E+01 -0.26908917201E+00 -0.30049625399E+00  0.90007624258E+02  0.89999884099E+02 0.  0.
        -12    1    1    2    0    0 -0.11093150636E+01  0.26908917201E+00  0.30049625399E+00  0.11803757416E+01  0.00000000000E+00 0.  1.
         11    1    3    3    0    0  0.67575223712E+00 -0.61591564383E+01 -0.62973997037E+01  0.88345397394E+01  0.51100000000E-03 0. -1.
        -11    1    3    3    0    0 -0.33442327333E+01 -0.36963866795E+02  0.85158534594E+01  0.38079273908E+02  0.51100000000E-03 0.  1.
         12    1    3    3    0    0  0.37777955597E+01  0.42853934061E+02 -0.25189500097E+01  0.43093810611E+02  0.00000000000E+00 0. -1.
</event>
<event>
 7    1  0.1910099E-015  0.9000776E+02  0.7816164E-02  0.1186339E+00
        -11   -1    0    0    0    0  0.00000000000E+00  0.00000000000E+00  0.45593999997E+02  0.45594000000E+02  0.51100000000E-03 0. -1.
         11   -1    0    0    0    0 -0.00000000000E+00 -0.00000000000E+00 -0.45593999997E+02  0.45594000000E+02  0.51100000000E-03 0.  1.
    9900012    2    1    2    0    0  0.10667963383E+01 -0.12694716908E+00 -0.48866962342E+00  0.90007759341E+02  0.90000020965E+02 0.  0.
        -12    1    1    2    0    0 -0.10667963383E+01  0.12694716908E+00  0.48866962342E+00  0.11802406586E+01  0.00000000000E+00 0.  1.
         11    1    3    3    0    0  0.36573628187E+02  0.19624493664E+02  0.77347122823E+01  0.42220573239E+02  0.51100000000E-03 0. -1.
        -11    1    3    3    0    0 -0.20443249499E+01 -0.74424762170E+01  0.56115648725E+01  0.95425037239E+01  0.51100000000E-03 0.  1.
        -12    1    3    3    0    0 -0.33462506899E+02 -0.12308964616E+02 -0.13834946778E+02  0.38244682378E+02  0.00000000000E+00 0.  1.
</event>
<event>
 7    1  0.2057223E-015  0.9000777E+02  0.7816164E-02  0.1186339E+00
        -11   -1    0    0    0    0  0.00000000000E+00  0.00000000000E+00  0.45593999997E+02  0.45594000000E+02  0.51100000000E-03 0.  1.
         11   -1    0    0    0    0 -0.00000000000E+00 -0.00000000000E+00 -0.45593999997E+02  0.45594000000E+02  0.51100000000E-03 0. -1.
    9900012    2    1    2    0    0 -0.86188906949E+00 -0.40446100645E+00  0.69749778745E+00  0.90007769244E+02  0.90000030998E+02 0.  0.
        -12    1    1    2    0    0  0.86188906949E+00  0.40446100645E+00 -0.69749778745E+00  0.11802307560E+01  0.00000000000E+00 0.  1.
         11    1    3    3    0    0  0.56086984136E+00  0.75134571074E+00  0.98968990859E+01  0.99412125585E+01  0.51100000000E-03 0. -1.
        -11    1    3    3    0    0 -0.26839239421E+02 -0.27392082745E+02 -0.18194746474E+02  0.42446669708E+02  0.51100000000E-03 0.  1.
         12    1    3    3    0    0  0.25416480510E+02  0.26236276028E+02  0.89953451757E+01  0.37619886977E+02  0.00000000000E+00 0. -1.
</event>
<event>
 7    1  0.1910099E-015  0.9000771E+02  0.7816164E-02  0.1186339E+00
        -11   -1    0    0    0    0  0.00000000000E+00  0.00000000000E+00  0.45593999997E+02  0.45594000000E+02  0.51100000000E-03 0.  1.
         11   -1    0    0    0    0 -0.00000000000E+00 -0.00000000000E+00 -0.45593999997E+02  0.45594000000E+02  0.51100000000E-03 0. -1.
    9900012    2    1    2    0    0  0.49241946041E+00 -0.85155096945E+00 -0.65227857715E+00  0.90007710493E+02  0.89999971471E+02 0.  0.
        -12    1    1    2    0    0 -0.49241946041E+00  0.85155096945E+00  0.65227857715E+00  0.11802895072E+01  0.00000000000E+00 0.  1.
         11    1    3    3    0    0 -0.36038606082E+01 -0.41162085767E+01 -0.94318548547E+01  0.10903709029E+02  0.51100000000E-03 0. -1.
        -11    1    3    3    0    0 -0.24955681687E+02  0.19331956100E+02  0.26728753705E+02  0.41363472413E+02  0.51100000000E-03 0.  1.
         12    1    3    3    0    0  0.29051961756E+02 -0.16067298493E+02 -0.17949177428E+02  0.37740529051E+02  0.00000000000E+00 0. -1.
</event>
<event>
 7    1  0.1910099E-015  0.9000778E+02  0.7816164E-02  0.1186339E+00
        -11   -1    0    0    0    0  0.00000000000E+00  0.00000000000E+00  0.45593999997E+02  0.45594000000E+02  0.51100000000E-03 0.  1.
         11   -1    0    0    0    0 -0.00000000000E+00 -0.00000000000E+00 -0.45593999997E+02  0.45594000000E+02  0.51100000000E-03 0. -1.
    9900012    2    1    2    0    0  0.46716468828E+00 -0.10242412117E+01  0.35439767632E+00  0.90007783656E+02  0.90000045600E+02 0.  0.
        -12    1    1    2    0    0 -0.46716468828E+00  0.10242412117E+01 -0.35439767632E+00  0.11802163441E+01  0.00000000000E+00 0.  1.
         11    1    3    3    0    0 -0.38399935057E+02  0.16080690858E+02 -0.22100449603E+00  0.41631628290E+02  0.51100000000E-03 0. -1.
        -11    1    3    3    0    0  0.18627693212E+01  0.44871831133E+01 -0.24210841161E+01  0.54282935067E+01  0.51100000000E-03 0.  1.
        -12    1    3    3    0    0  0.37004330424E+02 -0.21592115183E+02  0.29964862884E+01  0.42947861859E+02  0.00000000000E+00 0.  1.
</event>
<event>
 7    1  0.1910099E-015  0.9000775E+02  0.7816164E-02  0.1186339E+00
        -11   -1    0    0    0    0  0.00000000000E+00  0.00000000000E+00  0.45593999997E+02  0.45594000000E+02  0.51100000000E-03 0. -1.
         11   -1    0    0    0    0 -0.00000000000E+00 -0.00000000000E+00 -0.45593999997E+02  0.45594000000E+02  0.51100000000E-03 0.  1.
    9900012    2    1    2    0    0 -0.10023310566E+01  0.10117060504E+00  0.61488637072E+00  0.90007750752E+02  0.90000012262E+02 0.  0.
        -12    1    1    2    0    0  0.10023310566E+01 -0.10117060504E+00 -0.61488637072E+00  0.11802492479E+01  0.00000000000E+00 0.  1.
         11    1    3    3    0    0  0.30798384494E+01  0.33697292557E+00 -0.81952821656E+01  0.87613700790E+01  0.51100000000E-03 0. -1.
        -11    1    3    3    0    0 -0.12503622490E+02  0.38832770183E+02  0.49131982298E+01  0.41090925185E+02  0.51100000000E-03 0.  1.
         12    1    3    3    0    0  0.84214529839E+01 -0.39068572504E+02  0.38969703065E+01  0.40155455488E+02  0.00000000000E+00 0. -1.
</event>
<event>
 7    1  0.1910099E-015  0.9000774E+02  0.7816164E-02  0.1186339E+00
        -11   -1    0    0    0    0  0.00000000000E+00  0.00000000000E+00  0.45593999997E+02  0.45594000000E+02  0.51100000000E-03 0.  1.
         11   -1    0    0    0    0 -0.00000000000E+00 -0.00000000000E+00 -0.45593999997E+02  0.45594000000E+02  0.51100000000E-03 0. -1.
    9900012    2    1    2    0    0 -0.38944510455E+00 -0.10346190407E+01  0.41341938256E+00  0.90007737472E+02  0.89999998807E+02 0.  0.
        -12    1    1    2    0    0  0.38944510455E+00  0.10346190407E+01 -0.41341938256E+00  0.11802625278E+01  0.00000000000E+00 0.  1.
         11    1    3    3    0    0 -0.18312349931E+01  0.78730870587E+01 -0.30465109877E+01  0.86382956012E+01  0.51100000000E-03 0. -1.
        -11    1    3    3    0    0 -0.65353092443E+01  0.30299307201E+02  0.21251523085E+02  0.37581717862E+02  0.51100000000E-03 0.  1.
         12    1    3    3    0    0  0.79770991329E+01 -0.39207013301E+02 -0.17791592715E+02  0.43787724009E+02  0.00000000000E+00 0. -1.
</event>
<event>
 7    1  0.1910099E-015  0.9000757E+02  0.7816164E-02  0.1186339E+00
        -11   -1    0    0    0    0  0.00000000000E+00  0.00000000000E+00  0.45593999997E+02  0.45594000000E+02  0.51100000000E-03 0.  1.
         11   -1    0    0    0    0 -0.00000000000E+00 -0.00000000000E+00 -0.45593999997E+02  0.45594000000E+02  0.51100000000E-03 0. -1.
    9900012    2    1    2    0    0  0.69718164407E+00  0.95220245434E+00 -0.25553823347E-01  0.90007574332E+02  0.89999833513E+02 0.  0.
        -12    1    1    2    0    0 -0.69718164407E+00 -0.95220245434E+00  0.25553823347E-01  0.11804256676E+01  0.00000000000E+00 0.  1.
         11    1    3    3    0    0 -0.66491099445E+01  0.67958077730E+01 -0.27106317439E+01  0.98864144691E+01  0.51100000000E-03 0. -1.
        -11    1    3    3    0    0 -0.25386995463E+02  0.12318703324E+02  0.23999873046E+02  0.37043810505E+02  0.51100000000E-03 0.  1.
         12    1    3    3    0    0  0.32733287052E+02 -0.18162308643E+02 -0.21314795126E+02  0.43077349358E+02  0.00000000000E+00 0. -1.
</event>
<event>
 7    1  0.1997986E-015  0.9000784E+02  0.7816164E-02  0.1186339E+00
        -11   -1    0    0    0    0  0.00000000000E+00  0.00000000000E+00  0.45593999997E+02  0.45594000000E+02  0.51100000000E-03 0. -1.
         11   -1    0    0    0    0 -0.00000000000E+00 -0.00000000000E+00 -0.45593999997E+02  0.45594000000E+02  0.51100000000E-03 0.  1.
    9900012    2    1    2    0    0  0.23718814369E-02 -0.57306473870E+00  0.10316780085E+01  0.90007843937E+02  0.90000106677E+02 0.  0.
        -12    1    1    2    0    0 -0.23718814369E-02  0.57306473870E+00 -0.10316780085E+01  0.11801560633E+01  0.00000000000E+00 0.  1.
         11    1    3    3    0    0 -0.44887761829E+01 -0.13669843339E+01  0.88040907849E+01  0.99764609256E+01  0.51100000000E-03 0. -1.
        -11    1    3    3    0    0  0.22930312643E+02 -0.27583279609E+02  0.15379732919E+02  0.39027845660E+02  0.51100000000E-03 0.  1.
         12    1    3    3    0    0 -0.18439164578E+02  0.28377199204E+02 -0.23152145696E+02  0.41003537352E+02  0.00000000000E+00 0. -1.
</event>
<event>
 7    1  0.1910099E-015  0.9000773E+02  0.7816164E-02  0.1186339E+00
        -11   -1    0    0    0    0  0.00000000000E+00  0.00000000000E+00  0.45593999997E+02  0.45594000000E+02  0.51100000000E-03 0. -1.
         11   -1    0    0    0    0 -0.00000000000E+00 -0.00000000000E+00 -0.45593999997E+02  0.45594000000E+02  0.51100000000E-03 0.  1.
    9900012    2    1    2    0    0 -0.47953044223E+00  0.10376883167E+01 -0.29374445110E+00  0.90007732111E+02  0.89999993375E+02 0.  0.
        -12    1    1    2    0    0  0.47953044223E+00 -0.10376883167E+01  0.29374445110E+00  0.11802678892E+01  0.00000000000E+00 0.  1.
         11    1    3    3    0    0 -0.23935160348E+02 -0.19954863772E+02  0.23179220998E+02  0.38837672116E+02  0.51100000000E-03 0. -1.
        -11    1    3    3    0    0  0.37134413911E+01 -0.79341975438E+01  0.42689990033E+00  0.87705975518E+01  0.51100000000E-03 0.  1.
        -12    1    3    3    0    0  0.19742188515E+02  0.28926749633E+02 -0.23899865350E+02  0.42399462443E+02  0.00000000000E+00 0.  1.
</event>
<event>
 7    1  0.1910099E-015  0.9000771E+02  0.7816164E-02  0.1186339E+00
        -11   -1    0    0    0    0  0.00000000000E+00  0.00000000000E+00  0.45593999997E+02  0.45594000000E+02  0.51100000000E-03 0. -1.
         11   -1    0    0    0    0 -0.00000000000E+00 -0.00000000000E+00 -0.45593999997E+02  0.45594000000E+02  0.51100000000E-03 0.  1.
    9900012    2    1    2    0    0  0.15544397733E+00 -0.82051718885E+00  0.83406674827E+00  0.90007712481E+02  0.89999973486E+02 0.  0.
        -12    1    1    2    0    0 -0.15544397733E+00  0.82051718885E+00 -0.83406674827E+00  0.11802875191E+01  0.00000000000E+00 0.  1.
         11    1    3    3    0    0 -0.39655528103E+01  0.11324459875E+02  0.57600701873E+01  0.13309673526E+02  0.51100000000E-03 0. -1.
        -11    1    3    3    0    0 -0.88764145773E+01  0.30491443078E+02  0.74036717831E+00  0.31765814653E+02  0.51100000000E-03 0.  1.
         12    1    3    3    0    0  0.12997411365E+02 -0.42636420142E+02 -0.56663706173E+01  0.44932224302E+02  0.00000000000E+00 0. -1.
</event>
<event>
 7    1  0.1910099E-015  0.9000773E+02  0.7816164E-02  0.1186339E+00
        -11   -1    0    0    0    0  0.00000000000E+00  0.00000000000E+00  0.45593999997E+02  0.45594000000E+02  0.51100000000E-03 0. -1.
         11   -1    0    0    0    0 -0.00000000000E+00 -0.00000000000E+00 -0.45593999997E+02  0.45594000000E+02  0.51100000000E-03 0.  1.
    9900012    2    1    2    0    0 -0.75106287995E+00 -0.85938165385E+00  0.30066453773E+00  0.90007732471E+02  0.89999993739E+02 0.  0.
        -12    1    1    2    0    0  0.75106287995E+00  0.85938165385E+00 -0.30066453773E+00  0.11802675294E+01  0.00000000000E+00 0.  1.
         11    1    3    3    0    0 -0.28562031260E+02  0.20864576436E+02  0.10235091800E+02  0.36822238986E+02  0.51100000000E-03 0. -1.
        -11    1    3    3    0    0 -0.74771185146E+01  0.28940878960E+01 -0.59309744681E+01  0.99729386057E+01  0.51100000000E-03 0.  1.
        -12    1    3    3    0    0  0.35288086895E+02 -0.24618045986E+02 -0.40034527941E+01  0.43212554879E+02  0.00000000000E+00 0.  1.
</event>
<event>
 7    1  0.1910099E-015  0.9000770E+02  0.7816164E-02  0.1186339E+00
        -11   -1    0    0    0    0  0.00000000000E+00  0.00000000000E+00  0.45593999997E+02  0.45594000000E+02  0.51100000000E-03 0.  1.
         11   -1    0    0    0    0 -0.00000000000E+00 -0.00000000000E+00 -0.45593999997E+02  0.45594000000E+02  0.51100000000E-03 0. -1.
    9900012    2    1    2    0    0  0.11293729301E+01 -0.68731170051E-01 -0.33600955547E+00  0.90007699356E+02  0.89999960187E+02 0.  0.
        -12    1    1    2    0    0 -0.11293729301E+01  0.68731170051E-01  0.33600955547E+00  0.11803006440E+01  0.00000000000E+00 0.  1.
         11    1    3    3    0    0 -0.32666469717E+01 -0.74867699284E+01 -0.13912792399E+01  0.82860343098E+01  0.51100000000E-03 0. -1.
        -11    1    3    3    0    0 -0.16287080603E+02 -0.29020240661E+02 -0.15448599260E+02  0.36689270665E+02  0.51100000000E-03 0.  1.
         12    1    3    3    0    0  0.20683100504E+02  0.36438279420E+02  0.16503868944E+02  0.45032394381E+02  0.00000000000E+00 0. -1.
</event>
<event>
 7    1  0.1910099E-015  0.9000763E+02  0.7816164E-02  0.1186339E+00
        -11   -1    0    0    0    0  0.00000000000E+00  0.00000000000E+00  0.45593999997E+02  0.45594000000E+02  0.51100000000E-03 0. -1.
         11   -1    0    0    0    0 -0.00000000000E+00 -0.00000000000E+00 -0.45593999997E+02  0.45594000000E+02  0.51100000000E-03 0.  1.
    9900012    2    1    2    0    0 -0.66863218871E+00  0.50850716483E+00  0.82923566168E+00  0.90007627041E+02  0.89999886918E+02 0.  0.
        -12    1    1    2    0    0  0.66863218871E+00 -0.50850716483E+00 -0.82923566168E+00  0.11803729593E+01  0.00000000000E+00 0.  1.
         11    1    3    3    0    0 -0.21353311775E+02  0.32303787634E+02 -0.55750393723E+01  0.39122623679E+02  0.51100000000E-03 0. -1.
        -11    1    3    3    0    0 -0.59328798734E+01 -0.79488940786E+00 -0.57045465628E+01  0.82687825290E+01  0.51100000000E-03 0.  1.
        -12    1    3    3    0    0  0.26617559460E+02 -0.31000391062E+02  0.12108821597E+02  0.42616220832E+02  0.00000000000E+00 0.  1.
</event>
<event>
 7    1  0.1910099E-015  0.9000757E+02  0.7816164E-02  0.1186339E+00
        -11   -1    0    0    0    0  0.00000000000E+00  0.00000000000E+00  0.45593999997E+02  0.45594000000E+02  0.51100000000E-03 0. -1.
         11   -1    0    0    0    0 -0.00000000000E+00 -0.00000000000E+00 -0.45593999997E+02  0.45594000000E+02  0.51100000000E-03 0.  1.
    9900012    2    1    2    0    0  0.25279442511E-01  0.11799413966E+01 -0.22875190231E-01  0.90007566171E+02  0.89999825245E+02 0.  0.
        -12    1    1    2    0    0 -0.25279442511E-01 -0.11799413966E+01  0.22875190231E-01  0.11804338287E+01  0.00000000000E+00 0.  1.
         11    1    3    3    0    0 -0.36520087639E+02 -0.16456685685E+02 -0.67184906570E+01  0.40616221167E+02  0.51100000000E-03 0. -1.
        -11    1    3    3    0    0  0.17313460655E+01 -0.32405332622E+01 -0.58455299362E+01  0.69042621270E+01  0.51100000000E-03 0.  1.
        -12    1    3    3    0    0  0.34814021017E+02  0.20877160344E+02  0.12541145403E+02  0.42487082877E+02  0.00000000000E+00 0.  1.
</event>
<event>
 7    1  0.1910099E-015  0.9000768E+02  0.7816164E-02  0.1186339E+00
        -11   -1    0    0    0    0  0.00000000000E+00  0.00000000000E+00  0.45593999997E+02  0.45594000000E+02  0.51100000000E-03 0.  1.
         11   -1    0    0    0    0 -0.00000000000E+00 -0.00000000000E+00 -0.45593999997E+02  0.45594000000E+02  0.51100000000E-03 0. -1.
    9900012    2    1    2    0    0 -0.80271912862E+00 -0.29244043259E+00 -0.81441761751E+00  0.90007679932E+02  0.89999940508E+02 0.  0.
        -12    1    1    2    0    0  0.80271912862E+00  0.29244043259E+00  0.81441761751E+00  0.11803200675E+01  0.00000000000E+00 0.  1.
         11    1    3    3    0    0 -0.76699904657E+01  0.97281942418E+01  0.11173608378E+02  0.16682806760E+02  0.51100000000E-03 0. -1.
        -11    1    3    3    0    0  0.24977407946E+02  0.19601610810E+02 -0.20220482421E+02  0.37642555222E+02  0.51100000000E-03 0.  1.
         12    1    3    3    0    0 -0.18110136609E+02 -0.29622245484E+02  0.82324564259E+01  0.35682317951E+02  0.00000000000E+00 0. -1.
</event>
<event>
 7    1  0.1910099E-015  0.9000781E+02  0.7816164E-02  0.1186339E+00
        -11   -1    0    0    0    0  0.00000000000E+00  0.00000000000E+00  0.45593999997E+02  0.45594000000E+02  0.51100000000E-03 0. -1.
         11   -1    0    0    0    0 -0.00000000000E+00 -0.00000000000E+00 -0.45593999997E+02  0.45594000000E+02  0.51100000000E-03 0.  1.
    9900012    2    1    2    0    0 -0.76841052332E+00  0.87905307692E+00 -0.17221634262E+00  0.90007810391E+02  0.90000072688E+02 0.  0.
        -12    1    1    2    0    0  0.76841052332E+00 -0.87905307692E+00  0.17221634262E+00  0.11801896089E+01  0.00000000000E+00 0.  1.
         11    1    3    3    0    0  0.25140030023E+02 -0.31565318252E+02 -0.49890551379E+01  0.40660559481E+02  0.51100000000E-03 0. -1.
        -11    1    3    3    0    0  0.12734699969E+01  0.21044576871E+01  0.81140571604E+01  0.84787022506E+01  0.51100000000E-03 0.  1.
        -12    1    3    3    0    0 -0.27181910543E+02  0.30339913642E+02 -0.32972183652E+01  0.40868548659E+02  0.00000000000E+00 0.  1.
</event>
<event>
 7    1  0.1910099E-015  0.9000790E+02  0.7816164E-02  0.1186339E+00
        -11   -1    0    0    0    0  0.00000000000E+00  0.00000000000E+00  0.45593999997E+02  0.45594000000E+02  0.51100000000E-03 0.  1.
         11   -1    0    0    0    0 -0.00000000000E+00 -0.00000000000E+00 -0.45593999997E+02  0.45594000000E+02  0.51100000000E-03 0. -1.
    9900012    2    1    2    0    0 -0.97372974892E+00 -0.47122672654E+00 -0.47162696081E+00  0.90007899902E+02  0.90000163380E+02 0.  0.
        -12    1    1    2    0    0  0.97372974892E+00  0.47122672654E+00  0.47162696081E+00  0.11801000983E+01  0.00000000000E+00 0.  1.
         11    1    3    3    0    0  0.18077475185E+02  0.26238622732E+02  0.22951478518E+02  0.39268699983E+02  0.51100000000E-03 0. -1.
        -11    1    3    3    0    0  0.80584038651E+01 -0.10147694858E+02 -0.42693462349E+01  0.13643346412E+02  0.51100000000E-03 0.  1.
        -12    1    3    3    0    0 -0.27109608799E+02 -0.16562154600E+02 -0.19153759244E+02  0.37095853507E+02  0.00000000000E+00 0.  1.
</event>
<event>
 7    1  0.1910099E-015  0.9000773E+02  0.7816164E-02  0.1186339E+00
        -11   -1    0    0    0    0  0.00000000000E+00  0.00000000000E+00  0.45593999997E+02  0.45594000000E+02  0.51100000000E-03 0. -1.
         11   -1    0    0    0    0 -0.00000000000E+00 -0.00000000000E+00 -0.45593999997E+02  0.45594000000E+02  0.51100000000E-03 0.  1.
    9900012    2    1    2    0    0 -0.63577624616E+00 -0.34262244617E+00  0.93350477231E+00  0.90007731922E+02  0.89999993183E+02 0.  0.
        -12    1    1    2    0    0  0.63577624616E+00  0.34262244617E+00 -0.93350477231E+00  0.11802680779E+01  0.00000000000E+00 0.  1.
         11    1    3    3    0    0  0.85458385764E+01 -0.94868847750E+01  0.25045327440E+02  0.28112288532E+02  0.51100000000E-03 0. -1.
        -11    1    3    3    0    0 -0.75690806481E+01 -0.74265484667E+01  0.15583988564E+02  0.18849543862E+02  0.51100000000E-03 0.  1.
        -12    1    3    3    0    0 -0.16125341745E+01  0.16570810796E+02 -0.39695811231E+02  0.43045899528E+02  0.00000000000E+00 0.  1.
</event>
<event>
 7    1  0.1910099E-015  0.9000772E+02  0.7816164E-02  0.1186339E+00
        -11   -1    0    0    0    0  0.00000000000E+00  0.00000000000E+00  0.45593999997E+02  0.45594000000E+02  0.51100000000E-03 0. -1.
         11   -1    0    0    0    0 -0.00000000000E+00 -0.00000000000E+00 -0.45593999997E+02  0.45594000000E+02  0.51100000000E-03 0.  1.
    9900012    2    1    2    0    0  0.98221626725E+00  0.48750280441E+00  0.43663686259E+00  0.90007720571E+02  0.89999981683E+02 0.  0.
        -12    1    1    2    0    0 -0.98221626725E+00 -0.48750280441E+00 -0.43663686259E+00  0.11802794287E+01  0.00000000000E+00 0.  1.
         11    1    3    3    0    0  0.25549508152E+02 -0.25758259032E+02 -0.90765536965E+01  0.37398517383E+02  0.51100000000E-03 0. -1.
        -11    1    3    3    0    0 -0.40515029450E+01 -0.75080686112E+01 -0.57227110871E+01  0.10273032309E+02  0.51100000000E-03 0.  1.
        -12    1    3    3    0    0 -0.20515788939E+02  0.33753830448E+02  0.15235901646E+02  0.42336170879E+02  0.00000000000E+00 0.  1.
</event>
<event>
 7    1  0.1910099E-015  0.9000774E+02  0.7816164E-02  0.1186339E+00
        -11   -1    0    0    0    0  0.00000000000E+00  0.00000000000E+00  0.45593999997E+02  0.45594000000E+02  0.51100000000E-03 0. -1.
         11   -1    0    0    0    0 -0.00000000000E+00 -0.00000000000E+00 -0.45593999997E+02  0.45594000000E+02  0.51100000000E-03 0.  1.
    9900012    2    1    2    0    0 -0.25870689030E+00  0.65678266730E+00  0.94589376882E+00  0.90007742507E+02  0.90000003908E+02 0.  0.
        -12    1    1    2    0    0  0.25870689030E+00 -0.65678266730E+00 -0.94589376882E+00  0.11802574927E+01  0.00000000000E+00 0.  1.
         11    1    3    3    0    0 -0.96664356161E+01 -0.10683349920E+01  0.51713929215E+01  0.11014745670E+02  0.51100000000E-03 0. -1.
        -11    1    3    3    0    0 -0.83837437590E+01 -0.27573855666E+02  0.21649237362E+02  0.36045723107E+02  0.51100000000E-03 0.  1.
         12    1    3    3    0    0  0.17791472485E+02  0.29298973325E+02 -0.25874736515E+02  0.42947273730E+02  0.00000000000E+00 0. -1.
</event>
<event>
 7    1  0.1910099E-015  0.9000775E+02  0.7816164E-02  0.1186339E+00
        -11   -1    0    0    0    0  0.00000000000E+00  0.00000000000E+00  0.45593999997E+02  0.45594000000E+02  0.51100000000E-03 0.  1.
         11   -1    0    0    0    0 -0.00000000000E+00 -0.00000000000E+00 -0.45593999997E+02  0.45594000000E+02  0.51100000000E-03 0. -1.
    9900012    2    1    2    0    0  0.72357362915E+00  0.34097081334E+00 -0.86785339975E+00  0.90007750274E+02  0.90000011778E+02 0.  0.
        -12    1    1    2    0    0 -0.72357362915E+00 -0.34097081334E+00  0.86785339975E+00  0.11802497260E+01  0.00000000000E+00 0.  1.
         11    1    3    3    0    0  0.25660896858E+02  0.10969564682E+02 -0.27743432020E+02  0.39351124474E+02  0.51100000000E-03 0. -1.
        -11    1    3    3    0    0  0.10262080271E+01  0.14341614818E+01 -0.64707415283E+01  0.67067442368E+01  0.51100000000E-03 0.  1.
        -12    1    3    3    0    0 -0.25963531256E+02 -0.12062755350E+02  0.33346320149E+02  0.43949881563E+02  0.00000000000E+00 0.  1.
</event>
<event>
 7    1  0.1910099E-015  0.9000765E+02  0.7816164E-02  0.1186339E+00
        -11   -1    0    0    0    0  0.00000000000E+00  0.00000000000E+00  0.45593999997E+02  0.45594000000E+02  0.51100000000E-03 0.  1.
         11   -1    0    0    0    0 -0.00000000000E+00 -0.00000000000E+00 -0.45593999997E+02  0.45594000000E+02  0.51100000000E-03 0. -1.
    9900012    2    1    2    0    0 -0.71882095684E+00 -0.93599069755E+00 -0.21225756274E-01  0.90007647219E+02  0.89999907363E+02 0.  0.
        -12    1    1    2    0    0  0.71882095684E+00  0.93599069755E+00  0.21225756274E-01  0.11803527806E+01  0.00000000000E+00 0.  1.
         11    1    3    3    0    0 -0.14057445972E+01  0.31691823352E+02 -0.21117430047E+02  0.38108970562E+02  0.51100000000E-03 0. -1.
        -11    1    3    3    0    0  0.67955995554E+01  0.52051055890E+01  0.97698966786E+00  0.86155560809E+01  0.51100000000E-03 0.  1.
        -12    1    3    3    0    0 -0.61086759151E+01 -0.37832919638E+02  0.20119214623E+02  0.43283120577E+02  0.00000000000E+00 0.  1.
</event>
<event>
 7    1  0.1910099E-015  0.9000766E+02  0.7816164E-02  0.1186339E+00
        -11   -1    0    0    0    0  0.00000000000E+00  0.00000000000E+00  0.45593999997E+02  0.45594000000E+02  0.51100000000E-03 0.  1.
         11   -1    0    0    0    0 -0.00000000000E+00 -0.00000000000E+00 -0.45593999997E+02  0.45594000000E+02  0.51100000000E-03 0. -1.
    9900012    2    1    2    0    0  0.58404128391E+00 -0.13092400434E+00 -0.10173236448E+01  0.90007664152E+02  0.89999924519E+02 0.  0.
        -12    1    1    2    0    0 -0.58404128391E+00  0.13092400434E+00  0.10173236448E+01  0.11803358482E+01  0.00000000000E+00 0.  1.
         11    1    3    3    0    0  0.71340183011E+01 -0.71317611804E+01 -0.19622870472E+02  0.22063845550E+02  0.51100000000E-03 0. -1.
        -11    1    3    3    0    0 -0.69430936049E+01  0.22615466146E+02 -0.16953977193E+02  0.29105037377E+02  0.51100000000E-03 0.  1.
         12    1    3    3    0    0  0.39311658769E+00 -0.15614628970E+02  0.35559524020E+02  0.38838781225E+02  0.00000000000E+00 0. -1.
</event>
<event>
 7    1  0.1910099E-015  0.9000774E+02  0.7816164E-02  0.1186339E+00
        -11   -1    0    0    0    0  0.00000000000E+00  0.00000000000E+00  0.45593999997E+02  0.45594000000E+02  0.51100000000E-03 0.  1.
         11   -1    0    0    0    0 -0.00000000000E+00 -0.00000000000E+00 -0.45593999997E+02  0.45594000000E+02  0.51100000000E-03 0. -1.
    9900012    2    1    2    0    0  0.11303676876E+01  0.31328028029E+00  0.13087056858E+00  0.90007744626E+02  0.90000006055E+02 0.  0.
        -12    1    1    2    0    0 -0.11303676876E+01 -0.31328028029E+00 -0.13087056858E+00  0.11802553745E+01  0.00000000000E+00 0.  1.
         11    1    3    3    0    0 -0.82296216951E+01  0.19146889467E+01 -0.38254441820E+01  0.92750595932E+01  0.51100000000E-03 0. -1.
        -11    1    3    3    0    0  0.22452618970E+01  0.35100313064E+02  0.19533556365E+02  0.40232238350E+02  0.51100000000E-03 0.  1.
         12    1    3    3    0    0  0.71147274857E+01 -0.36701721730E+02 -0.15577241614E+02  0.40500446682E+02  0.00000000000E+00 0. -1.
</event>
<event>
 7    1  0.1910099E-015  0.9000772E+02  0.7816164E-02  0.1186339E+00
        -11   -1    0    0    0    0  0.00000000000E+00  0.00000000000E+00  0.45593999997E+02  0.45594000000E+02  0.51100000000E-03 0. -1.
         11   -1    0    0    0    0 -0.00000000000E+00 -0.00000000000E+00 -0.45593999997E+02  0.45594000000E+02  0.51100000000E-03 0.  1.
    9900012    2    1    2    0    0  0.35891085464E+00  0.11213796481E+01  0.82141333493E-01  0.90007721848E+02  0.89999982977E+02 0.  0.
        -12    1    1    2    0    0 -0.35891085464E+00 -0.11213796481E+01 -0.82141333493E-01  0.11802781517E+01  0.00000000000E+00 0.  1.
         11    1    3    3    0    0 -0.95546933492E+01 -0.14929837438E+02 -0.78772529368E+01  0.19396992680E+02  0.51100000000E-03 0. -1.
        -11    1    3    3    0    0  0.16794657964E+02 -0.83056040539E+01  0.31105733222E+02  0.36312673192E+02  0.51100000000E-03 0.  1.
        -12    1    3    3    0    0 -0.68810537598E+01  0.24356821140E+02 -0.23146338951E+02  0.34298055976E+02  0.00000000000E+00 0.  1.
</event>
<event>
 7    1  0.1910099E-015  0.9000773E+02  0.7816164E-02  0.1186339E+00
        -11   -1    0    0    0    0  0.00000000000E+00  0.00000000000E+00  0.45593999997E+02  0.45594000000E+02  0.51100000000E-03 0.  1.
         11   -1    0    0    0    0 -0.00000000000E+00 -0.00000000000E+00 -0.45593999997E+02  0.45594000000E+02  0.51100000000E-03 0. -1.
    9900012    2    1    2    0    0  0.10032916234E-01  0.48745661235E+00 -0.10748567647E+01  0.90007732372E+02  0.89999993640E+02 0.  0.
        -12    1    1    2    0    0 -0.10032916234E-01 -0.48745661235E+00  0.10748567647E+01  0.11802676277E+01  0.00000000000E+00 0.  1.
         11    1    3    3    0    0 -0.62201948936E+01 -0.80516311486E+01 -0.25572125526E+01  0.10490897243E+02  0.51100000000E-03 0. -1.
        -11    1    3    3    0    0 -0.33143581030E+02 -0.47269378102E+01 -0.12413307693E+02  0.35706177515E+02  0.51100000000E-03 0.  1.
         12    1    3    3    0    0  0.39373808840E+02  0.13266025571E+02  0.13895663480E+02  0.43810657614E+02  0.00000000000E+00 0. -1.
</event>
<event>
 7    1  0.1910099E-015  0.9000774E+02  0.7816164E-02  0.1186339E+00
        -11   -1    0    0    0    0  0.00000000000E+00  0.00000000000E+00  0.45593999997E+02  0.45594000000E+02  0.51100000000E-03 0.  1.
         11   -1    0    0    0    0 -0.00000000000E+00 -0.00000000000E+00 -0.45593999997E+02  0.45594000000E+02  0.51100000000E-03 0. -1.
    9900012    2    1    2    0    0  0.17118250637E+00  0.11382675784E+01 -0.26086867627E+00  0.90007741979E+02  0.90000003373E+02 0.  0.
        -12    1    1    2    0    0 -0.17118250637E+00 -0.11382675784E+01  0.26086867627E+00  0.11802580213E+01  0.00000000000E+00 0.  1.
         11    1    3    3    0    0 -0.24723674961E+02  0.40795153649E+01  0.30003338204E+02  0.39090956151E+02  0.51100000000E-03 0. -1.
        -11    1    3    3    0    0 -0.32221486654E+01  0.93575704504E+00  0.47676093754E+01  0.58299213276E+01  0.51100000000E-03 0.  1.
        -12    1    3    3    0    0  0.28117006133E+02 -0.38770048315E+01 -0.35031816255E+02  0.45086864500E+02  0.00000000000E+00 0.  1.
</event>
<event>
 7    1  0.1910099E-015  0.9000768E+02  0.7816164E-02  0.1186339E+00
        -11   -1    0    0    0    0  0.00000000000E+00  0.00000000000E+00  0.45593999997E+02  0.45594000000E+02  0.51100000000E-03 0. -1.
         11   -1    0    0    0    0 -0.00000000000E+00 -0.00000000000E+00 -0.45593999997E+02  0.45594000000E+02  0.51100000000E-03 0.  1.
    9900012    2    1    2    0    0 -0.21774312877E+00 -0.36268366194E+00  0.11019135250E+01  0.90007675924E+02  0.89999936446E+02 0.  0.
        -12    1    1    2    0    0  0.21774312877E+00  0.36268366194E+00 -0.11019135250E+01  0.11803240764E+01  0.00000000000E+00 0.  1.
         11    1    3    3    0    0 -0.28482825993E+02  0.13148686629E+02  0.17514197559E+02  0.35929186645E+02  0.51100000000E-03 0. -1.
        -11    1    3    3    0    0 -0.38082412698E+01  0.93451871902E+01  0.24885959818E+01  0.10393668044E+02  0.51100000000E-03 0.  1.
        -12    1    3    3    0    0  0.32073324134E+02 -0.22856557481E+02 -0.18900880015E+02  0.43684821234E+02  0.00000000000E+00 0.  1.
</event>
<event>
 7    1  0.1910099E-015  0.9000800E+02  0.7816164E-02  0.1186339E+00
        -11   -1    0    0    0    0  0.00000000000E+00  0.00000000000E+00  0.45593999997E+02  0.45594000000E+02  0.51100000000E-03 0.  1.
         11   -1    0    0    0    0 -0.00000000000E+00 -0.00000000000E+00 -0.45593999997E+02  0.45594000000E+02  0.51100000000E-03 0. -1.
    9900012    2    1    2    0    0  0.96569338615E+00 -0.19489367724E-01 -0.67782502058E+00  0.90008004106E+02  0.90000268960E+02 0.  0.
        -12    1    1    2    0    0 -0.96569338615E+00  0.19489367724E-01  0.67782502058E+00  0.11799958941E+01  0.00000000000E+00 0.  1.
         11    1    3    3    0    0 -0.12737954311E+02  0.34788260392E+02  0.35072263664E+01  0.37212621221E+02  0.51100000000E-03 0. -1.
        -11    1    3    3    0    0  0.14959170651E+02  0.25809086941E+01 -0.28442166186E+00  0.15182844668E+02  0.51100000000E-03 0.  1.
        -12    1    3    3    0    0 -0.12555229538E+01 -0.37388658454E+02 -0.39006297251E+01  0.37612538217E+02  0.00000000000E+00 0.  1.
</event>
<event>
 7    1  0.1910099E-015  0.9000772E+02  0.7816164E-02  0.1186339E+00
        -11   -1    0    0    0    0  0.00000000000E+00  0.00000000000E+00  0.45593999997E+02  0.45594000000E+02  0.51100000000E-03 0.  1.
         11   -1    0    0    0    0 -0.00000000000E+00 -0.00000000000E+00 -0.45593999997E+02  0.45594000000E+02  0.51100000000E-03 0. -1.
    9900012    2    1    2    0    0 -0.21354297879E+00  0.11374415897E+01 -0.23172632797E+00  0.90007715685E+02  0.89999976732E+02 0.  0.
        -12    1    1    2    0    0  0.21354297879E+00 -0.11374415897E+01  0.23172632797E+00  0.11802843153E+01  0.00000000000E+00 0.  1.
         11    1    3    3    0    0 -0.21700966323E+02 -0.16160995850E+02 -0.32672224769E+02  0.42421503956E+02  0.51100000000E-03 0. -1.
        -11    1    3    3    0    0  0.96050254799E+01  0.23044652512E+01 -0.54380736150E-01  0.98777544052E+01  0.51100000000E-03 0.  1.
        -12    1    3    3    0    0  0.11882397864E+02  0.14993972189E+02  0.32494879177E+02  0.37708457324E+02  0.00000000000E+00 0.  1.
</event>
<event>
 7    1  0.1910099E-015  0.9000779E+02  0.7816164E-02  0.1186339E+00
        -11   -1    0    0    0    0  0.00000000000E+00  0.00000000000E+00  0.45593999997E+02  0.45594000000E+02  0.51100000000E-03 0.  1.
         11   -1    0    0    0    0 -0.00000000000E+00 -0.00000000000E+00 -0.45593999997E+02  0.45594000000E+02  0.51100000000E-03 0. -1.
    9900012    2    1    2    0    0 -0.53009723798E+00 -0.84852728233E+00 -0.62600606149E+00  0.90007794416E+02  0.90000056503E+02 0.  0.
        -12    1    1    2    0    0  0.53009723798E+00  0.84852728233E+00  0.62600606149E+00  0.11802055836E+01  0.00000000000E+00 0.  1.
         11    1    3    3    0    0 -0.29123175800E+01  0.73448420953E+01  0.28996802448E+01  0.84164389664E+01  0.51100000000E-03 0. -1.
        -11    1    3    3    0    0  0.27536317311E+02  0.26789838613E+02 -0.10438804486E+01  0.38432198878E+02  0.51100000000E-03 0.  1.
         12    1    3    3    0    0 -0.25154096969E+02 -0.34983207991E+02 -0.24818058577E+01  0.43159156572E+02  0.00000000000E+00 0. -1.
</event>
<event>
 7    1  0.1974466E-015  0.9000778E+02  0.7816164E-02  0.1186339E+00
        -11   -1    0    0    0    0  0.00000000000E+00  0.00000000000E+00  0.45593999997E+02  0.45594000000E+02  0.51100000000E-03 0.  1.
         11   -1    0    0    0    0 -0.00000000000E+00 -0.00000000000E+00 -0.45593999997E+02  0.45594000000E+02  0.51100000000E-03 0. -1.
    9900012    2    1    2    0    0  0.88165120857E+00  0.37288704945E+00 -0.69033337326E+00  0.90007782320E+02  0.90000044247E+02 0.  0.
        -12    1    1    2    0    0 -0.88165120857E+00 -0.37288704945E+00  0.69033337326E+00  0.11802176797E+01  0.00000000000E+00 0.  1.
         11    1    3    3    0    0 -0.10427803168E+01 -0.56520447531E+00  0.90566743017E+01  0.91340131681E+01  0.51100000000E-03 0. -1.
        -11    1    3    3    0    0  0.19313617831E+01 -0.10779618295E+02  0.33929325084E+02  0.35652902124E+02  0.51100000000E-03 0.  1.
         12    1    3    3    0    0 -0.69302577447E-02  0.11717709820E+02 -0.43676332759E+02  0.45220867028E+02  0.00000000000E+00 0. -1.
</event>
<event>
 7    1  0.2279154E-015  0.9000762E+02  0.7816164E-02  0.1186339E+00
        -11   -1    0    0    0    0  0.00000000000E+00  0.00000000000E+00  0.45593999997E+02  0.45594000000E+02  0.51100000000E-03 0. -1.
         11   -1    0    0    0    0 -0.00000000000E+00 -0.00000000000E+00 -0.45593999997E+02  0.45594000000E+02  0.51100000000E-03 0.  1.
    9900012    2    1    2    0    0  0.59054211116E+00 -0.10651414697E+00  0.10164721714E+01  0.90007618314E+02  0.89999878076E+02 0.  0.
        -12    1    1    2    0    0 -0.59054211116E+00  0.10651414697E+00 -0.10164721714E+01  0.11803816856E+01  0.00000000000E+00 0.  1.
         11    1    3    3    0    0  0.72816962282E+01  0.69325074677E+01 -0.92264736540E+00  0.10096238813E+02  0.51100000000E-03 0. -1.
        -11    1    3    3    0    0 -0.11091722308E+02  0.30964582017E+02 -0.17218137371E+02  0.37125407716E+02  0.51100000000E-03 0.  1.
         12    1    3    3    0    0  0.44005681910E+01 -0.38003603632E+02  0.19157256908E+02  0.42785971786E+02  0.00000000000E+00 0. -1.
</event>
<event>
 7    1  0.1910099E-015  0.9000769E+02  0.7816164E-02  0.1186339E+00
        -11   -1    0    0    0    0  0.00000000000E+00  0.00000000000E+00  0.45593999997E+02  0.45594000000E+02  0.51100000000E-03 0.  1.
         11   -1    0    0    0    0 -0.00000000000E+00 -0.00000000000E+00 -0.45593999997E+02  0.45594000000E+02  0.51100000000E-03 0. -1.
    9900012    2    1    2    0    0  0.37977609786E+00 -0.10798185737E+01  0.28792619358E+00  0.90007686682E+02  0.89999947346E+02 0.  0.
        -12    1    1    2    0    0 -0.37977609786E+00  0.10798185737E+01 -0.28792619358E+00  0.11803133184E+01  0.00000000000E+00 0.  1.
         11    1    3    3    0    0  0.50303677627E+01 -0.15736507807E+02 -0.19580218481E+01  0.16636590023E+02  0.51100000000E-03 0. -1.
        -11    1    3    3    0    0  0.26570133727E+02 -0.10389940245E+02  0.13827077353E+02  0.31703484556E+02  0.51100000000E-03 0.  1.
         12    1    3    3    0    0 -0.31220725392E+02  0.25046629478E+02 -0.11581129311E+02  0.41667612103E+02  0.00000000000E+00 0. -1.
</event>
<event>
 7    1  0.1910099E-015  0.9000804E+02  0.7816164E-02  0.1186338E+00
        -11   -1    0    0    0    0  0.00000000000E+00  0.00000000000E+00  0.45593999997E+02  0.45594000000E+02  0.51100000000E-03 0.  1.
         11   -1    0    0    0    0 -0.00000000000E+00 -0.00000000000E+00 -0.45593999997E+02  0.45594000000E+02  0.51100000000E-03 0. -1.
    9900012    2    1    2    0    0  0.10658675274E+01 -0.50617897114E+00 -0.42364220644E-02  0.90008038694E+02  0.90000304004E+02 0.  0.
        -12    1    1    2    0    0 -0.10658675274E+01  0.50617897114E+00  0.42364220644E-02  0.11799613062E+01  0.00000000000E+00 0.  1.
         11    1    3    3    0    0 -0.19066611851E+02  0.26869695475E+02 -0.66506168473E+01  0.33611708185E+02  0.51100000000E-03 0. -1.
        -11    1    3    3    0    0 -0.56749862286E+01  0.89597198337E+01 -0.25072578439E+01  0.10898091133E+02  0.51100000000E-03 0.  1.
        -12    1    3    3    0    0  0.25807465607E+02 -0.36335594280E+02  0.91536382691E+01  0.45498239376E+02  0.00000000000E+00 0.  1.
</event>
<event>
 7    1  0.1910099E-015  0.9000769E+02  0.7816164E-02  0.1186339E+00
        -11   -1    0    0    0    0  0.00000000000E+00  0.00000000000E+00  0.45593999997E+02  0.45594000000E+02  0.51100000000E-03 0. -1.
         11   -1    0    0    0    0 -0.00000000000E+00 -0.00000000000E+00 -0.45593999997E+02  0.45594000000E+02  0.51100000000E-03 0.  1.
    9900012    2    1    2    0    0 -0.48274527655E+00 -0.87162461162E+00  0.63274271192E+00  0.90007688259E+02  0.89999948944E+02 0.  0.
        -12    1    1    2    0    0  0.48274527655E+00  0.87162461162E+00 -0.63274271192E+00  0.11803117406E+01  0.00000000000E+00 0.  1.
         11    1    3    3    0    0 -0.17849380073E+01 -0.90234012806E+01 -0.24962332847E+01  0.95309472369E+01  0.51100000000E-03 0. -1.
        -11    1    3    3    0    0 -0.13092744313E+02  0.32959075787E+02 -0.22511089785E+02  0.42005592413E+02  0.51100000000E-03 0.  1.
         12    1    3    3    0    0  0.14394937044E+02 -0.24807299118E+02  0.25640065781E+02  0.38471148609E+02  0.00000000000E+00 0. -1.
</event>
<event>
 7    1  0.1910099E-015  0.9000765E+02  0.7816164E-02  0.1186339E+00
        -11   -1    0    0    0    0  0.00000000000E+00  0.00000000000E+00  0.45593999997E+02  0.45594000000E+02  0.51100000000E-03 0.  1.
         11   -1    0    0    0    0 -0.00000000000E+00 -0.00000000000E+00 -0.45593999997E+02  0.45594000000E+02  0.51100000000E-03 0. -1.
    9900012    2    1    2    0    0 -0.35336511407E+00 -0.11134400631E+01  0.16916940856E+00  0.90007646677E+02  0.89999906813E+02 0.  0.
        -12    1    1    2    0    0  0.35336511407E+00  0.11134400631E+01 -0.16916940856E+00  0.11803533229E+01  0.00000000000E+00 0.  1.
         11    1    3    3    0    0 -0.14274015065E+01  0.43876120232E+01  0.79854169353E+01  0.92225537796E+01  0.51100000000E-03 0. -1.
        -11    1    3    3    0    0  0.40147965434E+02  0.96875512915E+00  0.11532204020E+01  0.40176206049E+02  0.51100000000E-03 0.  1.
         12    1    3    3    0    0 -0.39073929041E+02 -0.64698072155E+01 -0.89694679287E+01  0.40608886848E+02  0.00000000000E+00 0. -1.
</event>
<event>
 7    1  0.1910099E-015  0.9000746E+02  0.7816164E-02  0.1186340E+00
        -11   -1    0    0    0    0  0.00000000000E+00  0.00000000000E+00  0.45593999997E+02  0.45594000000E+02  0.51100000000E-03 0.  1.
         11   -1    0    0    0    0 -0.00000000000E+00 -0.00000000000E+00 -0.45593999997E+02  0.45594000000E+02  0.51100000000E-03 0. -1.
    9900012    2    1    2    0    0 -0.95953461065E+00  0.59790200345E+00 -0.33983553801E+00  0.90007457045E+02  0.89999714678E+02 0.  0.
        -12    1    1    2    0    0  0.95953461065E+00 -0.59790200345E+00  0.33983553801E+00  0.11805429546E+01  0.00000000000E+00 0.  1.
         11    1    3    3    0    0 -0.35503659774E+02 -0.66059019665E+01 -0.12303684386E+02  0.38151388545E+02  0.51100000000E-03 0. -1.
        -11    1    3    3    0    0 -0.68101794190E+01  0.59213464861E+01  0.31086040053E+01  0.95448576234E+01  0.51100000000E-03 0.  1.
        -12    1    3    3    0    0  0.41354304582E+02  0.12824574839E+01  0.88552448425E+01  0.42311210877E+02  0.00000000000E+00 0.  1.
</event>
<event>
 7    1  0.1910099E-015  0.9000777E+02  0.7816164E-02  0.1186339E+00
        -11   -1    0    0    0    0  0.00000000000E+00  0.00000000000E+00  0.45593999997E+02  0.45594000000E+02  0.51100000000E-03 0.  1.
         11   -1    0    0    0    0 -0.00000000000E+00 -0.00000000000E+00 -0.45593999997E+02  0.45594000000E+02  0.51100000000E-03 0. -1.
    9900012    2    1    2    0    0  0.77503633630E+00 -0.88968534170E+00  0.26680318844E-01  0.90007774102E+02  0.90000035921E+02 0.  0.
        -12    1    1    2    0    0 -0.77503633630E+00  0.88968534170E+00 -0.26680318844E-01  0.11802258975E+01  0.00000000000E+00 0.  1.
         11    1    3    3    0    0  0.10187465494E+02 -0.19450760814E+02 -0.27864847658E+02  0.35476277774E+02  0.51100000000E-03 0. -1.
        -11    1    3    3    0    0  0.15408677282E+01 -0.45641979194E+01 -0.86622451337E+01  0.99116430031E+01  0.51100000000E-03 0.  1.
        -12    1    3    3    0    0 -0.10953296886E+02  0.23125273392E+02  0.36553773111E+02  0.44619853325E+02  0.00000000000E+00 0.  1.
</event>
<event>
 7    1  0.1910099E-015  0.9000776E+02  0.7816164E-02  0.1186339E+00
        -11   -1    0    0    0    0  0.00000000000E+00  0.00000000000E+00  0.45593999997E+02  0.45594000000E+02  0.51100000000E-03 0. -1.
         11   -1    0    0    0    0 -0.00000000000E+00 -0.00000000000E+00 -0.45593999997E+02  0.45594000000E+02  0.51100000000E-03 0.  1.
    9900012    2    1    2    0    0 -0.99688778230E+00  0.57385550061E+00  0.26432471802E+00  0.90007761489E+02  0.90000023141E+02 0.  0.
        -12    1    1    2    0    0  0.99688778230E+00 -0.57385550061E+00 -0.26432471802E+00  0.11802385109E+01  0.00000000000E+00 0.  1.
         11    1    3    3    0    0 -0.78948645889E+01 -0.63390783580E+01  0.74126226960E-02  0.10124863284E+02  0.51100000000E-03 0. -1.
        -11    1    3    3    0    0 -0.35661712710E+02  0.68497618996E+01  0.64278882624E+01  0.36878106503E+02  0.51100000000E-03 0.  1.
         12    1    3    3    0    0  0.42559689517E+02  0.63171959069E-01 -0.61709761670E+01  0.43004791702E+02  0.00000000000E+00 0. -1.
</event>
<event>
 7    1  0.1910099E-015  0.9000772E+02  0.7816164E-02  0.1186339E+00
        -11   -1    0    0    0    0  0.00000000000E+00  0.00000000000E+00  0.45593999997E+02  0.45594000000E+02  0.51100000000E-03 0.  1.
         11   -1    0    0    0    0 -0.00000000000E+00 -0.00000000000E+00 -0.45593999997E+02  0.45594000000E+02  0.51100000000E-03 0. -1.
    9900012    2    1    2    0    0 -0.55338366677E+00 -0.86594920654E+00  0.58048735282E+00  0.90007717374E+02  0.89999978443E+02 0.  0.
        -12    1    1    2    0    0  0.55338366677E+00  0.86594920654E+00 -0.58048735282E+00  0.11802826262E+01  0.00000000000E+00 0.  1.
         11    1    3    3    0    0  0.46382988438E+01  0.34450617561E+02 -0.24568089194E+01  0.34848167482E+02  0.51100000000E-03 0. -1.
        -11    1    3    3    0    0  0.31928511776E+01  0.82798422664E+01  0.59251001894E+01  0.10670374835E+02  0.51100000000E-03 0.  1.
        -12    1    3    3    0    0 -0.83845336882E+01 -0.43596409034E+02 -0.28878039172E+01  0.44489175057E+02  0.00000000000E+00 0.  1.
</event>
<event>
 7    1  0.1910099E-015  0.9000806E+02  0.7816164E-02  0.1186338E+00
        -11   -1    0    0    0    0  0.00000000000E+00  0.00000000000E+00  0.45593999997E+02  0.45594000000E+02  0.51100000000E-03 0.  1.
         11   -1    0    0    0    0 -0.00000000000E+00 -0.00000000000E+00 -0.45593999997E+02  0.45594000000E+02  0.51100000000E-03 0. -1.
    9900012    2    1    2    0    0 -0.44647491695E+00  0.10370232713E+01 -0.34277359238E+00  0.90008063200E+02  0.90000328833E+02 0.  0.
        -12    1    1    2    0    0  0.44647491695E+00 -0.10370232713E+01  0.34277359238E+00  0.11799368001E+01  0.00000000000E+00 0.  1.
         11    1    3    3    0    0 -0.81042785259E+01  0.52537824275E+01 -0.96361147633E+00  0.97061891368E+01  0.51100000000E-03 0. -1.
        -11    1    3    3    0    0 -0.11419842543E+01 -0.89394137639E+01  0.39317566776E+02  0.40337182648E+02  0.51100000000E-03 0.  1.
         12    1    3    3    0    0  0.87997878633E+01  0.47226546077E+01 -0.38696728892E+02  0.39964691416E+02  0.00000000000E+00 0. -1.
</event>
<event>
 7    1  0.1910099E-015  0.9000771E+02  0.7816164E-02  0.1186339E+00
        -11   -1    0    0    0    0  0.00000000000E+00  0.00000000000E+00  0.45593999997E+02  0.45594000000E+02  0.51100000000E-03 0.  1.
         11   -1    0    0    0    0 -0.00000000000E+00 -0.00000000000E+00 -0.45593999997E+02  0.45594000000E+02  0.51100000000E-03 0. -1.
    9900012    2    1    2    0    0 -0.61097900827E+00  0.60809830551E+00  0.80622907109E+00  0.90007710115E+02  0.89999971088E+02 0.  0.
        -12    1    1    2    0    0  0.61097900827E+00 -0.60809830551E+00 -0.80622907109E+00  0.11802898851E+01  0.00000000000E+00 0.  1.
         11    1    3    3    0    0  0.54581996870E+01 -0.14260296066E+01 -0.12596716530E+02  0.13802274155E+02  0.51100000000E-03 0. -1.
        -11    1    3    3    0    0 -0.34683762643E+01  0.14831309886E+02 -0.28499984849E+02  0.32314803473E+02  0.51100000000E-03 0.  1.
         12    1    3    3    0    0 -0.26008024310E+01 -0.12797181974E+02  0.41902930450E+02  0.43890632487E+02  0.00000000000E+00 0. -1.
</event>
<event>
 7    1  0.1910099E-015  0.9000776E+02  0.7816164E-02  0.1186339E+00
        -11   -1    0    0    0    0  0.00000000000E+00  0.00000000000E+00  0.45593999997E+02  0.45594000000E+02  0.51100000000E-03 0.  1.
         11   -1    0    0    0    0 -0.00000000000E+00 -0.00000000000E+00 -0.45593999997E+02  0.45594000000E+02  0.51100000000E-03 0. -1.
    9900012    2    1    2    0    0 -0.32071407583E+00  0.79102733401E+00 -0.81509101010E+00  0.90007764805E+02  0.90000026500E+02 0.  0.
        -12    1    1    2    0    0  0.32071407583E+00 -0.79102733401E+00  0.81509101010E+00  0.11802351954E+01  0.00000000000E+00 0.  1.
         11    1    3    3    0    0 -0.17907328720E+02  0.34010060469E+02 -0.15048989962E+02  0.41277460364E+02  0.51100000000E-03 0. -1.
        -11    1    3    3    0    0  0.93471493706E+01 -0.56851943319E+01 -0.70077261557E+01  0.12992261623E+02  0.51100000000E-03 0.  1.
        -12    1    3    3    0    0  0.82394652732E+01 -0.27533838803E+02  0.21241625108E+02  0.35738042818E+02  0.00000000000E+00 0.  1.
</event>
<event>
 7    1  0.1910099E-015  0.9000771E+02  0.7816164E-02  0.1186339E+00
        -11   -1    0    0    0    0  0.00000000000E+00  0.00000000000E+00  0.45593999997E+02  0.45594000000E+02  0.51100000000E-03 0.  1.
         11   -1    0    0    0    0 -0.00000000000E+00 -0.00000000000E+00 -0.45593999997E+02  0.45594000000E+02  0.51100000000E-03 0. -1.
    9900012    2    1    2    0    0  0.10133612539E+01  0.30229118974E+00 -0.52420748798E+00  0.90007714236E+02  0.89999975264E+02 0.  0.
        -12    1    1    2    0    0 -0.10133612539E+01 -0.30229118974E+00  0.52420748798E+00  0.11802857640E+01  0.00000000000E+00 0.  1.
         11    1    3    3    0    0  0.37136279308E+02  0.21201567153E+01 -0.25248828051E+01  0.37282346208E+02  0.51100000000E-03 0. -1.
        -11    1    3    3    0    0  0.61960804536E+01 -0.13799088203E+01 -0.70083720451E+01  0.94558363101E+01  0.51100000000E-03 0.  1.
        -12    1    3    3    0    0 -0.42318998507E+02 -0.43795670528E+00  0.90090473622E+01  0.43269531718E+02  0.00000000000E+00 0.  1.
</event>
<event>
 7    1  0.1910099E-015  0.9000767E+02  0.7816164E-02  0.1186339E+00
        -11   -1    0    0    0    0  0.00000000000E+00  0.00000000000E+00  0.45593999997E+02  0.45594000000E+02  0.51100000000E-03 0.  1.
         11   -1    0    0    0    0 -0.00000000000E+00 -0.00000000000E+00 -0.45593999997E+02  0.45594000000E+02  0.51100000000E-03 0. -1.
    9900012    2    1    2    0    0  0.11674160445E+01 -0.61081080062E-01  0.16306105672E+00  0.90007669526E+02  0.89999929964E+02 0.  0.
        -12    1    1    2    0    0 -0.11674160445E+01  0.61081080062E-01 -0.16306105672E+00  0.11803304739E+01  0.00000000000E+00 0.  1.
         11    1    3    3    0    0  0.34368483067E+01 -0.82506166131E+01 -0.10929786160E+01  0.90043991080E+01  0.51100000000E-03 0. -1.
        -11    1    3    3    0    0  0.17610492155E+02 -0.20012313118E+02  0.27008294798E+02  0.37948255539E+02  0.51100000000E-03 0.  1.
         12    1    3    3    0    0 -0.19879924417E+02  0.28201848651E+02 -0.25752255126E+02  0.43055014879E+02  0.00000000000E+00 0. -1.
</event>
<event>
 7    1  0.1910099E-015  0.9000774E+02  0.7816164E-02  0.1186339E+00
        -11   -1    0    0    0    0  0.00000000000E+00  0.00000000000E+00  0.45593999997E+02  0.45594000000E+02  0.51100000000E-03 0. -1.
         11   -1    0    0    0    0 -0.00000000000E+00 -0.00000000000E+00 -0.45593999997E+02  0.45594000000E+02  0.51100000000E-03 0.  1.
    9900012    2    1    2    0    0 -0.43600687945E+00  0.66799407814E+00  0.86988131310E+00  0.90007740882E+02  0.90000002261E+02 0.  0.
        -12    1    1    2    0    0  0.43600687945E+00 -0.66799407814E+00 -0.86988131310E+00  0.11802591183E+01  0.00000000000E+00 0.  1.
         11    1    3    3    0    0 -0.85197564121E+01  0.51887337711E+01  0.35739396498E+01  0.10596332023E+02  0.51100000000E-03 0. -1.
        -11    1    3    3    0    0 -0.18731329918E+02  0.29366522351E+02  0.59600330705E+01  0.35338043946E+02  0.51100000000E-03 0.  1.
         12    1    3    3    0    0  0.26815079451E+02 -0.33887262044E+02 -0.86640914072E+01  0.44073364912E+02  0.00000000000E+00 0. -1.
</event>
<event>
 7    1  0.1910099E-015  0.9000775E+02  0.7816164E-02  0.1186339E+00
        -11   -1    0    0    0    0  0.00000000000E+00  0.00000000000E+00  0.45593999997E+02  0.45594000000E+02  0.51100000000E-03 0. -1.
         11   -1    0    0    0    0 -0.00000000000E+00 -0.00000000000E+00 -0.45593999997E+02  0.45594000000E+02  0.51100000000E-03 0.  1.
    9900012    2    1    2    0    0 -0.88820930922E-01  0.50572965210E+00  0.10626982703E+01  0.90007754580E+02  0.90000016140E+02 0.  0.
        -12    1    1    2    0    0  0.88820930922E-01 -0.50572965210E+00 -0.10626982703E+01  0.11802454205E+01  0.00000000000E+00 0.  1.
         11    1    3    3    0    0 -0.85231409024E+01  0.64896211344E+00  0.20098662711E+01  0.87809250854E+01  0.51100000000E-03 0. -1.
        -11    1    3    3    0    0 -0.32016599460E+01  0.35617341329E+01 -0.40012111440E+02  0.40297712572E+02  0.51100000000E-03 0.  1.
         12    1    3    3    0    0  0.11635979918E+02 -0.37049665942E+01  0.39064943439E+02  0.40929116922E+02  0.00000000000E+00 0. -1.
</event>
<event>
 7    1  0.1910099E-015  0.9000785E+02  0.7816164E-02  0.1186339E+00
        -11   -1    0    0    0    0  0.00000000000E+00  0.00000000000E+00  0.45593999997E+02  0.45594000000E+02  0.51100000000E-03 0.  1.
         11   -1    0    0    0    0 -0.00000000000E+00 -0.00000000000E+00 -0.45593999997E+02  0.45594000000E+02  0.51100000000E-03 0. -1.
    9900012    2    1    2    0    0  0.10835092932E+01 -0.32172963147E+00 -0.33948374931E+00  0.90007851043E+02  0.90000113877E+02 0.  0.
        -12    1    1    2    0    0 -0.10835092932E+01  0.32172963147E+00  0.33948374931E+00  0.11801489568E+01  0.00000000000E+00 0.  1.
         11    1    3    3    0    0 -0.69100489208E+01  0.21021759255E+02 -0.28100397224E+02  0.35767240077E+02  0.51100000000E-03 0. -1.
        -11    1    3    3    0    0  0.41999774261E+00 -0.13853576857E+01 -0.10407832976E+02  0.10508025577E+02  0.51100000000E-03 0.  1.
        -12    1    3    3    0    0  0.75735604714E+01 -0.19958131201E+02  0.38168746450E+02  0.43732585390E+02  0.00000000000E+00 0.  1.
</event>
<event>
 7    1  0.1910099E-015  0.9000792E+02  0.7816164E-02  0.1186339E+00
        -11   -1    0    0    0    0  0.00000000000E+00  0.00000000000E+00  0.45593999997E+02  0.45594000000E+02  0.51100000000E-03 0. -1.
         11   -1    0    0    0    0 -0.00000000000E+00 -0.00000000000E+00 -0.45593999997E+02  0.45594000000E+02  0.51100000000E-03 0.  1.
    9900012    2    1    2    0    0  0.19325280375E-01  0.49627894672E+00  0.10704803057E+01  0.90007917654E+02  0.90000181366E+02 0.  0.
        -12    1    1    2    0    0 -0.19325280375E-01 -0.49627894672E+00 -0.10704803057E+01  0.11800823464E+01  0.00000000000E+00 0.  1.
         11    1    3    3    0    0  0.23648629384E+02 -0.19794010372E+02 -0.15825658149E+02  0.34662832753E+02  0.51100000000E-03 0. -1.
        -11    1    3    3    0    0  0.93274367309E+01 -0.48492829990E+01 -0.18185531588E+00  0.10514261419E+02  0.51100000000E-03 0.  1.
        -12    1    3    3    0    0 -0.32956740835E+02  0.25139572318E+02  0.17077993771E+02  0.44830823481E+02  0.00000000000E+00 0.  1.
</event>
<event>
 7    1  0.1910099E-015  0.9000774E+02  0.7816164E-02  0.1186339E+00
        -11   -1    0    0    0    0  0.00000000000E+00  0.00000000000E+00  0.45593999997E+02  0.45594000000E+02  0.51100000000E-03 0. -1.
         11   -1    0    0    0    0 -0.00000000000E+00 -0.00000000000E+00 -0.45593999997E+02  0.45594000000E+02  0.51100000000E-03 0.  1.
    9900012    2    1    2    0    0 -0.60564307987E+00  0.10047314385E+01  0.12931539044E+00  0.90007741014E+02  0.90000002395E+02 0.  0.
        -12    1    1    2    0    0  0.60564307987E+00 -0.10047314385E+01 -0.12931539044E+00  0.11802589860E+01  0.00000000000E+00 0.  1.
         11    1    3    3    0    0  0.26108516639E+02 -0.13702605487E+02  0.16611380621E+02  0.33843079124E+02  0.51100000000E-03 0. -1.
        -11    1    3    3    0    0  0.10190478974E+02 -0.54186824775E+01 -0.20622924609E+01  0.11724377679E+02  0.51100000000E-03 0.  1.
        -12    1    3    3    0    0 -0.36904638693E+02  0.20126019403E+02 -0.14419772769E+02  0.44440284211E+02  0.00000000000E+00 0.  1.
</event>
<event>
 7    1  0.1910099E-015  0.9000785E+02  0.7816164E-02  0.1186339E+00
        -11   -1    0    0    0    0  0.00000000000E+00  0.00000000000E+00  0.45593999997E+02  0.45594000000E+02  0.51100000000E-03 0. -1.
         11   -1    0    0    0    0 -0.00000000000E+00 -0.00000000000E+00 -0.45593999997E+02  0.45594000000E+02  0.51100000000E-03 0.  1.
    9900012    2    1    2    0    0 -0.93399388018E+00  0.71064843841E+00  0.12409486970E+00  0.90007845219E+02  0.90000107975E+02 0.  0.
        -12    1    1    2    0    0  0.93399388018E+00 -0.71064843841E+00 -0.12409486970E+00  0.11801547813E+01  0.00000000000E+00 0.  1.
         11    1    3    3    0    0 -0.10616849043E+02 -0.29033345642E+02  0.22436040664E+02  0.38197232409E+02  0.51100000000E-03 0. -1.
        -11    1    3    3    0    0 -0.85658412538E+01 -0.30087171654E+01 -0.25614485793E+01  0.94332939344E+01  0.51100000000E-03 0.  1.
        -12    1    3    3    0    0  0.18248696417E+02  0.32752711246E+02 -0.19750497215E+02  0.42377318876E+02  0.00000000000E+00 0.  1.
</event>
<event>
 7    1  0.1910099E-015  0.9000762E+02  0.7816164E-02  0.1186339E+00
        -11   -1    0    0    0    0  0.00000000000E+00  0.00000000000E+00  0.45593999997E+02  0.45594000000E+02  0.51100000000E-03 0.  1.
         11   -1    0    0    0    0 -0.00000000000E+00 -0.00000000000E+00 -0.45593999997E+02  0.45594000000E+02  0.51100000000E-03 0. -1.
    9900012    2    1    2    0    0  0.79234001661E+00 -0.84927843135E+00 -0.21027180497E+00  0.90007622608E+02  0.89999882426E+02 0.  0.
        -12    1    1    2    0    0 -0.79234001661E+00  0.84927843135E+00  0.21027180497E+00  0.11803773921E+01  0.00000000000E+00 0.  1.
         11    1    3    3    0    0 -0.13645659290E+02  0.92936684923E+01 -0.30308223244E+02  0.34513253801E+02  0.51100000000E-03 0. -1.
        -11    1    3    3    0    0  0.62147075834E+00  0.10433059861E+02 -0.57377721239E+01  0.11922960756E+02  0.51100000000E-03 0.  1.
        -12    1    3    3    0    0  0.13816528548E+02 -0.20576006785E+02  0.35835723563E+02  0.43571408051E+02  0.00000000000E+00 0.  1.
</event>
<event>
 7    1  0.1910099E-015  0.9000779E+02  0.7816164E-02  0.1186339E+00
        -11   -1    0    0    0    0  0.00000000000E+00  0.00000000000E+00  0.45593999997E+02  0.45594000000E+02  0.51100000000E-03 0. -1.
         11   -1    0    0    0    0 -0.00000000000E+00 -0.00000000000E+00 -0.45593999997E+02  0.45594000000E+02  0.51100000000E-03 0.  1.
    9900012    2    1    2    0    0 -0.67203116501E-01  0.81421013618E+00  0.85173500536E+00  0.90007785221E+02  0.90000047186E+02 0.  0.
        -12    1    1    2    0    0  0.67203116501E-01 -0.81421013618E+00 -0.85173500536E+00  0.11802147788E+01  0.00000000000E+00 0.  1.
         11    1    3    3    0    0 -0.52786612091E+01 -0.61483219718E+01  0.42065683204E+01  0.91302433990E+01  0.51100000000E-03 0. -1.
        -11    1    3    3    0    0  0.11362005814E+02  0.39959603221E+02  0.13013059718E+02  0.43533949846E+02  0.51100000000E-03 0.  1.
         12    1    3    3    0    0 -0.61505477215E+01 -0.32997071113E+02 -0.16367893033E+02  0.37343591976E+02  0.00000000000E+00 0. -1.
</event>
<event>
 7    1  0.1910099E-015  0.9000769E+02  0.7816164E-02  0.1186339E+00
        -11   -1    0    0    0    0  0.00000000000E+00  0.00000000000E+00  0.45593999997E+02  0.45594000000E+02  0.51100000000E-03 0. -1.
         11   -1    0    0    0    0 -0.00000000000E+00 -0.00000000000E+00 -0.45593999997E+02  0.45594000000E+02  0.51100000000E-03 0.  1.
    9900012    2    1    2    0    0 -0.74513686956E+00  0.83074968045E+00 -0.38439376746E+00  0.90007689636E+02  0.89999950340E+02 0.  0.
        -12    1    1    2    0    0  0.74513686956E+00 -0.83074968045E+00  0.38439376746E+00  0.11803103636E+01  0.00000000000E+00 0.  1.
         11    1    3    3    0    0  0.69288168826E+01 -0.84491983319E+01 -0.62928195115E+01  0.12609402583E+02  0.51100000000E-03 0. -1.
        -11    1    3    3    0    0  0.25739822165E+02  0.17131463960E+02 -0.17804823235E+02  0.35679647324E+02  0.51100000000E-03 0.  1.
         12    1    3    3    0    0 -0.33413775917E+02 -0.78515159476E+01  0.23713248979E+02  0.41718639729E+02  0.00000000000E+00 0. -1.
</event>
<event>
 7    1  0.1910099E-015  0.9000785E+02  0.7816164E-02  0.1186339E+00
        -11   -1    0    0    0    0  0.00000000000E+00  0.00000000000E+00  0.45593999997E+02  0.45594000000E+02  0.51100000000E-03 0.  1.
         11   -1    0    0    0    0 -0.00000000000E+00 -0.00000000000E+00 -0.45593999997E+02  0.45594000000E+02  0.51100000000E-03 0. -1.
    9900012    2    1    2    0    0  0.26433554641E+00  0.11166299379E+01 -0.27573295997E+00  0.90007845618E+02  0.90000108380E+02 0.  0.
        -12    1    1    2    0    0 -0.26433554641E+00 -0.11166299379E+01  0.27573295997E+00  0.11801543816E+01  0.00000000000E+00 0.  1.
         11    1    3    3    0    0 -0.33329976747E+02  0.27188047941E+02  0.21097311898E+01  0.43064234194E+02  0.51100000000E-03 0. -1.
        -11    1    3    3    0    0  0.10277454965E+02  0.16607490497E+01 -0.25202599480E+01  0.10711483484E+02  0.51100000000E-03 0.  1.
        -12    1    3    3    0    0  0.23316857328E+02 -0.27732167053E+02  0.13479579826E+00  0.36232127940E+02  0.00000000000E+00 0.  1.
</event>
<event>
 7    1  0.1910099E-015  0.9000768E+02  0.7816164E-02  0.1186339E+00
        -11   -1    0    0    0    0  0.00000000000E+00  0.00000000000E+00  0.45593999997E+02  0.45594000000E+02  0.51100000000E-03 0. -1.
         11   -1    0    0    0    0 -0.00000000000E+00 -0.00000000000E+00 -0.45593999997E+02  0.45594000000E+02  0.51100000000E-03 0.  1.
    9900012    2    1    2    0    0 -0.61102615869E-01 -0.11785877105E+01 -0.18522626876E-01  0.90007684106E+02  0.89999944737E+02 0.  0.
        -12    1    1    2    0    0  0.61102615869E-01  0.11785877105E+01  0.18522626876E-01  0.11803158936E+01  0.00000000000E+00 0.  1.
         11    1    3    3    0    0  0.39819204012E+01 -0.58690028798E+01  0.67212633968E+01  0.97711957710E+01  0.51100000000E-03 0. -1.
        -11    1    3    3    0    0  0.14555154502E+02 -0.35078770953E+01 -0.39186640965E+02  0.41949380862E+02  0.51100000000E-03 0.  1.
         12    1    3    3    0    0 -0.18598177519E+02  0.81982922646E+01  0.32446854942E+02  0.38287107473E+02  0.00000000000E+00 0. -1.
</event>
<event>
 7    1  0.1910099E-015  0.9000778E+02  0.7816164E-02  0.1186339E+00
        -11   -1    0    0    0    0  0.00000000000E+00  0.00000000000E+00  0.45593999997E+02  0.45594000000E+02  0.51100000000E-03 0. -1.
         11   -1    0    0    0    0 -0.00000000000E+00 -0.00000000000E+00 -0.45593999997E+02  0.45594000000E+02  0.51100000000E-03 0.  1.
    9900012    2    1    2    0    0  0.95076324813E+00 -0.55356335298E+00  0.42725236233E+00  0.90007776411E+02  0.90000038259E+02 0.  0.
        -12    1    1    2    0    0 -0.95076324813E+00  0.55356335298E+00 -0.42725236233E+00  0.11802235894E+01  0.00000000000E+00 0.  1.
         11    1    3    3    0    0  0.32855613357E+01 -0.43507846215E+02  0.32853622535E+00  0.43632963821E+02  0.51100000000E-03 0. -1.
        -11    1    3    3    0    0  0.42233819013E+01  0.71120475381E+01 -0.48725099754E+01  0.95999754474E+01  0.51100000000E-03 0.  1.
        -12    1    3    3    0    0 -0.65581799889E+01  0.35842235323E+02  0.49712261124E+01  0.36774837142E+02  0.00000000000E+00 0.  1.
</event>
<event>
 7    1  0.1910099E-015  0.9000770E+02  0.7816164E-02  0.1186339E+00
        -11   -1    0    0    0    0  0.00000000000E+00  0.00000000000E+00  0.45593999997E+02  0.45594000000E+02  0.51100000000E-03 0. -1.
         11   -1    0    0    0    0 -0.00000000000E+00 -0.00000000000E+00 -0.45593999997E+02  0.45594000000E+02  0.51100000000E-03 0.  1.
    9900012    2    1    2    0    0  0.57874876992E+00 -0.35892813438E+00  0.96401685500E+00  0.90007700021E+02  0.89999960861E+02 0.  0.
        -12    1    1    2    0    0 -0.57874876992E+00  0.35892813438E+00 -0.96401685500E+00  0.11802999793E+01  0.00000000000E+00 0.  1.
         11    1    3    3    0    0  0.38416790648E+00 -0.69050678808E+01  0.37019797725E+02  0.37660230633E+02  0.51100000000E-03 0. -1.
        -11    1    3    3    0    0  0.82504735006E+01 -0.50114931609E+01  0.35696608480E+01  0.10292125899E+02  0.51100000000E-03 0.  1.
        -12    1    3    3    0    0 -0.80558926371E+01  0.11557632907E+02 -0.39625441719E+02  0.42055343489E+02  0.00000000000E+00 0.  1.
</event>
<event>
 7    1  0.1910099E-015  0.9000773E+02  0.7816164E-02  0.1186339E+00
        -11   -1    0    0    0    0  0.00000000000E+00  0.00000000000E+00  0.45593999997E+02  0.45594000000E+02  0.51100000000E-03 0. -1.
         11   -1    0    0    0    0 -0.00000000000E+00 -0.00000000000E+00 -0.45593999997E+02  0.45594000000E+02  0.51100000000E-03 0.  1.
    9900012    2    1    2    0    0  0.10862230600E+01  0.42589105139E+00  0.17823047935E+00  0.90007733154E+02  0.89999994432E+02 0.  0.
        -12    1    1    2    0    0 -0.10862230600E+01 -0.42589105139E+00 -0.17823047935E+00  0.11802668459E+01  0.00000000000E+00 0.  1.
         11    1    3    3    0    0 -0.28146844948E+02 -0.12096474595E+02  0.15721126864E+02  0.34434334730E+02  0.51100000000E-03 0. -1.
        -11    1    3    3    0    0 -0.91150892145E+01  0.11319754014E+01  0.51541677709E+01  0.10532410236E+02  0.51100000000E-03 0.  1.
        -12    1    3    3    0    0  0.38348157223E+02  0.11390390245E+02 -0.20697064156E+02  0.45040988188E+02  0.00000000000E+00 0.  1.
</event>
<event>
 7    1  0.1910099E-015  0.9000771E+02  0.7816164E-02  0.1186339E+00
        -11   -1    0    0    0    0  0.00000000000E+00  0.00000000000E+00  0.45593999997E+02  0.45594000000E+02  0.51100000000E-03 0.  1.
         11   -1    0    0    0    0 -0.00000000000E+00 -0.00000000000E+00 -0.45593999997E+02  0.45594000000E+02  0.51100000000E-03 0. -1.
    9900012    2    1    2    0    0 -0.55848244688E+00 -0.78896679382E+00  0.67728563745E+00  0.90007708900E+02  0.89999969858E+02 0.  0.
        -12    1    1    2    0    0  0.55848244688E+00  0.78896679382E+00 -0.67728563745E+00  0.11802910997E+01  0.00000000000E+00 0.  1.
         11    1    3    3    0    0  0.97033815744E+01 -0.10599280243E+02 -0.48990251014E+01  0.15182252891E+02  0.51100000000E-03 0. -1.
        -11    1    3    3    0    0  0.15697508064E+02 -0.26009758132E+02  0.21894549851E+01  0.30458381292E+02  0.51100000000E-03 0.  1.
         12    1    3    3    0    0 -0.25959372086E+02  0.35820071581E+02  0.33868557538E+01  0.44367074718E+02  0.00000000000E+00 0. -1.
</event>
<event>
 7    1  0.1910099E-015  0.9000777E+02  0.7816164E-02  0.1186339E+00
        -11   -1    0    0    0    0  0.00000000000E+00  0.00000000000E+00  0.45593999997E+02  0.45594000000E+02  0.51100000000E-03 0.  1.
         11   -1    0    0    0    0 -0.00000000000E+00 -0.00000000000E+00 -0.45593999997E+02  0.45594000000E+02  0.51100000000E-03 0. -1.
    9900012    2    1    2    0    0 -0.77204072005E-01 -0.97025543286E+00 -0.66751421542E+00  0.90007774894E+02  0.90000036722E+02 0.  0.
        -12    1    1    2    0    0  0.77204072005E-01  0.97025543286E+00  0.66751421542E+00  0.11802251063E+01  0.00000000000E+00 0.  1.
         11    1    3    3    0    0  0.71810482689E+01  0.68534482882E+01 -0.55042755055E+00  0.99418397910E+01  0.51100000000E-03 0. -1.
        -11    1    3    3    0    0 -0.15929220333E+02 -0.22359608106E+02  0.32968464732E+02  0.42902351941E+02  0.51100000000E-03 0.  1.
         12    1    3    3    0    0  0.86709679919E+01  0.14535904384E+02 -0.33085551397E+02  0.37163583162E+02  0.00000000000E+00 0. -1.
</event>
<event>
 7    1  0.1910099E-015  0.9000771E+02  0.7816164E-02  0.1186339E+00
        -11   -1    0    0    0    0  0.00000000000E+00  0.00000000000E+00  0.45593999997E+02  0.45594000000E+02  0.51100000000E-03 0. -1.
         11   -1    0    0    0    0 -0.00000000000E+00 -0.00000000000E+00 -0.45593999997E+02  0.45594000000E+02  0.51100000000E-03 0.  1.
    9900012    2    1    2    0    0  0.58095520556E+00 -0.94202814716E+00 -0.41006594443E+00  0.90007711874E+02  0.89999972871E+02 0.  0.
        -12    1    1    2    0    0 -0.58095520556E+00  0.94202814716E+00  0.41006594443E+00  0.11802881257E+01  0.00000000000E+00 0.  1.
         11    1    3    3    0    0 -0.69614948414E+01 -0.46910989327E+01  0.59670868346E+01  0.10299269157E+02  0.51100000000E-03 0. -1.
        -11    1    3    3    0    0 -0.10081739186E+02 -0.20060597315E+02 -0.32977885158E+02  0.39894986395E+02  0.51100000000E-03 0.  1.
         12    1    3    3    0    0  0.17624189233E+02  0.23809668101E+02  0.26600732379E+02  0.39813456322E+02  0.00000000000E+00 0. -1.
</event>
<event>
 7    1  0.1910099E-015  0.9000788E+02  0.7816164E-02  0.1186339E+00
        -11   -1    0    0    0    0  0.00000000000E+00  0.00000000000E+00  0.45593999997E+02  0.45594000000E+02  0.51100000000E-03 0. -1.
         11   -1    0    0    0    0 -0.00000000000E+00 -0.00000000000E+00 -0.45593999997E+02  0.45594000000E+02  0.51100000000E-03 0.  1.
    9900012    2    1    2    0    0 -0.11297145016E+01  0.10981876876E+00 -0.32306318683E+00  0.90007879311E+02  0.90000142518E+02 0.  0.
        -12    1    1    2    0    0  0.11297145016E+01 -0.10981876876E+00  0.32306318683E+00  0.11801206887E+01  0.00000000000E+00 0.  1.
         11    1    3    3    0    0  0.11208626998E+02  0.33063616697E+01  0.51666126807E+01  0.12777293670E+02  0.51100000000E-03 0. -1.
        -11    1    3    3    0    0 -0.43813255162E+02 -0.96409272623E+01 -0.18835472306E+01  0.44900963874E+02  0.51100000000E-03 0.  1.
         12    1    3    3    0    0  0.31474913663E+02  0.64443843614E+01 -0.36061286369E+01  0.32329621767E+02  0.00000000000E+00 0. -1.
</event>
<event>
 7    1  0.1910099E-015  0.9000775E+02  0.7816164E-02  0.1186339E+00
        -11   -1    0    0    0    0  0.00000000000E+00  0.00000000000E+00  0.45593999997E+02  0.45594000000E+02  0.51100000000E-03 0. -1.
         11   -1    0    0    0    0 -0.00000000000E+00 -0.00000000000E+00 -0.45593999997E+02  0.45594000000E+02  0.51100000000E-03 0.  1.
    9900012    2    1    2    0    0 -0.61888888864E+00 -0.94872200630E+00  0.33150183716E+00  0.90007749870E+02  0.90000011368E+02 0.  0.
        -12    1    1    2    0    0  0.61888888864E+00  0.94872200630E+00 -0.33150183716E+00  0.11802501302E+01  0.00000000000E+00 0.  1.
         11    1    3    3    0    0  0.70785464149E+01  0.18217554956E+01  0.52813856133E+01  0.90176297712E+01  0.51100000000E-03 0. -1.
        -11    1    3    3    0    0  0.10926222799E+02 -0.37948501283E+02 -0.10344455237E+02  0.40822528691E+02  0.51100000000E-03 0.  1.
         12    1    3    3    0    0 -0.18623658102E+02  0.35178023781E+02  0.53945714614E+01  0.40167591408E+02  0.00000000000E+00 0. -1.
</event>
<event>
 7    1  0.1910099E-015  0.9000769E+02  0.7816164E-02  0.1186339E+00
        -11   -1    0    0    0    0  0.00000000000E+00  0.00000000000E+00  0.45593999997E+02  0.45594000000E+02  0.51100000000E-03 0.  1.
         11   -1    0    0    0    0 -0.00000000000E+00 -0.00000000000E+00 -0.45593999997E+02  0.45594000000E+02  0.51100000000E-03 0. -1.
    9900012    2    1    2    0    0  0.42230652836E+00  0.70586232082E-01 -0.10999086233E+01  0.90007693176E+02  0.89999953926E+02 0.  0.
        -12    1    1    2    0    0 -0.42230652836E+00 -0.70586232082E-01  0.10999086233E+01  0.11803068244E+01  0.00000000000E+00 0.  1.
         11    1    3    3    0    0  0.39079795608E+02 -0.24154386650E+01  0.31452071118E+01  0.39280492573E+02  0.51100000000E-03 0. -1.
        -11    1    3    3    0    0  0.17238114476E+01 -0.72860245472E+01  0.38190786855E+01  0.84049415153E+01  0.51100000000E-03 0.  1.
        -12    1    3    3    0    0 -0.40381300527E+02  0.97720494443E+01 -0.80641944206E+01  0.42322259088E+02  0.00000000000E+00 0.  1.
</event>
<event>
 7    1  0.1910099E-015  0.9000781E+02  0.7816164E-02  0.1186339E+00
        -11   -1    0    0    0    0  0.00000000000E+00  0.00000000000E+00  0.45593999997E+02  0.45594000000E+02  0.51100000000E-03 0. -1.
         11   -1    0    0    0    0 -0.00000000000E+00 -0.00000000000E+00 -0.45593999997E+02  0.45594000000E+02  0.51100000000E-03 0.  1.
    9900012    2    1    2    0    0 -0.67073291334E+00 -0.23399516641E+00  0.94244849669E+00  0.90007811224E+02  0.90000073532E+02 0.  0.
        -12    1    1    2    0    0  0.67073291334E+00  0.23399516641E+00 -0.94244849669E+00  0.11801887764E+01  0.00000000000E+00 0.  1.
         11    1    3    3    0    0  0.86863143335E+01  0.36552334124E+02  0.48758648276E+01  0.37885343402E+02  0.51100000000E-03 0. -1.
        -11    1    3    3    0    0 -0.58269354585E+01  0.51667853279E+01  0.47678520347E+01  0.91313340070E+01  0.51100000000E-03 0.  1.
        -12    1    3    3    0    0 -0.35301117883E+01 -0.41953114619E+02 -0.87012683657E+01  0.42991133814E+02  0.00000000000E+00 0.  1.
</event>
<event>
 7    1  0.1910099E-015  0.9000774E+02  0.7816164E-02  0.1186339E+00
        -11   -1    0    0    0    0  0.00000000000E+00  0.00000000000E+00  0.45593999997E+02  0.45594000000E+02  0.51100000000E-03 0. -1.
         11   -1    0    0    0    0 -0.00000000000E+00 -0.00000000000E+00 -0.45593999997E+02  0.45594000000E+02  0.51100000000E-03 0.  1.
    9900012    2    1    2    0    0 -0.33837356494E+00  0.70379692781E-01  0.11285246108E+01  0.90007738263E+02  0.89999999608E+02 0.  0.
        -12    1    1    2    0    0  0.33837356494E+00 -0.70379692781E-01 -0.11285246108E+01  0.11802617370E+01  0.00000000000E+00 0.  1.
         11    1    3    3    0    0  0.16137115829E+01 -0.32057099151E+02  0.12925189231E+02  0.34602343678E+02  0.51100000000E-03 0. -1.
        -11    1    3    3    0    0  0.83916871217E+01 -0.50283951709E+01  0.74541537938E+01  0.12299169882E+02  0.51100000000E-03 0.  1.
        -12    1    3    3    0    0 -0.10343772269E+02  0.37155874015E+02 -0.19250818414E+02  0.43106224703E+02  0.00000000000E+00 0.  1.
</event>
<event>
 7    1  0.1910099E-015  0.9000770E+02  0.7816164E-02  0.1186339E+00
        -11   -1    0    0    0    0  0.00000000000E+00  0.00000000000E+00  0.45593999997E+02  0.45594000000E+02  0.51100000000E-03 0. -1.
         11   -1    0    0    0    0 -0.00000000000E+00 -0.00000000000E+00 -0.45593999997E+02  0.45594000000E+02  0.51100000000E-03 0.  1.
    9900012    2    1    2    0    0 -0.27896688204E+00 -0.66489866624E-02  0.11468394208E+01  0.90007700298E+02  0.89999961142E+02 0.  0.
        -12    1    1    2    0    0  0.27896688204E+00  0.66489866624E-02 -0.11468394208E+01  0.11802997024E+01  0.00000000000E+00 0.  1.
         11    1    3    3    0    0 -0.19356788434E+02  0.90460855934E+01  0.30766289807E+02  0.37457729667E+02  0.51100000000E-03 0. -1.
        -11    1    3    3    0    0 -0.19644621271E+01 -0.36436318969E+01  0.80569073903E+01  0.90580859902E+01  0.51100000000E-03 0.  1.
        -12    1    3    3    0    0  0.21042283679E+02 -0.54091026832E+01 -0.37676357777E+02  0.43491884640E+02  0.00000000000E+00 0.  1.
</event>
<event>
 7    1  0.1910099E-015  0.9000755E+02  0.7816164E-02  0.1186339E+00
        -11   -1    0    0    0    0  0.00000000000E+00  0.00000000000E+00  0.45593999997E+02  0.45594000000E+02  0.51100000000E-03 0.  1.
         11   -1    0    0    0    0 -0.00000000000E+00 -0.00000000000E+00 -0.45593999997E+02  0.45594000000E+02  0.51100000000E-03 0. -1.
    9900012    2    1    2    0    0  0.11628486560E+01  0.19208868672E+00  0.65843403313E-01  0.90007554993E+02  0.89999813919E+02 0.  0.
        -12    1    1    2    0    0 -0.11628486560E+01 -0.19208868672E+00 -0.65843403313E-01  0.11804450068E+01  0.00000000000E+00 0.  1.
         11    1    3    3    0    0  0.28044060609E+02  0.32560358877E+02  0.90582194078E+00  0.42982168620E+02  0.51100000000E-03 0. -1.
        -11    1    3    3    0    0 -0.20151236907E+01 -0.54948157713E+01 -0.78052784796E+01  0.97558237097E+01  0.51100000000E-03 0.  1.
        -12    1    3    3    0    0 -0.24866088262E+02 -0.26873454419E+02  0.69652999421E+01  0.37269562664E+02  0.00000000000E+00 0.  1.
</event>
<event>
 7    1  0.1910099E-015  0.9000773E+02  0.7816164E-02  0.1186339E+00
        -11   -1    0    0    0    0  0.00000000000E+00  0.00000000000E+00  0.45593999997E+02  0.45594000000E+02  0.51100000000E-03 0. -1.
         11   -1    0    0    0    0 -0.00000000000E+00 -0.00000000000E+00 -0.45593999997E+02  0.45594000000E+02  0.51100000000E-03 0.  1.
    9900012    2    1    2    0    0 -0.88884456724E+00  0.26949999144E+00  0.72826422758E+00  0.90007727279E+02  0.89999988479E+02 0.  0.
        -12    1    1    2    0    0  0.88884456724E+00 -0.26949999144E+00 -0.72826422758E+00  0.11802727207E+01  0.00000000000E+00 0.  1.
         11    1    3    3    0    0  0.71016053966E+01  0.40435148991E+01  0.23662002016E+01  0.85077444487E+01  0.51100000000E-03 0. -1.
        -11    1    3    3    0    0  0.18558084696E+02 -0.23645186073E+01 -0.34490556910E+02  0.39237634638E+02  0.51100000000E-03 0.  1.
         12    1    3    3    0    0 -0.26548534660E+02 -0.14094963004E+01  0.32852620936E+02  0.42262348192E+02  0.00000000000E+00 0. -1.
</event>
<event>
 7    1  0.1910099E-015  0.9000780E+02  0.7816164E-02  0.1186339E+00
        -11   -1    0    0    0    0  0.00000000000E+00  0.00000000000E+00  0.45593999997E+02  0.45594000000E+02  0.51100000000E-03 0.  1.
         11   -1    0    0    0    0 -0.00000000000E+00 -0.00000000000E+00 -0.45593999997E+02  0.45594000000E+02  0.51100000000E-03 0. -1.
    9900012    2    1    2    0    0 -0.10423738845E+01  0.17554381713E-01 -0.55319591607E+00  0.90007797817E+02  0.90000059948E+02 0.  0.
        -12    1    1    2    0    0  0.10423738845E+01 -0.17554381713E-01  0.55319591607E+00  0.11802021831E+01  0.00000000000E+00 0.  1.
         11    1    3    3    0    0 -0.90674683282E+00  0.14405534169E+02 -0.17698632288E+02  0.22838195849E+02  0.51100000000E-03 0. -1.
        -11    1    3    3    0    0 -0.30940882636E+02 -0.27549310656E+01  0.26011852794E+01  0.31172007131E+02  0.51100000000E-03 0.  1.
         12    1    3    3    0    0  0.30805255584E+02 -0.11633048721E+02  0.14544251093E+02  0.35997594837E+02  0.00000000000E+00 0. -1.
</event>
<event>
 7    1  0.1910099E-015  0.9000774E+02  0.7816164E-02  0.1186339E+00
        -11   -1    0    0    0    0  0.00000000000E+00  0.00000000000E+00  0.45593999997E+02  0.45594000000E+02  0.51100000000E-03 0.  1.
         11   -1    0    0    0    0 -0.00000000000E+00 -0.00000000000E+00 -0.45593999997E+02  0.45594000000E+02  0.51100000000E-03 0. -1.
    9900012    2    1    2    0    0 -0.93687836120E+00 -0.61381060536E+00 -0.37217261598E+00  0.90007738597E+02  0.89999999947E+02 0.  0.
        -12    1    1    2    0    0  0.93687836120E+00  0.61381060536E+00  0.37217261598E+00  0.11802614028E+01  0.00000000000E+00 0.  1.
         11    1    3    3    0    0  0.66461075243E+01 -0.34863926946E+02 -0.15570810490E+02  0.38757119177E+02  0.51100000000E-03 0. -1.
        -11    1    3    3    0    0 -0.19446171138E+01 -0.86925376001E+00 -0.83337441311E+01  0.86016527088E+01  0.51100000000E-03 0.  1.
        -12    1    3    3    0    0 -0.56383687717E+01  0.35119370101E+02  0.23532382005E+02  0.42648966711E+02  0.00000000000E+00 0.  1.
</event>
<event>
 7    1  0.1910099E-015  0.9000770E+02  0.7816164E-02  0.1186339E+00
        -11   -1    0    0    0    0  0.00000000000E+00  0.00000000000E+00  0.45593999997E+02  0.45594000000E+02  0.51100000000E-03 0. -1.
         11   -1    0    0    0    0 -0.00000000000E+00 -0.00000000000E+00 -0.45593999997E+02  0.45594000000E+02  0.51100000000E-03 0.  1.
    9900012    2    1    2    0    0 -0.97733287466E+00 -0.43431788025E+00  0.49929220643E+00  0.90007701616E+02  0.89999962477E+02 0.  0.
        -12    1    1    2    0    0  0.97733287466E+00  0.43431788025E+00 -0.49929220643E+00  0.11802983845E+01  0.00000000000E+00 0.  1.
         11    1    3    3    0    0  0.16891377876E+02 -0.37575227928E+01  0.37650952313E+02  0.41437082842E+02  0.51100000000E-03 0. -1.
        -11    1    3    3    0    0  0.43904596368E+01  0.64579215672E+01 -0.47671477358E+01  0.91491302640E+01  0.51100000000E-03 0.  1.
        -12    1    3    3    0    0 -0.22259170388E+02 -0.31347166546E+01 -0.32384512371E+02  0.39421488510E+02  0.00000000000E+00 0.  1.
</event>
<event>
 7    1  0.1910099E-015  0.9000780E+02  0.7816164E-02  0.1186339E+00
        -11   -1    0    0    0    0  0.00000000000E+00  0.00000000000E+00  0.45593999997E+02  0.45594000000E+02  0.51100000000E-03 0.  1.
         11   -1    0    0    0    0 -0.00000000000E+00 -0.00000000000E+00 -0.45593999997E+02  0.45594000000E+02  0.51100000000E-03 0. -1.
    9900012    2    1    2    0    0 -0.83028723134E+00  0.85012138679E-01 -0.83442593194E+00  0.90007800616E+02  0.90000062784E+02 0.  0.
        -12    1    1    2    0    0  0.83028723134E+00 -0.85012138679E-01  0.83442593194E+00  0.11801993841E+01  0.00000000000E+00 0.  1.
         11    1    3    3    0    0 -0.33741061468E+02 -0.13881253206E+02 -0.96638174125E+01  0.37743049517E+02  0.51100000000E-03 0. -1.
        -11    1    3    3    0    0 -0.29677317281E+01 -0.83347486757E+01 -0.96449062554E+00  0.88997589588E+01  0.51100000000E-03 0.  1.
        -12    1    3    3    0    0  0.35878505965E+02  0.22301014020E+02  0.97938821061E+01  0.43364992140E+02  0.00000000000E+00 0.  1.
</event>
<event>
 7    1  0.1910099E-015  0.9000774E+02  0.7816164E-02  0.1186339E+00
        -11   -1    0    0    0    0  0.00000000000E+00  0.00000000000E+00  0.45593999997E+02  0.45594000000E+02  0.51100000000E-03 0.  1.
         11   -1    0    0    0    0 -0.00000000000E+00 -0.00000000000E+00 -0.45593999997E+02  0.45594000000E+02  0.51100000000E-03 0. -1.
    9900012    2    1    2    0    0 -0.16037739584E+00  0.11516888389E+01  0.20225942681E+00  0.90007738602E+02  0.89999999952E+02 0.  0.
        -12    1    1    2    0    0  0.16037739584E+00 -0.11516888389E+01 -0.20225942681E+00  0.11802613975E+01  0.00000000000E+00 0.  1.
         11    1    3    3    0    0 -0.48476830190E+01 -0.76331778368E+01 -0.26937650605E+01  0.94351367242E+01  0.51100000000E-03 0. -1.
        -11    1    3    3    0    0  0.27039233773E+02  0.16461868026E+02  0.30688866573E+02  0.44089905803E+02  0.51100000000E-03 0.  1.
         12    1    3    3    0    0 -0.22351928150E+02 -0.76770013506E+01 -0.27792842085E+02  0.36482696075E+02  0.00000000000E+00 0. -1.
</event>
<event>
 7    1  0.1910099E-015  0.9000775E+02  0.7816164E-02  0.1186339E+00
        -11   -1    0    0    0    0  0.00000000000E+00  0.00000000000E+00  0.45593999997E+02  0.45594000000E+02  0.51100000000E-03 0.  1.
         11   -1    0    0    0    0 -0.00000000000E+00 -0.00000000000E+00 -0.45593999997E+02  0.45594000000E+02  0.51100000000E-03 0. -1.
    9900012    2    1    2    0    0 -0.60811012591E+00  0.16974149173E+00 -0.99718517730E+00  0.90007750714E+02  0.90000012223E+02 0.  0.
        -12    1    1    2    0    0  0.60811012591E+00 -0.16974149173E+00  0.99718517730E+00  0.11802492860E+01  0.00000000000E+00 0.  1.
         11    1    3    3    0    0  0.10089805410E+01  0.46857397171E+01  0.81229304502E+01  0.94316593338E+01  0.51100000000E-03 0. -1.
        -11    1    3    3    0    0  0.20268205515E+02 -0.35849007338E+02  0.41968034119E+00  0.41184069902E+02  0.51100000000E-03 0.  1.
         12    1    3    3    0    0 -0.21885296182E+02  0.31333009112E+02 -0.95397959687E+01  0.39392021478E+02  0.00000000000E+00 0. -1.
</event>
<event>
 7    1  0.1910099E-015  0.9000787E+02  0.7816164E-02  0.1186339E+00
        -11   -1    0    0    0    0  0.00000000000E+00  0.00000000000E+00  0.45593999997E+02  0.45594000000E+02  0.51100000000E-03 0.  1.
         11   -1    0    0    0    0 -0.00000000000E+00 -0.00000000000E+00 -0.45593999997E+02  0.45594000000E+02  0.51100000000E-03 0. -1.
    9900012    2    1    2    0    0 -0.50365261779E+00  0.80352956249E+00 -0.70241143304E+00  0.90007869694E+02  0.90000132774E+02 0.  0.
        -12    1    1    2    0    0  0.50365261779E+00 -0.80352956249E+00  0.70241143304E+00  0.11801303057E+01  0.00000000000E+00 0.  1.
         11    1    3    3    0    0 -0.63707649146E+01 -0.21890401375E+01 -0.65421671527E+01  0.93903404430E+01  0.51100000000E-03 0. -1.
        -11    1    3    3    0    0 -0.25221332464E+02 -0.77020442968E+01 -0.24415470265E+02  0.35938173105E+02  0.51100000000E-03 0.  1.
         12    1    3    3    0    0  0.31088444761E+02  0.10694613997E+02  0.30255225985E+02  0.44679356146E+02  0.00000000000E+00 0. -1.
</event>
<event>
 7    1  0.1910099E-015  0.9000891E+02  0.7816164E-02  0.1186337E+00
        -11   -1    0    0    0    0  0.00000000000E+00  0.00000000000E+00  0.45593999997E+02  0.45594000000E+02  0.51100000000E-03 0.  1.
         11   -1    0    0    0    0 -0.00000000000E+00 -0.00000000000E+00 -0.45593999997E+02  0.45594000000E+02  0.51100000000E-03 0. -1.
    9900012    2    1    2    0    0  0.46279562378E+00  0.10704615398E+01  0.17373164973E+00  0.90008911206E+02  0.90001188026E+02 0.  0.
        -12    1    1    2    0    0 -0.46279562378E+00 -0.10704615398E+01 -0.17373164973E+00  0.11790887938E+01  0.00000000000E+00 0.  1.
         11    1    3    3    0    0 -0.10853944437E+02 -0.18291301419E+02 -0.28324700767E+02  0.35421299966E+02  0.51100000000E-03 0. -1.
        -11    1    3    3    0    0  0.95003944894E+01 -0.14648582186E+01 -0.80131488275E+01  0.12514545914E+02  0.51100000000E-03 0.  1.
        -12    1    3    3    0    0  0.18163455717E+01  0.20826621178E+02  0.36511581245E+02  0.42073065326E+02  0.00000000000E+00 0.  1.
</event>
<event>
 7    1  0.1959578E-015  0.9000806E+02  0.7816164E-02  0.1186338E+00
        -11   -1    0    0    0    0  0.00000000000E+00  0.00000000000E+00  0.45593999997E+02  0.45594000000E+02  0.51100000000E-03 0.  1.
         11   -1    0    0    0    0 -0.00000000000E+00 -0.00000000000E+00 -0.45593999997E+02  0.45594000000E+02  0.51100000000E-03 0. -1.
    9900012    2    1    2    0    0  0.13434717611E+00 -0.89835186513E+00 -0.75310200676E+00  0.90008064464E+02  0.90000330114E+02 0.  0.
        -12    1    1    2    0    0 -0.13434717611E+00  0.89835186513E+00  0.75310200676E+00  0.11799355363E+01  0.00000000000E+00 0.  1.
         11    1    3    3    0    0  0.43436496351E+01 -0.72913189402E+01  0.51158055315E+01  0.99096967934E+01  0.51100000000E-03 0. -1.
        -11    1    3    3    0    0 -0.33790022657E+02 -0.10942977783E+02  0.16496937948E+02  0.39162014195E+02  0.51100000000E-03 0.  1.
         12    1    3    3    0    0  0.29580720198E+02  0.17335944858E+02 -0.22365845487E+02  0.40936353475E+02  0.00000000000E+00 0. -1.
</event>
<event>
 7    1  0.1910099E-015  0.9000764E+02  0.7816164E-02  0.1186339E+00
        -11   -1    0    0    0    0  0.00000000000E+00  0.00000000000E+00  0.45593999997E+02  0.45594000000E+02  0.51100000000E-03 0.  1.
         11   -1    0    0    0    0 -0.00000000000E+00 -0.00000000000E+00 -0.45593999997E+02  0.45594000000E+02  0.51100000000E-03 0. -1.
    9900012    2    1    2    0    0  0.33791946317E+00  0.66249842717E+00 -0.91659830455E+00  0.90007641503E+02  0.89999901571E+02 0.  0.
        -12    1    1    2    0    0 -0.33791946317E+00 -0.66249842717E+00  0.91659830455E+00  0.11803584970E+01  0.00000000000E+00 0.  1.
         11    1    3    3    0    0 -0.24332167029E+02  0.32628825140E+02 -0.40713371615E+01  0.40905627594E+02  0.51100000000E-03 0. -1.
        -11    1    3    3    0    0  0.79189160666E+01  0.39199238367E+01 -0.22853882379E+01  0.91267756746E+01  0.51100000000E-03 0.  1.
        -12    1    3    3    0    0  0.16751170425E+02 -0.35886250549E+02  0.54401270948E+01  0.39975238234E+02  0.00000000000E+00 0.  1.
</event>
<event>
 7    1  0.1910099E-015  0.9000763E+02  0.7816164E-02  0.1186339E+00
        -11   -1    0    0    0    0  0.00000000000E+00  0.00000000000E+00  0.45593999997E+02  0.45594000000E+02  0.51100000000E-03 0. -1.
         11   -1    0    0    0    0 -0.00000000000E+00 -0.00000000000E+00 -0.45593999997E+02  0.45594000000E+02  0.51100000000E-03 0.  1.
    9900012    2    1    2    0    0 -0.84806432158E+00 -0.11149798210E+00 -0.81340018032E+00  0.90007633639E+02  0.89999893603E+02 0.  0.
        -12    1    1    2    0    0  0.84806432158E+00  0.11149798210E+00  0.81340018032E+00  0.11803663613E+01  0.00000000000E+00 0.  1.
         11    1    3    3    0    0  0.26344425873E+01 -0.69780569692E+00  0.99899798377E+01  0.10355043117E+02  0.51100000000E-03 0. -1.
        -11    1    3    3    0    0 -0.35195226668E+02 -0.10878368971E+02 -0.23415195732E+02  0.43649905877E+02  0.51100000000E-03 0.  1.
         12    1    3    3    0    0  0.31712719759E+02  0.11464676686E+02  0.12611815714E+02  0.36002684644E+02  0.00000000000E+00 0. -1.
</event>
<event>
 7    1  0.2263614E-015  0.9000781E+02  0.7816164E-02  0.1186339E+00
        -11   -1    0    0    0    0  0.00000000000E+00  0.00000000000E+00  0.45593999997E+02  0.45594000000E+02  0.51100000000E-03 0.  1.
         11   -1    0    0    0    0 -0.00000000000E+00 -0.00000000000E+00 -0.45593999997E+02  0.45594000000E+02  0.51100000000E-03 0. -1.
    9900012    2    1    2    0    0 -0.10479564636E+01 -0.71903993511E-01 -0.53802392300E+00  0.90007808204E+02  0.90000070472E+02 0.  0.
        -12    1    1    2    0    0  0.10479564636E+01  0.71903993511E-01  0.53802392300E+00  0.11801917961E+01  0.00000000000E+00 0.  1.
         11    1    3    3    0    0  0.64141573361E+01  0.57534208669E+01 -0.45265360355E+01  0.97330773523E+01  0.51100000000E-03 0. -1.
        -11    1    3    3    0    0 -0.61764099684E+01  0.34140683109E+02  0.16441989161E+02  0.38393662121E+02  0.51100000000E-03 0.  1.
         12    1    3    3    0    0 -0.12857038313E+01 -0.39966007970E+02 -0.12453477048E+02  0.41881068730E+02  0.00000000000E+00 0. -1.
</event>
<event>
 7    1  0.1910099E-015  0.9000773E+02  0.7816164E-02  0.1186339E+00
        -11   -1    0    0    0    0  0.00000000000E+00  0.00000000000E+00  0.45593999997E+02  0.45594000000E+02  0.51100000000E-03 0.  1.
         11   -1    0    0    0    0 -0.00000000000E+00 -0.00000000000E+00 -0.45593999997E+02  0.45594000000E+02  0.51100000000E-03 0. -1.
    9900012    2    1    2    0    0  0.10592008949E+01  0.51214530554E+00 -0.94036327070E-01  0.90007727921E+02  0.89999989129E+02 0.  0.
        -12    1    1    2    0    0 -0.10592008949E+01 -0.51214530554E+00  0.94036327070E-01  0.11802720791E+01  0.00000000000E+00 0.  1.
         11    1    3    3    0    0 -0.30160381158E+02 -0.17825752618E+01  0.19021496493E+02  0.35702149728E+02  0.51100000000E-03 0. -1.
        -11    1    3    3    0    0 -0.65450990825E+01 -0.76877022319E+00  0.59478521353E+01  0.88772898421E+01  0.51100000000E-03 0.  1.
        -12    1    3    3    0    0  0.37764681135E+02  0.30634907905E+01 -0.25063384955E+02  0.45428288351E+02  0.00000000000E+00 0.  1.
</event>
<event>
 7    1  0.1910099E-015  0.9000766E+02  0.7816164E-02  0.1186339E+00
        -11   -1    0    0    0    0  0.00000000000E+00  0.00000000000E+00  0.45593999997E+02  0.45594000000E+02  0.51100000000E-03 0.  1.
         11   -1    0    0    0    0 -0.00000000000E+00 -0.00000000000E+00 -0.45593999997E+02  0.45594000000E+02  0.51100000000E-03 0. -1.
    9900012    2    1    2    0    0  0.62584890371E+00 -0.43674245678E+00  0.90042567026E+00  0.90007662247E+02  0.89999922588E+02 0.  0.
        -12    1    1    2    0    0 -0.62584890371E+00  0.43674245678E+00 -0.90042567026E+00  0.11803377531E+01  0.00000000000E+00 0.  1.
         11    1    3    3    0    0 -0.16876696358E+02  0.60338679496E+01 -0.32021646948E+02  0.36696271144E+02  0.51100000000E-03 0. -1.
        -11    1    3    3    0    0 -0.52551314343E+01  0.81375398689E+01 -0.12128572083E+01  0.97625296096E+01  0.51100000000E-03 0.  1.
        -12    1    3    3    0    0  0.22757676696E+02 -0.14608150275E+02  0.34134929826E+02  0.43548861493E+02  0.00000000000E+00 0.  1.
</event>
<event>
 7    1  0.1910099E-015  0.9000769E+02  0.7816164E-02  0.1186339E+00
        -11   -1    0    0    0    0  0.00000000000E+00  0.00000000000E+00  0.45593999997E+02  0.45594000000E+02  0.51100000000E-03 0. -1.
         11   -1    0    0    0    0 -0.00000000000E+00 -0.00000000000E+00 -0.45593999997E+02  0.45594000000E+02  0.51100000000E-03 0.  1.
    9900012    2    1    2    0    0  0.10170312679E+01 -0.22082481572E+00 -0.55679784426E+00  0.90007686466E+02  0.89999947127E+02 0.  0.
        -12    1    1    2    0    0 -0.10170312679E+01  0.22082481572E+00  0.55679784426E+00  0.11803135339E+01  0.00000000000E+00 0.  1.
         11    1    3    3    0    0  0.67852221230E+01  0.37794651838E+01  0.33771235784E+01  0.84692715306E+01  0.51100000000E-03 0. -1.
        -11    1    3    3    0    0  0.20799343747E+02  0.13990442192E+02  0.27089015448E+02  0.36907450890E+02  0.51100000000E-03 0.  1.
         12    1    3    3    0    0 -0.26567534602E+02 -0.17990732191E+02 -0.31022936870E+02  0.44630964046E+02  0.00000000000E+00 0. -1.
</event>
<event>
 7    1  0.1910099E-015  0.9000777E+02  0.7816164E-02  0.1186339E+00
        -11   -1    0    0    0    0  0.00000000000E+00  0.00000000000E+00  0.45593999997E+02  0.45594000000E+02  0.51100000000E-03 0. -1.
         11   -1    0    0    0    0 -0.00000000000E+00 -0.00000000000E+00 -0.45593999997E+02  0.45594000000E+02  0.51100000000E-03 0.  1.
    9900012    2    1    2    0    0  0.10977944316E+01 -0.42573287062E+00  0.80896438820E-01  0.90007768953E+02  0.90000030703E+02 0.  0.
        -12    1    1    2    0    0 -0.10977944316E+01  0.42573287062E+00 -0.80896438820E-01  0.11802310473E+01  0.00000000000E+00 0.  1.
         11    1    3    3    0    0  0.36746418186E+02 -0.76203301276E+01 -0.94009585095E+01  0.38687810767E+02  0.51100000000E-03 0. -1.
        -11    1    3    3    0    0  0.67629564577E+01 -0.88029843026E+00 -0.99838470412E+00  0.68926974149E+01  0.51100000000E-03 0.  1.
        -12    1    3    3    0    0 -0.42411580212E+02  0.80748956872E+01  0.10480239652E+02  0.44427260771E+02  0.00000000000E+00 0.  1.
</event>
<event>
 7    1  0.1910099E-015  0.9000782E+02  0.7816164E-02  0.1186339E+00
        -11   -1    0    0    0    0  0.00000000000E+00  0.00000000000E+00  0.45593999997E+02  0.45594000000E+02  0.51100000000E-03 0.  1.
         11   -1    0    0    0    0 -0.00000000000E+00 -0.00000000000E+00 -0.45593999997E+02  0.45594000000E+02  0.51100000000E-03 0. -1.
    9900012    2    1    2    0    0  0.25318783708E+00  0.46577218243E+00  0.10544036440E+01  0.90007824229E+02  0.90000086708E+02 0.  0.
        -12    1    1    2    0    0 -0.25318783708E+00 -0.46577218243E+00 -0.10544036440E+01  0.11801757714E+01  0.00000000000E+00 0.  1.
         11    1    3    3    0    0  0.76372666535E+01  0.35802592504E+02 -0.89302697986E+01  0.37681602818E+02  0.51100000000E-03 0. -1.
        -11    1    3    3    0    0  0.54621422834E+01  0.12256476349E+01 -0.78696285030E+01  0.96575495590E+01  0.51100000000E-03 0.  1.
        -12    1    3    3    0    0 -0.12846221100E+02 -0.36562467957E+02  0.17854301946E+02  0.42668671852E+02  0.00000000000E+00 0.  1.
</event>
<event>
 7    1  0.1910099E-015  0.9000774E+02  0.7816164E-02  0.1186339E+00
        -11   -1    0    0    0    0  0.00000000000E+00  0.00000000000E+00  0.45593999997E+02  0.45594000000E+02  0.51100000000E-03 0.  1.
         11   -1    0    0    0    0 -0.00000000000E+00 -0.00000000000E+00 -0.45593999997E+02  0.45594000000E+02  0.51100000000E-03 0. -1.
    9900012    2    1    2    0    0  0.11612784178E+01  0.20835318830E+00  0.32351495104E-01  0.90007735100E+02  0.89999996403E+02 0.  0.
        -12    1    1    2    0    0 -0.11612784178E+01 -0.20835318830E+00 -0.32351495104E-01  0.11802648999E+01  0.00000000000E+00 0.  1.
         11    1    3    3    0    0 -0.21437280643E+02 -0.29318670601E+02  0.37168873003E+01  0.36509679519E+02  0.51100000000E-03 0. -1.
        -11    1    3    3    0    0 -0.18065647062E+01 -0.55610007820E+01  0.73148200595E+01  0.93645607745E+01  0.51100000000E-03 0.  1.
        -12    1    3    3    0    0  0.24405123767E+02  0.35088024571E+02 -0.10999355865E+02  0.44133494806E+02  0.00000000000E+00 0.  1.
</event>
<event>
 7    1  0.1910099E-015  0.9000758E+02  0.7816164E-02  0.1186339E+00
        -11   -1    0    0    0    0  0.00000000000E+00  0.00000000000E+00  0.45593999997E+02  0.45594000000E+02  0.51100000000E-03 0. -1.
         11   -1    0    0    0    0 -0.00000000000E+00 -0.00000000000E+00 -0.45593999997E+02  0.45594000000E+02  0.51100000000E-03 0.  1.
    9900012    2    1    2    0    0 -0.10279693852E+01  0.31831963396E+00 -0.48511307500E+00  0.90007583488E+02  0.89999842790E+02 0.  0.
        -12    1    1    2    0    0  0.10279693852E+01 -0.31831963396E+00  0.48511307500E+00  0.11804165120E+01  0.00000000000E+00 0.  1.
         11    1    3    3    0    0  0.52763531988E+01 -0.18925226142E+02  0.34198381202E+02  0.39440250565E+02  0.51100000000E-03 0. -1.
        -11    1    3    3    0    0 -0.45112528394E+01  0.10796848827E+02  0.28581522566E+01  0.12045429895E+02  0.51100000000E-03 0.  1.
        -12    1    3    3    0    0 -0.17930697446E+01  0.84466969490E+01 -0.37541646533E+02  0.38521903028E+02  0.00000000000E+00 0.  1.
</event>
<event>
 7    1  0.1910099E-015  0.9000771E+02  0.7816164E-02  0.1186339E+00
        -11   -1    0    0    0    0  0.00000000000E+00  0.00000000000E+00  0.45593999997E+02  0.45594000000E+02  0.51100000000E-03 0. -1.
         11   -1    0    0    0    0 -0.00000000000E+00 -0.00000000000E+00 -0.45593999997E+02  0.45594000000E+02  0.51100000000E-03 0.  1.
    9900012    2    1    2    0    0  0.10470059642E+01 -0.34242187792E+00 -0.42379272187E+00  0.90007714228E+02  0.89999975256E+02 0.  0.
        -12    1    1    2    0    0 -0.10470059642E+01  0.34242187792E+00  0.42379272187E+00  0.11802857716E+01  0.00000000000E+00 0.  1.
         11    1    3    3    0    0  0.28106069599E+02 -0.24585742334E+02 -0.47728378206E+01  0.37645582152E+02  0.51100000000E-03 0. -1.
        -11    1    3    3    0    0  0.65427797591E+01  0.24513721665E+01 -0.78372565443E+01  0.10499513459E+02  0.51100000000E-03 0.  1.
        -12    1    3    3    0    0 -0.33601843394E+02  0.21791948290E+02  0.12186301643E+02  0.41862618617E+02  0.00000000000E+00 0.  1.
</event>
<event>
 7    1  0.1910099E-015  0.9000780E+02  0.7816164E-02  0.1186339E+00
        -11   -1    0    0    0    0  0.00000000000E+00  0.00000000000E+00  0.45593999997E+02  0.45594000000E+02  0.51100000000E-03 0. -1.
         11   -1    0    0    0    0 -0.00000000000E+00 -0.00000000000E+00 -0.45593999997E+02  0.45594000000E+02  0.51100000000E-03 0.  1.
    9900012    2    1    2    0    0  0.11668695776E+01 -0.17654946104E+00  0.11287779496E-01  0.90007795892E+02  0.90000057997E+02 0.  0.
        -12    1    1    2    0    0 -0.11668695776E+01  0.17654946104E+00 -0.11287779496E-01  0.11802041083E+01  0.00000000000E+00 0.  1.
         11    1    3    3    0    0  0.53020044980E+01  0.57112806094E+00  0.13224807229E+02  0.14259486858E+02  0.51100000000E-03 0. -1.
        -11    1    3    3    0    0  0.25048321605E+02  0.16327855411E+02 -0.25976202842E+02  0.39607832457E+02  0.51100000000E-03 0.  1.
         12    1    3    3    0    0 -0.29183456526E+02 -0.17075532933E+02  0.12762683393E+02  0.36140476576E+02  0.00000000000E+00 0. -1.
</event>
<event>
 7    1  0.1910099E-015  0.9000778E+02  0.7816164E-02  0.1186339E+00
        -11   -1    0    0    0    0  0.00000000000E+00  0.00000000000E+00  0.45593999997E+02  0.45594000000E+02  0.51100000000E-03 0.  1.
         11   -1    0    0    0    0 -0.00000000000E+00 -0.00000000000E+00 -0.45593999997E+02  0.45594000000E+02  0.51100000000E-03 0. -1.
    9900012    2    1    2    0    0 -0.37677788557E+00  0.10061175741E+01 -0.48856556889E+00  0.90007775249E+02  0.90000037082E+02 0.  0.
        -12    1    1    2    0    0  0.37677788557E+00 -0.10061175741E+01  0.48856556889E+00  0.11802247511E+01  0.00000000000E+00 0.  1.
         11    1    3    3    0    0  0.77345819172E+01 -0.20867914510E+01 -0.17561515541E+01  0.82013733323E+01  0.51100000000E-03 0. -1.
        -11    1    3    3    0    0  0.15685726899E+02 -0.81040696594E+00  0.36141414581E+02  0.39406860266E+02  0.51100000000E-03 0.  1.
         12    1    3    3    0    0 -0.23797086702E+02  0.39033159911E+01 -0.34873828596E+02  0.42399541651E+02  0.00000000000E+00 0. -1.
</event>
<event>
 7    1  0.1910099E-015  0.9000750E+02  0.7816164E-02  0.1186340E+00
        -11   -1    0    0    0    0  0.00000000000E+00  0.00000000000E+00  0.45593999997E+02  0.45594000000E+02  0.51100000000E-03 0.  1.
         11   -1    0    0    0    0 -0.00000000000E+00 -0.00000000000E+00 -0.45593999997E+02  0.45594000000E+02  0.51100000000E-03 0. -1.
    9900012    2    1    2    0    0  0.11433767250E+01 -0.16776549241E+00 -0.24108689343E+00  0.90007500747E+02  0.89999758957E+02 0.  0.
        -12    1    1    2    0    0 -0.11433767250E+01  0.16776549241E+00  0.24108689343E+00  0.11804992529E+01  0.00000000000E+00 0.  1.
         11    1    3    3    0    0 -0.14369534698E+02 -0.86903676665E+01 -0.22997118970E+02  0.28475840616E+02  0.51100000000E-03 0. -1.
        -11    1    3    3    0    0 -0.26004104450E+01  0.55456519386E+01 -0.16822848240E+02  0.17903201197E+02  0.51100000000E-03 0.  1.
        -12    1    3    3    0    0  0.18113321868E+02  0.29769502355E+01  0.39578880317E+02  0.43628458934E+02  0.00000000000E+00 0.  1.
</event>
<event>
 7    1  0.1910099E-015  0.9000770E+02  0.7816164E-02  0.1186339E+00
        -11   -1    0    0    0    0  0.00000000000E+00  0.00000000000E+00  0.45593999997E+02  0.45594000000E+02  0.51100000000E-03 0.  1.
         11   -1    0    0    0    0 -0.00000000000E+00 -0.00000000000E+00 -0.45593999997E+02  0.45594000000E+02  0.51100000000E-03 0. -1.
    9900012    2    1    2    0    0 -0.13644136872E+00  0.50982872251E+00 -0.10557258132E+01  0.90007704035E+02  0.89999964928E+02 0.  0.
        -12    1    1    2    0    0  0.13644136872E+00 -0.50982872251E+00  0.10557258132E+01  0.11802959655E+01  0.00000000000E+00 0.  1.
         11    1    3    3    0    0  0.34015405220E+02 -0.25586439834E+02 -0.90032011847E+01  0.43505991857E+02  0.51100000000E-03 0. -1.
        -11    1    3    3    0    0 -0.58744795460E+01 -0.11114878376E+01  0.37007513829E+01  0.70313921956E+01  0.51100000000E-03 0.  1.
        -12    1    3    3    0    0 -0.28277367043E+02  0.27207756394E+02  0.42467239886E+01  0.39470319982E+02  0.00000000000E+00 0.  1.
</event>
<event>
 7    1  0.1910099E-015  0.9000771E+02  0.7816164E-02  0.1186339E+00
        -11   -1    0    0    0    0  0.00000000000E+00  0.00000000000E+00  0.45593999997E+02  0.45594000000E+02  0.51100000000E-03 0. -1.
         11   -1    0    0    0    0 -0.00000000000E+00 -0.00000000000E+00 -0.45593999997E+02  0.45594000000E+02  0.51100000000E-03 0.  1.
    9900012    2    1    2    0    0  0.91503345837E+00 -0.72183912419E+00  0.18642679819E+00  0.90007706434E+02  0.89999967359E+02 0.  0.
        -12    1    1    2    0    0 -0.91503345837E+00  0.72183912419E+00 -0.18642679819E+00  0.11802935661E+01  0.00000000000E+00 0.  1.
         11    1    3    3    0    0  0.15599293941E+02 -0.35012928353E+01  0.36255317185E+02  0.39623793956E+02  0.51100000000E-03 0. -1.
        -11    1    3    3    0    0  0.82861716019E+01 -0.29414255845E+01 -0.22025165474E+01  0.90644196554E+01  0.51100000000E-03 0.  1.
        -12    1    3    3    0    0 -0.22970432085E+02  0.57208792956E+01 -0.33866373840E+02  0.41319492823E+02  0.00000000000E+00 0.  1.
</event>
<event>
 7    1  0.1910099E-015  0.9000765E+02  0.7816164E-02  0.1186339E+00
        -11   -1    0    0    0    0  0.00000000000E+00  0.00000000000E+00  0.45593999997E+02  0.45594000000E+02  0.51100000000E-03 0.  1.
         11   -1    0    0    0    0 -0.00000000000E+00 -0.00000000000E+00 -0.45593999997E+02  0.45594000000E+02  0.51100000000E-03 0. -1.
    9900012    2    1    2    0    0 -0.46448831040E+00  0.75697260578E+00  0.77747030735E+00  0.90007653866E+02  0.89999914097E+02 0.  0.
        -12    1    1    2    0    0  0.46448831040E+00 -0.75697260578E+00 -0.77747030735E+00  0.11803461337E+01  0.00000000000E+00 0.  1.
         11    1    3    3    0    0 -0.51640931128E+01 -0.15849306127E+01  0.10591481430E+02  0.11889463481E+02  0.51100000000E-03 0. -1.
        -11    1    3    3    0    0  0.10762774782E+02  0.20571877182E+02  0.27595935312E+02  0.36063487044E+02  0.51100000000E-03 0.  1.
         12    1    3    3    0    0 -0.60631699794E+01 -0.18229973963E+02 -0.37409946434E+02  0.42054703341E+02  0.00000000000E+00 0. -1.
</event>
<event>
 7    1  0.1910099E-015  0.9000774E+02  0.7816164E-02  0.1186339E+00
        -11   -1    0    0    0    0  0.00000000000E+00  0.00000000000E+00  0.45593999997E+02  0.45594000000E+02  0.51100000000E-03 0.  1.
         11   -1    0    0    0    0 -0.00000000000E+00 -0.00000000000E+00 -0.45593999997E+02  0.45594000000E+02  0.51100000000E-03 0. -1.
    9900012    2    1    2    0    0  0.96069294895E+00 -0.61130447283E+00  0.31045863278E+00  0.90007742120E+02  0.90000003516E+02 0.  0.
        -12    1    1    2    0    0 -0.96069294895E+00  0.61130447283E+00 -0.31045863278E+00  0.11802578800E+01  0.00000000000E+00 0.  1.
         11    1    3    3    0    0  0.78872386318E+01  0.40248344863E+02 -0.11200094117E+02  0.42515643074E+02  0.51100000000E-03 0. -1.
        -11    1    3    3    0    0 -0.68239613360E+01 -0.49577369822E+01  0.76427091671E+01  0.11382293617E+02  0.51100000000E-03 0.  1.
        -12    1    3    3    0    0 -0.10258434686E+00 -0.35901912354E+02  0.38678435830E+01  0.36109805430E+02  0.00000000000E+00 0.  1.
</event>
<event>
 7    1  0.1910099E-015  0.9000832E+02  0.7816164E-02  0.1186338E+00
        -11   -1    0    0    0    0  0.00000000000E+00  0.00000000000E+00  0.45593999997E+02  0.45594000000E+02  0.51100000000E-03 0.  1.
         11   -1    0    0    0    0 -0.00000000000E+00 -0.00000000000E+00 -0.45593999997E+02  0.45594000000E+02  0.51100000000E-03 0. -1.
    9900012    2    1    2    0    0 -0.90772306367E+00 -0.60934747156E+00  0.44314300524E+00  0.90008321559E+02  0.90000590601E+02 0.  0.
        -12    1    1    2    0    0  0.90772306367E+00  0.60934747156E+00 -0.44314300524E+00  0.11796784411E+01  0.00000000000E+00 0.  1.
         11    1    3    3    0    0  0.95185441709E+01 -0.90768714177E+01 -0.32116199453E+02  0.34705079534E+02  0.51100000000E-03 0. -1.
        -11    1    3    3    0    0  0.81878010833E+01  0.20314888610E+01 -0.70977051218E+01  0.11024720034E+02  0.51100000000E-03 0.  1.
        -12    1    3    3    0    0 -0.18614068318E+02  0.64360350851E+01  0.39657047580E+02  0.44278521991E+02  0.00000000000E+00 0.  1.
</event>
<event>
 7    1  0.1910099E-015  0.9000763E+02  0.7816164E-02  0.1186339E+00
        -11   -1    0    0    0    0  0.00000000000E+00  0.00000000000E+00  0.45593999997E+02  0.45594000000E+02  0.51100000000E-03 0.  1.
         11   -1    0    0    0    0 -0.00000000000E+00 -0.00000000000E+00 -0.45593999997E+02  0.45594000000E+02  0.51100000000E-03 0. -1.
    9900012    2    1    2    0    0  0.29736208476E+00 -0.11989122050E+00 -0.11359875332E+01  0.90007633197E+02  0.89999893155E+02 0.  0.
        -12    1    1    2    0    0 -0.29736208476E+00  0.11989122050E+00  0.11359875332E+01  0.11803668031E+01  0.00000000000E+00 0.  1.
         11    1    3    3    0    0  0.20396321734E+01  0.82211519957E+01 -0.36970305088E+02  0.37928233522E+02  0.51100000000E-03 0. -1.
        -11    1    3    3    0    0  0.37685420723E+01  0.26296066764E+01 -0.65227996606E+01  0.79789508268E+01  0.51100000000E-03 0.  1.
        -12    1    3    3    0    0 -0.55108121609E+01 -0.10970649893E+02  0.42357117216E+02  0.44100448848E+02  0.00000000000E+00 0.  1.
</event>
<event>
 7    1  0.1910099E-015  0.9000786E+02  0.7816164E-02  0.1186339E+00
        -11   -1    0    0    0    0  0.00000000000E+00  0.00000000000E+00  0.45593999997E+02  0.45594000000E+02  0.51100000000E-03 0.  1.
         11   -1    0    0    0    0 -0.00000000000E+00 -0.00000000000E+00 -0.45593999997E+02  0.45594000000E+02  0.51100000000E-03 0. -1.
    9900012    2    1    2    0    0 -0.73488860303E+00 -0.61962800195E+00 -0.68463194995E+00  0.90007863980E+02  0.90000126984E+02 0.  0.
        -12    1    1    2    0    0  0.73488860303E+00  0.61962800195E+00  0.68463194995E+00  0.11801360204E+01  0.00000000000E+00 0.  1.
         11    1    3    3    0    0 -0.14985619961E+02  0.34032589260E+02  0.19684121277E+02  0.42074345724E+02  0.51100000000E-03 0. -1.
        -11    1    3    3    0    0 -0.50384699436E+01 -0.79668700357E+01 -0.42155048738E+00  0.94358307856E+01  0.51100000000E-03 0.  1.
        -12    1    3    3    0    0  0.19289201301E+02 -0.26685347227E+02 -0.19947202740E+02  0.38497687470E+02  0.00000000000E+00 0.  1.
</event>
<event>
 7    1  0.1910099E-015  0.9000771E+02  0.7816164E-02  0.1186339E+00
        -11   -1    0    0    0    0  0.00000000000E+00  0.00000000000E+00  0.45593999997E+02  0.45594000000E+02  0.51100000000E-03 0. -1.
         11   -1    0    0    0    0 -0.00000000000E+00 -0.00000000000E+00 -0.45593999997E+02  0.45594000000E+02  0.51100000000E-03 0.  1.
    9900012    2    1    2    0    0 -0.54463175544E+00 -0.10461683917E+01 -0.44694827366E-01  0.90007707799E+02  0.89999968742E+02 0.  0.
        -12    1    1    2    0    0  0.54463175544E+00  0.10461683917E+01  0.44694827366E-01  0.11802922013E+01  0.00000000000E+00 0.  1.
         11    1    3    3    0    0  0.36693689499E+01 -0.93260688010E+00  0.39567985691E+02  0.39748704583E+02  0.51100000000E-03 0. -1.
        -11    1    3    3    0    0  0.41626074430E+01 -0.94202669367E+01 -0.18360956638E+01  0.10461356386E+02  0.51100000000E-03 0.  1.
        -12    1    3    3    0    0 -0.83766081484E+01  0.93067054251E+01 -0.37776584855E+02  0.39797646830E+02  0.00000000000E+00 0.  1.
</event>
<event>
 7    1  0.1910099E-015  0.9000782E+02  0.7816164E-02  0.1186339E+00
        -11   -1    0    0    0    0  0.00000000000E+00  0.00000000000E+00  0.45593999997E+02  0.45594000000E+02  0.51100000000E-03 0. -1.
         11   -1    0    0    0    0 -0.00000000000E+00 -0.00000000000E+00 -0.45593999997E+02  0.45594000000E+02  0.51100000000E-03 0.  1.
    9900012    2    1    2    0    0 -0.22498570743E+00 -0.43546707924E+00  0.10735769560E+01  0.90007823053E+02  0.90000085517E+02 0.  0.
        -12    1    1    2    0    0  0.22498570743E+00  0.43546707924E+00 -0.10735769560E+01  0.11801769470E+01  0.00000000000E+00 0.  1.
         11    1    3    3    0    0 -0.28405214155E+01 -0.97315725213E+01 -0.47794732214E+01  0.11207828968E+02  0.51100000000E-03 0. -1.
        -11    1    3    3    0    0 -0.34915735331E+02  0.19504091928E+00  0.16674550482E+02  0.38693503960E+02  0.51100000000E-03 0.  1.
         12    1    3    3    0    0  0.37531271039E+02  0.91010645227E+01 -0.10821500304E+02  0.40106490125E+02  0.00000000000E+00 0. -1.
</event>
<event>
 7    1  0.1910099E-015  0.9000771E+02  0.7816164E-02  0.1186339E+00
        -11   -1    0    0    0    0  0.00000000000E+00  0.00000000000E+00  0.45593999997E+02  0.45594000000E+02  0.51100000000E-03 0. -1.
         11   -1    0    0    0    0 -0.00000000000E+00 -0.00000000000E+00 -0.45593999997E+02  0.45594000000E+02  0.51100000000E-03 0.  1.
    9900012    2    1    2    0    0 -0.10473485997E+00 -0.98268165867E+00  0.64532800796E+00  0.90007711531E+02  0.89999972523E+02 0.  0.
        -12    1    1    2    0    0  0.10473485997E+00  0.98268165867E+00 -0.64532800796E+00  0.11802884694E+01  0.00000000000E+00 0.  1.
         11    1    3    3    0    0  0.27604493541E+02  0.13580202327E+02 -0.16504353963E+02  0.34911655058E+02  0.51100000000E-03 0. -1.
        -11    1    3    3    0    0 -0.83532489365E+01  0.70801723449E+01 -0.10377087783E+02  0.15086071700E+02  0.51100000000E-03 0.  1.
        -12    1    3    3    0    0 -0.19355979464E+02 -0.21643056331E+02  0.27526769754E+02  0.40009984772E+02  0.00000000000E+00 0.  1.
</event>
<event>
 7    1  0.1910099E-015  0.9000764E+02  0.7816164E-02  0.1186339E+00
        -11   -1    0    0    0    0  0.00000000000E+00  0.00000000000E+00  0.45593999997E+02  0.45594000000E+02  0.51100000000E-03 0.  1.
         11   -1    0    0    0    0 -0.00000000000E+00 -0.00000000000E+00 -0.45593999997E+02  0.45594000000E+02  0.51100000000E-03 0. -1.
    9900012    2    1    2    0    0 -0.58574718983E-01  0.11227505378E+01  0.35951321343E+00  0.90007640089E+02  0.89999900139E+02 0.  0.
        -12    1    1    2    0    0  0.58574718983E-01 -0.11227505378E+01 -0.35951321343E+00  0.11803599106E+01  0.00000000000E+00 0.  1.
         11    1    3    3    0    0  0.32505082676E+02 -0.98688903015E+01 -0.88600991197E+01  0.35106648262E+02  0.51100000000E-03 0. -1.
        -11    1    3    3    0    0  0.74604826119E+01 -0.65177020888E+01 -0.12287290557E+01  0.99824354079E+01  0.51100000000E-03 0.  1.
        -12    1    3    3    0    0 -0.40024140006E+02  0.17509342928E+02  0.10448341389E+02  0.44918556419E+02  0.00000000000E+00 0.  1.
</event>
<event>
 7    1  0.1910099E-015  0.9000774E+02  0.7816164E-02  0.1186339E+00
        -11   -1    0    0    0    0  0.00000000000E+00  0.00000000000E+00  0.45593999997E+02  0.45594000000E+02  0.51100000000E-03 0. -1.
         11   -1    0    0    0    0 -0.00000000000E+00 -0.00000000000E+00 -0.45593999997E+02  0.45594000000E+02  0.51100000000E-03 0.  1.
    9900012    2    1    2    0    0  0.83317277893E+00 -0.83045681949E+00  0.95824136810E-01  0.90007738303E+02  0.89999999648E+02 0.  0.
        -12    1    1    2    0    0 -0.83317277893E+00  0.83045681949E+00 -0.95824136810E-01  0.11802616972E+01  0.00000000000E+00 0.  1.
         11    1    3    3    0    0 -0.75598273481E+01  0.94154512547E+01  0.33735474493E+02  0.35831326397E+02  0.51100000000E-03 0. -1.
        -11    1    3    3    0    0 -0.68756502624E+01  0.81040820645E+01  0.24495934842E+01  0.10906476110E+02  0.51100000000E-03 0.  1.
        -12    1    3    3    0    0  0.15268650389E+02 -0.18349990139E+02 -0.36089243840E+02  0.43269935796E+02  0.00000000000E+00 0.  1.
</event>
<event>
 7    1  0.1910099E-015  0.9000753E+02  0.7816164E-02  0.1186339E+00
        -11   -1    0    0    0    0  0.00000000000E+00  0.00000000000E+00  0.45593999997E+02  0.45594000000E+02  0.51100000000E-03 0.  1.
         11   -1    0    0    0    0 -0.00000000000E+00 -0.00000000000E+00 -0.45593999997E+02  0.45594000000E+02  0.51100000000E-03 0. -1.
    9900012    2    1    2    0    0  0.72368275633E+00  0.92766487637E+00 -0.96047845147E-01  0.90007532278E+02  0.89999790904E+02 0.  0.
        -12    1    1    2    0    0 -0.72368275633E+00 -0.92766487637E+00  0.96047845147E-01  0.11804677222E+01  0.00000000000E+00 0.  1.
         11    1    3    3    0    0  0.55775735608E+01  0.40893357129E+02  0.85862492061E+01  0.42155659879E+02  0.51100000000E-03 0. -1.
        -11    1    3    3    0    0  0.50979602491E+01 -0.21414946980E+01  0.38998115367E+01  0.67663674542E+01  0.51100000000E-03 0.  1.
        -12    1    3    3    0    0 -0.99518510535E+01 -0.37824197555E+02 -0.12582108588E+02  0.41085504945E+02  0.00000000000E+00 0.  1.
</event>
<event>
 7    1  0.1910099E-015  0.9000777E+02  0.7816164E-02  0.1186339E+00
        -11   -1    0    0    0    0  0.00000000000E+00  0.00000000000E+00  0.45593999997E+02  0.45594000000E+02  0.51100000000E-03 0. -1.
         11   -1    0    0    0    0 -0.00000000000E+00 -0.00000000000E+00 -0.45593999997E+02  0.45594000000E+02  0.51100000000E-03 0.  1.
    9900012    2    1    2    0    0  0.11433525488E+01 -0.39913577657E-01 -0.29001046373E+00  0.90007765187E+02  0.90000026888E+02 0.  0.
        -12    1    1    2    0    0 -0.11433525488E+01  0.39913577657E-01  0.29001046373E+00  0.11802348129E+01  0.00000000000E+00 0.  1.
         11    1    3    3    0    0  0.67807839410E+01 -0.25811478130E+02  0.32457287708E+02  0.42020078055E+02  0.51100000000E-03 0. -1.
        -11    1    3    3    0    0  0.79005321737E+01  0.29736824627E+01 -0.62575410453E+01  0.10507997726E+02  0.51100000000E-03 0.  1.
        -12    1    3    3    0    0 -0.13537963566E+02  0.22797882090E+02 -0.26489757127E+02  0.37479689406E+02  0.00000000000E+00 0.  1.
</event>
<event>
 7    1  0.1910099E-015  0.9000766E+02  0.7816164E-02  0.1186339E+00
        -11   -1    0    0    0    0  0.00000000000E+00  0.00000000000E+00  0.45593999997E+02  0.45594000000E+02  0.51100000000E-03 0.  1.
         11   -1    0    0    0    0 -0.00000000000E+00 -0.00000000000E+00 -0.45593999997E+02  0.45594000000E+02  0.51100000000E-03 0. -1.
    9900012    2    1    2    0    0 -0.57830497311E+00 -0.34553980761E+00 -0.96920520859E+00  0.90007663973E+02  0.89999924337E+02 0.  0.
        -12    1    1    2    0    0  0.57830497311E+00  0.34553980761E+00  0.96920520859E+00  0.11803360271E+01  0.00000000000E+00 0.  1.
         11    1    3    3    0    0  0.11198022383E+01  0.56992045888E+01  0.78938942211E+01  0.98004314310E+01  0.51100000000E-03 0. -1.
        -11    1    3    3    0    0 -0.32091165012E+02 -0.14741398997E+02  0.17157985938E+02  0.39262554653E+02  0.51100000000E-03 0.  1.
         12    1    3    3    0    0  0.30393057800E+02  0.86966546004E+01 -0.26021085368E+02  0.40944677889E+02  0.00000000000E+00 0. -1.
</event>
<event>
 7    1  0.1910099E-015  0.9000786E+02  0.7816164E-02  0.1186339E+00
        -11   -1    0    0    0    0  0.00000000000E+00  0.00000000000E+00  0.45593999997E+02  0.45594000000E+02  0.51100000000E-03 0.  1.
         11   -1    0    0    0    0 -0.00000000000E+00 -0.00000000000E+00 -0.45593999997E+02  0.45594000000E+02  0.51100000000E-03 0. -1.
    9900012    2    1    2    0    0 -0.91145325094E+00  0.74935351462E+00  0.21286008301E-01  0.90007859833E+02  0.90000122783E+02 0.  0.
        -12    1    1    2    0    0  0.91145325094E+00 -0.74935351462E+00 -0.21286008301E-01  0.11801401665E+01  0.00000000000E+00 0.  1.
         11    1    3    3    0    0  0.18720861715E+01 -0.73348999180E+01  0.23768533693E+01  0.79344121169E+01  0.51100000000E-03 0. -1.
        -11    1    3    3    0    0 -0.24947627031E+02 -0.29241700230E+02 -0.39026118389E+01  0.38635366003E+02  0.51100000000E-03 0.  1.
         12    1    3    3    0    0  0.22164087608E+02  0.37325953662E+02  0.15470444779E+01  0.43438081713E+02  0.00000000000E+00 0. -1.
</event>
<event>
 7    1  0.1910099E-015  0.9000778E+02  0.7816164E-02  0.1186339E+00
        -11   -1    0    0    0    0  0.00000000000E+00  0.00000000000E+00  0.45593999997E+02  0.45594000000E+02  0.51100000000E-03 0. -1.
         11   -1    0    0    0    0 -0.00000000000E+00 -0.00000000000E+00 -0.45593999997E+02  0.45594000000E+02  0.51100000000E-03 0.  1.
    9900012    2    1    2    0    0  0.65860111570E+00 -0.47280282202E+00  0.85768061027E+00  0.90007782237E+02  0.90000044163E+02 0.  0.
        -12    1    1    2    0    0 -0.65860111570E+00  0.47280282202E+00 -0.85768061027E+00  0.11802177627E+01  0.00000000000E+00 0.  1.
         11    1    3    3    0    0 -0.63732953128E+01  0.17538496284E+01  0.56972200097E+01  0.87265799580E+01  0.51100000000E-03 0. -1.
        -11    1    3    3    0    0 -0.21236153117E+02 -0.14053878299E+02 -0.31610175110E+02  0.40591733952E+02  0.51100000000E-03 0.  1.
         12    1    3    3    0    0  0.28268049546E+02  0.11827225849E+02  0.26770635711E+02  0.40689468327E+02  0.00000000000E+00 0. -1.
</event>
<event>
 7    1  0.1910099E-015  0.9000770E+02  0.7816164E-02  0.1186339E+00
        -11   -1    0    0    0    0  0.00000000000E+00  0.00000000000E+00  0.45593999997E+02  0.45594000000E+02  0.51100000000E-03 0.  1.
         11   -1    0    0    0    0 -0.00000000000E+00 -0.00000000000E+00 -0.45593999997E+02  0.45594000000E+02  0.51100000000E-03 0. -1.
    9900012    2    1    2    0    0 -0.54624709862E+00  0.11072541131E+00 -0.10404123860E+01  0.90007701757E+02  0.89999962620E+02 0.  0.
        -12    1    1    2    0    0  0.54624709862E+00 -0.11072541131E+00  0.10404123860E+01  0.11802982430E+01  0.00000000000E+00 0.  1.
         11    1    3    3    0    0  0.52561830241E+01  0.36091284811E+02 -0.60151193380E+01  0.36964712365E+02  0.51100000000E-03 0. -1.
        -11    1    3    3    0    0 -0.58547876502E+00  0.74806517664E+01  0.54387838180E+01  0.92673246363E+01  0.51100000000E-03 0.  1.
        -12    1    3    3    0    0 -0.52169513577E+01 -0.43461211166E+02 -0.46407686606E+00  0.43775664756E+02  0.00000000000E+00 0.  1.
</event>
<event>
 7    1  0.1910099E-015  0.9000775E+02  0.7816164E-02  0.1186339E+00
        -11   -1    0    0    0    0  0.00000000000E+00  0.00000000000E+00  0.45593999997E+02  0.45594000000E+02  0.51100000000E-03 0.  1.
         11   -1    0    0    0    0 -0.00000000000E+00 -0.00000000000E+00 -0.45593999997E+02  0.45594000000E+02  0.51100000000E-03 0. -1.
    9900012    2    1    2    0    0 -0.63199994302E+00 -0.41530301485E+00 -0.90614565214E+00  0.90007745593E+02  0.90000007035E+02 0.  0.
        -12    1    1    2    0    0  0.63199994302E+00  0.41530301485E+00  0.90614565214E+00  0.11802544069E+01  0.00000000000E+00 0.  1.
         11    1    3    3    0    0  0.93251607812E+00 -0.10740753802E+02  0.72710203011E+01  0.13003888455E+02  0.51100000000E-03 0. -1.
        -11    1    3    3    0    0 -0.47489126178E+01 -0.24981433052E+02  0.19486987150E+02  0.32036960480E+02  0.51100000000E-03 0.  1.
         12    1    3    3    0    0  0.31843965967E+01  0.35306883839E+02 -0.27664153103E+02  0.44966896658E+02  0.00000000000E+00 0. -1.
</event>
<event>
 7    1  0.1910099E-015  0.9000757E+02  0.7816164E-02  0.1186339E+00
        -11   -1    0    0    0    0  0.00000000000E+00  0.00000000000E+00  0.45593999997E+02  0.45594000000E+02  0.51100000000E-03 0. -1.
         11   -1    0    0    0    0 -0.00000000000E+00 -0.00000000000E+00 -0.45593999997E+02  0.45594000000E+02  0.51100000000E-03 0.  1.
    9900012    2    1    2    0    0 -0.11068402399E+01 -0.37756608796E+00 -0.16050851563E+00  0.90007570226E+02  0.89999829353E+02 0.  0.
        -12    1    1    2    0    0  0.11068402399E+01  0.37756608796E+00  0.16050851563E+00  0.11804297739E+01  0.00000000000E+00 0.  1.
         11    1    3    3    0    0 -0.26020379543E+02 -0.34866870943E+02  0.58369702629E+00  0.43509763771E+02  0.51100000000E-03 0. -1.
        -11    1    3    3    0    0  0.73003298544E+01  0.60735351362E+01  0.74575889441E+01  0.12074695779E+02  0.51100000000E-03 0.  1.
        -12    1    3    3    0    0  0.17613209449E+02  0.28415769719E+02 -0.82017944860E+01  0.34423110676E+02  0.00000000000E+00 0.  1.
</event>
<event>
 7    1  0.1910099E-015  0.9000790E+02  0.7816164E-02  0.1186339E+00
        -11   -1    0    0    0    0  0.00000000000E+00  0.00000000000E+00  0.45593999997E+02  0.45594000000E+02  0.51100000000E-03 0. -1.
         11   -1    0    0    0    0 -0.00000000000E+00 -0.00000000000E+00 -0.45593999997E+02  0.45594000000E+02  0.51100000000E-03 0.  1.
    9900012    2    1    2    0    0 -0.11474828991E+01  0.26320732189E+00  0.81512490749E-01  0.90007898570E+02  0.90000162031E+02 0.  0.
        -12    1    1    2    0    0  0.11474828991E+01 -0.26320732189E+00 -0.81512490749E-01  0.11801014296E+01  0.00000000000E+00 0.  1.
         11    1    3    3    0    0  0.12690433023E+01 -0.17331356049E+01 -0.10697165813E+02  0.10910709721E+02  0.51100000000E-03 0. -1.
        -11    1    3    3    0    0  0.20106584900E+02 -0.28220091920E+02 -0.99959511234E+01  0.36063380089E+02  0.51100000000E-03 0.  1.
         12    1    3    3    0    0 -0.22523111101E+02  0.30216434847E+02  0.20774629427E+02  0.43033808760E+02  0.00000000000E+00 0. -1.
</event>
<event>
 7    1  0.1910099E-015  0.9000769E+02  0.7816164E-02  0.1186339E+00
        -11   -1    0    0    0    0  0.00000000000E+00  0.00000000000E+00  0.45593999997E+02  0.45594000000E+02  0.51100000000E-03 0. -1.
         11   -1    0    0    0    0 -0.00000000000E+00 -0.00000000000E+00 -0.45593999997E+02  0.45594000000E+02  0.51100000000E-03 0.  1.
    9900012    2    1    2    0    0  0.58148597703E+00  0.94724687866E+00  0.39713714321E+00  0.90007694742E+02  0.89999955513E+02 0.  0.
        -12    1    1    2    0    0 -0.58148597703E+00 -0.94724687866E+00 -0.39713714321E+00  0.11803052576E+01  0.00000000000E+00 0.  1.
         11    1    3    3    0    0 -0.34930160227E+02 -0.13112146859E+02 -0.37810976907E+01  0.37501215830E+02  0.51100000000E-03 0. -1.
        -11    1    3    3    0    0 -0.62939405118E+01  0.54839290285E+01  0.51695145919E+01  0.98189126757E+01  0.51100000000E-03 0.  1.
        -12    1    3    3    0    0  0.41805586716E+02  0.85754647092E+01 -0.99127975803E+00  0.42687566236E+02  0.00000000000E+00 0.  1.
</event>
<event>
 7    1  0.1910099E-015  0.9000759E+02  0.7816164E-02  0.1186339E+00
        -11   -1    0    0    0    0  0.00000000000E+00  0.00000000000E+00  0.45593999997E+02  0.45594000000E+02  0.51100000000E-03 0. -1.
         11   -1    0    0    0    0 -0.00000000000E+00 -0.00000000000E+00 -0.45593999997E+02  0.45594000000E+02  0.51100000000E-03 0.  1.
    9900012    2    1    2    0    0  0.24262779229E+00  0.11361993044E+01  0.20868483679E+00  0.90007590552E+02  0.89999849947E+02 0.  0.
        -12    1    1    2    0    0 -0.24262779229E+00 -0.11361993044E+01 -0.20868483679E+00  0.11804094485E+01  0.00000000000E+00 0.  1.
         11    1    3    3    0    0 -0.34689943708E+02 -0.13406147659E+02  0.36842979035E+01  0.37372329882E+02  0.51100000000E-03 0. -1.
        -11    1    3    3    0    0 -0.58009831402E+01  0.43712156166E+01  0.62008487737E+01  0.95503642410E+01  0.51100000000E-03 0.  1.
        -12    1    3    3    0    0  0.40733554640E+02  0.10171131347E+02 -0.96764618404E+01  0.43084896429E+02  0.00000000000E+00 0.  1.
</event>
<event>
 7    1  0.1910099E-015  0.9000770E+02  0.7816164E-02  0.1186339E+00
        -11   -1    0    0    0    0  0.00000000000E+00  0.00000000000E+00  0.45593999997E+02  0.45594000000E+02  0.51100000000E-03 0.  1.
         11   -1    0    0    0    0 -0.00000000000E+00 -0.00000000000E+00 -0.45593999997E+02  0.45594000000E+02  0.51100000000E-03 0. -1.
    9900012    2    1    2    0    0  0.43403745344E+00  0.15489884406E+00 -0.10866136153E+01  0.90007698635E+02  0.89999959457E+02 0.  0.
        -12    1    1    2    0    0 -0.43403745344E+00 -0.15489884406E+00  0.10866136153E+01  0.11803013648E+01  0.00000000000E+00 0.  1.
         11    1    3    3    0    0 -0.28888393093E+01 -0.10493001331E+01  0.95440654534E+01  0.10026744684E+02  0.51100000000E-03 0. -1.
        -11    1    3    3    0    0 -0.10073192539E+02  0.31257923872E+02  0.17030984497E+02  0.36994343431E+02  0.51100000000E-03 0.  1.
         12    1    3    3    0    0  0.13396069302E+02 -0.30053724894E+02 -0.27661663566E+02  0.42986610520E+02  0.00000000000E+00 0. -1.
</event>
<event>
 7    1  0.1910099E-015  0.9000778E+02  0.7816164E-02  0.1186339E+00
        -11   -1    0    0    0    0  0.00000000000E+00  0.00000000000E+00  0.45593999997E+02  0.45594000000E+02  0.51100000000E-03 0.  1.
         11   -1    0    0    0    0 -0.00000000000E+00 -0.00000000000E+00 -0.45593999997E+02  0.45594000000E+02  0.51100000000E-03 0. -1.
    9900012    2    1    2    0    0 -0.61405711167E+00  0.46391840535E+00  0.89478408201E+00  0.90007777573E+02  0.90000039437E+02 0.  0.
        -12    1    1    2    0    0  0.61405711167E+00 -0.46391840535E+00 -0.89478408201E+00  0.11802224268E+01  0.00000000000E+00 0.  1.
         11    1    3    3    0    0  0.76710749209E+01 -0.52568317770E+01 -0.77107406502E+01  0.12080363919E+02  0.51100000000E-03 0. -1.
        -11    1    3    3    0    0 -0.20589227837E+02  0.13027879892E+01 -0.30428206007E+02  0.36762607097E+02  0.51100000000E-03 0.  1.
         12    1    3    3    0    0  0.12304095804E+02  0.44179621931E+01  0.39033730740E+02  0.41164806558E+02  0.00000000000E+00 0. -1.
</event>
<event>
 7    1  0.1910099E-015  0.9000774E+02  0.7816164E-02  0.1186339E+00
        -11   -1    0    0    0    0  0.00000000000E+00  0.00000000000E+00  0.45593999997E+02  0.45594000000E+02  0.51100000000E-03 0.  1.
         11   -1    0    0    0    0 -0.00000000000E+00 -0.00000000000E+00 -0.45593999997E+02  0.45594000000E+02  0.51100000000E-03 0. -1.
    9900012    2    1    2    0    0  0.11383302488E+01  0.16165767498E+00 -0.26663619313E+00  0.90007735700E+02  0.89999997011E+02 0.  0.
        -12    1    1    2    0    0 -0.11383302488E+01 -0.16165767498E+00  0.26663619313E+00  0.11802643003E+01  0.00000000000E+00 0.  1.
         11    1    3    3    0    0  0.97776261997E+01 -0.81858666668E+01 -0.24330312646E+01  0.12981911592E+02  0.51100000000E-03 0. -1.
        -11    1    3    3    0    0  0.66046495971E+00 -0.22212745421E+02  0.28138749230E+02  0.35855703613E+02  0.51100000000E-03 0.  1.
         12    1    3    3    0    0 -0.92997609106E+01  0.30560269763E+02 -0.25972354159E+02  0.41170120494E+02  0.00000000000E+00 0. -1.
</event>
<event>
 7    1  0.1910099E-015  0.9000769E+02  0.7816164E-02  0.1186339E+00
        -11   -1    0    0    0    0  0.00000000000E+00  0.00000000000E+00  0.45593999997E+02  0.45594000000E+02  0.51100000000E-03 0.  1.
         11   -1    0    0    0    0 -0.00000000000E+00 -0.00000000000E+00 -0.45593999997E+02  0.45594000000E+02  0.51100000000E-03 0. -1.
    9900012    2    1    2    0    0 -0.35220424241E+00 -0.42968884349E+00 -0.10413741248E+01  0.90007686314E+02  0.89999946973E+02 0.  0.
        -12    1    1    2    0    0  0.35220424241E+00  0.42968884349E+00  0.10413741248E+01  0.11803136865E+01  0.00000000000E+00 0.  1.
         11    1    3    3    0    0  0.74001480911E+01  0.52458936567E+01 -0.76832163524E+00  0.91034010360E+01  0.51100000000E-03 0. -1.
        -11    1    3    3    0    0 -0.42511496163E+02  0.80213032413E+01  0.32176420890E+01  0.43381122998E+02  0.51100000000E-03 0.  1.
         12    1    3    3    0    0  0.34759143830E+02 -0.13696885741E+02 -0.34906945786E+01  0.37523162279E+02  0.00000000000E+00 0. -1.
</event>
<event>
 7    1  0.1910099E-015  0.9000808E+02  0.7816164E-02  0.1186338E+00
        -11   -1    0    0    0    0  0.00000000000E+00  0.00000000000E+00  0.45593999997E+02  0.45594000000E+02  0.51100000000E-03 0.  1.
         11   -1    0    0    0    0 -0.00000000000E+00 -0.00000000000E+00 -0.45593999997E+02  0.45594000000E+02  0.51100000000E-03 0. -1.
    9900012    2    1    2    0    0  0.64324880553E+00 -0.65478391488E+00 -0.74142482524E+00  0.90008075523E+02  0.90000341319E+02 0.  0.
        -12    1    1    2    0    0 -0.64324880553E+00  0.65478391488E+00  0.74142482524E+00  0.11799244774E+01  0.00000000000E+00 0.  1.
         11    1    3    3    0    0  0.27205774544E+02 -0.11665657434E+02 -0.54991570169E+01  0.30107847151E+02  0.51100000000E-03 0. -1.
        -11    1    3    3    0    0  0.92552664532E+01 -0.13254112555E+02  0.38953327515E+01  0.16628441726E+02  0.51100000000E-03 0.  1.
        -12    1    3    3    0    0 -0.35817792192E+02  0.24264986074E+02  0.86239944009E+00  0.43271786645E+02  0.00000000000E+00 0.  1.
</event>
<event>
 7    1  0.1910099E-015  0.9000773E+02  0.7816164E-02  0.1186339E+00
        -11   -1    0    0    0    0  0.00000000000E+00  0.00000000000E+00  0.45593999997E+02  0.45594000000E+02  0.51100000000E-03 0. -1.
         11   -1    0    0    0    0 -0.00000000000E+00 -0.00000000000E+00 -0.45593999997E+02  0.45594000000E+02  0.51100000000E-03 0.  1.
    9900012    2    1    2    0    0  0.10566969453E+01  0.52565007282E+00 -0.10675280568E-01  0.90007732914E+02  0.89999994188E+02 0.  0.
        -12    1    1    2    0    0 -0.10566969453E+01 -0.52565007282E+00  0.10675280568E-01  0.11802670863E+01  0.00000000000E+00 0.  1.
         11    1    3    3    0    0  0.21981730932E+02 -0.12997789522E+02  0.25116466333E+02  0.35818653081E+02  0.51100000000E-03 0. -1.
        -11    1    3    3    0    0  0.11640842320E+02 -0.18996318260E+01 -0.42046929642E+01  0.12521871033E+02  0.51100000000E-03 0.  1.
        -12    1    3    3    0    0 -0.32565876306E+02  0.15423071421E+02 -0.20922448650E+02  0.41667208799E+02  0.00000000000E+00 0.  1.
</event>
<event>
 7    1  0.1910099E-015  0.9000780E+02  0.7816164E-02  0.1186339E+00
        -11   -1    0    0    0    0  0.00000000000E+00  0.00000000000E+00  0.45593999997E+02  0.45594000000E+02  0.51100000000E-03 0.  1.
         11   -1    0    0    0    0 -0.00000000000E+00 -0.00000000000E+00 -0.45593999997E+02  0.45594000000E+02  0.51100000000E-03 0. -1.
    9900012    2    1    2    0    0  0.11658130988E+01 -0.17210631789E+00 -0.64226814641E-01  0.90007802623E+02  0.90000064817E+02 0.  0.
        -12    1    1    2    0    0 -0.11658130988E+01  0.17210631789E+00  0.64226814641E-01  0.11801973775E+01  0.00000000000E+00 0.  1.
         11    1    3    3    0    0 -0.73930269747E+01  0.82420606784E+00  0.98113290396E+01  0.12312527818E+02  0.51100000000E-03 0. -1.
        -11    1    3    3    0    0  0.15297085333E+01  0.11439786346E+02  0.31699098006E+02  0.33734871195E+02  0.51100000000E-03 0.  1.
         12    1    3    3    0    0  0.70291315402E+01 -0.12436098732E+02 -0.41574653861E+02  0.43960403610E+02  0.00000000000E+00 0. -1.
</event>
<event>
 7    1  0.1910099E-015  0.9000772E+02  0.7816164E-02  0.1186339E+00
        -11   -1    0    0    0    0  0.00000000000E+00  0.00000000000E+00  0.45593999997E+02  0.45594000000E+02  0.51100000000E-03 0.  1.
         11   -1    0    0    0    0 -0.00000000000E+00 -0.00000000000E+00 -0.45593999997E+02  0.45594000000E+02  0.51100000000E-03 0. -1.
    9900012    2    1    2    0    0 -0.99684692336E+00 -0.49908843716E+00 -0.38763392106E+00  0.90007723289E+02  0.89999984437E+02 0.  0.
        -12    1    1    2    0    0  0.99684692336E+00  0.49908843716E+00  0.38763392106E+00  0.11802767106E+01  0.00000000000E+00 0.  1.
         11    1    3    3    0    0 -0.13876955867E+02 -0.18867642007E+02 -0.56080948276E+01  0.24083366602E+02  0.51100000000E-03 0. -1.
        -11    1    3    3    0    0 -0.27570705031E+01  0.10195177059E+02 -0.27108856223E+02  0.29093524349E+02  0.51100000000E-03 0.  1.
        -12    1    3    3    0    0  0.15637179447E+02  0.81733765107E+01  0.32329317130E+02  0.36830832338E+02  0.00000000000E+00 0.  1.
</event>
<event>
 7    1  0.1910099E-015  0.9000773E+02  0.7816164E-02  0.1186339E+00
        -11   -1    0    0    0    0  0.00000000000E+00  0.00000000000E+00  0.45593999997E+02  0.45594000000E+02  0.51100000000E-03 0.  1.
         11   -1    0    0    0    0 -0.00000000000E+00 -0.00000000000E+00 -0.45593999997E+02  0.45594000000E+02  0.51100000000E-03 0. -1.
    9900012    2    1    2    0    0 -0.42022988877E-01 -0.84399405806E+00 -0.82398283994E+00  0.90007729005E+02  0.89999990228E+02 0.  0.
        -12    1    1    2    0    0  0.42022988877E-01  0.84399405806E+00  0.82398283994E+00  0.11802709952E+01  0.00000000000E+00 0.  1.
         11    1    3    3    0    0  0.24505715366E+02 -0.23803679066E+02  0.22346992602E+02  0.40823195628E+02  0.51100000000E-03 0. -1.
        -11    1    3    3    0    0 -0.30179709465E+01  0.73534623628E+01  0.58153866442E+01  0.98488719881E+01  0.51100000000E-03 0.  1.
        -12    1    3    3    0    0 -0.21529767408E+02  0.15606222645E+02 -0.28986362086E+02  0.39335661389E+02  0.00000000000E+00 0.  1.
</event>
<event>
 7    1  0.1910099E-015  0.9000753E+02  0.7816164E-02  0.1186339E+00
        -11   -1    0    0    0    0  0.00000000000E+00  0.00000000000E+00  0.45593999997E+02  0.45594000000E+02  0.51100000000E-03 0. -1.
         11   -1    0    0    0    0 -0.00000000000E+00 -0.00000000000E+00 -0.45593999997E+02  0.45594000000E+02  0.51100000000E-03 0.  1.
    9900012    2    1    2    0    0 -0.70117685804E+00  0.31899148988E+00  0.89448866444E+00  0.90007527837E+02  0.89999786404E+02 0.  0.
        -12    1    1    2    0    0  0.70117685804E+00 -0.31899148988E+00 -0.89448866444E+00  0.11804721630E+01  0.00000000000E+00 0.  1.
         11    1    3    3    0    0 -0.56978662371E+00  0.37227911211E+02  0.34923435515E+01  0.37395701540E+02  0.51100000000E-03 0. -1.
        -11    1    3    3    0    0  0.42791766882E+01  0.60311757860E+01  0.48002959954E+01  0.88164208382E+01  0.51100000000E-03 0.  1.
        -12    1    3    3    0    0 -0.44105669226E+01 -0.42940095508E+02 -0.73981508825E+01  0.43795405458E+02  0.00000000000E+00 0.  1.
</event>
<event>
 7    1  0.1910099E-015  0.9000788E+02  0.7816164E-02  0.1186339E+00
        -11   -1    0    0    0    0  0.00000000000E+00  0.00000000000E+00  0.45593999997E+02  0.45594000000E+02  0.51100000000E-03 0.  1.
         11   -1    0    0    0    0 -0.00000000000E+00 -0.00000000000E+00 -0.45593999997E+02  0.45594000000E+02  0.51100000000E-03 0. -1.
    9900012    2    1    2    0    0 -0.99603918538E-01  0.10995730431E+01  0.41678735178E+00  0.90007875636E+02  0.90000138794E+02 0.  0.
        -12    1    1    2    0    0  0.99603918538E-01 -0.10995730431E+01 -0.41678735178E+00  0.11801243639E+01  0.00000000000E+00 0.  1.
         11    1    3    3    0    0 -0.13350255243E+02 -0.35451285082E+02 -0.44552374016E+01  0.38142785288E+02  0.51100000000E-03 0. -1.
        -11    1    3    3    0    0 -0.56952431183E+00 -0.14742157247E+01  0.10852356677E+02  0.10966827967E+02  0.51100000000E-03 0.  1.
        -12    1    3    3    0    0  0.13820175637E+02  0.38025073849E+02 -0.59803319236E+01  0.40898262381E+02  0.00000000000E+00 0.  1.
</event>
<event>
 7    1  0.1910099E-015  0.9000737E+02  0.7816164E-02  0.1186340E+00
        -11   -1    0    0    0    0  0.00000000000E+00  0.00000000000E+00  0.45593999997E+02  0.45594000000E+02  0.51100000000E-03 0. -1.
         11   -1    0    0    0    0 -0.00000000000E+00 -0.00000000000E+00 -0.45593999997E+02  0.45594000000E+02  0.51100000000E-03 0.  1.
    9900012    2    1    2    0    0 -0.29415660230E+00 -0.75121409824E+00  0.86200069731E+00  0.90007366301E+02  0.89999622736E+02 0.  0.
        -12    1    1    2    0    0  0.29415660230E+00  0.75121409824E+00 -0.86200069731E+00  0.11806336986E+01  0.00000000000E+00 0.  1.
         11    1    3    3    0    0 -0.16618142399E+02 -0.24879147645E+02  0.26636131419E+02  0.40057685175E+02  0.51100000000E-03 0. -1.
        -11    1    3    3    0    0 -0.67661854299E+01  0.50834350662E+01  0.24497599511E+01  0.88104427485E+01  0.51100000000E-03 0.  1.
        -12    1    3    3    0    0  0.23090171226E+02  0.19044498481E+02 -0.28223890672E+02  0.41139238378E+02  0.00000000000E+00 0.  1.
</event>
<event>
 7    1  0.1910099E-015  0.9000776E+02  0.7816164E-02  0.1186339E+00
        -11   -1    0    0    0    0  0.00000000000E+00  0.00000000000E+00  0.45593999997E+02  0.45594000000E+02  0.51100000000E-03 0.  1.
         11   -1    0    0    0    0 -0.00000000000E+00 -0.00000000000E+00 -0.45593999997E+02  0.45594000000E+02  0.51100000000E-03 0. -1.
    9900012    2    1    2    0    0 -0.64952000749E+00  0.85695271003E+00 -0.48654508213E+00  0.90007758370E+02  0.90000019981E+02 0.  0.
        -12    1    1    2    0    0  0.64952000749E+00 -0.85695271003E+00  0.48654508213E+00  0.11802416296E+01  0.00000000000E+00 0.  1.
         11    1    3    3    0    0 -0.22408998568E+02  0.29181233884E+01  0.84300891333E+01  0.24119391866E+02  0.51100000000E-03 0. -1.
        -11    1    3    3    0    0  0.18785439690E+02  0.23564928982E+02  0.12237403453E+02  0.32526184311E+02  0.51100000000E-03 0.  1.
         12    1    3    3    0    0  0.29740388711E+01 -0.25626099660E+02 -0.21154037669E+02  0.33362182193E+02  0.00000000000E+00 0. -1.
</event>
<event>
 7    1  0.1910099E-015  0.9000765E+02  0.7816164E-02  0.1186339E+00
        -11   -1    0    0    0    0  0.00000000000E+00  0.00000000000E+00  0.45593999997E+02  0.45594000000E+02  0.51100000000E-03 0.  1.
         11   -1    0    0    0    0 -0.00000000000E+00 -0.00000000000E+00 -0.45593999997E+02  0.45594000000E+02  0.51100000000E-03 0. -1.
    9900012    2    1    2    0    0  0.53466041393E+00 -0.43194250315E+00 -0.95957652496E+00  0.90007651242E+02  0.89999911438E+02 0.  0.
        -12    1    1    2    0    0 -0.53466041393E+00  0.43194250315E+00  0.95957652496E+00  0.11803487584E+01  0.00000000000E+00 0.  1.
         11    1    3    3    0    0 -0.93277272721E+01  0.10690317523E+02  0.10779568773E+02  0.17818206644E+02  0.51100000000E-03 0. -1.
        -11    1    3    3    0    0  0.81906912434E+01  0.11539148771E+02  0.25153378865E+02  0.28860558657E+02  0.51100000000E-03 0.  1.
         12    1    3    3    0    0  0.16716964426E+01 -0.22661408798E+02 -0.36892524163E+02  0.43328885940E+02  0.00000000000E+00 0. -1.
</event>
<event>
 7    1  0.1910099E-015  0.9000772E+02  0.7816164E-02  0.1186339E+00
        -11   -1    0    0    0    0  0.00000000000E+00  0.00000000000E+00  0.45593999997E+02  0.45594000000E+02  0.51100000000E-03 0. -1.
         11   -1    0    0    0    0 -0.00000000000E+00 -0.00000000000E+00 -0.45593999997E+02  0.45594000000E+02  0.51100000000E-03 0.  1.
    9900012    2    1    2    0    0 -0.85648637031E+00  0.81025009013E+00 -0.54606223295E-01  0.90007722088E+02  0.89999983219E+02 0.  0.
        -12    1    1    2    0    0  0.85648637031E+00 -0.81025009013E+00  0.54606223295E-01  0.11802779125E+01  0.00000000000E+00 0.  1.
         11    1    3    3    0    0 -0.88489243111E+01 -0.58712374805E+01 -0.53262000061E+01  0.11880374480E+02  0.51100000000E-03 0. -1.
        -11    1    3    3    0    0 -0.27448689828E+02 -0.18922742896E+02 -0.35375240102E+01  0.33526330673E+02  0.51100000000E-03 0.  1.
         12    1    3    3    0    0  0.35441127769E+02  0.25604230467E+02  0.88091177931E+01  0.44601016935E+02  0.00000000000E+00 0. -1.
</event>
<event>
 7    1  0.1910099E-015  0.9000774E+02  0.7816164E-02  0.1186339E+00
        -11   -1    0    0    0    0  0.00000000000E+00  0.00000000000E+00  0.45593999997E+02  0.45594000000E+02  0.51100000000E-03 0.  1.
         11   -1    0    0    0    0 -0.00000000000E+00 -0.00000000000E+00 -0.45593999997E+02  0.45594000000E+02  0.51100000000E-03 0. -1.
    9900012    2    1    2    0    0 -0.33038465080E+00  0.21283134872E+00 -0.11129081270E+01  0.90007739139E+02  0.90000000496E+02 0.  0.
        -12    1    1    2    0    0  0.33038465080E+00 -0.21283134872E+00  0.11129081270E+01  0.11802608609E+01  0.00000000000E+00 0.  1.
         11    1    3    3    0    0  0.49752076838E+00 -0.63902263079E+01  0.50409120465E+01  0.81543432417E+01  0.51100000000E-03 0. -1.
        -11    1    3    3    0    0 -0.18977606893E+01 -0.33811509911E+02  0.14042512076E+02  0.36660767092E+02  0.51100000000E-03 0.  1.
         12    1    3    3    0    0  0.10698552701E+01  0.40414567568E+02 -0.20196332249E+02  0.45192628805E+02  0.00000000000E+00 0. -1.
</event>
<event>
 7    1  0.1910099E-015  0.9000772E+02  0.7816164E-02  0.1186339E+00
        -11   -1    0    0    0    0  0.00000000000E+00  0.00000000000E+00  0.45593999997E+02  0.45594000000E+02  0.51100000000E-03 0. -1.
         11   -1    0    0    0    0 -0.00000000000E+00 -0.00000000000E+00 -0.45593999997E+02  0.45594000000E+02  0.51100000000E-03 0.  1.
    9900012    2    1    2    0    0  0.77155361686E+00 -0.76061124715E+00  0.46822688704E+00  0.90007720003E+02  0.89999981107E+02 0.  0.
        -12    1    1    2    0    0 -0.77155361686E+00  0.76061124715E+00 -0.46822688704E+00  0.11802799968E+01  0.00000000000E+00 0.  1.
         11    1    3    3    0    0 -0.54446563440E+01  0.77184525286E+01  0.17036702325E+01  0.95979833644E+01  0.51100000000E-03 0. -1.
        -11    1    3    3    0    0  0.66379285310E+01  0.34353615187E+02  0.94888805722E+01  0.36252887145E+02  0.51100000000E-03 0.  1.
         12    1    3    3    0    0 -0.42171857008E+00 -0.42832678963E+02 -0.10724323918E+02  0.44156849493E+02  0.00000000000E+00 0. -1.
</event>
<event>
 7    1  0.1910099E-015  0.9000764E+02  0.7816164E-02  0.1186339E+00
        -11   -1    0    0    0    0  0.00000000000E+00  0.00000000000E+00  0.45593999997E+02  0.45594000000E+02  0.51100000000E-03 0.  1.
         11   -1    0    0    0    0 -0.00000000000E+00 -0.00000000000E+00 -0.45593999997E+02  0.45594000000E+02  0.51100000000E-03 0. -1.
    9900012    2    1    2    0    0  0.85027409094E-01  0.98926094285E+00 -0.63826834029E+00  0.90007638467E+02  0.89999898495E+02 0.  0.
        -12    1    1    2    0    0 -0.85027409094E-01 -0.98926094285E+00  0.63826834029E+00  0.11803615326E+01  0.00000000000E+00 0.  1.
         11    1    3    3    0    0  0.14185469728E+02 -0.55230259834E+01 -0.33361019375E+02  0.36670001110E+02  0.51100000000E-03 0. -1.
        -11    1    3    3    0    0 -0.23282304040E+01  0.45564770410E+01 -0.87751073801E+01  0.10157984526E+02  0.51100000000E-03 0.  1.
        -12    1    3    3    0    0 -0.11772211915E+02  0.19558098852E+01  0.41497858414E+02  0.43179652832E+02  0.00000000000E+00 0.  1.
</event>
<event>
 7    1  0.1910099E-015  0.9000773E+02  0.7816164E-02  0.1186339E+00
        -11   -1    0    0    0    0  0.00000000000E+00  0.00000000000E+00  0.45593999997E+02  0.45594000000E+02  0.51100000000E-03 0. -1.
         11   -1    0    0    0    0 -0.00000000000E+00 -0.00000000000E+00 -0.45593999997E+02  0.45594000000E+02  0.51100000000E-03 0.  1.
    9900012    2    1    2    0    0  0.21968100413E+00 -0.11538322653E+01  0.11594806135E+00  0.90007731983E+02  0.89999993245E+02 0.  0.
        -12    1    1    2    0    0 -0.21968100413E+00  0.11538322653E+01 -0.11594806135E+00  0.11802680174E+01  0.00000000000E+00 0.  1.
         11    1    3    3    0    0 -0.23448487774E+02 -0.23579385876E+02  0.28919515612E+02  0.44069914916E+02  0.51100000000E-03 0. -1.
        -11    1    3    3    0    0  0.68628531888E+01  0.70799126081E+01 -0.85711518008E+00  0.98974018370E+01  0.51100000000E-03 0.  1.
        -12    1    3    3    0    0  0.16805315589E+02  0.15345641003E+02 -0.27946452371E+02  0.36040415230E+02  0.00000000000E+00 0.  1.
</event>
<event>
 7    1  0.1910099E-015  0.9000771E+02  0.7816164E-02  0.1186339E+00
        -11   -1    0    0    0    0  0.00000000000E+00  0.00000000000E+00  0.45593999997E+02  0.45594000000E+02  0.51100000000E-03 0.  1.
         11   -1    0    0    0    0 -0.00000000000E+00 -0.00000000000E+00 -0.45593999997E+02  0.45594000000E+02  0.51100000000E-03 0. -1.
    9900012    2    1    2    0    0 -0.19437106942E+00 -0.41282261483E+00 -0.10885280757E+01  0.90007705124E+02  0.89999966031E+02 0.  0.
        -12    1    1    2    0    0  0.19437106942E+00  0.41282261483E+00  0.10885280757E+01  0.11802948765E+01  0.00000000000E+00 0.  1.
         11    1    3    3    0    0  0.45715950187E+01  0.54398271191E+00 -0.10504528726E+02  0.11469111658E+02  0.51100000000E-03 0. -1.
        -11    1    3    3    0    0  0.98842836754E+01 -0.25680843493E+02  0.31842566701E+02  0.42085078598E+02  0.51100000000E-03 0.  1.
         12    1    3    3    0    0 -0.14650249764E+02  0.24724038166E+02 -0.22426566051E+02  0.36453514868E+02  0.00000000000E+00 0. -1.
</event>
<event>
 7    1  0.1910099E-015  0.9000765E+02  0.7816164E-02  0.1186339E+00
        -11   -1    0    0    0    0  0.00000000000E+00  0.00000000000E+00  0.45593999997E+02  0.45594000000E+02  0.51100000000E-03 0. -1.
         11   -1    0    0    0    0 -0.00000000000E+00 -0.00000000000E+00 -0.45593999997E+02  0.45594000000E+02  0.51100000000E-03 0.  1.
    9900012    2    1    2    0    0  0.99008865466E+00 -0.48042996425E+00 -0.42678000372E+00  0.90007648499E+02  0.89999908659E+02 0.  0.
        -12    1    1    2    0    0 -0.99008865466E+00  0.48042996425E+00  0.42678000372E+00  0.11803515011E+01  0.00000000000E+00 0.  1.
         11    1    3    3    0    0  0.11836841552E+02 -0.61028763017E+01 -0.24308665336E+02  0.27717632073E+02  0.51100000000E-03 0. -1.
        -11    1    3    3    0    0 -0.21358448448E+02 -0.11952741966E+02 -0.67990318104E+01  0.25402326556E+02  0.51100000000E-03 0.  1.
        -12    1    3    3    0    0  0.10511695551E+02  0.17575188304E+02  0.30680917142E+02  0.36887689870E+02  0.00000000000E+00 0.  1.
</event>
<event>
 7    1  0.1910099E-015  0.9000762E+02  0.7816164E-02  0.1186339E+00
        -11   -1    0    0    0    0  0.00000000000E+00  0.00000000000E+00  0.45593999997E+02  0.45594000000E+02  0.51100000000E-03 0. -1.
         11   -1    0    0    0    0 -0.00000000000E+00 -0.00000000000E+00 -0.45593999997E+02  0.45594000000E+02  0.51100000000E-03 0.  1.
    9900012    2    1    2    0    0 -0.53062084303E+00  0.10563070555E+00  0.10490848573E+01  0.90007620670E+02  0.89999880463E+02 0.  0.
        -12    1    1    2    0    0  0.53062084303E+00 -0.10563070555E+00 -0.10490848573E+01  0.11803793301E+01  0.00000000000E+00 0.  1.
         11    1    3    3    0    0  0.30469479844E+02 -0.10789471320E+02  0.19488559078E+02  0.37743950887E+02  0.51100000000E-03 0. -1.
        -11    1    3    3    0    0  0.55203941376E+01  0.74629070827E+01  0.30255563175E+01  0.97633869559E+01  0.51100000000E-03 0.  1.
        -12    1    3    3    0    0 -0.36520494825E+02  0.34321949428E+01 -0.21465030538E+02  0.42500282827E+02  0.00000000000E+00 0.  1.
</event>
<event>
 7    1  0.1910099E-015  0.9000764E+02  0.7816164E-02  0.1186339E+00
        -11   -1    0    0    0    0  0.00000000000E+00  0.00000000000E+00  0.45593999997E+02  0.45594000000E+02  0.51100000000E-03 0.  1.
         11   -1    0    0    0    0 -0.00000000000E+00 -0.00000000000E+00 -0.45593999997E+02  0.45594000000E+02  0.51100000000E-03 0. -1.
    9900012    2    1    2    0    0 -0.83561520846E+00 -0.28062778236E+00 -0.78501115515E+00  0.90007641054E+02  0.89999901115E+02 0.  0.
        -12    1    1    2    0    0  0.83561520846E+00  0.28062778236E+00  0.78501115515E+00  0.11803589465E+01  0.00000000000E+00 0.  1.
         11    1    3    3    0    0  0.12439751380E+02  0.30235925939E+01 -0.34750408388E+02  0.37033503884E+02  0.51100000000E-03 0. -1.
        -11    1    3    3    0    0  0.28150404157E+01  0.27781526060E+01 -0.72802547731E+01  0.82852093676E+01  0.51100000000E-03 0.  1.
        -12    1    3    3    0    0 -0.16090407004E+02 -0.60823729822E+01  0.41245652006E+02  0.44688927801E+02  0.00000000000E+00 0.  1.
</event>
<event>
 7    1  0.1910099E-015  0.9000776E+02  0.7816164E-02  0.1186339E+00
        -11   -1    0    0    0    0  0.00000000000E+00  0.00000000000E+00  0.45593999997E+02  0.45594000000E+02  0.51100000000E-03 0.  1.
         11   -1    0    0    0    0 -0.00000000000E+00 -0.00000000000E+00 -0.45593999997E+02  0.45594000000E+02  0.51100000000E-03 0. -1.
    9900012    2    1    2    0    0  0.66048480524E+00 -0.65267089503E+00 -0.72853099255E+00  0.90007755584E+02  0.90000017157E+02 0.  0.
        -12    1    1    2    0    0 -0.66048480524E+00  0.65267089503E+00  0.72853099255E+00  0.11802444163E+01  0.00000000000E+00 0.  1.
         11    1    3    3    0    0 -0.45394943806E+01 -0.89893850656E+01 -0.19952773536E+01  0.10266313120E+02  0.51100000000E-03 0. -1.
        -11    1    3    3    0    0  0.32770054125E+02  0.19703505149E+01  0.26219914788E+02  0.42014790970E+02  0.51100000000E-03 0.  1.
         12    1    3    3    0    0 -0.27570074939E+02  0.63663636557E+01 -0.24953168427E+02  0.37726651494E+02  0.00000000000E+00 0. -1.
</event>
<event>
 7    1  0.1910099E-015  0.9000771E+02  0.7816164E-02  0.1186339E+00
        -11   -1    0    0    0    0  0.00000000000E+00  0.00000000000E+00  0.45593999997E+02  0.45594000000E+02  0.51100000000E-03 0. -1.
         11   -1    0    0    0    0 -0.00000000000E+00 -0.00000000000E+00 -0.45593999997E+02  0.45594000000E+02  0.51100000000E-03 0.  1.
    9900012    2    1    2    0    0 -0.22459145850E+00  0.11203965902E+01  0.29555283430E+00  0.90007711340E+02  0.89999972330E+02 0.  0.
        -12    1    1    2    0    0  0.22459145850E+00 -0.11203965902E+01 -0.29555283430E+00  0.11802886598E+01  0.00000000000E+00 0.  1.
         11    1    3    3    0    0 -0.10367490272E+02 -0.75485379086E+01  0.34650070577E+02  0.36947160518E+02  0.51100000000E-03 0. -1.
        -11    1    3    3    0    0 -0.33166624964E+01 -0.82273880299E+01  0.34511672692E+01  0.95184410326E+01  0.51100000000E-03 0.  1.
        -12    1    3    3    0    0  0.13459561310E+02  0.16896322529E+02 -0.37805685012E+02  0.43542109789E+02  0.00000000000E+00 0.  1.
</event>
<event>
 7    1  0.1910099E-015  0.9000829E+02  0.7816164E-02  0.1186338E+00
        -11   -1    0    0    0    0  0.00000000000E+00  0.00000000000E+00  0.45593999997E+02  0.45594000000E+02  0.51100000000E-03 0. -1.
         11   -1    0    0    0    0 -0.00000000000E+00 -0.00000000000E+00 -0.45593999997E+02  0.45594000000E+02  0.51100000000E-03 0.  1.
    9900012    2    1    2    0    0  0.92313003007E+00 -0.64479963835E+00 -0.35183996938E+00  0.90008285208E+02  0.90000553771E+02 0.  0.
        -12    1    1    2    0    0 -0.92313003007E+00  0.64479963835E+00  0.35183996938E+00  0.11797147918E+01  0.00000000000E+00 0.  1.
         11    1    3    3    0    0 -0.75050064805E+01  0.34978834911E+01  0.35641264529E+01  0.90146163991E+01  0.51100000000E-03 0. -1.
        -11    1    3    3    0    0  0.27136434200E+02  0.30347152192E+01  0.30644233187E+02  0.41044665736E+02  0.51100000000E-03 0.  1.
         12    1    3    3    0    0 -0.18708297689E+02 -0.71773983486E+01 -0.34560199609E+02  0.39949003073E+02  0.00000000000E+00 0. -1.
</event>
<event>
 7    1  0.1910099E-015  0.9000784E+02  0.7816164E-02  0.1186339E+00
        -11   -1    0    0    0    0  0.00000000000E+00  0.00000000000E+00  0.45593999997E+02  0.45594000000E+02  0.51100000000E-03 0.  1.
         11   -1    0    0    0    0 -0.00000000000E+00 -0.00000000000E+00 -0.45593999997E+02  0.45594000000E+02  0.51100000000E-03 0. -1.
    9900012    2    1    2    0    0  0.81236249637E+00  0.73455889253E+00  0.43963187050E+00  0.90007836548E+02  0.90000099190E+02 0.  0.
        -12    1    1    2    0    0 -0.81236249637E+00 -0.73455889253E+00 -0.43963187050E+00  0.11801634521E+01  0.00000000000E+00 0.  1.
         11    1    3    3    0    0 -0.90259390501E+01  0.46026087362E+01 -0.39041924415E+02  0.40335139087E+02  0.51100000000E-03 0. -1.
        -11    1    3    3    0    0  0.72158638852E+01  0.15219274984E+01 -0.20948903320E+01  0.76663890251E+01  0.51100000000E-03 0.  1.
        -12    1    3    3    0    0  0.26224376613E+01 -0.53899773420E+01  0.41576446618E+02  0.42006308435E+02  0.00000000000E+00 0.  1.
</event>
<event>
 7    1  0.1910099E-015  0.9000794E+02  0.7816164E-02  0.1186339E+00
        -11   -1    0    0    0    0  0.00000000000E+00  0.00000000000E+00  0.45593999997E+02  0.45594000000E+02  0.51100000000E-03 0.  1.
         11   -1    0    0    0    0 -0.00000000000E+00 -0.00000000000E+00 -0.45593999997E+02  0.45594000000E+02  0.51100000000E-03 0. -1.
    9900012    2    1    2    0    0  0.78384908611E+00  0.47022739144E+00 -0.74632405873E+00  0.90007943734E+02  0.90000207791E+02 0.  0.
        -12    1    1    2    0    0 -0.78384908611E+00 -0.47022739144E+00  0.74632405873E+00  0.11800562656E+01  0.00000000000E+00 0.  1.
         11    1    3    3    0    0  0.46396378022E+00 -0.83527611430E+01  0.17948864257E+01  0.85560211923E+01  0.51100000000E-03 0. -1.
        -11    1    3    3    0    0  0.21876844374E+01  0.94965336279E+00  0.39028836157E+02  0.39101634962E+02  0.51100000000E-03 0.  1.
         12    1    3    3    0    0 -0.18677991315E+01  0.78733351716E+01 -0.41570046641E+02  0.42350287580E+02  0.00000000000E+00 0. -1.
</event>
<event>
 7    1  0.1910099E-015  0.9000776E+02  0.7816164E-02  0.1186339E+00
        -11   -1    0    0    0    0  0.00000000000E+00  0.00000000000E+00  0.45593999997E+02  0.45594000000E+02  0.51100000000E-03 0.  1.
         11   -1    0    0    0    0 -0.00000000000E+00 -0.00000000000E+00 -0.45593999997E+02  0.45594000000E+02  0.51100000000E-03 0. -1.
    9900012    2    1    2    0    0 -0.45966923692E-01  0.11779854097E+01  0.56653632001E-01  0.90007757560E+02  0.90000019160E+02 0.  0.
        -12    1    1    2    0    0  0.45966923692E-01 -0.11779854097E+01 -0.56653632001E-01  0.11802424402E+01  0.00000000000E+00 0.  1.
         11    1    3    3    0    0 -0.29314198799E+02 -0.25229294670E+02 -0.73138763089E+01  0.39361559265E+02  0.51100000000E-03 0. -1.
        -11    1    3    3    0    0  0.26324302475E+01 -0.53223950191E+01  0.70500973606E+01  0.92174535965E+01  0.51100000000E-03 0.  1.
        -12    1    3    3    0    0  0.26635801628E+02  0.31729675099E+02  0.32043258026E+00  0.41428744699E+02  0.00000000000E+00 0.  1.
</event>
<event>
 7    1  0.1910099E-015  0.9000773E+02  0.7816164E-02  0.1186339E+00
        -11   -1    0    0    0    0  0.00000000000E+00  0.00000000000E+00  0.45593999997E+02  0.45594000000E+02  0.51100000000E-03 0. -1.
         11   -1    0    0    0    0 -0.00000000000E+00 -0.00000000000E+00 -0.45593999997E+02  0.45594000000E+02  0.51100000000E-03 0.  1.
    9900012    2    1    2    0    0  0.95315930336E+00  0.24714609695E+00  0.65072221688E+00  0.90007731702E+02  0.89999992961E+02 0.  0.
        -12    1    1    2    0    0 -0.95315930336E+00 -0.24714609695E+00 -0.65072221688E+00  0.11802682976E+01  0.00000000000E+00 0.  1.
         11    1    3    3    0    0 -0.28113921830E+02  0.13625138471E+02  0.26272376701E+02  0.40820029113E+02  0.51100000000E-03 0. -1.
        -11    1    3    3    0    0  0.10905349822E+02  0.13811181849E+01  0.37665108459E+01  0.11619842787E+02  0.51100000000E-03 0.  1.
        -12    1    3    3    0    0  0.18161731311E+02 -0.14759110559E+02 -0.29388165330E+02  0.37567859803E+02  0.00000000000E+00 0.  1.
</event>
<event>
 7    1  0.1910099E-015  0.9000777E+02  0.7816164E-02  0.1186339E+00
        -11   -1    0    0    0    0  0.00000000000E+00  0.00000000000E+00  0.45593999997E+02  0.45594000000E+02  0.51100000000E-03 0.  1.
         11   -1    0    0    0    0 -0.00000000000E+00 -0.00000000000E+00 -0.45593999997E+02  0.45594000000E+02  0.51100000000E-03 0. -1.
    9900012    2    1    2    0    0  0.95730487376E+00  0.52566681549E+00 -0.44741629036E+00  0.90007771395E+02  0.90000033178E+02 0.  0.
        -12    1    1    2    0    0 -0.95730487376E+00 -0.52566681549E+00  0.44741629036E+00  0.11802286046E+01  0.00000000000E+00 0.  1.
         11    1    3    3    0    0 -0.68090523483E+01 -0.20160791693E+02 -0.30756893595E+02  0.37400631271E+02  0.51100000000E-03 0. -1.
        -11    1    3    3    0    0 -0.22107677270E+01 -0.99013628879E+01  0.35142251554E+01  0.10736585104E+02  0.51100000000E-03 0.  1.
        -12    1    3    3    0    0  0.99771249491E+01  0.30587821396E+02  0.26795252149E+02  0.41870555021E+02  0.00000000000E+00 0.  1.
</event>
<event>
 7    1  0.1910099E-015  0.9000800E+02  0.7816164E-02  0.1186339E+00
        -11   -1    0    0    0    0  0.00000000000E+00  0.00000000000E+00  0.45593999997E+02  0.45594000000E+02  0.51100000000E-03 0.  1.
         11   -1    0    0    0    0 -0.00000000000E+00 -0.00000000000E+00 -0.45593999997E+02  0.45594000000E+02  0.51100000000E-03 0. -1.
    9900012    2    1    2    0    0  0.28880355700E+00  0.29264516631E+00 -0.11060500674E+01  0.90008001932E+02  0.90000266758E+02 0.  0.
        -12    1    1    2    0    0 -0.28880355700E+00 -0.29264516631E+00  0.11060500674E+01  0.11799980676E+01  0.00000000000E+00 0.  1.
         11    1    3    3    0    0 -0.61007374244E+01  0.57094606188E+01 -0.41717057246E+01  0.93391684102E+01  0.51100000000E-03 0. -1.
        -11    1    3    3    0    0 -0.25259589153E+02 -0.15738568860E+02  0.26587168034E+02  0.39907729806E+02  0.51100000000E-03 0.  1.
         12    1    3    3    0    0  0.31649130134E+02  0.10321753408E+02 -0.23521512377E+02  0.40761103716E+02  0.00000000000E+00 0. -1.
</event>
<event>
 7    1  0.1910099E-015  0.9000778E+02  0.7816164E-02  0.1186339E+00
        -11   -1    0    0    0    0  0.00000000000E+00  0.00000000000E+00  0.45593999997E+02  0.45594000000E+02  0.51100000000E-03 0.  1.
         11   -1    0    0    0    0 -0.00000000000E+00 -0.00000000000E+00 -0.45593999997E+02  0.45594000000E+02  0.51100000000E-03 0. -1.
    9900012    2    1    2    0    0  0.10096496438E+01  0.60321670635E+00 -0.98222370367E-01  0.90007783735E+02  0.90000045680E+02 0.  0.
        -12    1    1    2    0    0 -0.10096496438E+01 -0.60321670635E+00  0.98222370367E-01  0.11802162650E+01  0.00000000000E+00 0.  1.
         11    1    3    3    0    0 -0.25132790847E+01 -0.21724441822E+01 -0.96811726984E+01  0.10235291425E+02  0.51100000000E-03 0. -1.
        -11    1    3    3    0    0  0.28868321880E+02  0.18336097185E+02  0.28506219958E+02  0.44521871532E+02  0.51100000000E-03 0.  1.
         12    1    3    3    0    0 -0.25345393151E+02 -0.15560436297E+02 -0.18923269630E+02  0.35250620778E+02  0.00000000000E+00 0. -1.
</event>
<event>
 7    1  0.1910099E-015  0.9000776E+02  0.7816164E-02  0.1186339E+00
        -11   -1    0    0    0    0  0.00000000000E+00  0.00000000000E+00  0.45593999997E+02  0.45594000000E+02  0.51100000000E-03 0. -1.
         11   -1    0    0    0    0 -0.00000000000E+00 -0.00000000000E+00 -0.45593999997E+02  0.45594000000E+02  0.51100000000E-03 0.  1.
    9900012    2    1    2    0    0  0.44716307789E+00  0.10916252304E+01 -0.36839116411E-01  0.90007763760E+02  0.90000025442E+02 0.  0.
        -12    1    1    2    0    0 -0.44716307789E+00 -0.10916252304E+01  0.36839116411E-01  0.11802362400E+01  0.00000000000E+00 0.  1.
         11    1    3    3    0    0  0.19080848905E+01 -0.83818225791E+01  0.11613538450E+01  0.86743576541E+01  0.51100000000E-03 0. -1.
        -11    1    3    3    0    0 -0.33543487262E+02 -0.15266933731E+02  0.11943535953E+02  0.38741358451E+02  0.51100000000E-03 0.  1.
         12    1    3    3    0    0  0.32082565450E+02  0.24740381541E+02 -0.13141728914E+02  0.42592047655E+02  0.00000000000E+00 0. -1.
</event>
<event>
 7    1  0.1910099E-015  0.9000775E+02  0.7816164E-02  0.1186339E+00
        -11   -1    0    0    0    0  0.00000000000E+00  0.00000000000E+00  0.45593999997E+02  0.45594000000E+02  0.51100000000E-03 0.  1.
         11   -1    0    0    0    0 -0.00000000000E+00 -0.00000000000E+00 -0.45593999997E+02  0.45594000000E+02  0.51100000000E-03 0. -1.
    9900012    2    1    2    0    0  0.81937458712E+00 -0.55972667604E+00 -0.63900445851E+00  0.90007747754E+02  0.90000009224E+02 0.  0.
        -12    1    1    2    0    0 -0.81937458712E+00  0.55972667604E+00  0.63900445851E+00  0.11802522459E+01  0.00000000000E+00 0.  1.
         11    1    3    3    0    0 -0.13637601025E+02 -0.37376200187E+02  0.56030238744E+01  0.40179078871E+02  0.51100000000E-03 0. -1.
        -11    1    3    3    0    0 -0.78937188163E+01  0.34082468937E+01  0.19276560084E+01  0.88115152833E+01  0.51100000000E-03 0.  1.
        -12    1    3    3    0    0  0.22350694428E+02  0.33408226618E+02 -0.81696843414E+01  0.41017153599E+02  0.00000000000E+00 0.  1.
</event>
<event>
 7    1  0.1910099E-015  0.9000774E+02  0.7816164E-02  0.1186339E+00
        -11   -1    0    0    0    0  0.00000000000E+00  0.00000000000E+00  0.45593999997E+02  0.45594000000E+02  0.51100000000E-03 0. -1.
         11   -1    0    0    0    0 -0.00000000000E+00 -0.00000000000E+00 -0.45593999997E+02  0.45594000000E+02  0.51100000000E-03 0.  1.
    9900012    2    1    2    0    0 -0.33529583413E-01  0.94234611108E+00  0.70984734315E+00  0.90007735760E+02  0.89999997072E+02 0.  0.
        -12    1    1    2    0    0  0.33529583413E-01 -0.94234611108E+00 -0.70984734315E+00  0.11802642402E+01  0.00000000000E+00 0.  1.
         11    1    3    3    0    0  0.56132166161E+01 -0.37547786660E+02  0.20044308767E+02  0.42931559464E+02  0.51100000000E-03 0. -1.
        -11    1    3    3    0    0 -0.59030431771E+01  0.29663294159E+01 -0.65989139007E+01  0.93375957229E+01  0.51100000000E-03 0.  1.
        -12    1    3    3    0    0  0.25629697757E+00  0.35523803355E+02 -0.12735547523E+02  0.37738580573E+02  0.00000000000E+00 0.  1.
</event>
<event>
 7    1  0.1910099E-015  0.9000778E+02  0.7816164E-02  0.1186339E+00
        -11   -1    0    0    0    0  0.00000000000E+00  0.00000000000E+00  0.45593999997E+02  0.45594000000E+02  0.51100000000E-03 0.  1.
         11   -1    0    0    0    0 -0.00000000000E+00 -0.00000000000E+00 -0.45593999997E+02  0.45594000000E+02  0.51100000000E-03 0. -1.
    9900012    2    1    2    0    0  0.11383106430E+00 -0.76442320437E+00 -0.89197982368E+00  0.90007776143E+02  0.90000037988E+02 0.  0.
        -12    1    1    2    0    0 -0.11383106430E+00  0.76442320437E+00  0.89197982368E+00  0.11802238569E+01  0.00000000000E+00 0.  1.
         11    1    3    3    0    0 -0.35429798265E+01 -0.33141191433E+02 -0.15115328040E+02  0.36597328013E+02  0.51100000000E-03 0. -1.
        -11    1    3    3    0    0  0.71057409300E-01 -0.58523114120E+01 -0.73283704043E+01  0.93786785349E+01  0.51100000000E-03 0.  1.
        -12    1    3    3    0    0  0.35857534815E+01  0.38229079640E+02  0.21551718621E+02  0.44031769595E+02  0.00000000000E+00 0.  1.
</event>
<event>
 7    1  0.1910099E-015  0.9000770E+02  0.7816164E-02  0.1186339E+00
        -11   -1    0    0    0    0  0.00000000000E+00  0.00000000000E+00  0.45593999997E+02  0.45594000000E+02  0.51100000000E-03 0.  1.
         11   -1    0    0    0    0 -0.00000000000E+00 -0.00000000000E+00 -0.45593999997E+02  0.45594000000E+02  0.51100000000E-03 0. -1.
    9900012    2    1    2    0    0 -0.26000066741E+00 -0.11494963456E+01  0.64488594950E-01  0.90007703014E+02  0.89999963894E+02 0.  0.
        -12    1    1    2    0    0  0.26000066741E+00  0.11494963456E+01 -0.64488594950E-01  0.11802969857E+01  0.00000000000E+00 0.  1.
         11    1    3    3    0    0  0.17329311352E+02 -0.49120977711E+01 -0.67641669937E+00  0.18024740671E+02  0.51100000000E-03 0. -1.
        -11    1    3    3    0    0  0.19240840924E+02 -0.14163534956E+01  0.21905499204E+02  0.29190185205E+02  0.51100000000E-03 0.  1.
         12    1    3    3    0    0 -0.36830152943E+02  0.51789549211E+01 -0.21164593909E+02  0.42792777138E+02  0.00000000000E+00 0. -1.
</event>
<event>
 7    1  0.1910099E-015  0.9000768E+02  0.7816164E-02  0.1186339E+00
        -11   -1    0    0    0    0  0.00000000000E+00  0.00000000000E+00  0.45593999997E+02  0.45594000000E+02  0.51100000000E-03 0.  1.
         11   -1    0    0    0    0 -0.00000000000E+00 -0.00000000000E+00 -0.45593999997E+02  0.45594000000E+02  0.51100000000E-03 0. -1.
    9900012    2    1    2    0    0 -0.68431442365E+00  0.88808693930E+00 -0.36899894885E+00  0.90007684421E+02  0.89999945055E+02 0.  0.
        -12    1    1    2    0    0  0.68431442365E+00 -0.88808693930E+00  0.36899894885E+00  0.11803155792E+01  0.00000000000E+00 0.  1.
         11    1    3    3    0    0 -0.23705442649E+01  0.22520762726E+02 -0.27524729004E+02  0.35642880648E+02  0.51100000000E-03 0. -1.
        -11    1    3    3    0    0  0.10571464685E+02  0.38685073051E+01 -0.50479158060E+01  0.12337044565E+02  0.51100000000E-03 0.  1.
        -12    1    3    3    0    0 -0.88852348439E+01 -0.25501183092E+02  0.32203645861E+02  0.42027759208E+02  0.00000000000E+00 0.  1.
</event>
<event>
 7    1  0.1910099E-015  0.9000758E+02  0.7816164E-02  0.1186339E+00
        -11   -1    0    0    0    0  0.00000000000E+00  0.00000000000E+00  0.45593999997E+02  0.45594000000E+02  0.51100000000E-03 0.  1.
         11   -1    0    0    0    0 -0.00000000000E+00 -0.00000000000E+00 -0.45593999997E+02  0.45594000000E+02  0.51100000000E-03 0. -1.
    9900012    2    1    2    0    0  0.10004668602E+01  0.24969531792E+00  0.57455892053E+00  0.90007576498E+02  0.89999835708E+02 0.  0.
        -12    1    1    2    0    0 -0.10004668602E+01 -0.24969531792E+00 -0.57455892053E+00  0.11804235017E+01  0.00000000000E+00 0.  1.
         11    1    3    3    0    0 -0.17640097452E+02  0.66894855352E+01 -0.28092696934E+02  0.33839649468E+02  0.51100000000E-03 0. -1.
        -11    1    3    3    0    0 -0.30955930524E+00  0.35950851247E+01 -0.10725991940E+02  0.11316685353E+02  0.51100000000E-03 0.  1.
        -12    1    3    3    0    0  0.18950123618E+02 -0.10034875342E+02  0.39393247794E+02  0.44851241678E+02  0.00000000000E+00 0.  1.
</event>
<event>
 7    1  0.1910099E-015  0.9000788E+02  0.7816164E-02  0.1186339E+00
        -11   -1    0    0    0    0  0.00000000000E+00  0.00000000000E+00  0.45593999997E+02  0.45594000000E+02  0.51100000000E-03 0.  1.
         11   -1    0    0    0    0 -0.00000000000E+00 -0.00000000000E+00 -0.45593999997E+02  0.45594000000E+02  0.51100000000E-03 0. -1.
    9900012    2    1    2    0    0  0.15784717290E+00 -0.10685653356E+01 -0.47533469613E+00  0.90007876837E+02  0.90000140011E+02 0.  0.
        -12    1    1    2    0    0 -0.15784717290E+00  0.10685653356E+01  0.47533469613E+00  0.11801231630E+01  0.00000000000E+00 0.  1.
         11    1    3    3    0    0 -0.80602518951E+01  0.96099239934E+01  0.39627004829E+01  0.13153755933E+02  0.51100000000E-03 0. -1.
        -11    1    3    3    0    0 -0.15418353522E+02  0.23335102793E+02  0.14277466495E+02  0.31402208480E+02  0.51100000000E-03 0.  1.
         12    1    3    3    0    0  0.23636452590E+02 -0.34013592122E+02 -0.18715501674E+02  0.45451912424E+02  0.00000000000E+00 0. -1.
</event>
<event>
 7    1  0.1910099E-015  0.9000779E+02  0.7816164E-02  0.1186339E+00
        -11   -1    0    0    0    0  0.00000000000E+00  0.00000000000E+00  0.45593999997E+02  0.45594000000E+02  0.51100000000E-03 0.  1.
         11   -1    0    0    0    0 -0.00000000000E+00 -0.00000000000E+00 -0.45593999997E+02  0.45594000000E+02  0.51100000000E-03 0. -1.
    9900012    2    1    2    0    0  0.42197489864E+00  0.10585891604E+01  0.30696903567E+00  0.90007786539E+02  0.90000048521E+02 0.  0.
        -12    1    1    2    0    0 -0.42197489864E+00 -0.10585891604E+01 -0.30696903567E+00  0.11802134614E+01  0.00000000000E+00 0.  1.
         11    1    3    3    0    0  0.49183432947E+01 -0.66648689680E+01  0.79631071605E+01  0.11490067669E+02  0.51100000000E-03 0. -1.
        -11    1    3    3    0    0  0.21965817299E+02 -0.52456703502E+01  0.25563774734E+02  0.34110420195E+02  0.51100000000E-03 0.  1.
         12    1    3    3    0    0 -0.26462185695E+02  0.12969128479E+02 -0.33219912858E+02  0.44407298674E+02  0.00000000000E+00 0. -1.
</event>
<event>
 7    1  0.1910099E-015  0.9000779E+02  0.7816164E-02  0.1186339E+00
        -11   -1    0    0    0    0  0.00000000000E+00  0.00000000000E+00  0.45593999997E+02  0.45594000000E+02  0.51100000000E-03 0. -1.
         11   -1    0    0    0    0 -0.00000000000E+00 -0.00000000000E+00 -0.45593999997E+02  0.45594000000E+02  0.51100000000E-03 0.  1.
    9900012    2    1    2    0    0  0.80679347002E-01  0.10716329108E+01  0.48783598078E+00  0.90007792308E+02  0.90000054366E+02 0.  0.
        -12    1    1    2    0    0 -0.80679347002E-01 -0.10716329108E+01 -0.48783598078E+00  0.11802076922E+01  0.00000000000E+00 0.  1.
         11    1    3    3    0    0 -0.49458159681E+01 -0.28174888073E+02  0.23497711887E+02  0.37019290616E+02  0.51100000000E-03 0. -1.
        -11    1    3    3    0    0  0.61221695423E+01 -0.79819083014E+01 -0.21018485458E+01  0.10276652549E+02  0.51100000000E-03 0.  1.
        -12    1    3    3    0    0 -0.10956742271E+01  0.37228429286E+02 -0.20908027361E+02  0.42711849143E+02  0.00000000000E+00 0.  1.
</event>
<event>
 7    1  0.1910099E-015  0.9000760E+02  0.7816164E-02  0.1186339E+00
        -11   -1    0    0    0    0  0.00000000000E+00  0.00000000000E+00  0.45593999997E+02  0.45594000000E+02  0.51100000000E-03 0.  1.
         11   -1    0    0    0    0 -0.00000000000E+00 -0.00000000000E+00 -0.45593999997E+02  0.45594000000E+02  0.51100000000E-03 0. -1.
    9900012    2    1    2    0    0  0.10927910190E+01  0.40738002625E+00 -0.18215869974E+00  0.90007604944E+02  0.89999864529E+02 0.  0.
        -12    1    1    2    0    0 -0.10927910190E+01 -0.40738002625E+00  0.18215869974E+00  0.11803950562E+01  0.00000000000E+00 0.  1.
         11    1    3    3    0    0 -0.19936018521E+02 -0.33779891368E+02  0.38492813056E+01  0.39412470896E+02  0.51100000000E-03 0. -1.
        -11    1    3    3    0    0  0.71046757057E+01 -0.39374281168E+01 -0.57804300573E+01  0.99696102715E+01  0.51100000000E-03 0.  1.
        -12    1    3    3    0    0  0.13924133834E+02  0.38124699511E+02  0.17489900519E+01  0.40625523776E+02  0.00000000000E+00 0.  1.
</event>
<event>
 7    1  0.1910099E-015  0.9000816E+02  0.7816164E-02  0.1186338E+00
        -11   -1    0    0    0    0  0.00000000000E+00  0.00000000000E+00  0.45593999997E+02  0.45594000000E+02  0.51100000000E-03 0. -1.
         11   -1    0    0    0    0 -0.00000000000E+00 -0.00000000000E+00 -0.45593999997E+02  0.45594000000E+02  0.51100000000E-03 0.  1.
    9900012    2    1    2    0    0  0.92808231131E+00 -0.35360353775E+00 -0.63690519559E+00  0.90008160830E+02  0.90000427752E+02 0.  0.
        -12    1    1    2    0    0 -0.92808231131E+00  0.35360353775E+00  0.63690519559E+00  0.11798391698E+01  0.00000000000E+00 0.  1.
         11    1    3    3    0    0  0.67340829721E+01 -0.11677258030E+01 -0.17903048561E+02  0.19163261859E+02  0.51100000000E-03 0. -1.
        -11    1    3    3    0    0  0.13490780010E+02 -0.22729065438E+02 -0.11626598129E+02  0.28875410738E+02  0.51100000000E-03 0.  1.
         12    1    3    3    0    0 -0.19296780671E+02  0.23543187703E+02  0.28892741494E+02  0.41969488233E+02  0.00000000000E+00 0. -1.
</event>
<event>
 7    1  0.1910099E-015  0.9000778E+02  0.7816164E-02  0.1186339E+00
        -11   -1    0    0    0    0  0.00000000000E+00  0.00000000000E+00  0.45593999997E+02  0.45594000000E+02  0.51100000000E-03 0. -1.
         11   -1    0    0    0    0 -0.00000000000E+00 -0.00000000000E+00 -0.45593999997E+02  0.45594000000E+02  0.51100000000E-03 0.  1.
    9900012    2    1    2    0    0 -0.68797186975E+00  0.47456210377E+00  0.83331524368E+00  0.90007775962E+02  0.90000037805E+02 0.  0.
        -12    1    1    2    0    0  0.68797186975E+00 -0.47456210377E+00 -0.83331524368E+00  0.11802240377E+01  0.00000000000E+00 0.  1.
         11    1    3    3    0    0 -0.31484859418E+01 -0.11006115727E+02 -0.12887834579E+02  0.17237860295E+02  0.51100000000E-03 0. -1.
        -11    1    3    3    0    0  0.22029917952E+02 -0.98049059152E+01 -0.17818261148E+02  0.29982393093E+02  0.51100000000E-03 0.  1.
         12    1    3    3    0    0 -0.19569403880E+02  0.21285583746E+02  0.31539410972E+02  0.42787522575E+02  0.00000000000E+00 0. -1.
</event>
<event>
 7    1  0.1910099E-015  0.9000776E+02  0.7816164E-02  0.1186339E+00
        -11   -1    0    0    0    0  0.00000000000E+00  0.00000000000E+00  0.45593999997E+02  0.45594000000E+02  0.51100000000E-03 0. -1.
         11   -1    0    0    0    0 -0.00000000000E+00 -0.00000000000E+00 -0.45593999997E+02  0.45594000000E+02  0.51100000000E-03 0.  1.
    9900012    2    1    2    0    0  0.37181622790E+00 -0.72866086183E-02  0.11201214955E+01  0.90007757412E+02  0.90000019010E+02 0.  0.
        -12    1    1    2    0    0 -0.37181622790E+00  0.72866086183E-02 -0.11201214955E+01  0.11802425880E+01  0.00000000000E+00 0.  1.
         11    1    3    3    0    0 -0.95660529256E+01  0.11907590705E+02  0.39505247342E+02  0.42355219900E+02  0.51100000000E-03 0. -1.
        -11    1    3    3    0    0 -0.12774852332E+01  0.29513733919E+01  0.15640667283E+01  0.35761541370E+01  0.51100000000E-03 0.  1.
        -12    1    3    3    0    0  0.11215354387E+02 -0.14866250705E+02 -0.39949192575E+02  0.44076383375E+02  0.00000000000E+00 0.  1.
</event>
<event>
 7    1  0.1910099E-015  0.9000783E+02  0.7816164E-02  0.1186339E+00
        -11   -1    0    0    0    0  0.00000000000E+00  0.00000000000E+00  0.45593999997E+02  0.45594000000E+02  0.51100000000E-03 0.  1.
         11   -1    0    0    0    0 -0.00000000000E+00 -0.00000000000E+00 -0.45593999997E+02  0.45594000000E+02  0.51100000000E-03 0. -1.
    9900012    2    1    2    0    0  0.33012029278E+00 -0.11084551786E+01  0.23485099668E+00  0.90007827436E+02  0.90000089958E+02 0.  0.
        -12    1    1    2    0    0 -0.33012029278E+00  0.11084551786E+01 -0.23485099668E+00  0.11801725642E+01  0.00000000000E+00 0.  1.
         11    1    3    3    0    0  0.43166644106E+01 -0.24175444990E+01 -0.67199823203E+01  0.83448352700E+01  0.51100000000E-03 0. -1.
        -11    1    3    3    0    0  0.25261850051E+02 -0.57703403815E+01 -0.26226174538E+02  0.36868280775E+02  0.51100000000E-03 0.  1.
         12    1    3    3    0    0 -0.29248394169E+02  0.70794297019E+01  0.33181007855E+02  0.44794711391E+02  0.00000000000E+00 0. -1.
</event>
<event>
 7    1  0.1910099E-015  0.9000779E+02  0.7816164E-02  0.1186339E+00
        -11   -1    0    0    0    0  0.00000000000E+00  0.00000000000E+00  0.45593999997E+02  0.45594000000E+02  0.51100000000E-03 0. -1.
         11   -1    0    0    0    0 -0.00000000000E+00 -0.00000000000E+00 -0.45593999997E+02  0.45594000000E+02  0.51100000000E-03 0.  1.
    9900012    2    1    2    0    0 -0.68384774902E+00 -0.65272100492E+00  0.70655130136E+00  0.90007785106E+02  0.90000047070E+02 0.  0.
        -12    1    1    2    0    0  0.68384774902E+00  0.65272100492E+00 -0.70655130136E+00  0.11802148938E+01  0.00000000000E+00 0.  1.
         11    1    3    3    0    0 -0.98512329443E+01  0.13615456962E+01 -0.40861622445E+01  0.10751619383E+02  0.51100000000E-03 0. -1.
        -11    1    3    3    0    0 -0.65860658367E+01  0.29896493602E+02 -0.19383042614E+02  0.36233671276E+02  0.51100000000E-03 0.  1.
         12    1    3    3    0    0  0.15753451032E+02 -0.31910760304E+02  0.24175756159E+02  0.43022494447E+02  0.00000000000E+00 0. -1.
</event>
<event>
 7    1  0.1910099E-015  0.9000655E+02  0.7816164E-02  0.1186341E+00
        -11   -1    0    0    0    0  0.00000000000E+00  0.00000000000E+00  0.45593999997E+02  0.45594000000E+02  0.51100000000E-03 0. -1.
         11   -1    0    0    0    0 -0.00000000000E+00 -0.00000000000E+00 -0.45593999997E+02  0.45594000000E+02  0.51100000000E-03 0.  1.
    9900012    2    1    2    0    0  0.13788663707E+00  0.11179827766E+01 -0.35626352632E+00  0.90006550926E+02  0.89998796591E+02 0.  0.
        -12    1    1    2    0    0 -0.13788663707E+00 -0.11179827766E+01  0.35626352632E+00  0.11814490736E+01  0.00000000000E+00 0.  1.
         11    1    3    3    0    0 -0.55789945850E+01  0.80132968922E+01 -0.17820287667E+02  0.20319959657E+02  0.51100000000E-03 0. -1.
        -11    1    3    3    0    0  0.30689093981E+01  0.11508104027E+02 -0.22584449412E+02  0.25532567805E+02  0.51100000000E-03 0.  1.
         12    1    3    3    0    0  0.26479718240E+01 -0.18403418142E+02  0.40048473554E+02  0.44154023464E+02  0.00000000000E+00 0. -1.
</event>
<event>
 7    1  0.1910099E-015  0.9000690E+02  0.7816164E-02  0.1186341E+00
        -11   -1    0    0    0    0  0.00000000000E+00  0.00000000000E+00  0.45593999997E+02  0.45594000000E+02  0.51100000000E-03 0.  1.
         11   -1    0    0    0    0 -0.00000000000E+00 -0.00000000000E+00 -0.45593999997E+02  0.45594000000E+02  0.51100000000E-03 0. -1.
    9900012    2    1    2    0    0 -0.10130482395E+01  0.60602207332E+00 -0.38263098407E-01  0.90006901548E+02  0.89999151844E+02 0.  0.
        -12    1    1    2    0    0  0.10130482395E+01 -0.60602207332E+00  0.38263098407E-01  0.11810984521E+01  0.00000000000E+00 0.  1.
         11    1    3    3    0    0 -0.42571415212E+01 -0.33736471302E+01 -0.86959726789E+01  0.10253033209E+02  0.51100000000E-03 0. -1.
        -11    1    3    3    0    0 -0.37561544070E+02  0.42793635863E+01  0.93408298183E+01  0.38941413014E+02  0.51100000000E-03 0.  1.
         12    1    3    3    0    0  0.40805637351E+02 -0.29969438275E+00 -0.68312023781E+00  0.40812455325E+02  0.00000000000E+00 0. -1.
</event>
<event>
 7    1  0.1910099E-015  0.9000771E+02  0.7816164E-02  0.1186339E+00
        -11   -1    0    0    0    0  0.00000000000E+00  0.00000000000E+00  0.45593999997E+02  0.45594000000E+02  0.51100000000E-03 0.  1.
         11   -1    0    0    0    0 -0.00000000000E+00 -0.00000000000E+00 -0.45593999997E+02  0.45594000000E+02  0.51100000000E-03 0. -1.
    9900012    2    1    2    0    0 -0.39810492630E+00  0.99699974548E+00 -0.49050183854E+00  0.90007708477E+02  0.89999969429E+02 0.  0.
        -12    1    1    2    0    0  0.39810492630E+00 -0.99699974548E+00  0.49050183854E+00  0.11802915227E+01  0.00000000000E+00 0.  1.
         11    1    3    3    0    0  0.80717966797E+01  0.14423703571E+02 -0.63317479306E+01  0.17699947979E+02  0.51100000000E-03 0. -1.
        -11    1    3    3    0    0  0.10426099911E+02  0.18413065942E+02 -0.18410014047E+02  0.28047694633E+02  0.51100000000E-03 0.  1.
         12    1    3    3    0    0 -0.18896001517E+02 -0.31839769767E+02  0.24251260139E+02  0.44260065866E+02  0.00000000000E+00 0. -1.
</event>
<event>
 7    1  0.1910099E-015  0.9000773E+02  0.7816164E-02  0.1186339E+00
        -11   -1    0    0    0    0  0.00000000000E+00  0.00000000000E+00  0.45593999997E+02  0.45594000000E+02  0.51100000000E-03 0. -1.
         11   -1    0    0    0    0 -0.00000000000E+00 -0.00000000000E+00 -0.45593999997E+02  0.45594000000E+02  0.51100000000E-03 0.  1.
    9900012    2    1    2    0    0 -0.83980541665E+00  0.39769585085E+00  0.72773673169E+00  0.90007730591E+02  0.89999991835E+02 0.  0.
        -12    1    1    2    0    0  0.83980541665E+00 -0.39769585085E+00 -0.72773673169E+00  0.11802694092E+01  0.00000000000E+00 0.  1.
         11    1    3    3    0    0  0.26148562026E+02 -0.86931281923E+01  0.33300584245E+02  0.43223219282E+02  0.51100000000E-03 0. -1.
        -11    1    3    3    0    0 -0.11793773622E+02 -0.43012728236E+00 -0.29619753062E+01  0.12167637556E+02  0.51100000000E-03 0.  1.
        -12    1    3    3    0    0 -0.15194593821E+02  0.95209513255E+01 -0.29610872207E+02  0.34616873753E+02  0.00000000000E+00 0.  1.
</event>
<event>
 7    1  0.1910099E-015  0.9000782E+02  0.7816164E-02  0.1186339E+00
        -11   -1    0    0    0    0  0.00000000000E+00  0.00000000000E+00  0.45593999997E+02  0.45594000000E+02  0.51100000000E-03 0.  1.
         11   -1    0    0    0    0 -0.00000000000E+00 -0.00000000000E+00 -0.45593999997E+02  0.45594000000E+02  0.51100000000E-03 0. -1.
    9900012    2    1    2    0    0 -0.56904296313E+00 -0.99381818335E+00 -0.28518738525E+00  0.90007823606E+02  0.90000086078E+02 0.  0.
        -12    1    1    2    0    0  0.56904296313E+00  0.99381818335E+00  0.28518738525E+00  0.11801763937E+01  0.00000000000E+00 0.  1.
         11    1    3    3    0    0  0.26183566541E+01  0.56429472013E+01 -0.70813779867E+01  0.94257391825E+01  0.51100000000E-03 0. -1.
        -11    1    3    3    0    0 -0.86520158161E+01  0.24457887512E+02  0.31273636428E+02  0.40633557252E+02  0.51100000000E-03 0.  1.
         12    1    3    3    0    0  0.54646161989E+01 -0.31094652897E+02 -0.24477445827E+02  0.39948527172E+02  0.00000000000E+00 0. -1.
</event>
<event>
 7    1  0.2202177E-015  0.9000771E+02  0.7816164E-02  0.1186339E+00
        -11   -1    0    0    0    0  0.00000000000E+00  0.00000000000E+00  0.45593999997E+02  0.45594000000E+02  0.51100000000E-03 0. -1.
         11   -1    0    0    0    0 -0.00000000000E+00 -0.00000000000E+00 -0.45593999997E+02  0.45594000000E+02  0.51100000000E-03 0.  1.
    9900012    2    1    2    0    0  0.84877981183E+00 -0.72328145291E+00 -0.38666913100E+00  0.90007713490E+02  0.89999974508E+02 0.  0.
        -12    1    1    2    0    0 -0.84877981183E+00  0.72328145291E+00  0.38666913100E+00  0.11802865101E+01  0.00000000000E+00 0.  1.
         11    1    3    3    0    0  0.13616429382E+01  0.91835573223E+01 -0.86637797292E+00  0.93242912672E+01  0.51100000000E-03 0. -1.
        -11    1    3    3    0    0 -0.34456608784E+02  0.14257143452E+02  0.85147252603E+01  0.38249504242E+02  0.51100000000E-03 0.  1.
         12    1    3    3    0    0  0.33943745657E+02 -0.24163982227E+02 -0.80350164184E+01  0.42433917980E+02  0.00000000000E+00 0. -1.
</event>
<event>
 7    1  0.1910099E-015  0.9000774E+02  0.7816164E-02  0.1186339E+00
        -11   -1    0    0    0    0  0.00000000000E+00  0.00000000000E+00  0.45593999997E+02  0.45594000000E+02  0.51100000000E-03 0. -1.
         11   -1    0    0    0    0 -0.00000000000E+00 -0.00000000000E+00 -0.45593999997E+02  0.45594000000E+02  0.51100000000E-03 0.  1.
    9900012    2    1    2    0    0 -0.70579380763E-01 -0.11365943531E+01  0.31013420428E+00  0.90007740962E+02  0.90000002343E+02 0.  0.
        -12    1    1    2    0    0  0.70579380763E-01  0.11365943531E+01 -0.31013420428E+00  0.11802590382E+01  0.00000000000E+00 0.  1.
         11    1    3    3    0    0  0.56826735244E+01 -0.61635587842E+01  0.20951114880E+01  0.86412804421E+01  0.51100000000E-03 0. -1.
        -11    1    3    3    0    0  0.18057075435E+02 -0.27896156394E+02  0.16157591466E+02  0.36950254087E+02  0.51100000000E-03 0.  1.
         12    1    3    3    0    0 -0.23810328341E+02  0.32923120825E+02 -0.17942568750E+02  0.44416206433E+02  0.00000000000E+00 0. -1.
</event>
<event>
 7    1  0.1910099E-015  0.9000792E+02  0.7816164E-02  0.1186339E+00
        -11   -1    0    0    0    0  0.00000000000E+00  0.00000000000E+00  0.45593999997E+02  0.45594000000E+02  0.51100000000E-03 0.  1.
         11   -1    0    0    0    0 -0.00000000000E+00 -0.00000000000E+00 -0.45593999997E+02  0.45594000000E+02  0.51100000000E-03 0. -1.
    9900012    2    1    2    0    0 -0.80950802790E-01  0.88616333914E+00 -0.77507588822E+00  0.90007923253E+02  0.90000187040E+02 0.  0.
        -12    1    1    2    0    0  0.80950802790E-01 -0.88616333914E+00  0.77507588822E+00  0.11800767469E+01  0.00000000000E+00 0.  1.
         11    1    3    3    0    0  0.78159324577E+01 -0.73708397495E+01  0.38275588502E+00  0.10750096796E+02  0.51100000000E-03 0. -1.
        -11    1    3    3    0    0  0.20783312357E+02  0.38745727075E+01  0.29988773948E+02  0.36691755877E+02  0.51100000000E-03 0.  1.
         12    1    3    3    0    0 -0.28680195617E+02  0.43824303812E+01 -0.31146605721E+02  0.42566070580E+02  0.00000000000E+00 0. -1.
</event>
<event>
 7    1  0.1910099E-015  0.9000766E+02  0.7816164E-02  0.1186339E+00
        -11   -1    0    0    0    0  0.00000000000E+00  0.00000000000E+00  0.45593999997E+02  0.45594000000E+02  0.51100000000E-03 0.  1.
         11   -1    0    0    0    0 -0.00000000000E+00 -0.00000000000E+00 -0.45593999997E+02  0.45594000000E+02  0.51100000000E-03 0. -1.
    9900012    2    1    2    0    0  0.77068313450E+00 -0.85802074281E+00 -0.25110222059E+00  0.90007659196E+02  0.89999919497E+02 0.  0.
        -12    1    1    2    0    0 -0.77068313450E+00  0.85802074281E+00  0.25110222059E+00  0.11803408042E+01  0.00000000000E+00 0.  1.
         11    1    3    3    0    0 -0.17202800160E+01 -0.89546522232E+01 -0.19766020355E+01  0.93301723263E+01  0.51100000000E-03 0. -1.
        -11    1    3    3    0    0  0.29237635738E+02 -0.18052052150E+02  0.19232995981E+02  0.39377964207E+02  0.51100000000E-03 0.  1.
         12    1    3    3    0    0 -0.26746672588E+02  0.26148683631E+02 -0.17507496167E+02  0.41299522663E+02  0.00000000000E+00 0. -1.
</event>
<event>
 7    1  0.1910099E-015  0.9000772E+02  0.7816164E-02  0.1186339E+00
        -11   -1    0    0    0    0  0.00000000000E+00  0.00000000000E+00  0.45593999997E+02  0.45594000000E+02  0.51100000000E-03 0. -1.
         11   -1    0    0    0    0 -0.00000000000E+00 -0.00000000000E+00 -0.45593999997E+02  0.45594000000E+02  0.51100000000E-03 0.  1.
    9900012    2    1    2    0    0 -0.11836576877E+00  0.85566143955E+00  0.80430108451E+00  0.90007717327E+02  0.89999978395E+02 0.  0.
        -12    1    1    2    0    0  0.11836576877E+00 -0.85566143955E+00 -0.80430108451E+00  0.11802826733E+01  0.00000000000E+00 0.  1.
         11    1    3    3    0    0  0.41062413625E+01  0.38995238458E+02 -0.53064117469E+01  0.39568268175E+02  0.51100000000E-03 0. -1.
        -11    1    3    3    0    0  0.10339425784E+02 -0.12696957075E+01  0.16537940358E+01  0.10547553636E+02  0.51100000000E-03 0.  1.
        -12    1    3    3    0    0 -0.14564032916E+02 -0.36869881311E+02  0.44569187955E+01  0.39891895515E+02  0.00000000000E+00 0.  1.
</event>
<event>
 7    1  0.1910099E-015  0.9000771E+02  0.7816164E-02  0.1186339E+00
        -11   -1    0    0    0    0  0.00000000000E+00  0.00000000000E+00  0.45593999997E+02  0.45594000000E+02  0.51100000000E-03 0.  1.
         11   -1    0    0    0    0 -0.00000000000E+00 -0.00000000000E+00 -0.45593999997E+02  0.45594000000E+02  0.51100000000E-03 0. -1.
    9900012    2    1    2    0    0 -0.63026869546E+00  0.62940738451E+00 -0.77439505306E+00  0.90007711907E+02  0.89999972904E+02 0.  0.
        -12    1    1    2    0    0  0.63026869546E+00 -0.62940738451E+00  0.77439505306E+00  0.11802880929E+01  0.00000000000E+00 0.  1.
         11    1    3    3    0    0 -0.16609390424E+02 -0.24935339106E+02 -0.23327406456E+02  0.37971184849E+02  0.51100000000E-03 0. -1.
        -11    1    3    3    0    0 -0.33797020806E+01  0.50749853548E+01 -0.82652857574E+01  0.10270969351E+02  0.51100000000E-03 0.  1.
        -12    1    3    3    0    0  0.19358823809E+02  0.20489761136E+02  0.30818297160E+02  0.41765557707E+02  0.00000000000E+00 0.  1.
</event>
<event>
 8    1  0.1910099E-015  0.9000776E+02  0.7816164E-02  0.1186339E+00
        -11   -1    0    0    0    0  0.00000000000E+00  0.00000000000E+00  0.45593999997E+02  0.45594000000E+02  0.51100000000E-03 0.  1.
         11   -1    0    0    0    0 -0.00000000000E+00 -0.00000000000E+00 -0.45593999997E+02  0.45594000000E+02  0.51100000000E-03 0. -1.
    9900012    2    1    2    0    0  0.25231085578E+00 -0.89534290811E+00  0.72641025343E+00  0.90007757844E+02  0.90000019447E+02 0.  0.
         23    2    3    3    0    0 -0.27772972355E+02 -0.22796270095E+01 -0.12338764452E+01  0.61879916379E+02  0.55236463566E+02 0.  0.
        -12    1    1    2    0    0 -0.25231085578E+00  0.89534290811E+00 -0.72641025343E+00  0.11802421562E+01  0.00000000000E+00 0.  1.
         11    1    4    4    0    0 -0.33623029877E+02 -0.10993941039E+02  0.18208051658E+02  0.39785776644E+02  0.51100000000E-03 0. -1.
        -11    1    4    4    0    0  0.58500575223E+01  0.87143140296E+01 -0.19441928103E+02  0.22094139735E+02  0.51100000000E-03 0.  1.
        -12    1    3    3    0    0  0.28025283211E+02  0.13842841014E+01  0.19602866987E+01  0.28127841465E+02  0.00000000000E+00 0.  1.
</event>
<event>
 7    1  0.1910099E-015  0.9000773E+02  0.7816164E-02  0.1186339E+00
        -11   -1    0    0    0    0  0.00000000000E+00  0.00000000000E+00  0.45593999997E+02  0.45594000000E+02  0.51100000000E-03 0.  1.
         11   -1    0    0    0    0 -0.00000000000E+00 -0.00000000000E+00 -0.45593999997E+02  0.45594000000E+02  0.51100000000E-03 0. -1.
    9900012    2    1    2    0    0  0.93874658447E+00 -0.33121890619E+00 -0.63409663841E+00  0.90007733225E+02  0.89999994503E+02 0.  0.
        -12    1    1    2    0    0 -0.93874658447E+00  0.33121890619E+00  0.63409663841E+00  0.11802667751E+01  0.00000000000E+00 0.  1.
         11    1    3    3    0    0 -0.18597531300E+02 -0.31258973388E+02  0.37722074511E+01  0.36568034361E+02  0.51100000000E-03 0. -1.
        -11    1    3    3    0    0  0.15155015996E+01 -0.76993545616E+01  0.56204701775E+01  0.96522790594E+01  0.51100000000E-03 0.  1.
        -12    1    3    3    0    0  0.18020776285E+02  0.38627109043E+02 -0.10026774267E+02  0.43787419805E+02  0.00000000000E+00 0.  1.
</event>
<event>
 7    1  0.1910099E-015  0.9000768E+02  0.7816164E-02  0.1186339E+00
        -11   -1    0    0    0    0  0.00000000000E+00  0.00000000000E+00  0.45593999997E+02  0.45594000000E+02  0.51100000000E-03 0.  1.
         11   -1    0    0    0    0 -0.00000000000E+00 -0.00000000000E+00 -0.45593999997E+02  0.45594000000E+02  0.51100000000E-03 0. -1.
    9900012    2    1    2    0    0  0.89871678545E+00  0.76066702564E-01 -0.76137253982E+00  0.90007675406E+02  0.89999935921E+02 0.  0.
        -12    1    1    2    0    0 -0.89871678545E+00 -0.76066702564E-01  0.76137253982E+00  0.11803245944E+01  0.00000000000E+00 0.  1.
         11    1    3    3    0    0  0.53927919547E+01 -0.27426329726E+01 -0.71054759933E+01  0.93323110772E+01  0.51100000000E-03 0. -1.
        -11    1    3    3    0    0 -0.20417896969E+01  0.36457058275E+02 -0.16366418431E+02  0.40014318134E+02  0.51100000000E-03 0.  1.
         12    1    3    3    0    0 -0.24522854724E+01 -0.33638358600E+02  0.22710521885E+02  0.40661046194E+02  0.00000000000E+00 0. -1.
</event>
<event>
 7    1  0.1910099E-015  0.9000781E+02  0.7816164E-02  0.1186339E+00
        -11   -1    0    0    0    0  0.00000000000E+00  0.00000000000E+00  0.45593999997E+02  0.45594000000E+02  0.51100000000E-03 0. -1.
         11   -1    0    0    0    0 -0.00000000000E+00 -0.00000000000E+00 -0.45593999997E+02  0.45594000000E+02  0.51100000000E-03 0.  1.
    9900012    2    1    2    0    0  0.57776802681E-01 -0.11048014030E+01  0.41100368758E+00  0.90007810045E+02  0.90000072337E+02 0.  0.
        -12    1    1    2    0    0 -0.57776802681E-01  0.11048014030E+01 -0.41100368758E+00  0.11801899551E+01  0.00000000000E+00 0.  1.
         11    1    3    3    0    0  0.29738955391E+00 -0.51478246261E+01 -0.75217136476E+01  0.91194690298E+01  0.51100000000E-03 0. -1.
        -11    1    3    3    0    0  0.24005354801E+02 -0.68497248189E+01 -0.27144598341E+02  0.36878245736E+02  0.51100000000E-03 0.  1.
         12    1    3    3    0    0 -0.24244967552E+02  0.10892748042E+02  0.35077315676E+02  0.44010095280E+02  0.00000000000E+00 0. -1.
</event>
<event>
 7    1  0.1910099E-015  0.9000772E+02  0.7816164E-02  0.1186339E+00
        -11   -1    0    0    0    0  0.00000000000E+00  0.00000000000E+00  0.45593999997E+02  0.45594000000E+02  0.51100000000E-03 0. -1.
         11   -1    0    0    0    0 -0.00000000000E+00 -0.00000000000E+00 -0.45593999997E+02  0.45594000000E+02  0.51100000000E-03 0.  1.
    9900012    2    1    2    0    0 -0.99646851972E+00 -0.27012581863E+00  0.57196588671E+00  0.90007719337E+02  0.89999980432E+02 0.  0.
        -12    1    1    2    0    0  0.99646851972E+00  0.27012581863E+00 -0.57196588671E+00  0.11802806633E+01  0.00000000000E+00 0.  1.
         11    1    3    3    0    0 -0.36185772687E+02  0.84382508037E+01  0.13850238464E+02  0.39654045535E+02  0.51100000000E-03 0. -1.
        -11    1    3    3    0    0 -0.26045706043E+01 -0.20877617684E+01 -0.11465455079E+02  0.11941490597E+02  0.51100000000E-03 0.  1.
        -12    1    3    3    0    0  0.37793874771E+02 -0.66206148540E+01 -0.18128174978E+01  0.38412183204E+02  0.00000000000E+00 0.  1.
</event>
<event>
 7    1  0.1910099E-015  0.9000776E+02  0.7816164E-02  0.1186339E+00
        -11   -1    0    0    0    0  0.00000000000E+00  0.00000000000E+00  0.45593999997E+02  0.45594000000E+02  0.51100000000E-03 0.  1.
         11   -1    0    0    0    0 -0.00000000000E+00 -0.00000000000E+00 -0.45593999997E+02  0.45594000000E+02  0.51100000000E-03 0. -1.
    9900012    2    1    2    0    0  0.13546595325E+00  0.54093732801E+00 -0.10401894973E+01  0.90007763410E+02  0.90000025087E+02 0.  0.
        -12    1    1    2    0    0 -0.13546595325E+00 -0.54093732801E+00  0.10401894973E+01  0.11802365897E+01  0.00000000000E+00 0.  1.
         11    1    3    3    0    0  0.76226953614E+01 -0.37511328276E+01  0.36762333705E+01  0.92569527448E+01  0.51100000000E-03 0. -1.
        -11    1    3    3    0    0  0.74329552218E+01  0.26338743258E+02 -0.32354806033E+02  0.42377018459E+02  0.51100000000E-03 0.  1.
         12    1    3    3    0    0 -0.14920184630E+02 -0.22046673103E+02  0.27638383166E+02  0.38373792206E+02  0.00000000000E+00 0. -1.
</event>
<event>
 7    1  0.1910099E-015  0.9000778E+02  0.7816164E-02  0.1186339E+00
        -11   -1    0    0    0    0  0.00000000000E+00  0.00000000000E+00  0.45593999997E+02  0.45594000000E+02  0.51100000000E-03 0.  1.
         11   -1    0    0    0    0 -0.00000000000E+00 -0.00000000000E+00 -0.45593999997E+02  0.45594000000E+02  0.51100000000E-03 0. -1.
    9900012    2    1    2    0    0 -0.32181630670E+00 -0.26630270487E+00 -0.11038255665E+01  0.90007782331E+02  0.90000044257E+02 0.  0.
        -12    1    1    2    0    0  0.32181630670E+00  0.26630270487E+00  0.11038255665E+01  0.11802176694E+01  0.00000000000E+00 0.  1.
         11    1    3    3    0    0  0.35168227116E+02  0.59164811588E+01 -0.50681229520E+01  0.36020755382E+02  0.51100000000E-03 0. -1.
        -11    1    3    3    0    0  0.86194276235E+01  0.17988901106E+01  0.24329061167E+01  0.91350736516E+01  0.51100000000E-03 0.  1.
        -12    1    3    3    0    0 -0.44109471046E+02 -0.79816739743E+01  0.15313912688E+01  0.44851953297E+02  0.00000000000E+00 0.  1.
</event>
<event>
 7    1  0.1910099E-015  0.9000770E+02  0.7816164E-02  0.1186339E+00
        -11   -1    0    0    0    0  0.00000000000E+00  0.00000000000E+00  0.45593999997E+02  0.45594000000E+02  0.51100000000E-03 0.  1.
         11   -1    0    0    0    0 -0.00000000000E+00 -0.00000000000E+00 -0.45593999997E+02  0.45594000000E+02  0.51100000000E-03 0. -1.
    9900012    2    1    2    0    0  0.76970950686E+00 -0.82288594044E+00 -0.35144976840E+00  0.90007698795E+02  0.89999959619E+02 0.  0.
        -12    1    1    2    0    0 -0.76970950686E+00  0.82288594044E+00  0.35144976840E+00  0.11803012055E+01  0.00000000000E+00 0.  1.
         11    1    3    3    0    0  0.40139581499E+01  0.13874995827E+01  0.84276711020E+01  0.94373012872E+01  0.51100000000E-03 0. -1.
        -11    1    3    3    0    0 -0.23359269260E+02  0.16271056684E+02  0.24470091393E+02  0.37539154479E+02  0.51100000000E-03 0.  1.
         12    1    3    3    0    0  0.20115020617E+02 -0.18481442207E+02 -0.33249212263E+02  0.43031243028E+02  0.00000000000E+00 0. -1.
</event>
<event>
 7    1  0.1910099E-015  0.9000704E+02  0.7816164E-02  0.1186340E+00
        -11   -1    0    0    0    0  0.00000000000E+00  0.00000000000E+00  0.45593999997E+02  0.45594000000E+02  0.51100000000E-03 0.  1.
         11   -1    0    0    0    0 -0.00000000000E+00 -0.00000000000E+00 -0.45593999997E+02  0.45594000000E+02  0.51100000000E-03 0. -1.
    9900012    2    1    2    0    0  0.76373886202E+00  0.19516002682E+00 -0.87936840549E+00  0.90007037139E+02  0.89999289227E+02 0.  0.
        -12    1    1    2    0    0 -0.76373886202E+00 -0.19516002682E+00  0.87936840549E+00  0.11809628606E+01  0.00000000000E+00 0.  1.
         11    1    3    3    0    0 -0.10475590737E+02 -0.93022073583E+01 -0.44479199418E+01  0.14698743317E+02  0.51100000000E-03 0. -1.
        -11    1    3    3    0    0  0.18823209290E+02 -0.29530046946E+02  0.57639569658E+01  0.35490281497E+02  0.51100000000E-03 0.  1.
         12    1    3    3    0    0 -0.75838796909E+01  0.39027414331E+02 -0.21954054294E+01  0.39818012325E+02  0.00000000000E+00 0. -1.
</event>
<event>
 7    1  0.1910099E-015  0.9000781E+02  0.7816164E-02  0.1186339E+00
        -11   -1    0    0    0    0  0.00000000000E+00  0.00000000000E+00  0.45593999997E+02  0.45594000000E+02  0.51100000000E-03 0.  1.
         11   -1    0    0    0    0 -0.00000000000E+00 -0.00000000000E+00 -0.45593999997E+02  0.45594000000E+02  0.51100000000E-03 0. -1.
    9900012    2    1    2    0    0  0.11266634919E+01  0.51468420057E-01  0.34761570366E+00  0.90007806668E+02  0.90000068916E+02 0.  0.
        -12    1    1    2    0    0 -0.11266634919E+01 -0.51468420057E-01 -0.34761570366E+00  0.11801933315E+01  0.00000000000E+00 0.  1.
         11    1    3    3    0    0  0.84639518569E+01 -0.69898534004E+01 -0.40651119276E+01  0.11705625436E+02  0.51100000000E-03 0. -1.
        -11    1    3    3    0    0  0.29293302365E+01 -0.34213494285E+02 -0.51612585644E+01  0.34724382745E+02  0.51100000000E-03 0.  1.
         12    1    3    3    0    0 -0.10266618601E+02  0.41254816105E+02  0.95739861957E+01  0.43577798488E+02  0.00000000000E+00 0. -1.
</event>
<event>
 7    1  0.1910099E-015  0.9000769E+02  0.7816164E-02  0.1186339E+00
        -11   -1    0    0    0    0  0.00000000000E+00  0.00000000000E+00  0.45593999997E+02  0.45594000000E+02  0.51100000000E-03 0. -1.
         11   -1    0    0    0    0 -0.00000000000E+00 -0.00000000000E+00 -0.45593999997E+02  0.45594000000E+02  0.51100000000E-03 0.  1.
    9900012    2    1    2    0    0  0.11755788041E+01  0.87777415448E-01  0.58637519013E-01  0.90007691245E+02  0.89999951969E+02 0.  0.
        -12    1    1    2    0    0 -0.11755788041E+01 -0.87777415448E-01 -0.58637519013E-01  0.11803087553E+01  0.00000000000E+00 0.  1.
         11    1    3    3    0    0  0.53167748362E+01 -0.60851081137E+01 -0.30216818342E+01  0.86271198428E+01  0.51100000000E-03 0. -1.
        -11    1    3    3    0    0 -0.19597771467E+02 -0.14205862740E+02 -0.30646348238E+02  0.39052245047E+02  0.51100000000E-03 0.  1.
         12    1    3    3    0    0  0.15456575434E+02  0.20378748269E+02  0.33726667591E+02  0.42328326355E+02  0.00000000000E+00 0. -1.
</event>
<event>
 7    1  0.1910099E-015  0.9000770E+02  0.7816164E-02  0.1186339E+00
        -11   -1    0    0    0    0  0.00000000000E+00  0.00000000000E+00  0.45593999997E+02  0.45594000000E+02  0.51100000000E-03 0. -1.
         11   -1    0    0    0    0 -0.00000000000E+00 -0.00000000000E+00 -0.45593999997E+02  0.45594000000E+02  0.51100000000E-03 0.  1.
    9900012    2    1    2    0    0  0.61717175425E+00  0.96159428126E+00 -0.29586693906E+00  0.90007702672E+02  0.89999963548E+02 0.  0.
        -12    1    1    2    0    0 -0.61717175425E+00 -0.96159428126E+00  0.29586693906E+00  0.11802973276E+01  0.00000000000E+00 0.  1.
         11    1    3    3    0    0  0.10617949268E+02  0.12972766860E+01  0.15829814673E+01  0.10813399283E+02  0.51100000000E-03 0. -1.
        -11    1    3    3    0    0 -0.72131575792E+01 -0.61030612107E+00 -0.40161819369E+02  0.40808992282E+02  0.51100000000E-03 0.  1.
         12    1    3    3    0    0 -0.27876199345E+01  0.27462371629E+00  0.38282970963E+02  0.38385311107E+02  0.00000000000E+00 0. -1.
</event>
<event>
 7    1  0.1910099E-015  0.9000770E+02  0.7816164E-02  0.1186339E+00
        -11   -1    0    0    0    0  0.00000000000E+00  0.00000000000E+00  0.45593999997E+02  0.45594000000E+02  0.51100000000E-03 0.  1.
         11   -1    0    0    0    0 -0.00000000000E+00 -0.00000000000E+00 -0.45593999997E+02  0.45594000000E+02  0.51100000000E-03 0. -1.
    9900012    2    1    2    0    0 -0.73956744655E+00  0.84666962452E+00  0.35958157656E+00  0.90007699881E+02  0.89999960719E+02 0.  0.
        -12    1    1    2    0    0  0.73956744655E+00 -0.84666962452E+00 -0.35958157656E+00  0.11803001192E+01  0.00000000000E+00 0.  1.
         11    1    3    3    0    0 -0.39366003882E+01 -0.41691876063E+02 -0.55539786205E+00  0.41880995920E+02  0.51100000000E-03 0. -1.
        -11    1    3    3    0    0  0.26284674334E+01  0.37636516016E+01 -0.71701059495E+01  0.85137731949E+01  0.51100000000E-03 0.  1.
        -12    1    3    3    0    0  0.56856550825E+00  0.38774894086E+02  0.80850853882E+01  0.39612930765E+02  0.00000000000E+00 0.  1.
</event>
<event>
 7    1  0.1910099E-015  0.9000773E+02  0.7816164E-02  0.1186339E+00
        -11   -1    0    0    0    0  0.00000000000E+00  0.00000000000E+00  0.45593999997E+02  0.45594000000E+02  0.51100000000E-03 0.  1.
         11   -1    0    0    0    0 -0.00000000000E+00 -0.00000000000E+00 -0.45593999997E+02  0.45594000000E+02  0.51100000000E-03 0. -1.
    9900012    2    1    2    0    0  0.10588803208E+01 -0.46559745529E+00  0.23455937635E+00  0.90007734511E+02  0.89999995806E+02 0.  0.
        -12    1    1    2    0    0 -0.10588803208E+01  0.46559745529E+00 -0.23455937635E+00  0.11802654893E+01  0.00000000000E+00 0.  1.
         11    1    3    3    0    0  0.13759530048E+02 -0.42096186882E+01 -0.32378250095E+02  0.35431576822E+02  0.51100000000E-03 0. -1.
        -11    1    3    3    0    0  0.36358867403E+01 -0.14850029882E+01 -0.88625242177E+01  0.96937733641E+01  0.51100000000E-03 0.  1.
        -12    1    3    3    0    0 -0.16336536467E+02  0.52290242211E+01  0.41475333689E+02  0.44882384325E+02  0.00000000000E+00 0.  1.
</event>
<event>
 7    1  0.1910099E-015  0.9000776E+02  0.7816164E-02  0.1186339E+00
        -11   -1    0    0    0    0  0.00000000000E+00  0.00000000000E+00  0.45593999997E+02  0.45594000000E+02  0.51100000000E-03 0. -1.
         11   -1    0    0    0    0 -0.00000000000E+00 -0.00000000000E+00 -0.45593999997E+02  0.45594000000E+02  0.51100000000E-03 0.  1.
    9900012    2    1    2    0    0 -0.58981338224E+00 -0.68158328033E+00  0.76192061069E+00  0.90007763324E+02  0.90000025000E+02 0.  0.
        -12    1    1    2    0    0  0.58981338224E+00  0.68158328033E+00 -0.76192061069E+00  0.11802366758E+01  0.00000000000E+00 0.  1.
         11    1    3    3    0    0 -0.37928050876E+00  0.11301900567E+02 -0.42127695580E+01  0.12067486803E+02  0.51100000000E-03 0. -1.
        -11    1    3    3    0    0 -0.16918491130E+02  0.81135192087E+01 -0.29327510977E+02  0.34816195031E+02  0.51100000000E-03 0.  1.
         12    1    3    3    0    0  0.16707958257E+02 -0.20097003056E+02  0.34302201145E+02  0.43124081490E+02  0.00000000000E+00 0. -1.
</event>
<event>
 7    1  0.1910099E-015  0.9000762E+02  0.7816164E-02  0.1186339E+00
        -11   -1    0    0    0    0  0.00000000000E+00  0.00000000000E+00  0.45593999997E+02  0.45594000000E+02  0.51100000000E-03 0.  1.
         11   -1    0    0    0    0 -0.00000000000E+00 -0.00000000000E+00 -0.45593999997E+02  0.45594000000E+02  0.51100000000E-03 0. -1.
    9900012    2    1    2    0    0 -0.16475408514E+00 -0.27486991966E+00 -0.11360494339E+01  0.90007616292E+02  0.89999876027E+02 0.  0.
        -12    1    1    2    0    0  0.16475408514E+00  0.27486991966E+00  0.11360494339E+01  0.11803837077E+01  0.00000000000E+00 0.  1.
         11    1    3    3    0    0 -0.35135944772E+02  0.67575129086E+01 -0.17469548120E+02  0.39816877170E+02  0.51100000000E-03 0. -1.
        -11    1    3    3    0    0 -0.39360782930E+01  0.13086705641E+01  0.87497934241E+01  0.96831924591E+01  0.51100000000E-03 0.  1.
        -12    1    3    3    0    0  0.38907268980E+02 -0.83410533923E+01  0.75837052625E+01  0.40507546664E+02  0.00000000000E+00 0.  1.
</event>
<event>
 7    1  0.1910099E-015  0.9000771E+02  0.7816164E-02  0.1186339E+00
        -11   -1    0    0    0    0  0.00000000000E+00  0.00000000000E+00  0.45593999997E+02  0.45594000000E+02  0.51100000000E-03 0.  1.
         11   -1    0    0    0    0 -0.00000000000E+00 -0.00000000000E+00 -0.45593999997E+02  0.45594000000E+02  0.51100000000E-03 0. -1.
    9900012    2    1    2    0    0  0.11205430713E+01  0.35673737810E+00 -0.10098106267E+00  0.90007713803E+02  0.89999974825E+02 0.  0.
        -12    1    1    2    0    0 -0.11205430713E+01 -0.35673737810E+00  0.10098106267E+00  0.11802861969E+01  0.00000000000E+00 0.  1.
         11    1    3    3    0    0  0.32111388746E+02 -0.14472338256E+02 -0.68346618785E+01  0.35878997548E+02  0.51100000000E-03 0. -1.
        -11    1    3    3    0    0  0.50243469750E+01  0.14916174677E+02 -0.45553433958E+01  0.16385587668E+02  0.51100000000E-03 0.  1.
        -12    1    3    3    0    0 -0.36015192650E+02 -0.87099043150E-01  0.11289024212E+02  0.37743128587E+02  0.00000000000E+00 0.  1.
</event>
<event>
 7    1  0.1910099E-015  0.9000729E+02  0.7816164E-02  0.1186340E+00
        -11   -1    0    0    0    0  0.00000000000E+00  0.00000000000E+00  0.45593999997E+02  0.45594000000E+02  0.51100000000E-03 0. -1.
         11   -1    0    0    0    0 -0.00000000000E+00 -0.00000000000E+00 -0.45593999997E+02  0.45594000000E+02  0.51100000000E-03 0.  1.
    9900012    2    1    2    0    0  0.11526073227E+01 -0.55842047677E-01  0.24991736540E+00  0.90007288069E+02  0.89999543470E+02 0.  0.
        -12    1    1    2    0    0 -0.11526073227E+01  0.55842047677E-01 -0.24991736540E+00  0.11807119311E+01  0.00000000000E+00 0.  1.
         11    1    3    3    0    0 -0.40606501922E+01 -0.24400053715E+01 -0.89517315383E+01  0.10127981240E+02  0.51100000000E-03 0. -1.
        -11    1    3    3    0    0 -0.29695715871E+02 -0.21537794488E+02  0.56657612627E+00  0.36688324318E+02  0.51100000000E-03 0.  1.
         12    1    3    3    0    0  0.34908973386E+02  0.23921957812E+02  0.86350727775E+01  0.43190982511E+02  0.00000000000E+00 0. -1.
</event>
<event>
 7    1  0.2057930E-015  0.9000775E+02  0.7816164E-02  0.1186339E+00
        -11   -1    0    0    0    0  0.00000000000E+00  0.00000000000E+00  0.45593999997E+02  0.45594000000E+02  0.51100000000E-03 0. -1.
         11   -1    0    0    0    0 -0.00000000000E+00 -0.00000000000E+00 -0.45593999997E+02  0.45594000000E+02  0.51100000000E-03 0.  1.
    9900012    2    1    2    0    0  0.10941201779E+01  0.40495194021E+00 -0.17860751511E+00  0.90007751856E+02  0.90000013380E+02 0.  0.
        -12    1    1    2    0    0 -0.10941201779E+01 -0.40495194021E+00  0.17860751511E+00  0.11802481442E+01  0.00000000000E+00 0.  1.
         11    1    3    3    0    0  0.79735073871E+01 -0.22543334451E+01 -0.49507817666E+01  0.96524131540E+01  0.51100000000E-03 0. -1.
        -11    1    3    3    0    0  0.57131693699E+01  0.40073838704E+02 -0.80143630915E+00  0.40486975105E+02  0.51100000000E-03 0.  1.
         12    1    3    3    0    0 -0.12592556579E+02 -0.37414553319E+02  0.55736105607E+01  0.39868363597E+02  0.00000000000E+00 0. -1.
</event>
<event>
 7    1  0.1910099E-015  0.9000765E+02  0.7816164E-02  0.1186339E+00
        -11   -1    0    0    0    0  0.00000000000E+00  0.00000000000E+00  0.45593999997E+02  0.45594000000E+02  0.51100000000E-03 0.  1.
         11   -1    0    0    0    0 -0.00000000000E+00 -0.00000000000E+00 -0.45593999997E+02  0.45594000000E+02  0.51100000000E-03 0. -1.
    9900012    2    1    2    0    0 -0.10045987021E+01  0.29121524996E+00  0.54698695113E+00  0.90007652763E+02  0.89999912980E+02 0.  0.
        -12    1    1    2    0    0  0.10045987021E+01 -0.29121524996E+00 -0.54698695113E+00  0.11803472365E+01  0.00000000000E+00 0.  1.
         11    1    3    3    0    0  0.18365550838E+02  0.31762795756E+02 -0.31301454055E+01  0.36823449897E+02  0.51100000000E-03 0. -1.
        -11    1    3    3    0    0  0.59980937472E+01  0.44471904339E+01  0.53383355275E+01  0.91789137605E+01  0.51100000000E-03 0.  1.
        -12    1    3    3    0    0 -0.25368243287E+02 -0.35918770940E+02 -0.16612031709E+01  0.44005289106E+02  0.00000000000E+00 0.  1.
</event>
<event>
 7    1  0.1910099E-015  0.9000773E+02  0.7816164E-02  0.1186339E+00
        -11   -1    0    0    0    0  0.00000000000E+00  0.00000000000E+00  0.45593999997E+02  0.45594000000E+02  0.51100000000E-03 0.  1.
         11   -1    0    0    0    0 -0.00000000000E+00 -0.00000000000E+00 -0.45593999997E+02  0.45594000000E+02  0.51100000000E-03 0. -1.
    9900012    2    1    2    0    0 -0.10032515513E+01 -0.62142403255E+00 -0.18844148445E-01  0.90007730283E+02  0.89999991522E+02 0.  0.
        -12    1    1    2    0    0  0.10032515513E+01  0.62142403255E+00  0.18844148445E-01  0.11802697172E+01  0.00000000000E+00 0.  1.
         11    1    3    3    0    0 -0.11106531199E+01 -0.41590960585E+01 -0.39047218689E+02  0.39283799689E+02  0.51100000000E-03 0. -1.
        -11    1    3    3    0    0 -0.58674429679E+01 -0.59891867377E+01 -0.16280434639E+01  0.85409467006E+01  0.51100000000E-03 0.  1.
        -12    1    3    3    0    0  0.59748445365E+01  0.95268587637E+01  0.40656418005E+02  0.42182983893E+02  0.00000000000E+00 0.  1.
</event>
<event>
 7    1  0.1910099E-015  0.9000810E+02  0.7816164E-02  0.1186338E+00
        -11   -1    0    0    0    0  0.00000000000E+00  0.00000000000E+00  0.45593999997E+02  0.45594000000E+02  0.51100000000E-03 0.  1.
         11   -1    0    0    0    0 -0.00000000000E+00 -0.00000000000E+00 -0.45593999997E+02  0.45594000000E+02  0.51100000000E-03 0. -1.
    9900012    2    1    2    0    0 -0.66658773544E+00  0.20737732703E+00 -0.95121824250E+00  0.90008101399E+02  0.90000367536E+02 0.  0.
        -12    1    1    2    0    0  0.66658773544E+00 -0.20737732703E+00  0.95121824250E+00  0.11798986014E+01  0.00000000000E+00 0.  1.
         11    1    3    3    0    0 -0.76413430228E+01 -0.68541003688E+01 -0.16868535184E+01  0.10402609774E+02  0.51100000000E-03 0. -1.
        -11    1    3    3    0    0 -0.17163179610E+02 -0.25646349634E+02  0.17679779321E+02  0.35565215885E+02  0.51100000000E-03 0.  1.
         12    1    3    3    0    0  0.24137934897E+02  0.32707827330E+02 -0.16944144045E+02  0.44040275739E+02  0.00000000000E+00 0. -1.
</event>
<event>
 7    1  0.1910099E-015  0.9000773E+02  0.7816164E-02  0.1186339E+00
        -11   -1    0    0    0    0  0.00000000000E+00  0.00000000000E+00  0.45593999997E+02  0.45594000000E+02  0.51100000000E-03 0. -1.
         11   -1    0    0    0    0 -0.00000000000E+00 -0.00000000000E+00 -0.45593999997E+02  0.45594000000E+02  0.51100000000E-03 0.  1.
    9900012    2    1    2    0    0 -0.89821849275E+00 -0.13278627630E+00  0.75406498950E+00  0.90007727716E+02  0.89999988922E+02 0.  0.
        -12    1    1    2    0    0  0.89821849275E+00  0.13278627630E+00 -0.75406498950E+00  0.11802722840E+01  0.00000000000E+00 0.  1.
         11    1    3    3    0    0 -0.36322065292E+02  0.10307155502E+01  0.17125225769E+01  0.36377019331E+02  0.51100000000E-03 0. -1.
        -11    1    3    3    0    0  0.11188892271E+01  0.89641865664E+01 -0.13051584086E+02  0.15873008578E+02  0.51100000000E-03 0.  1.
        -12    1    3    3    0    0  0.34304957572E+02 -0.10127688393E+02  0.12093126498E+02  0.37757699807E+02  0.00000000000E+00 0.  1.
</event>
<event>
 7    1  0.1910099E-015  0.9000778E+02  0.7816164E-02  0.1186339E+00
        -11   -1    0    0    0    0  0.00000000000E+00  0.00000000000E+00  0.45593999997E+02  0.45594000000E+02  0.51100000000E-03 0. -1.
         11   -1    0    0    0    0 -0.00000000000E+00 -0.00000000000E+00 -0.45593999997E+02  0.45594000000E+02  0.51100000000E-03 0.  1.
    9900012    2    1    2    0    0 -0.58088613480E+00 -0.60085734059E+00  0.83334765709E+00  0.90007776901E+02  0.90000038756E+02 0.  0.
        -12    1    1    2    0    0  0.58088613480E+00  0.60085734059E+00 -0.83334765709E+00  0.11802230988E+01  0.00000000000E+00 0.  1.
         11    1    3    3    0    0 -0.37870560577E+02  0.37934076183E+01 -0.10920068278E+01  0.38075737405E+02  0.51100000000E-03 0. -1.
        -11    1    3    3    0    0 -0.34089265114E+01 -0.17435011437E+01  0.96860710310E+01  0.10415399583E+02  0.51100000000E-03 0.  1.
        -12    1    3    3    0    0  0.40698600953E+02 -0.26507638152E+01 -0.77607165460E+01  0.41516639913E+02  0.00000000000E+00 0.  1.
</event>
<event>
 7    1  0.1910099E-015  0.9000776E+02  0.7816164E-02  0.1186339E+00
        -11   -1    0    0    0    0  0.00000000000E+00  0.00000000000E+00  0.45593999997E+02  0.45594000000E+02  0.51100000000E-03 0.  1.
         11   -1    0    0    0    0 -0.00000000000E+00 -0.00000000000E+00 -0.45593999997E+02  0.45594000000E+02  0.51100000000E-03 0. -1.
    9900012    2    1    2    0    0  0.57102765959E+00  0.93069087882E+00 -0.44801245125E+00  0.90007757120E+02  0.90000018714E+02 0.  0.
        -12    1    1    2    0    0 -0.57102765959E+00 -0.93069087882E+00  0.44801245125E+00  0.11802428803E+01  0.00000000000E+00 0.  1.
         11    1    3    3    0    0 -0.12134362971E+02 -0.28760262162E+02  0.32756098339E+01  0.31386702031E+02  0.51100000000E-03 0. -1.
        -11    1    3    3    0    0  0.15543234614E+00 -0.11326034896E+02  0.83361885466E+01  0.14063970472E+02  0.51100000000E-03 0.  1.
        -12    1    3    3    0    0  0.12549958285E+02  0.41016987936E+02 -0.12059810832E+02  0.44557084618E+02  0.00000000000E+00 0.  1.
</event>
<event>
 7    1  0.1910099E-015  0.9000789E+02  0.7816164E-02  0.1186339E+00
        -11   -1    0    0    0    0  0.00000000000E+00  0.00000000000E+00  0.45593999997E+02  0.45594000000E+02  0.51100000000E-03 0.  1.
         11   -1    0    0    0    0 -0.00000000000E+00 -0.00000000000E+00 -0.45593999997E+02  0.45594000000E+02  0.51100000000E-03 0. -1.
    9900012    2    1    2    0    0  0.10507975589E+01 -0.38596032830E+00  0.37351566415E+00  0.90007892024E+02  0.90000155398E+02 0.  0.
        -12    1    1    2    0    0 -0.10507975589E+01  0.38596032830E+00 -0.37351566415E+00  0.11801079765E+01  0.00000000000E+00 0.  1.
         11    1    3    3    0    0  0.93330684141E+01  0.18059468716E+01 -0.35911150632E+02  0.37148059843E+02  0.51100000000E-03 0. -1.
        -11    1    3    3    0    0 -0.58813638703E+01  0.28247992331E+01 -0.67963710181E+01  0.94212839337E+01  0.51100000000E-03 0.  1.
        -12    1    3    3    0    0 -0.24009069849E+01 -0.50167064330E+01  0.43081037314E+02  0.43438548247E+02  0.00000000000E+00 0.  1.
</event>
<event>
 7    1  0.1910099E-015  0.9000773E+02  0.7816164E-02  0.1186339E+00
        -11   -1    0    0    0    0  0.00000000000E+00  0.00000000000E+00  0.45593999997E+02  0.45594000000E+02  0.51100000000E-03 0.  1.
         11   -1    0    0    0    0 -0.00000000000E+00 -0.00000000000E+00 -0.45593999997E+02  0.45594000000E+02  0.51100000000E-03 0. -1.
    9900012    2    1    2    0    0  0.77296768814E+00  0.55380433193E+00  0.69918348038E+00  0.90007730614E+02  0.89999991858E+02 0.  0.
        -12    1    1    2    0    0 -0.77296768814E+00 -0.55380433193E+00 -0.69918348038E+00  0.11802693863E+01  0.00000000000E+00 0.  1.
         11    1    3    3    0    0 -0.35488651353E+01  0.29150919662E+01  0.91129900889E+01  0.10204841672E+02  0.51100000000E-03 0. -1.
        -11    1    3    3    0    0  0.10145302953E+01  0.21328223196E+02  0.28625304126E+02  0.35711768550E+02  0.51100000000E-03 0.  1.
         12    1    3    3    0    0  0.33073025282E+01 -0.23689510830E+02 -0.37039110735E+02  0.44091120392E+02  0.00000000000E+00 0. -1.
</event>
<event>
 7    1  0.1910099E-015  0.9000835E+02  0.7816164E-02  0.1186338E+00
        -11   -1    0    0    0    0  0.00000000000E+00  0.00000000000E+00  0.45593999997E+02  0.45594000000E+02  0.51100000000E-03 0.  1.
         11   -1    0    0    0    0 -0.00000000000E+00 -0.00000000000E+00 -0.45593999997E+02  0.45594000000E+02  0.51100000000E-03 0. -1.
    9900012    2    1    2    0    0  0.92921530107E+00 -0.72056424693E+00 -0.94458185758E-01  0.90008349095E+02  0.90000618501E+02 0.  0.
        -12    1    1    2    0    0 -0.92921530107E+00  0.72056424693E+00  0.94458185758E-01  0.11796509054E+01  0.00000000000E+00 0.  1.
         11    1    3    3    0    0 -0.16251124855E+01 -0.22416557852E+01  0.87495790856E+01  0.91772079461E+01  0.51100000000E-03 0. -1.
        -11    1    3    3    0    0  0.14432221250E+02 -0.49403466083E+01  0.33269588242E+02  0.36600020996E+02  0.51100000000E-03 0.  1.
         12    1    3    3    0    0 -0.11877893463E+02  0.64614381465E+01 -0.42113625514E+02  0.44231120153E+02  0.00000000000E+00 0. -1.
</event>
<event>
 7    1  0.1910099E-015  0.9000772E+02  0.7816164E-02  0.1186339E+00
        -11   -1    0    0    0    0  0.00000000000E+00  0.00000000000E+00  0.45593999997E+02  0.45594000000E+02  0.51100000000E-03 0.  1.
         11   -1    0    0    0    0 -0.00000000000E+00 -0.00000000000E+00 -0.45593999997E+02  0.45594000000E+02  0.51100000000E-03 0. -1.
    9900012    2    1    2    0    0 -0.10624171135E+01 -0.45960191096E+00  0.23043936684E+00  0.90007717686E+02  0.89999978759E+02 0.  0.
        -12    1    1    2    0    0  0.10624171135E+01  0.45960191096E+00 -0.23043936684E+00  0.11802823143E+01  0.00000000000E+00 0.  1.
         11    1    3    3    0    0  0.16103083776E+01 -0.90657812205E+01  0.44374485162E+01  0.10221175657E+02  0.51100000000E-03 0. -1.
        -11    1    3    3    0    0 -0.38771892602E+01 -0.12549698630E+02  0.33805022096E+02  0.36267162164E+02  0.51100000000E-03 0.  1.
         12    1    3    3    0    0  0.12044637691E+01  0.21155877940E+02 -0.38012031246E+02  0.43519379865E+02  0.00000000000E+00 0. -1.
</event>
<event>
 7    1  0.1910099E-015  0.9000773E+02  0.7816164E-02  0.1186339E+00
        -11   -1    0    0    0    0  0.00000000000E+00  0.00000000000E+00  0.45593999997E+02  0.45594000000E+02  0.51100000000E-03 0.  1.
         11   -1    0    0    0    0 -0.00000000000E+00 -0.00000000000E+00 -0.45593999997E+02  0.45594000000E+02  0.51100000000E-03 0. -1.
    9900012    2    1    2    0    0  0.89872042528E+00 -0.51286816100E-01 -0.76335337403E+00  0.90007730067E+02  0.89999991304E+02 0.  0.
        -12    1    1    2    0    0 -0.89872042528E+00  0.51286816100E-01  0.76335337403E+00  0.11802699327E+01  0.00000000000E+00 0.  1.
         11    1    3    3    0    0  0.16020897429E+02 -0.25698390216E+02  0.25275547562E+02  0.39445274989E+02  0.51100000000E-03 0. -1.
        -11    1    3    3    0    0 -0.27551484172E+01  0.59361236306E+01  0.73651115315E+01  0.98525770584E+01  0.51100000000E-03 0.  1.
        -12    1    3    3    0    0 -0.12367028586E+02  0.19710979769E+02 -0.33404012467E+02  0.40709878020E+02  0.00000000000E+00 0.  1.
</event>
<event>
 7    1  0.1910099E-015  0.9000772E+02  0.7816164E-02  0.1186339E+00
        -11   -1    0    0    0    0  0.00000000000E+00  0.00000000000E+00  0.45593999997E+02  0.45594000000E+02  0.51100000000E-03 0. -1.
         11   -1    0    0    0    0 -0.00000000000E+00 -0.00000000000E+00 -0.45593999997E+02  0.45594000000E+02  0.51100000000E-03 0.  1.
    9900012    2    1    2    0    0  0.66967118671E+00  0.91435571613E+00  0.32948238839E+00  0.90007718458E+02  0.89999979542E+02 0.  0.
        -12    1    1    2    0    0 -0.66967118671E+00 -0.91435571613E+00 -0.32948238839E+00  0.11802815419E+01  0.00000000000E+00 0.  1.
         11    1    3    3    0    0 -0.52926703875E+01  0.26295889837E+01 -0.58022163211E+01  0.82820777920E+01  0.51100000000E-03 0. -1.
        -11    1    3    3    0    0  0.10541004583E+02 -0.12922370777E+02 -0.35042669110E+02  0.38808363825E+02  0.51100000000E-03 0.  1.
         12    1    3    3    0    0 -0.45786630092E+01  0.11207137509E+02  0.41174367820E+02  0.42917276841E+02  0.00000000000E+00 0. -1.
</event>
<event>
 7    1  0.1910099E-015  0.9000779E+02  0.7816164E-02  0.1186339E+00
        -11   -1    0    0    0    0  0.00000000000E+00  0.00000000000E+00  0.45593999997E+02  0.45594000000E+02  0.51100000000E-03 0. -1.
         11   -1    0    0    0    0 -0.00000000000E+00 -0.00000000000E+00 -0.45593999997E+02  0.45594000000E+02  0.51100000000E-03 0.  1.
    9900012    2    1    2    0    0  0.10611826188E+01  0.46055455310E+00  0.23384341290E+00  0.90007787397E+02  0.90000049391E+02 0.  0.
        -12    1    1    2    0    0 -0.10611826188E+01 -0.46055455310E+00 -0.23384341290E+00  0.11802126031E+01  0.00000000000E+00 0.  1.
         11    1    3    3    0    0 -0.61321084603E+01 -0.25645503233E+02 -0.28177874324E+02  0.38591283886E+02  0.51100000000E-03 0. -1.
        -11    1    3    3    0    0 -0.76705594154E+01 -0.42523366557E+01  0.83495871061E+01  0.12109312692E+02  0.51100000000E-03 0.  1.
        -12    1    3    3    0    0  0.14863850494E+02  0.30358394442E+02  0.20062130631E+02  0.39307190819E+02  0.00000000000E+00 0.  1.
</event>
<event>
 7    1  0.2007924E-015  0.9000774E+02  0.7816164E-02  0.1186339E+00
        -11   -1    0    0    0    0  0.00000000000E+00  0.00000000000E+00  0.45593999997E+02  0.45594000000E+02  0.51100000000E-03 0. -1.
         11   -1    0    0    0    0 -0.00000000000E+00 -0.00000000000E+00 -0.45593999997E+02  0.45594000000E+02  0.51100000000E-03 0.  1.
    9900012    2    1    2    0    0 -0.37957866227E-01  0.28028124245E+00  0.11458696621E+01  0.90007739157E+02  0.90000000514E+02 0.  0.
        -12    1    1    2    0    0  0.37957866227E-01 -0.28028124245E+00 -0.11458696621E+01  0.11802608428E+01  0.00000000000E+00 0.  1.
         11    1    3    3    0    0 -0.69478586092E+01  0.39187638967E+01  0.65436173645E+01  0.10317382333E+02  0.51100000000E-03 0. -1.
        -11    1    3    3    0    0 -0.85481630953E+01 -0.93539022692E+01 -0.39679019698E+02  0.41653225378E+02  0.51100000000E-03 0.  1.
         12    1    3    3    0    0  0.15458063838E+02  0.57154196150E+01  0.34281271996E+02  0.38037131446E+02  0.00000000000E+00 0. -1.
</event>
<event>
 7    1  0.1910099E-015  0.9000777E+02  0.7816164E-02  0.1186339E+00
        -11   -1    0    0    0    0  0.00000000000E+00  0.00000000000E+00  0.45593999997E+02  0.45594000000E+02  0.51100000000E-03 0.  1.
         11   -1    0    0    0    0 -0.00000000000E+00 -0.00000000000E+00 -0.45593999997E+02  0.45594000000E+02  0.51100000000E-03 0. -1.
    9900012    2    1    2    0    0  0.62206307954E+00  0.96088394603E+00  0.28756267820E+00  0.90007765817E+02  0.90000027526E+02 0.  0.
        -12    1    1    2    0    0 -0.62206307954E+00 -0.96088394603E+00 -0.28756267820E+00  0.11802341829E+01  0.00000000000E+00 0.  1.
         11    1    3    3    0    0  0.16313729069E+02 -0.15523746740E+02 -0.35279058720E+02  0.41853750769E+02  0.51100000000E-03 0. -1.
        -11    1    3    3    0    0 -0.73202734033E+01 -0.46112016349E+01  0.47136440914E+01  0.98523105969E+01  0.51100000000E-03 0.  1.
        -12    1    3    3    0    0 -0.83713925865E+01  0.21095832321E+02  0.30852977307E+02  0.38301704451E+02  0.00000000000E+00 0.  1.
</event>
<event>
 7    1  0.1910099E-015  0.9000771E+02  0.7816164E-02  0.1186339E+00
        -11   -1    0    0    0    0  0.00000000000E+00  0.00000000000E+00  0.45593999997E+02  0.45594000000E+02  0.51100000000E-03 0. -1.
         11   -1    0    0    0    0 -0.00000000000E+00 -0.00000000000E+00 -0.45593999997E+02  0.45594000000E+02  0.51100000000E-03 0.  1.
    9900012    2    1    2    0    0  0.42953665750E+00  0.83943228557E+00  0.70987967125E+00  0.90007712980E+02  0.89999973991E+02 0.  0.
        -12    1    1    2    0    0 -0.42953665750E+00 -0.83943228557E+00 -0.70987967125E+00  0.11802870201E+01  0.00000000000E+00 0.  1.
         11    1    3    3    0    0  0.16263790598E+02  0.31213498021E+02 -0.16119065478E+02  0.38711982841E+02  0.51100000000E-03 0. -1.
        -11    1    3    3    0    0  0.34290916515E+01 -0.45431557381E+01 -0.85549831068E+01  0.10275537447E+02  0.51100000000E-03 0.  1.
        -12    1    3    3    0    0 -0.19263345592E+02 -0.25830909998E+02  0.25383928256E+02  0.41020192691E+02  0.00000000000E+00 0.  1.
</event>
<event>
 7    1  0.1910099E-015  0.9000776E+02  0.7816164E-02  0.1186339E+00
        -11   -1    0    0    0    0  0.00000000000E+00  0.00000000000E+00  0.45593999997E+02  0.45594000000E+02  0.51100000000E-03 0.  1.
         11   -1    0    0    0    0 -0.00000000000E+00 -0.00000000000E+00 -0.45593999997E+02  0.45594000000E+02  0.51100000000E-03 0. -1.
    9900012    2    1    2    0    0  0.94134580084E+00 -0.46558122481E+00  0.53858763727E+00  0.90007756620E+02  0.90000018207E+02 0.  0.
        -12    1    1    2    0    0 -0.94134580084E+00  0.46558122481E+00 -0.53858763727E+00  0.11802433803E+01  0.00000000000E+00 0.  1.
         11    1    3    3    0    0 -0.27639510526E+02  0.99719787689E+01 -0.29022543505E+02  0.41300011313E+02  0.51100000000E-03 0. -1.
        -11    1    3    3    0    0  0.76789578122E+01 -0.29810830968E+01 -0.34499742238E+01  0.89305975118E+01  0.51100000000E-03 0.  1.
        -12    1    3    3    0    0  0.20901898515E+02 -0.74564768969E+01  0.33011105366E+02  0.39777147795E+02  0.00000000000E+00 0.  1.
</event>
<event>
 7    1  0.1910099E-015  0.9000778E+02  0.7816164E-02  0.1186339E+00
        -11   -1    0    0    0    0  0.00000000000E+00  0.00000000000E+00  0.45593999997E+02  0.45594000000E+02  0.51100000000E-03 0.  1.
         11   -1    0    0    0    0 -0.00000000000E+00 -0.00000000000E+00 -0.45593999997E+02  0.45594000000E+02  0.51100000000E-03 0. -1.
    9900012    2    1    2    0    0 -0.10115157628E+00  0.66547893067E+00 -0.96944759605E+00  0.90007778627E+02  0.90000040505E+02 0.  0.
        -12    1    1    2    0    0  0.10115157628E+00 -0.66547893067E+00  0.96944759605E+00  0.11802213733E+01  0.00000000000E+00 0.  1.
         11    1    3    3    0    0  0.29287801397E+01 -0.85202009384E+01 -0.33745671342E+01  0.96207733962E+01  0.51100000000E-03 0. -1.
        -11    1    3    3    0    0  0.26746501515E+02  0.22979943033E+02  0.22572924049E+02  0.41868723714E+02  0.51100000000E-03 0.  1.
         12    1    3    3    0    0 -0.29776433231E+02 -0.13794263164E+02 -0.20167804511E+02  0.38518281516E+02  0.00000000000E+00 0. -1.
</event>
<event>
 7    1  0.1910099E-015  0.9000772E+02  0.7816164E-02  0.1186339E+00
        -11   -1    0    0    0    0  0.00000000000E+00  0.00000000000E+00  0.45593999997E+02  0.45594000000E+02  0.51100000000E-03 0. -1.
         11   -1    0    0    0    0 -0.00000000000E+00 -0.00000000000E+00 -0.45593999997E+02  0.45594000000E+02  0.51100000000E-03 0.  1.
    9900012    2    1    2    0    0  0.76189072055E+00 -0.79505697750E+00  0.42481680563E+00  0.90007719361E+02  0.89999980457E+02 0.  0.
        -12    1    1    2    0    0 -0.76189072055E+00  0.79505697750E+00 -0.42481680563E+00  0.11802806386E+01  0.00000000000E+00 0.  1.
         11    1    3    3    0    0  0.24805218856E+02 -0.86695559521E+01  0.30028865420E+02  0.39902291182E+02  0.51100000000E-03 0. -1.
        -11    1    3    3    0    0  0.22281990204E+01  0.51007954218E+01  0.43646118020E+01  0.70733882442E+01  0.51100000000E-03 0.  1.
        -12    1    3    3    0    0 -0.26271527156E+02  0.27737035528E+01 -0.33968660416E+02  0.43032039935E+02  0.00000000000E+00 0.  1.
</event>
<event>
 7    1  0.1910099E-015  0.9000774E+02  0.7816164E-02  0.1186339E+00
        -11   -1    0    0    0    0  0.00000000000E+00  0.00000000000E+00  0.45593999997E+02  0.45594000000E+02  0.51100000000E-03 0.  1.
         11   -1    0    0    0    0 -0.00000000000E+00 -0.00000000000E+00 -0.45593999997E+02  0.45594000000E+02  0.51100000000E-03 0. -1.
    9900012    2    1    2    0    0 -0.27007882542E+00  0.71194725806E+00 -0.90177369833E+00  0.90007742709E+02  0.90000004113E+02 0.  0.
        -12    1    1    2    0    0  0.27007882542E+00 -0.71194725806E+00  0.90177369833E+00  0.11802572911E+01  0.00000000000E+00 0.  1.
         11    1    3    3    0    0 -0.12744843279E+01 -0.81919357401E+01 -0.81717436882E+01  0.11640855494E+02  0.51100000000E-03 0. -1.
        -11    1    3    3    0    0  0.21039590271E+02 -0.26167269450E+02  0.15763751827E+02  0.37092940315E+02  0.51100000000E-03 0.  1.
         12    1    3    3    0    0 -0.20035184769E+02  0.35071152449E+02 -0.84937818374E+01  0.41273946900E+02  0.00000000000E+00 0. -1.
</event>
<event>
 7    1  0.1910099E-015  0.9000775E+02  0.7816164E-02  0.1186339E+00
        -11   -1    0    0    0    0  0.00000000000E+00  0.00000000000E+00  0.45593999997E+02  0.45594000000E+02  0.51100000000E-03 0. -1.
         11   -1    0    0    0    0 -0.00000000000E+00 -0.00000000000E+00 -0.45593999997E+02  0.45594000000E+02  0.51100000000E-03 0.  1.
    9900012    2    1    2    0    0 -0.26453241228E+00  0.11421668081E+01 -0.13589101341E+00  0.90007750542E+02  0.90000012050E+02 0.  0.
        -12    1    1    2    0    0  0.26453241228E+00 -0.11421668081E+01  0.13589101341E+00  0.11802494576E+01  0.00000000000E+00 0.  1.
         11    1    3    3    0    0 -0.21881944783E+01 -0.25809634447E+01 -0.12249184768E+02  0.12707954010E+02  0.51100000000E-03 0. -1.
        -11    1    3    3    0    0 -0.27617015047E+01 -0.18602567160E+02 -0.26473940039E+02  0.32473866440E+02  0.51100000000E-03 0.  1.
         12    1    3    3    0    0  0.46853635708E+01  0.22325697413E+02  0.38587233794E+02  0.44825930092E+02  0.00000000000E+00 0. -1.
</event>
<event>
 7    1  0.1910099E-015  0.9000880E+02  0.7816164E-02  0.1186337E+00
        -11   -1    0    0    0    0  0.00000000000E+00  0.00000000000E+00  0.45593999997E+02  0.45594000000E+02  0.51100000000E-03 0.  1.
         11   -1    0    0    0    0 -0.00000000000E+00 -0.00000000000E+00 -0.45593999997E+02  0.45594000000E+02  0.51100000000E-03 0. -1.
    9900012    2    1    2    0    0 -0.51935053759E+00 -0.10179517449E+01  0.29081442723E+00  0.90008795282E+02  0.90001070573E+02 0.  0.
        -12    1    1    2    0    0  0.51935053759E+00  0.10179517449E+01 -0.29081442723E+00  0.11792047180E+01  0.00000000000E+00 0.  1.
         11    1    3    3    0    0  0.18475860675E+02  0.17772532206E+02 -0.26033013112E+02  0.36536804741E+02  0.51100000000E-03 0. -1.
        -11    1    3    3    0    0  0.10305903674E+02  0.21352654627E+01  0.64809335438E+01  0.12360158130E+02  0.51100000000E-03 0.  1.
        -12    1    3    3    0    0 -0.29301114886E+02 -0.20925749414E+02  0.19842893996E+02  0.41111832412E+02  0.00000000000E+00 0.  1.
</event>
<event>
 7    1  0.1910099E-015  0.9000776E+02  0.7816164E-02  0.1186339E+00
        -11   -1    0    0    0    0  0.00000000000E+00  0.00000000000E+00  0.45593999997E+02  0.45594000000E+02  0.51100000000E-03 0.  1.
         11   -1    0    0    0    0 -0.00000000000E+00 -0.00000000000E+00 -0.45593999997E+02  0.45594000000E+02  0.51100000000E-03 0. -1.
    9900012    2    1    2    0    0 -0.25181985384E+00 -0.53366611817E+00 -0.10221299290E+01  0.90007761738E+02  0.90000023392E+02 0.  0.
        -12    1    1    2    0    0  0.25181985384E+00  0.53366611817E+00  0.10221299290E+01  0.11802382625E+01  0.00000000000E+00 0.  1.
         11    1    3    3    0    0  0.23594340368E+02  0.11633830391E+02 -0.33422688464E+02  0.42533692661E+02  0.51100000000E-03 0. -1.
        -11    1    3    3    0    0 -0.10017670131E+02 -0.13528398752E+01 -0.56624270582E+00  0.10124451672E+02  0.51100000000E-03 0.  1.
        -12    1    3    3    0    0 -0.13828490090E+02 -0.10814656634E+02  0.32966801240E+02  0.37349617405E+02  0.00000000000E+00 0.  1.
</event>
<event>
 7    1  0.1910099E-015  0.9000775E+02  0.7816164E-02  0.1186339E+00
        -11   -1    0    0    0    0  0.00000000000E+00  0.00000000000E+00  0.45593999997E+02  0.45594000000E+02  0.51100000000E-03 0.  1.
         11   -1    0    0    0    0 -0.00000000000E+00 -0.00000000000E+00 -0.45593999997E+02  0.45594000000E+02  0.51100000000E-03 0. -1.
    9900012    2    1    2    0    0  0.37191028100E+00 -0.10247867361E+01  0.45219844079E+00  0.90007750644E+02  0.90000012153E+02 0.  0.
        -12    1    1    2    0    0 -0.37191028100E+00  0.10247867361E+01 -0.45219844079E+00  0.11802493556E+01  0.00000000000E+00 0.  1.
         11    1    3    3    0    0  0.10741717508E+02 -0.13874801373E+02  0.33583501226E+02  0.37891241244E+02  0.51100000000E-03 0. -1.
        -11    1    3    3    0    0 -0.72089622177E+01 -0.22000748989E+01  0.62803238984E+01  0.98108070181E+01  0.51100000000E-03 0.  1.
        -12    1    3    3    0    0 -0.31608450096E+01  0.15050089536E+02 -0.39411626683E+02  0.42305702382E+02  0.00000000000E+00 0.  1.
</event>
<event>
 7    1  0.1910099E-015  0.9000788E+02  0.7816164E-02  0.1186339E+00
        -11   -1    0    0    0    0  0.00000000000E+00  0.00000000000E+00  0.45593999997E+02  0.45594000000E+02  0.51100000000E-03 0.  1.
         11   -1    0    0    0    0 -0.00000000000E+00 -0.00000000000E+00 -0.45593999997E+02  0.45594000000E+02  0.51100000000E-03 0. -1.
    9900012    2    1    2    0    0 -0.10799606627E+01  0.17556156708E-01  0.47546051973E+00  0.90007878838E+02  0.90000142038E+02 0.  0.
        -12    1    1    2    0    0  0.10799606627E+01 -0.17556156708E-01 -0.47546051973E+00  0.11801211622E+01  0.00000000000E+00 0.  1.
         11    1    3    3    0    0 -0.34971723975E+01  0.83179833638E+01  0.19614082860E+00  0.90253827345E+01  0.51100000000E-03 0. -1.
        -11    1    3    3    0    0 -0.29167317185E+02 -0.30064986523E+02 -0.52972494429E+01  0.42221992590E+02  0.51100000000E-03 0.  1.
         12    1    3    3    0    0  0.31584528919E+02  0.21764559316E+02  0.55765691340E+01  0.38760503513E+02  0.00000000000E+00 0. -1.
</event>
<event>
 7    1  0.1910099E-015  0.9000776E+02  0.7816164E-02  0.1186339E+00
        -11   -1    0    0    0    0  0.00000000000E+00  0.00000000000E+00  0.45593999997E+02  0.45594000000E+02  0.51100000000E-03 0.  1.
         11   -1    0    0    0    0 -0.00000000000E+00 -0.00000000000E+00 -0.45593999997E+02  0.45594000000E+02  0.51100000000E-03 0. -1.
    9900012    2    1    2    0    0  0.21846966765E+00 -0.58988718507E+00  0.99863762588E+00  0.90007757231E+02  0.90000018826E+02 0.  0.
        -12    1    1    2    0    0 -0.21846966765E+00  0.58988718507E+00 -0.99863762588E+00  0.11802427694E+01  0.00000000000E+00 0.  1.
         11    1    3    3    0    0  0.83637838904E+01  0.19051094067E+01  0.44277431672E+00  0.85894337517E+01  0.51100000000E-03 0. -1.
        -11    1    3    3    0    0  0.91522326894E+00  0.36893011162E+02  0.13003404733E+02  0.39128256301E+02  0.51100000000E-03 0.  1.
         12    1    3    3    0    0 -0.90605374917E+01 -0.39388007754E+02 -0.12447541424E+02  0.42290067178E+02  0.00000000000E+00 0. -1.
</event>
<event>
 7    1  0.1910099E-015  0.9000771E+02  0.7816164E-02  0.1186339E+00
        -11   -1    0    0    0    0  0.00000000000E+00  0.00000000000E+00  0.45593999997E+02  0.45594000000E+02  0.51100000000E-03 0. -1.
         11   -1    0    0    0    0 -0.00000000000E+00 -0.00000000000E+00 -0.45593999997E+02  0.45594000000E+02  0.51100000000E-03 0.  1.
    9900012    2    1    2    0    0 -0.99912280587E-02 -0.82797370070E+00  0.84110342534E+00  0.90007705441E+02  0.89999966353E+02 0.  0.
        -12    1    1    2    0    0  0.99912280587E-02  0.82797370070E+00 -0.84110342534E+00  0.11802945589E+01  0.00000000000E+00 0.  1.
         11    1    3    3    0    0  0.43553998206E+01  0.55468254003E+01 -0.88030132792E+01  0.11279619793E+02  0.51100000000E-03 0. -1.
        -11    1    3    3    0    0  0.14600103710E+02  0.27436784605E+02 -0.13160036416E+02  0.33750951639E+02  0.51100000000E-03 0.  1.
         12    1    3    3    0    0 -0.18965494759E+02 -0.33811583706E+02  0.22804153121E+02  0.44977134009E+02  0.00000000000E+00 0. -1.
</event>
<event>
 7    1  0.1910099E-015  0.9000768E+02  0.7816164E-02  0.1186339E+00
        -11   -1    0    0    0    0  0.00000000000E+00  0.00000000000E+00  0.45593999997E+02  0.45594000000E+02  0.51100000000E-03 0. -1.
         11   -1    0    0    0    0 -0.00000000000E+00 -0.00000000000E+00 -0.45593999997E+02  0.45594000000E+02  0.51100000000E-03 0.  1.
    9900012    2    1    2    0    0 -0.17449064447E+00  0.10793866072E+01  0.44456540365E+00  0.90007677658E+02  0.89999938203E+02 0.  0.
        -12    1    1    2    0    0  0.17449064447E+00 -0.10793866072E+01 -0.44456540365E+00  0.11803223420E+01  0.00000000000E+00 0.  1.
         11    1    3    3    0    0  0.38452725840E+02  0.12514128455E+02  0.84509356115E+00  0.40446628029E+02  0.51100000000E-03 0. -1.
        -11    1    3    3    0    0 -0.30410214015E+01 -0.43726948074E+01 -0.10609932752E+02  0.11871770900E+02  0.51100000000E-03 0.  1.
        -12    1    3    3    0    0 -0.35586195083E+02 -0.70620470407E+01  0.10209404594E+02  0.37689278729E+02  0.00000000000E+00 0.  1.
</event>
<event>
 7    1  0.1910099E-015  0.9000802E+02  0.7816164E-02  0.1186338E+00
        -11   -1    0    0    0    0  0.00000000000E+00  0.00000000000E+00  0.45593999997E+02  0.45594000000E+02  0.51100000000E-03 0.  1.
         11   -1    0    0    0    0 -0.00000000000E+00 -0.00000000000E+00 -0.45593999997E+02  0.45594000000E+02  0.51100000000E-03 0. -1.
    9900012    2    1    2    0    0  0.76085605863E+00 -0.71576592251E+00 -0.54875223845E+00  0.90008020417E+02  0.90000285486E+02 0.  0.
        -12    1    1    2    0    0 -0.76085605863E+00  0.71576592251E+00  0.54875223845E+00  0.11799795833E+01  0.00000000000E+00 0.  1.
         11    1    3    3    0    0 -0.27278127675E+02  0.25689425696E+02  0.70027199907E+01  0.38119298650E+02  0.51100000000E-03 0. -1.
        -11    1    3    3    0    0 -0.75450095148E+01 -0.23844430286E+01 -0.38415212871E+01  0.87960231466E+01  0.51100000000E-03 0.  1.
        -12    1    3    3    0    0  0.35583993249E+02 -0.24020748590E+02 -0.37099509420E+01  0.43092698620E+02  0.00000000000E+00 0.  1.
</event>
<event>
 7    1  0.1910099E-015  0.9000773E+02  0.7816164E-02  0.1186339E+00
        -11   -1    0    0    0    0  0.00000000000E+00  0.00000000000E+00  0.45593999997E+02  0.45594000000E+02  0.51100000000E-03 0.  1.
         11   -1    0    0    0    0 -0.00000000000E+00 -0.00000000000E+00 -0.45593999997E+02  0.45594000000E+02  0.51100000000E-03 0. -1.
    9900012    2    1    2    0    0  0.10165978076E+01 -0.59826195661E+00  0.40462517932E-01  0.90007734908E+02  0.89999996209E+02 0.  0.
        -12    1    1    2    0    0 -0.10165978076E+01  0.59826195661E+00 -0.40462517932E-01  0.11802650916E+01  0.00000000000E+00 0.  1.
         11    1    3    3    0    0  0.13130816362E+02 -0.30694832878E+01 -0.34729791796E+02  0.37255851949E+02  0.51100000000E-03 0. -1.
        -11    1    3    3    0    0  0.12365374050E+02  0.80771741100E+00  0.32559991439E+01  0.12812353940E+02  0.51100000000E-03 0.  1.
        -12    1    3    3    0    0 -0.24479592604E+02  0.16635039202E+01  0.31514255170E+02  0.39939529019E+02  0.00000000000E+00 0.  1.
</event>
<event>
 7    1  0.1910099E-015  0.9000794E+02  0.7816164E-02  0.1186339E+00
        -11   -1    0    0    0    0  0.00000000000E+00  0.00000000000E+00  0.45593999997E+02  0.45594000000E+02  0.51100000000E-03 0. -1.
         11   -1    0    0    0    0 -0.00000000000E+00 -0.00000000000E+00 -0.45593999997E+02  0.45594000000E+02  0.51100000000E-03 0.  1.
    9900012    2    1    2    0    0 -0.98103473999E+00  0.30446778160E+00  0.58088136791E+00  0.90007935190E+02  0.90000199135E+02 0.  0.
        -12    1    1    2    0    0  0.98103473999E+00 -0.30446778160E+00 -0.58088136791E+00  0.11800648095E+01  0.00000000000E+00 0.  1.
         11    1    3    3    0    0 -0.43959664926E+01 -0.71930053639E+01  0.40912818707E+02  0.41772270496E+02  0.51100000000E-03 0. -1.
        -11    1    3    3    0    0  0.98674597322E+00 -0.85950824199E+01 -0.69483803394E+01  0.11096355213E+02  0.51100000000E-03 0.  1.
        -12    1    3    3    0    0  0.24281857794E+01  0.16092555565E+02 -0.33383557000E+02  0.37139309481E+02  0.00000000000E+00 0.  1.
</event>
<event>
 7    1  0.1910099E-015  0.9000778E+02  0.7816164E-02  0.1186339E+00
        -11   -1    0    0    0    0  0.00000000000E+00  0.00000000000E+00  0.45593999997E+02  0.45594000000E+02  0.51100000000E-03 0. -1.
         11   -1    0    0    0    0 -0.00000000000E+00 -0.00000000000E+00 -0.45593999997E+02  0.45594000000E+02  0.51100000000E-03 0.  1.
    9900012    2    1    2    0    0 -0.64279061508E+00 -0.98976295191E+00 -0.10219709941E-01  0.90007781834E+02  0.90000043755E+02 0.  0.
        -12    1    1    2    0    0  0.64279061508E+00  0.98976295191E+00  0.10219709941E-01  0.11802181655E+01  0.00000000000E+00 0.  1.
         11    1    3    3    0    0  0.23081709737E+01  0.92087673900E+01  0.17427445081E+01  0.96522644374E+01  0.51100000000E-03 0. -1.
        -11    1    3    3    0    0 -0.35900548195E+02  0.14939718368E+02 -0.13920380641E+01  0.38909925672E+02  0.51100000000E-03 0.  1.
         12    1    3    3    0    0  0.32949586606E+02 -0.25138248710E+02 -0.36092615392E+00  0.41445591725E+02  0.00000000000E+00 0. -1.
</event>
<event>
 7    1  0.1910099E-015  0.9000792E+02  0.7816164E-02  0.1186339E+00
        -11   -1    0    0    0    0  0.00000000000E+00  0.00000000000E+00  0.45593999997E+02  0.45594000000E+02  0.51100000000E-03 0.  1.
         11   -1    0    0    0    0 -0.00000000000E+00 -0.00000000000E+00 -0.45593999997E+02  0.45594000000E+02  0.51100000000E-03 0. -1.
    9900012    2    1    2    0    0 -0.76609453902E+00  0.48805926010E-01 -0.89626728911E+00  0.90007924615E+02  0.90000188420E+02 0.  0.
        -12    1    1    2    0    0  0.76609453902E+00 -0.48805926010E-01  0.89626728911E+00  0.11800753852E+01  0.00000000000E+00 0.  1.
         11    1    3    3    0    0  0.97810009378E+01 -0.18361733653E+01  0.16409104891E+01  0.10086233165E+02  0.51100000000E-03 0. -1.
        -11    1    3    3    0    0 -0.17410895217E+02  0.48061417068E+01  0.36209022935E+02  0.40463954484E+02  0.51100000000E-03 0.  1.
         12    1    3    3    0    0  0.68637997401E+01 -0.29211624154E+01 -0.38746200713E+02  0.39457736965E+02  0.00000000000E+00 0. -1.
</event>
<event>
 7    1  0.1910099E-015  0.9000686E+02  0.7816164E-02  0.1186341E+00
        -11   -1    0    0    0    0  0.00000000000E+00  0.00000000000E+00  0.45593999997E+02  0.45594000000E+02  0.51100000000E-03 0.  1.
         11   -1    0    0    0    0 -0.00000000000E+00 -0.00000000000E+00 -0.45593999997E+02  0.45594000000E+02  0.51100000000E-03 0. -1.
    9900012    2    1    2    0    0 -0.90347331009E+00  0.75494775433E+00 -0.94221912457E-01  0.90006861607E+02  0.89999111376E+02 0.  0.
        -12    1    1    2    0    0  0.90347331009E+00 -0.75494775433E+00  0.94221912457E-01  0.11811383927E+01  0.00000000000E+00 0.  1.
         11    1    3    3    0    0  0.76031178243E+01  0.68009968339E+01 -0.14584510535E+01  0.10304758043E+02  0.51100000000E-03 0. -1.
        -11    1    3    3    0    0  0.23440000571E+02 -0.15628216155E+02  0.25922148375E+02  0.38283580600E+02  0.51100000000E-03 0.  1.
         12    1    3    3    0    0 -0.31946591705E+02  0.95821670750E+01 -0.24557919234E+02  0.41418522964E+02  0.00000000000E+00 0. -1.
</event>
<event>
 7    1  0.1910099E-015  0.9000767E+02  0.7816164E-02  0.1186339E+00
        -11   -1    0    0    0    0  0.00000000000E+00  0.00000000000E+00  0.45593999997E+02  0.45594000000E+02  0.51100000000E-03 0. -1.
         11   -1    0    0    0    0 -0.00000000000E+00 -0.00000000000E+00 -0.45593999997E+02  0.45594000000E+02  0.51100000000E-03 0.  1.
    9900012    2    1    2    0    0  0.12425754780E+00 -0.11174709427E+01 -0.35916932234E+00  0.90007667908E+02  0.89999928324E+02 0.  0.
        -12    1    1    2    0    0 -0.12425754780E+00  0.11174709427E+01  0.35916932234E+00  0.11803320923E+01  0.00000000000E+00 0.  1.
         11    1    3    3    0    0  0.33590599482E+01 -0.15934633337E+02  0.34867511055E+00  0.16288566479E+02  0.51100000000E-03 0. -1.
        -11    1    3    3    0    0  0.55443064923E+00  0.24740240157E+02  0.31354196948E+02  0.39943366694E+02  0.51100000000E-03 0.  1.
         12    1    3    3    0    0 -0.37892330496E+01 -0.99230777625E+01 -0.32062041381E+02  0.33775734735E+02  0.00000000000E+00 0. -1.
</event>
<event>
 7    1  0.1910099E-015  0.9000775E+02  0.7816164E-02  0.1186339E+00
        -11   -1    0    0    0    0  0.00000000000E+00  0.00000000000E+00  0.45593999997E+02  0.45594000000E+02  0.51100000000E-03 0. -1.
         11   -1    0    0    0    0 -0.00000000000E+00 -0.00000000000E+00 -0.45593999997E+02  0.45594000000E+02  0.51100000000E-03 0.  1.
    9900012    2    1    2    0    0 -0.13105444423E+00  0.78216254481E+00 -0.87408729784E+00  0.90007753366E+02  0.90000014910E+02 0.  0.
        -12    1    1    2    0    0  0.13105444423E+00 -0.78216254481E+00  0.87408729784E+00  0.11802466344E+01  0.00000000000E+00 0.  1.
         11    1    3    3    0    0 -0.28205864215E+02  0.26220168300E+02 -0.50374870324E+01  0.38838695622E+02  0.51100000000E-03 0. -1.
        -11    1    3    3    0    0  0.35813084151E+01  0.64938896314E+01 -0.61390798023E+01  0.96272879664E+01  0.51100000000E-03 0.  1.
        -12    1    3    3    0    0  0.24493501356E+02 -0.31931895386E+02  0.10302479537E+02  0.41541769777E+02  0.00000000000E+00 0.  1.
</event>
<event>
 7    1  0.1910099E-015  0.9000760E+02  0.7816164E-02  0.1186339E+00
        -11   -1    0    0    0    0  0.00000000000E+00  0.00000000000E+00  0.45593999997E+02  0.45594000000E+02  0.51100000000E-03 0.  1.
         11   -1    0    0    0    0 -0.00000000000E+00 -0.00000000000E+00 -0.45593999997E+02  0.45594000000E+02  0.51100000000E-03 0. -1.
    9900012    2    1    2    0    0  0.91549628539E+00 -0.74512162972E+00 -0.10933145626E-02  0.90007601386E+02  0.89999860925E+02 0.  0.
        -12    1    1    2    0    0 -0.91549628539E+00  0.74512162972E+00  0.10933145626E-02  0.11803986136E+01  0.00000000000E+00 0.  1.
         11    1    3    3    0    0 -0.28811111105E+02 -0.24614970264E+02 -0.22096213856E+02  0.43865926996E+02  0.51100000000E-03 0. -1.
        -11    1    3    3    0    0  0.68081475227E+01  0.12161456842E+02  0.34402821766E+01  0.14355746129E+02  0.51100000000E-03 0.  1.
        -12    1    3    3    0    0  0.22918459867E+02  0.11708391793E+02  0.18654838365E+02  0.31785928262E+02  0.00000000000E+00 0.  1.
</event>
<event>
 7    1  0.1910099E-015  0.9000773E+02  0.7816164E-02  0.1186339E+00
        -11   -1    0    0    0    0  0.00000000000E+00  0.00000000000E+00  0.45593999997E+02  0.45594000000E+02  0.51100000000E-03 0. -1.
         11   -1    0    0    0    0 -0.00000000000E+00 -0.00000000000E+00 -0.45593999997E+02  0.45594000000E+02  0.51100000000E-03 0.  1.
    9900012    2    1    2    0    0 -0.33701062385E+00  0.67077790128E+00  0.91078462619E+00  0.90007725545E+02  0.89999986722E+02 0.  0.
        -12    1    1    2    0    0  0.33701062385E+00 -0.67077790128E+00 -0.91078462619E+00  0.11802744548E+01  0.00000000000E+00 0.  1.
         11    1    3    3    0    0  0.83321215641E+01  0.41852218380E+00  0.44577136164E+01  0.94588911360E+01  0.51100000000E-03 0. -1.
        -11    1    3    3    0    0 -0.17440423950E+01  0.37590027906E+02  0.12025668004E+02  0.39505298038E+02  0.51100000000E-03 0.  1.
         12    1    3    3    0    0 -0.69250897930E+01 -0.37337772189E+02 -0.15572596995E+02  0.41043536371E+02  0.00000000000E+00 0. -1.
</event>
<event>
 7    1  0.1910099E-015  0.9000774E+02  0.7816164E-02  0.1186339E+00
        -11   -1    0    0    0    0  0.00000000000E+00  0.00000000000E+00  0.45593999997E+02  0.45594000000E+02  0.51100000000E-03 0.  1.
         11   -1    0    0    0    0 -0.00000000000E+00 -0.00000000000E+00 -0.45593999997E+02  0.45594000000E+02  0.51100000000E-03 0. -1.
    9900012    2    1    2    0    0 -0.78241721227E+00 -0.83264340691E+00 -0.29587369012E+00  0.90007740292E+02  0.90000001664E+02 0.  0.
        -12    1    1    2    0    0  0.78241721227E+00  0.83264340691E+00  0.29587369012E+00  0.11802597077E+01  0.00000000000E+00 0.  1.
         11    1    3    3    0    0  0.53810760892E+01  0.58581641867E+01 -0.22398444450E+01  0.82638351215E+01  0.51100000000E-03 0. -1.
        -11    1    3    3    0    0  0.33625639467E+02 -0.19826201337E+02  0.65832285788E+01  0.39586623849E+02  0.51100000000E-03 0.  1.
         12    1    3    3    0    0 -0.39789132768E+02  0.13135393744E+02 -0.46392578240E+01  0.42157281321E+02  0.00000000000E+00 0. -1.
</event>
<event>
 7    1  0.1910099E-015  0.9000770E+02  0.7816164E-02  0.1186339E+00
        -11   -1    0    0    0    0  0.00000000000E+00  0.00000000000E+00  0.45593999997E+02  0.45594000000E+02  0.51100000000E-03 0.  1.
         11   -1    0    0    0    0 -0.00000000000E+00 -0.00000000000E+00 -0.45593999997E+02  0.45594000000E+02  0.51100000000E-03 0. -1.
    9900012    2    1    2    0    0  0.21121023175E+00  0.58560014339E-01 -0.11597674107E+01  0.90007703646E+02  0.89999964534E+02 0.  0.
        -12    1    1    2    0    0 -0.21121023175E+00 -0.58560014339E-01  0.11597674107E+01  0.11802963544E+01  0.00000000000E+00 0.  1.
         11    1    3    3    0    0  0.38928734841E+01  0.29700748364E+01 -0.94191632362E+01  0.10615858177E+02  0.51100000000E-03 0. -1.
        -11    1    3    3    0    0  0.60332844653E+01 -0.38712339954E+02 -0.60266997769E+01  0.39640470438E+02  0.51100000000E-03 0.  1.
         12    1    3    3    0    0 -0.97149477176E+01  0.35800825132E+02  0.14286095602E+02  0.39751375031E+02  0.00000000000E+00 0. -1.
</event>
<event>
 7    1  0.1910099E-015  0.9000767E+02  0.7816164E-02  0.1186339E+00
        -11   -1    0    0    0    0  0.00000000000E+00  0.00000000000E+00  0.45593999997E+02  0.45594000000E+02  0.51100000000E-03 0. -1.
         11   -1    0    0    0    0 -0.00000000000E+00 -0.00000000000E+00 -0.45593999997E+02  0.45594000000E+02  0.51100000000E-03 0.  1.
    9900012    2    1    2    0    0 -0.30838140438E+00  0.71666495298E+00  0.88570171889E+00  0.90007671537E+02  0.89999932001E+02 0.  0.
        -12    1    1    2    0    0  0.30838140438E+00 -0.71666495298E+00 -0.88570171889E+00  0.11803284629E+01  0.00000000000E+00 0.  1.
         11    1    3    3    0    0  0.38863209604E+01 -0.13440282254E+01 -0.31530687190E+01  0.51818669499E+01  0.51100000000E-03 0. -1.
        -11    1    3    3    0    0  0.35060722361E+02 -0.19181746469E+02 -0.43939547328E+00  0.39967320635E+02  0.51100000000E-03 0.  1.
         12    1    3    3    0    0 -0.39255424726E+02  0.21242439647E+02  0.44781659112E+01  0.44858483952E+02  0.00000000000E+00 0. -1.
</event>
<event>
 7    1  0.1910099E-015  0.9000773E+02  0.7816164E-02  0.1186339E+00
        -11   -1    0    0    0    0  0.00000000000E+00  0.00000000000E+00  0.45593999997E+02  0.45594000000E+02  0.51100000000E-03 0.  1.
         11   -1    0    0    0    0 -0.00000000000E+00 -0.00000000000E+00 -0.45593999997E+02  0.45594000000E+02  0.51100000000E-03 0. -1.
    9900012    2    1    2    0    0  0.92538495169E+00 -0.10055906026E+00 -0.72566443283E+00  0.90007729564E+02  0.89999990794E+02 0.  0.
        -12    1    1    2    0    0 -0.92538495169E+00  0.10055906026E+00  0.72566443283E+00  0.11802704362E+01  0.00000000000E+00 0.  1.
         11    1    3    3    0    0 -0.10445878243E+02 -0.86574644840E+00  0.88878244429E+01  0.13742609387E+02  0.51100000000E-03 0. -1.
        -11    1    3    3    0    0  0.49672653744E+01  0.24470646206E+02  0.24002856578E+02  0.34635579614E+02  0.51100000000E-03 0.  1.
         12    1    3    3    0    0  0.64039978206E+01 -0.23705458817E+02 -0.33616345453E+02  0.41629540563E+02  0.00000000000E+00 0. -1.
</event>
<event>
 7    1  0.1910099E-015  0.9000768E+02  0.7816164E-02  0.1186339E+00
        -11   -1    0    0    0    0  0.00000000000E+00  0.00000000000E+00  0.45593999997E+02  0.45594000000E+02  0.51100000000E-03 0.  1.
         11   -1    0    0    0    0 -0.00000000000E+00 -0.00000000000E+00 -0.45593999997E+02  0.45594000000E+02  0.51100000000E-03 0. -1.
    9900012    2    1    2    0    0  0.18608487452E+00 -0.11131852856E+01 -0.34546382426E+00  0.90007680419E+02  0.89999941000E+02 0.  0.
        -12    1    1    2    0    0 -0.18608487452E+00  0.11131852856E+01  0.34546382426E+00  0.11803195815E+01  0.00000000000E+00 0.  1.
         11    1    3    3    0    0  0.23346903258E+02  0.64914933653E+01 -0.13650022409E+02  0.27812595885E+02  0.51100000000E-03 0. -1.
        -11    1    3    3    0    0  0.55035520884E+01  0.43014450644E+01 -0.17268499238E+02  0.18627736884E+02  0.51100000000E-03 0.  1.
        -12    1    3    3    0    0 -0.28664370472E+02 -0.11906123715E+02  0.30573057823E+02  0.43567347649E+02  0.00000000000E+00 0.  1.
</event>
<event>
 7    1  0.1910099E-015  0.9000783E+02  0.7816164E-02  0.1186339E+00
        -11   -1    0    0    0    0  0.00000000000E+00  0.00000000000E+00  0.45593999997E+02  0.45594000000E+02  0.51100000000E-03 0.  1.
         11   -1    0    0    0    0 -0.00000000000E+00 -0.00000000000E+00 -0.45593999997E+02  0.45594000000E+02  0.51100000000E-03 0. -1.
    9900012    2    1    2    0    0  0.11104717424E+01  0.22393361826E+00 -0.33090285407E+00  0.90007834565E+02  0.90000097181E+02 0.  0.
        -12    1    1    2    0    0 -0.11104717424E+01 -0.22393361826E+00  0.33090285407E+00  0.11801654354E+01  0.00000000000E+00 0.  1.
         11    1    3    3    0    0  0.27103657175E+02  0.93232462722E+01 -0.25491489824E+02  0.38358143946E+02  0.51100000000E-03 0. -1.
        -11    1    3    3    0    0  0.50213856699E+01 -0.71287902558E+01 -0.34792831758E+01  0.93882573588E+01  0.51100000000E-03 0.  1.
        -12    1    3    3    0    0 -0.31014571102E+02 -0.19705223981E+01  0.28639870146E+02  0.42261433259E+02  0.00000000000E+00 0.  1.
</event>
<event>
 7    1  0.1910099E-015  0.9000788E+02  0.7816164E-02  0.1186339E+00
        -11   -1    0    0    0    0  0.00000000000E+00  0.00000000000E+00  0.45593999997E+02  0.45594000000E+02  0.51100000000E-03 0.  1.
         11   -1    0    0    0    0 -0.00000000000E+00 -0.00000000000E+00 -0.45593999997E+02  0.45594000000E+02  0.51100000000E-03 0. -1.
    9900012    2    1    2    0    0  0.11701581405E+01 -0.76457945069E-01 -0.13253910652E+00  0.90007880300E+02  0.90000143520E+02 0.  0.
        -12    1    1    2    0    0 -0.11701581405E+01  0.76457945069E-01  0.13253910652E+00  0.11801196998E+01  0.00000000000E+00 0.  1.
         11    1    3    3    0    0 -0.20381429837E+01  0.44364108205E+01 -0.39915752616E+01  0.63062224128E+01  0.51100000000E-03 0. -1.
        -11    1    3    3    0    0 -0.31212806621E+02  0.15991719707E+02  0.20153692416E+02  0.40449298073E+02  0.51100000000E-03 0.  1.
         12    1    3    3    0    0  0.34421107745E+02 -0.20504588473E+02 -0.16294656261E+02  0.43252359814E+02  0.00000000000E+00 0. -1.
</event>
<event>
 7    1  0.1910099E-015  0.9000779E+02  0.7816164E-02  0.1186339E+00
        -11   -1    0    0    0    0  0.00000000000E+00  0.00000000000E+00  0.45593999997E+02  0.45594000000E+02  0.51100000000E-03 0.  1.
         11   -1    0    0    0    0 -0.00000000000E+00 -0.00000000000E+00 -0.45593999997E+02  0.45594000000E+02  0.51100000000E-03 0. -1.
    9900012    2    1    2    0    0 -0.92147283383E+00 -0.72630433399E+00 -0.12751244404E+00  0.90007792564E+02  0.90000054626E+02 0.  0.
        -12    1    1    2    0    0  0.92147283383E+00  0.72630433399E+00  0.12751244404E+00  0.11802074362E+01  0.00000000000E+00 0.  1.
         11    1    3    3    0    0  0.81923394290E+01 -0.18264063189E+01 -0.19804550631E+01  0.86239427108E+01  0.51100000000E-03 0. -1.
        -11    1    3    3    0    0  0.14281731377E+02  0.28365665324E+02 -0.21664618635E+02  0.38443913969E+02  0.51100000000E-03 0.  1.
         12    1    3    3    0    0 -0.23395543640E+02 -0.27265563339E+02  0.23517561254E+02  0.42939935884E+02  0.00000000000E+00 0. -1.
</event>
<event>
 7    1  0.1910099E-015  0.9000768E+02  0.7816164E-02  0.1186339E+00
        -11   -1    0    0    0    0  0.00000000000E+00  0.00000000000E+00  0.45593999997E+02  0.45594000000E+02  0.51100000000E-03 0.  1.
         11   -1    0    0    0    0 -0.00000000000E+00 -0.00000000000E+00 -0.45593999997E+02  0.45594000000E+02  0.51100000000E-03 0. -1.
    9900012    2    1    2    0    0 -0.10310076307E+01 -0.51103670792E+00  0.26272541383E+00  0.90007678055E+02  0.89999938605E+02 0.  0.
        -12    1    1    2    0    0  0.10310076307E+01  0.51103670792E+00 -0.26272541383E+00  0.11803219453E+01  0.00000000000E+00 0.  1.
         11    1    3    3    0    0  0.31184806650E+01  0.52547672460E+01 -0.68568509810E+01  0.91844382575E+01  0.51100000000E-03 0. -1.
        -11    1    3    3    0    0 -0.25379947966E+01 -0.34618724837E+02 -0.20944311338E+02  0.40540864626E+02  0.51100000000E-03 0.  1.
         12    1    3    3    0    0 -0.16114934991E+01  0.28852920883E+02  0.28063887733E+02  0.40282375172E+02  0.00000000000E+00 0. -1.
</event>
<event>
 7    1  0.1910099E-015  0.9000770E+02  0.7816164E-02  0.1186339E+00
        -11   -1    0    0    0    0  0.00000000000E+00  0.00000000000E+00  0.45593999997E+02  0.45594000000E+02  0.51100000000E-03 0.  1.
         11   -1    0    0    0    0 -0.00000000000E+00 -0.00000000000E+00 -0.45593999997E+02  0.45594000000E+02  0.51100000000E-03 0. -1.
    9900012    2    1    2    0    0  0.18664196292E+00 -0.16912325679E-01 -0.11653242170E+01  0.90007702673E+02  0.89999963548E+02 0.  0.
        -12    1    1    2    0    0 -0.18664196292E+00  0.16912325679E-01  0.11653242170E+01  0.11802973268E+01  0.00000000000E+00 0.  1.
         11    1    3    3    0    0 -0.13446151879E+01 -0.83172908268E+01  0.50377458104E+01  0.98165268712E+01  0.51100000000E-03 0. -1.
        -11    1    3    3    0    0 -0.69104853527E+01 -0.28434043940E+02 -0.24619242822E+02  0.38240773789E+02  0.51100000000E-03 0.  1.
         12    1    3    3    0    0  0.84417425035E+01  0.36734422441E+02  0.18416172795E+02  0.41950402013E+02  0.00000000000E+00 0. -1.
</event>
<event>
 7    1  0.1910099E-015  0.9000779E+02  0.7816164E-02  0.1186339E+00
        -11   -1    0    0    0    0  0.00000000000E+00  0.00000000000E+00  0.45593999997E+02  0.45594000000E+02  0.51100000000E-03 0. -1.
         11   -1    0    0    0    0 -0.00000000000E+00 -0.00000000000E+00 -0.45593999997E+02  0.45594000000E+02  0.51100000000E-03 0.  1.
    9900012    2    1    2    0    0 -0.29125261296E+00  0.42029080749E-01  0.11429369900E+01  0.90007788370E+02  0.90000050377E+02 0.  0.
        -12    1    1    2    0    0  0.29125261296E+00 -0.42029080749E-01 -0.11429369900E+01  0.11802116299E+01  0.00000000000E+00 0.  1.
         11    1    3    3    0    0 -0.69900970100E+01  0.32068664931E+01  0.24813755386E+01  0.80810069755E+01  0.51100000000E-03 0. -1.
        -11    1    3    3    0    0  0.45453794006E+01 -0.40148806778E+02 -0.14021859004E+02  0.42769144132E+02  0.51100000000E-03 0.  1.
         12    1    3    3    0    0  0.21534649965E+01  0.36983969366E+02  0.12683420455E+02  0.39157637263E+02  0.00000000000E+00 0. -1.
</event>
<event>
 7    1  0.1910099E-015  0.9000774E+02  0.7816164E-02  0.1186339E+00
        -11   -1    0    0    0    0  0.00000000000E+00  0.00000000000E+00  0.45593999997E+02  0.45594000000E+02  0.51100000000E-03 0. -1.
         11   -1    0    0    0    0 -0.00000000000E+00 -0.00000000000E+00 -0.45593999997E+02  0.45594000000E+02  0.51100000000E-03 0.  1.
    9900012    2    1    2    0    0 -0.83131408306E+00  0.49992758447E+00  0.67230751930E+00  0.90007742361E+02  0.90000003760E+02 0.  0.
        -12    1    1    2    0    0  0.83131408306E+00 -0.49992758447E+00 -0.67230751930E+00  0.11802576392E+01  0.00000000000E+00 0.  1.
         11    1    3    3    0    0 -0.35375934781E+01  0.36521406843E+01 -0.82090557283E+01  0.96561532405E+01  0.51100000000E-03 0. -1.
        -11    1    3    3    0    0 -0.72007442566E+01  0.37228589482E+02  0.80568235654E+01  0.38765074473E+02  0.51100000000E-03 0.  1.
         12    1    3    3    0    0  0.99070236516E+01 -0.40380802582E+02  0.82453968212E+00  0.41586514647E+02  0.00000000000E+00 0. -1.
</event>
<event>
 7    1  0.1910099E-015  0.9000708E+02  0.7816164E-02  0.1186340E+00
        -11   -1    0    0    0    0  0.00000000000E+00  0.00000000000E+00  0.45593999997E+02  0.45594000000E+02  0.51100000000E-03 0. -1.
         11   -1    0    0    0    0 -0.00000000000E+00 -0.00000000000E+00 -0.45593999997E+02  0.45594000000E+02  0.51100000000E-03 0.  1.
    9900012    2    1    2    0    0 -0.23249118740E+00  0.91405421702E+00  0.71065137414E+00  0.90007079749E+02  0.89999332399E+02 0.  0.
        -12    1    1    2    0    0  0.23249118740E+00 -0.91405421702E+00 -0.71065137414E+00  0.11809202511E+01  0.00000000000E+00 0.  1.
         11    1    3    3    0    0 -0.60612174776E+01 -0.20029252573E+01 -0.69194084155E+01  0.94142593962E+01  0.51100000000E-03 0. -1.
        -11    1    3    3    0    0 -0.30963929823E+02 -0.92303844637E+01 -0.15107389971E+02  0.35667887230E+02  0.51100000000E-03 0.  1.
         12    1    3    3    0    0  0.36792656113E+02  0.12147363938E+02  0.22737449761E+02  0.44924933123E+02  0.00000000000E+00 0. -1.
</event>
<event>
 7    1  0.1910099E-015  0.9000802E+02  0.7816164E-02  0.1186338E+00
        -11   -1    0    0    0    0  0.00000000000E+00  0.00000000000E+00  0.45593999997E+02  0.45594000000E+02  0.51100000000E-03 0. -1.
         11   -1    0    0    0    0 -0.00000000000E+00 -0.00000000000E+00 -0.45593999997E+02  0.45594000000E+02  0.51100000000E-03 0.  1.
    9900012    2    1    2    0    0  0.10798803551E+01 -0.45291867924E+00 -0.14516367221E+00  0.90008021440E+02  0.90000286522E+02 0.  0.
        -12    1    1    2    0    0 -0.10798803551E+01  0.45291867924E+00  0.14516367221E+00  0.11799785604E+01  0.00000000000E+00 0.  1.
         11    1    3    3    0    0 -0.50162598210E+01 -0.35014005493E+01  0.78373370951E+01  0.99421587898E+01  0.51100000000E-03 0. -1.
        -11    1    3    3    0    0  0.13125677782E+02 -0.33886773776E+02 -0.18837186726E+02  0.40932095698E+02  0.51100000000E-03 0.  1.
         12    1    3    3    0    0 -0.70295376060E+01  0.36935255646E+02  0.10854685958E+02  0.39133766952E+02  0.00000000000E+00 0. -1.
</event>
<event>
 7    1  0.1910099E-015  0.9000774E+02  0.7816164E-02  0.1186339E+00
        -11   -1    0    0    0    0  0.00000000000E+00  0.00000000000E+00  0.45593999997E+02  0.45594000000E+02  0.51100000000E-03 0. -1.
         11   -1    0    0    0    0 -0.00000000000E+00 -0.00000000000E+00 -0.45593999997E+02  0.45594000000E+02  0.51100000000E-03 0.  1.
    9900012    2    1    2    0    0  0.70626807032E+00 -0.54136355952E-02  0.94560709731E+00  0.90007738725E+02  0.90000000076E+02 0.  0.
        -12    1    1    2    0    0 -0.70626807032E+00  0.54136355951E-02 -0.94560709731E+00  0.11802612749E+01  0.00000000000E+00 0.  1.
         11    1    3    3    0    0  0.12401068569E+02 -0.39273766412E+01  0.38067450647E+02  0.40228616531E+02  0.51100000000E-03 0. -1.
        -11    1    3    3    0    0 -0.98785116500E+01 -0.45773588268E+01  0.75911761796E+00  0.10913911584E+02  0.51100000000E-03 0.  1.
        -12    1    3    3    0    0 -0.18162888488E+01  0.84993218324E+01 -0.37880961168E+02  0.38865210610E+02  0.00000000000E+00 0.  1.
</event>
<event>
 7    1  0.1910099E-015  0.9000783E+02  0.7816164E-02  0.1186339E+00
        -11   -1    0    0    0    0  0.00000000000E+00  0.00000000000E+00  0.45593999997E+02  0.45594000000E+02  0.51100000000E-03 0.  1.
         11   -1    0    0    0    0 -0.00000000000E+00 -0.00000000000E+00 -0.45593999997E+02  0.45594000000E+02  0.51100000000E-03 0. -1.
    9900012    2    1    2    0    0 -0.10776300720E+01 -0.32302100127E+00 -0.35660775498E+00  0.90007831270E+02  0.90000093843E+02 0.  0.
        -12    1    1    2    0    0  0.10776300720E+01  0.32302100127E+00  0.35660775498E+00  0.11801687296E+01  0.00000000000E+00 0.  1.
         11    1    3    3    0    0 -0.54912142020E+01 -0.60544050275E+01 -0.32534842046E+01  0.87974094699E+01  0.51100000000E-03 0. -1.
        -11    1    3    3    0    0 -0.19687448703E+02 -0.28529421964E+02 -0.12105789884E+02  0.36716123202E+02  0.51100000000E-03 0.  1.
         12    1    3    3    0    0  0.24101032833E+02  0.34260805990E+02  0.15002666334E+02  0.44494298599E+02  0.00000000000E+00 0. -1.
</event>
<event>
 7    1  0.1910099E-015  0.9000767E+02  0.7816164E-02  0.1186339E+00
        -11   -1    0    0    0    0  0.00000000000E+00  0.00000000000E+00  0.45593999997E+02  0.45594000000E+02  0.51100000000E-03 0. -1.
         11   -1    0    0    0    0 -0.00000000000E+00 -0.00000000000E+00 -0.45593999997E+02  0.45594000000E+02  0.51100000000E-03 0.  1.
    9900012    2    1    2    0    0 -0.41023752633E+00 -0.10471089792E+01 -0.35838616982E+00  0.90007672635E+02  0.89999933114E+02 0.  0.
        -12    1    1    2    0    0  0.41023752633E+00  0.10471089792E+01  0.35838616982E+00  0.11803273652E+01  0.00000000000E+00 0.  1.
         11    1    3    3    0    0  0.25845552859E+02 -0.59466883005E+01  0.28871343798E+02  0.39203446243E+02  0.51100000000E-03 0. -1.
        -11    1    3    3    0    0 -0.55954358449E+01 -0.61581456109E+01  0.47096480915E+01  0.95609855698E+01  0.51100000000E-03 0.  1.
        -12    1    3    3    0    0 -0.20660354541E+02  0.11057724932E+02 -0.33939378060E+02  0.41243240822E+02  0.00000000000E+00 0.  1.
</event>
<event>
 7    1  0.1910099E-015  0.9000770E+02  0.7816164E-02  0.1186339E+00
        -11   -1    0    0    0    0  0.00000000000E+00  0.00000000000E+00  0.45593999997E+02  0.45594000000E+02  0.51100000000E-03 0. -1.
         11   -1    0    0    0    0 -0.00000000000E+00 -0.00000000000E+00 -0.45593999997E+02  0.45594000000E+02  0.51100000000E-03 0.  1.
    9900012    2    1    2    0    0 -0.31416929155E+00  0.43941835645E+00  0.10494348120E+01  0.90007701622E+02  0.89999962484E+02 0.  0.
        -12    1    1    2    0    0  0.31416929155E+00 -0.43941835645E+00 -0.10494348120E+01  0.11802983777E+01  0.00000000000E+00 0.  1.
         11    1    3    3    0    0  0.28368465218E+01 -0.91188604868E+01 -0.53053363110E+01  0.10924646832E+02  0.51100000000E-03 0. -1.
        -11    1    3    3    0    0  0.28934412274E+02 -0.18746119662E+02  0.10646300068E+02  0.36082695595E+02  0.51100000000E-03 0.  1.
         12    1    3    3    0    0 -0.32085428087E+02  0.28304398505E+02 -0.42915289446E+01  0.43000359196E+02  0.00000000000E+00 0. -1.
</event>
<event>
 7    1  0.1910099E-015  0.9000780E+02  0.7816164E-02  0.1186339E+00
        -11   -1    0    0    0    0  0.00000000000E+00  0.00000000000E+00  0.45593999997E+02  0.45594000000E+02  0.51100000000E-03 0.  1.
         11   -1    0    0    0    0 -0.00000000000E+00 -0.00000000000E+00 -0.45593999997E+02  0.45594000000E+02  0.51100000000E-03 0. -1.
    9900012    2    1    2    0    0 -0.17430602458E-01  0.20015816581E+00 -0.11629702485E+01  0.90007802171E+02  0.90000064359E+02 0.  0.
        -12    1    1    2    0    0  0.17430602458E-01 -0.20015816581E+00  0.11629702485E+01  0.11801978292E+01  0.00000000000E+00 0.  1.
         11    1    3    3    0    0  0.89384488572E+01  0.35195815725E+02 -0.97018445253E+01  0.37586794223E+02  0.51100000000E-03 0. -1.
        -11    1    3    3    0    0 -0.48233584317E+01  0.26227505027E+01 -0.91309328026E+01  0.10654461078E+02  0.51100000000E-03 0.  1.
        -12    1    3    3    0    0 -0.41325210280E+01 -0.37618408062E+02  0.17669807079E+02  0.41766546869E+02  0.00000000000E+00 0.  1.
</event>
<event>
 7    1  0.1910099E-015  0.9000792E+02  0.7816164E-02  0.1186339E+00
        -11   -1    0    0    0    0  0.00000000000E+00  0.00000000000E+00  0.45593999997E+02  0.45594000000E+02  0.51100000000E-03 0. -1.
         11   -1    0    0    0    0 -0.00000000000E+00 -0.00000000000E+00 -0.45593999997E+02  0.45594000000E+02  0.51100000000E-03 0.  1.
    9900012    2    1    2    0    0  0.26811642547E+00 -0.94330590923E+00  0.65641129927E+00  0.90007920236E+02  0.90000183983E+02 0.  0.
        -12    1    1    2    0    0 -0.26811642547E+00  0.94330590923E+00 -0.65641129927E+00  0.11800797642E+01  0.00000000000E+00 0.  1.
         11    1    3    3    0    0  0.24302540618E+01  0.19538479454E+01  0.11040298720E+02  0.11472220913E+02  0.51100000000E-03 0. -1.
        -11    1    3    3    0    0 -0.35798079551E+02 -0.42682901840E+00 -0.22971465359E+02  0.42536724175E+02  0.51100000000E-03 0.  1.
         12    1    3    3    0    0  0.33635941915E+02 -0.24703248363E+01  0.12587577939E+02  0.35998975147E+02  0.00000000000E+00 0. -1.
</event>
<event>
 7    1  0.1910099E-015  0.9000768E+02  0.7816164E-02  0.1186339E+00
        -11   -1    0    0    0    0  0.00000000000E+00  0.00000000000E+00  0.45593999997E+02  0.45594000000E+02  0.51100000000E-03 0. -1.
         11   -1    0    0    0    0 -0.00000000000E+00 -0.00000000000E+00 -0.45593999997E+02  0.45594000000E+02  0.51100000000E-03 0.  1.
    9900012    2    1    2    0    0  0.96842282328E+00  0.33363719302E+00  0.58651335589E+00  0.90007680358E+02  0.89999940938E+02 0.  0.
        -12    1    1    2    0    0 -0.96842282328E+00 -0.33363719302E+00 -0.58651335589E+00  0.11803196422E+01  0.00000000000E+00 0.  1.
         11    1    3    3    0    0  0.88524713977E+01  0.37350907154E+01 -0.38542946132E+01  0.10352426755E+02  0.51100000000E-03 0. -1.
        -11    1    3    3    0    0 -0.22827135047E+02  0.62787149931E+01 -0.31583228226E+02  0.39471517096E+02  0.51100000000E-03 0.  1.
         12    1    3    3    0    0  0.14943086472E+02 -0.96801685154E+01  0.36024036195E+02  0.40183736506E+02  0.00000000000E+00 0. -1.
</event>
<event>
 7    1  0.1910099E-015  0.9000774E+02  0.7816164E-02  0.1186339E+00
        -11   -1    0    0    0    0  0.00000000000E+00  0.00000000000E+00  0.45593999997E+02  0.45594000000E+02  0.51100000000E-03 0. -1.
         11   -1    0    0    0    0 -0.00000000000E+00 -0.00000000000E+00 -0.45593999997E+02  0.45594000000E+02  0.51100000000E-03 0.  1.
    9900012    2    1    2    0    0 -0.68771128210E+00 -0.89862610409E+00  0.33545568994E+00  0.90007743163E+02  0.90000004572E+02 0.  0.
        -12    1    1    2    0    0  0.68771128210E+00  0.89862610409E+00 -0.33545568994E+00  0.11802568375E+01  0.00000000000E+00 0.  1.
         11    1    3    3    0    0 -0.17778488818E+01  0.87497255767E+01  0.34866617937E+01  0.95851580602E+01  0.51100000000E-03 0. -1.
        -11    1    3    3    0    0 -0.80411186570E+01  0.34272519669E+02 -0.48192977847E+01  0.35531546900E+02  0.51100000000E-03 0.  1.
         12    1    3    3    0    0  0.91312562567E+01 -0.43920871350E+02  0.16680916810E+01  0.44891038202E+02  0.00000000000E+00 0. -1.
</event>
<event>
 7    1  0.1910099E-015  0.9000776E+02  0.7816164E-02  0.1186339E+00
        -11   -1    0    0    0    0  0.00000000000E+00  0.00000000000E+00  0.45593999997E+02  0.45594000000E+02  0.51100000000E-03 0.  1.
         11   -1    0    0    0    0 -0.00000000000E+00 -0.00000000000E+00 -0.45593999997E+02  0.45594000000E+02  0.51100000000E-03 0. -1.
    9900012    2    1    2    0    0  0.12524183661E+00 -0.11685869313E+01  0.10807504355E+00  0.90007762249E+02  0.90000023911E+02 0.  0.
        -12    1    1    2    0    0 -0.12524183661E+00  0.11685869313E+01 -0.10807504355E+00  0.11802377509E+01  0.00000000000E+00 0.  1.
         11    1    3    3    0    0  0.94068013399E+01 -0.22923216028E+02 -0.29022639143E+02  0.38161175658E+02  0.51100000000E-03 0. -1.
        -11    1    3    3    0    0  0.50029728461E+01 -0.73251359192E+01  0.12776958661E+02  0.15554357153E+02  0.51100000000E-03 0.  1.
        -12    1    3    3    0    0 -0.14284532349E+02  0.29079765016E+02  0.16353755525E+02  0.36292229438E+02  0.00000000000E+00 0.  1.
</event>
<event>
 7    1  0.1910099E-015  0.9000770E+02  0.7816164E-02  0.1186339E+00
        -11   -1    0    0    0    0  0.00000000000E+00  0.00000000000E+00  0.45593999997E+02  0.45594000000E+02  0.51100000000E-03 0. -1.
         11   -1    0    0    0    0 -0.00000000000E+00 -0.00000000000E+00 -0.45593999997E+02  0.45594000000E+02  0.51100000000E-03 0.  1.
    9900012    2    1    2    0    0 -0.34495123127E+00 -0.11190339561E+01 -0.14795515259E+00  0.90007695347E+02  0.89999956125E+02 0.  0.
        -12    1    1    2    0    0  0.34495123127E+00  0.11190339561E+01  0.14795515259E+00  0.11803046531E+01  0.00000000000E+00 0.  1.
         11    1    3    3    0    0 -0.80181912431E+00 -0.35321904055E+02 -0.16048143769E+02  0.38804931886E+02  0.51100000000E-03 0. -1.
        -11    1    3    3    0    0  0.67847537215E+01 -0.39235981607E+01 -0.27291304014E+01  0.82991360151E+01  0.51100000000E-03 0.  1.
        -12    1    3    3    0    0 -0.63278858285E+01  0.38126468259E+02  0.18629319018E+02  0.42903627446E+02  0.00000000000E+00 0.  1.
</event>
<event>
 7    1  0.1910099E-015  0.9000777E+02  0.7816164E-02  0.1186339E+00
        -11   -1    0    0    0    0  0.00000000000E+00  0.00000000000E+00  0.45593999997E+02  0.45594000000E+02  0.51100000000E-03 0.  1.
         11   -1    0    0    0    0 -0.00000000000E+00 -0.00000000000E+00 -0.45593999997E+02  0.45594000000E+02  0.51100000000E-03 0. -1.
    9900012    2    1    2    0    0  0.61437573106E+00  0.59667900214E+00 -0.81207115470E+00  0.90007769967E+02  0.90000031731E+02 0.  0.
        -12    1    1    2    0    0 -0.61437573106E+00 -0.59667900214E+00  0.81207115470E+00  0.11802300330E+01  0.00000000000E+00 0.  1.
         11    1    3    3    0    0  0.13000188493E+02  0.39995336801E+01  0.40905126481E+01  0.14203290622E+02  0.51100000000E-03 0. -1.
        -11    1    3    3    0    0  0.28556562359E+02 -0.31911554577E+00  0.12545646986E+02  0.31192504661E+02  0.51100000000E-03 0.  1.
         12    1    3    3    0    0 -0.40942375120E+02 -0.30837391322E+01 -0.17448230789E+02  0.44611974684E+02  0.00000000000E+00 0. -1.
</event>
<event>
 7    1  0.1929583E-015  0.9000774E+02  0.7816164E-02  0.1186339E+00
        -11   -1    0    0    0    0  0.00000000000E+00  0.00000000000E+00  0.45593999997E+02  0.45594000000E+02  0.51100000000E-03 0. -1.
         11   -1    0    0    0    0 -0.00000000000E+00 -0.00000000000E+00 -0.45593999997E+02  0.45594000000E+02  0.51100000000E-03 0.  1.
    9900012    2    1    2    0    0  0.94052456140E+00 -0.71296215527E+00  0.10130685391E-01  0.90007744046E+02  0.90000005468E+02 0.  0.
        -12    1    1    2    0    0 -0.94052456140E+00  0.71296215527E+00 -0.10130685391E-01  0.11802559537E+01  0.00000000000E+00 0.  1.
         11    1    3    3    0    0 -0.39991950217E+01 -0.45592198069E+01  0.67661260629E+01  0.90862813202E+01  0.51100000000E-03 0. -1.
        -11    1    3    3    0    0  0.20070370240E+02 -0.33919642081E+02  0.13579246955E+01  0.39436098187E+02  0.51100000000E-03 0.  1.
         12    1    3    3    0    0 -0.15130650657E+02  0.37765899733E+02 -0.81139200730E+01  0.41485364539E+02  0.00000000000E+00 0. -1.
</event>
<event>
 7    1  0.1910099E-015  0.9000763E+02  0.7816164E-02  0.1186339E+00
        -11   -1    0    0    0    0  0.00000000000E+00  0.00000000000E+00  0.45593999997E+02  0.45594000000E+02  0.51100000000E-03 0. -1.
         11   -1    0    0    0    0 -0.00000000000E+00 -0.00000000000E+00 -0.45593999997E+02  0.45594000000E+02  0.51100000000E-03 0.  1.
    9900012    2    1    2    0    0 -0.10042174644E+00 -0.12653182923E+00  0.11692669393E+01  0.90007627175E+02  0.89999887053E+02 0.  0.
        -12    1    1    2    0    0  0.10042174644E+00  0.12653182923E+00 -0.11692669393E+01  0.11803728251E+01  0.00000000000E+00 0.  1.
         11    1    3    3    0    0 -0.28579432495E+01 -0.89755353364E+01  0.59055305956E+00  0.94380520962E+01  0.51100000000E-03 0. -1.
        -11    1    3    3    0    0 -0.50828160444E+01 -0.35192950223E+02  0.35605714900E+01  0.35735926376E+02  0.51100000000E-03 0.  1.
         12    1    3    3    0    0  0.78403375475E+01  0.44041953730E+02 -0.29818576102E+01  0.44833648703E+02  0.00000000000E+00 0. -1.
</event>
<event>
 7    1  0.1910099E-015  0.9000797E+02  0.7816164E-02  0.1186339E+00
        -11   -1    0    0    0    0  0.00000000000E+00  0.00000000000E+00  0.45593999997E+02  0.45594000000E+02  0.51100000000E-03 0. -1.
         11   -1    0    0    0    0 -0.00000000000E+00 -0.00000000000E+00 -0.45593999997E+02  0.45594000000E+02  0.51100000000E-03 0.  1.
    9900012    2    1    2    0    0 -0.83767647773E+00  0.83090583646E+00 -0.18913042168E-01  0.90007972842E+02  0.90000237283E+02 0.  0.
        -12    1    1    2    0    0  0.83767647773E+00 -0.83090583646E+00  0.18913042168E-01  0.11800271580E+01  0.00000000000E+00 0.  1.
         11    1    3    3    0    0  0.44095488410E+01 -0.10050164398E+02  0.22835208906E+01  0.11210013083E+02  0.51100000000E-03 0. -1.
        -11    1    3    3    0    0  0.12691815415E+02 -0.19296738723E+02 -0.27256151073E+02  0.35725958006E+02  0.51100000000E-03 0.  1.
         12    1    3    3    0    0 -0.17939040733E+02  0.30177808957E+02  0.24953717141E+02  0.43072001753E+02  0.00000000000E+00 0. -1.
</event>
<event>
 7    1  0.1910099E-015  0.9000780E+02  0.7816164E-02  0.1186339E+00
        -11   -1    0    0    0    0  0.00000000000E+00  0.00000000000E+00  0.45593999997E+02  0.45594000000E+02  0.51100000000E-03 0. -1.
         11   -1    0    0    0    0 -0.00000000000E+00 -0.00000000000E+00 -0.45593999997E+02  0.45594000000E+02  0.51100000000E-03 0.  1.
    9900012    2    1    2    0    0 -0.61109364751E-01 -0.97591590476E+00  0.66084549550E+00  0.90007803840E+02  0.90000066050E+02 0.  0.
        -12    1    1    2    0    0  0.61109364751E-01  0.97591590476E+00 -0.66084549550E+00  0.11801961602E+01  0.00000000000E+00 0.  1.
         11    1    3    3    0    0  0.23913220410E+02  0.10851568178E+02  0.28543316649E+02  0.38785558755E+02  0.51100000000E-03 0. -1.
        -11    1    3    3    0    0  0.70234126323E+01 -0.23466511133E+01  0.14034300675E+01  0.75368901191E+01  0.51100000000E-03 0.  1.
        -12    1    3    3    0    0 -0.30997742408E+02 -0.94808329696E+01 -0.29285901221E+02  0.43685354966E+02  0.00000000000E+00 0.  1.
</event>
<event>
 7    1  0.1910099E-015  0.9000774E+02  0.7816164E-02  0.1186339E+00
        -11   -1    0    0    0    0  0.00000000000E+00  0.00000000000E+00  0.45593999997E+02  0.45594000000E+02  0.51100000000E-03 0. -1.
         11   -1    0    0    0    0 -0.00000000000E+00 -0.00000000000E+00 -0.45593999997E+02  0.45594000000E+02  0.51100000000E-03 0.  1.
    9900012    2    1    2    0    0 -0.10557087470E+01  0.37577505428E+00  0.37052493572E+00  0.90007738767E+02  0.90000000119E+02 0.  0.
        -12    1    1    2    0    0  0.10557087470E+01 -0.37577505428E+00 -0.37052493572E+00  0.11802612329E+01  0.00000000000E+00 0.  1.
         11    1    3    3    0    0 -0.85363489319E+01 -0.12387315420E+01 -0.49943933399E+01  0.99673303355E+01  0.51100000000E-03 0. -1.
        -11    1    3    3    0    0  0.37863919334E+02 -0.11292288382E+02 -0.13820344934E+02  0.41859217606E+02  0.51100000000E-03 0.  1.
         12    1    3    3    0    0 -0.30383279149E+02  0.12906794978E+02  0.19185263209E+02  0.38181190826E+02  0.00000000000E+00 0. -1.
</event>
<event>
 7    1  0.1910099E-015  0.9000764E+02  0.7816164E-02  0.1186339E+00
        -11   -1    0    0    0    0  0.00000000000E+00  0.00000000000E+00  0.45593999997E+02  0.45594000000E+02  0.51100000000E-03 0.  1.
         11   -1    0    0    0    0 -0.00000000000E+00 -0.00000000000E+00 -0.45593999997E+02  0.45594000000E+02  0.51100000000E-03 0. -1.
    9900012    2    1    2    0    0 -0.48887649700E+00  0.98706142521E+00 -0.42420766812E+00  0.90007643006E+02  0.89999903094E+02 0.  0.
        -12    1    1    2    0    0  0.48887649700E+00 -0.98706142521E+00  0.42420766812E+00  0.11803569935E+01  0.00000000000E+00 0.  1.
         11    1    3    3    0    0 -0.21576128252E+02  0.52110751816E+01 -0.30706032074E+02  0.37888586948E+02  0.51100000000E-03 0. -1.
        -11    1    3    3    0    0  0.72077111823E+01 -0.49469523421E+01 -0.77153876549E+01  0.11659787515E+02  0.51100000000E-03 0.  1.
        -12    1    3    3    0    0  0.13879540573E+02  0.72293858570E+00  0.37997212061E+02  0.40459268544E+02  0.00000000000E+00 0.  1.
</event>
<event>
 7    1  0.1910099E-015  0.9000771E+02  0.7816164E-02  0.1186339E+00
        -11   -1    0    0    0    0  0.00000000000E+00  0.00000000000E+00  0.45593999997E+02  0.45594000000E+02  0.51100000000E-03 0.  1.
         11   -1    0    0    0    0 -0.00000000000E+00 -0.00000000000E+00 -0.45593999997E+02  0.45594000000E+02  0.51100000000E-03 0. -1.
    9900012    2    1    2    0    0  0.62452813615E+00 -0.75581475658E-01  0.99867269800E+00  0.90007705499E+02  0.89999966411E+02 0.  0.
        -12    1    1    2    0    0 -0.62452813615E+00  0.75581475658E-01 -0.99867269800E+00  0.11802945014E+01  0.00000000000E+00 0.  1.
         11    1    3    3    0    0  0.22144229156E+02 -0.32679256135E+02  0.39565152534E+01  0.39673097682E+02  0.51100000000E-03 0. -1.
        -11    1    3    3    0    0  0.38541076592E+01  0.42700810369E+01  0.88096856469E+01  0.10521325932E+02  0.51100000000E-03 0.  1.
        -12    1    3    3    0    0 -0.25373808679E+02  0.28333593622E+02 -0.11767528202E+02  0.39813281885E+02  0.00000000000E+00 0.  1.
</event>
<event>
 7    1  0.1910099E-015  0.9000846E+02  0.7816164E-02  0.1186338E+00
        -11   -1    0    0    0    0  0.00000000000E+00  0.00000000000E+00  0.45593999997E+02  0.45594000000E+02  0.51100000000E-03 0.  1.
         11   -1    0    0    0    0 -0.00000000000E+00 -0.00000000000E+00 -0.45593999997E+02  0.45594000000E+02  0.51100000000E-03 0. -1.
    9900012    2    1    2    0    0  0.10780194525E+01  0.41809875918E+00 -0.23320579016E+00  0.90008458796E+02  0.90000729649E+02 0.  0.
        -12    1    1    2    0    0 -0.10780194525E+01 -0.41809875918E+00  0.23320579016E+00  0.11795412044E+01  0.00000000000E+00 0.  1.
         11    1    3    3    0    0 -0.46889550462E+01  0.29081576631E+02 -0.17391454071E+02  0.34207997219E+02  0.51100000000E-03 0. -1.
        -11    1    3    3    0    0 -0.92685550573E+01  0.86334190718E+01  0.19928312358E+01  0.12822379433E+02  0.51100000000E-03 0.  1.
        -12    1    3    3    0    0  0.15035529556E+02 -0.37296896943E+02  0.15165417045E+02  0.42978082144E+02  0.00000000000E+00 0.  1.
</event>
<event>
 7    1  0.1910099E-015  0.9000779E+02  0.7816164E-02  0.1186339E+00
        -11   -1    0    0    0    0  0.00000000000E+00  0.00000000000E+00  0.45593999997E+02  0.45594000000E+02  0.51100000000E-03 0.  1.
         11   -1    0    0    0    0 -0.00000000000E+00 -0.00000000000E+00 -0.45593999997E+02  0.45594000000E+02  0.51100000000E-03 0. -1.
    9900012    2    1    2    0    0 -0.19524801003E+00  0.11635579597E+01 -0.29974602018E-01  0.90007793498E+02  0.90000055572E+02 0.  0.
        -12    1    1    2    0    0  0.19524801003E+00 -0.11635579597E+01  0.29974602018E-01  0.11802065022E+01  0.00000000000E+00 0.  1.
         11    1    3    3    0    0 -0.87204006874E+01  0.35134984116E-01 -0.65101173074E+01  0.10882474454E+02  0.51100000000E-03 0. -1.
        -11    1    3    3    0    0  0.19486166683E+02  0.18128922691E+02 -0.28326106248E+02  0.38868198124E+02  0.51100000000E-03 0.  1.
         12    1    3    3    0    0 -0.10961014006E+02 -0.17000499715E+02  0.34806248954E+02  0.40257120921E+02  0.00000000000E+00 0. -1.
</event>
<event>
 7    1  0.1910099E-015  0.9000772E+02  0.7816164E-02  0.1186339E+00
        -11   -1    0    0    0    0  0.00000000000E+00  0.00000000000E+00  0.45593999997E+02  0.45594000000E+02  0.51100000000E-03 0.  1.
         11   -1    0    0    0    0 -0.00000000000E+00 -0.00000000000E+00 -0.45593999997E+02  0.45594000000E+02  0.51100000000E-03 0. -1.
    9900012    2    1    2    0    0  0.75894266760E+00  0.22943213802E+00 -0.87431295084E+00  0.90007721976E+02  0.89999983106E+02 0.  0.
        -12    1    1    2    0    0 -0.75894266760E+00 -0.22943213802E+00  0.87431295084E+00  0.11802780243E+01  0.00000000000E+00 0.  1.
         11    1    3    3    0    0  0.60322521929E+01  0.12965498208E+02 -0.29058983125E+02  0.32386983664E+02  0.51100000000E-03 0. -1.
        -11    1    3    3    0    0 -0.12832632145E+02  0.14109275694E+02  0.16802201303E+01  0.19146050463E+02  0.51100000000E-03 0.  1.
        -12    1    3    3    0    0  0.75593226200E+01 -0.26845341764E+02  0.26504450044E+02  0.38474687849E+02  0.00000000000E+00 0.  1.
</event>
<event>
 7    1  0.1910099E-015  0.9000763E+02  0.7816164E-02  0.1186339E+00
        -11   -1    0    0    0    0  0.00000000000E+00  0.00000000000E+00  0.45593999997E+02  0.45594000000E+02  0.51100000000E-03 0.  1.
         11   -1    0    0    0    0 -0.00000000000E+00 -0.00000000000E+00 -0.45593999997E+02  0.45594000000E+02  0.51100000000E-03 0. -1.
    9900012    2    1    2    0    0  0.29275959945E+00 -0.11005104331E+01 -0.31054513598E+00  0.90007631550E+02  0.89999891486E+02 0.  0.
        -12    1    1    2    0    0 -0.29275959945E+00  0.11005104331E+01  0.31054513598E+00  0.11803684501E+01  0.00000000000E+00 0.  1.
         11    1    3    3    0    0  0.65233268015E+01  0.20385088946E+01 -0.46818040754E+01  0.82842380902E+01  0.51100000000E-03 0. -1.
        -11    1    3    3    0    0 -0.27064174551E+02 -0.28743917774E+02  0.21047711722E+02  0.44740233819E+02  0.51100000000E-03 0.  1.
         12    1    3    3    0    0  0.20833607349E+02  0.25604898446E+02 -0.16676452783E+02  0.36983159641E+02  0.00000000000E+00 0. -1.
</event>
<event>
 7    1  0.1910099E-015  0.9000767E+02  0.7816164E-02  0.1186339E+00
        -11   -1    0    0    0    0  0.00000000000E+00  0.00000000000E+00  0.45593999997E+02  0.45594000000E+02  0.51100000000E-03 0.  1.
         11   -1    0    0    0    0 -0.00000000000E+00 -0.00000000000E+00 -0.45593999997E+02  0.45594000000E+02  0.51100000000E-03 0. -1.
    9900012    2    1    2    0    0 -0.52548879385E+00 -0.92630638877E+00 -0.50892369540E+00  0.90007667282E+02  0.89999927690E+02 0.  0.
        -12    1    1    2    0    0  0.52548879385E+00  0.92630638877E+00  0.50892369540E+00  0.11803327184E+01  0.00000000000E+00 0.  1.
         11    1    3    3    0    0 -0.53033791477E+01 -0.26439217463E+00  0.68398029299E+01  0.86590206136E+01  0.51100000000E-03 0. -1.
        -11    1    3    3    0    0 -0.11964614836E+02  0.32605166193E+02  0.15091165975E+02  0.37868088959E+02  0.51100000000E-03 0.  1.
         12    1    3    3    0    0  0.16742505190E+02 -0.33267080407E+02 -0.22439892600E+02  0.43480557710E+02  0.00000000000E+00 0. -1.
</event>
<event>
 7    1  0.1910099E-015  0.9000781E+02  0.7816164E-02  0.1186339E+00
        -11   -1    0    0    0    0  0.00000000000E+00  0.00000000000E+00  0.45593999997E+02  0.45594000000E+02  0.51100000000E-03 0.  1.
         11   -1    0    0    0    0 -0.00000000000E+00 -0.00000000000E+00 -0.45593999997E+02  0.45594000000E+02  0.51100000000E-03 0. -1.
    9900012    2    1    2    0    0  0.62986924213E+00  0.31007196229E+00 -0.94866847519E+00  0.90007808592E+02  0.90000070865E+02 0.  0.
        -12    1    1    2    0    0 -0.62986924213E+00 -0.31007196229E+00  0.94866847519E+00  0.11801914081E+01  0.00000000000E+00 0.  1.
         11    1    3    3    0    0  0.29076952527E+02 -0.23600625902E+02 -0.11457413012E+02  0.39162878142E+02  0.51100000000E-03 0. -1.
        -11    1    3    3    0    0  0.55770736299E+01  0.67701437174E+01 -0.45471577451E+01  0.98800425124E+01  0.51100000000E-03 0.  1.
        -12    1    3    3    0    0 -0.34024156914E+02  0.17140554147E+02  0.15055902282E+02  0.40964887937E+02  0.00000000000E+00 0.  1.
</event>
<event>
 7    1  0.1910099E-015  0.9000773E+02  0.7816164E-02  0.1186339E+00
        -11   -1    0    0    0    0  0.00000000000E+00  0.00000000000E+00  0.45593999997E+02  0.45594000000E+02  0.51100000000E-03 0. -1.
         11   -1    0    0    0    0 -0.00000000000E+00 -0.00000000000E+00 -0.45593999997E+02  0.45594000000E+02  0.51100000000E-03 0.  1.
    9900012    2    1    2    0    0  0.10160707660E+01  0.50685204621E+00  0.32207554521E+00  0.90007732465E+02  0.89999993733E+02 0.  0.
        -12    1    1    2    0    0 -0.10160707660E+01 -0.50685204621E+00 -0.32207554521E+00  0.11802675354E+01  0.00000000000E+00 0.  1.
         11    1    3    3    0    0 -0.13506211063E+01  0.76926448259E+01 -0.40291571860E+01  0.87883485184E+01  0.51100000000E-03 0. -1.
        -11    1    3    3    0    0 -0.29085561820E+02 -0.50771348024E+01 -0.24591299449E+02  0.38424981627E+02  0.51100000000E-03 0.  1.
         12    1    3    3    0    0  0.31452253692E+02 -0.21086579773E+01  0.28942532181E+02  0.42794402319E+02  0.00000000000E+00 0. -1.
</event>
<event>
 7    1  0.1910099E-015  0.9000759E+02  0.7816164E-02  0.1186339E+00
        -11   -1    0    0    0    0  0.00000000000E+00  0.00000000000E+00  0.45593999997E+02  0.45594000000E+02  0.51100000000E-03 0. -1.
         11   -1    0    0    0    0 -0.00000000000E+00 -0.00000000000E+00 -0.45593999997E+02  0.45594000000E+02  0.51100000000E-03 0.  1.
    9900012    2    1    2    0    0  0.96912527873E+00  0.32118558987E+00  0.59245706414E+00  0.90007589325E+02  0.89999848704E+02 0.  0.
        -12    1    1    2    0    0 -0.96912527873E+00 -0.32118558987E+00 -0.59245706414E+00  0.11804106751E+01  0.00000000000E+00 0.  1.
         11    1    3    3    0    0  0.19810849078E+02  0.22680118206E+02  0.22636560557E+02  0.37673218301E+02  0.51100000000E-03 0. -1.
        -11    1    3    3    0    0  0.11225209125E+02 -0.27356554614E+01 -0.49695211615E+01  0.12577172637E+02  0.51100000000E-03 0.  1.
        -12    1    3    3    0    0 -0.30066932924E+02 -0.19623277155E+02 -0.17074582332E+02  0.39757198387E+02  0.00000000000E+00 0.  1.
</event>
<event>
 7    1  0.1910099E-015  0.9000772E+02  0.7816164E-02  0.1186339E+00
        -11   -1    0    0    0    0  0.00000000000E+00  0.00000000000E+00  0.45593999997E+02  0.45594000000E+02  0.51100000000E-03 0. -1.
         11   -1    0    0    0    0 -0.00000000000E+00 -0.00000000000E+00 -0.45593999997E+02  0.45594000000E+02  0.51100000000E-03 0.  1.
    9900012    2    1    2    0    0  0.53956083799E+00 -0.78968552301E+00  0.69162056771E+00  0.90007716927E+02  0.89999977990E+02 0.  0.
        -12    1    1    2    0    0 -0.53956083799E+00  0.78968552301E+00 -0.69162056771E+00  0.11802830732E+01  0.00000000000E+00 0.  1.
         11    1    3    3    0    0  0.22739987005E+02 -0.20206215704E+02  0.18813382161E+02  0.35767883788E+02  0.51100000000E-03 0. -1.
        -11    1    3    3    0    0 -0.53880758483E+01 -0.35110652673E+01  0.11503465680E+02  0.13179099497E+02  0.51100000000E-03 0.  1.
        -12    1    3    3    0    0 -0.16812350319E+02  0.22927595448E+02 -0.29625227272E+02  0.41060733642E+02  0.00000000000E+00 0.  1.
</event>
<event>
 7    1  0.1910099E-015  0.9000783E+02  0.7816164E-02  0.1186339E+00
        -11   -1    0    0    0    0  0.00000000000E+00  0.00000000000E+00  0.45593999997E+02  0.45594000000E+02  0.51100000000E-03 0.  1.
         11   -1    0    0    0    0 -0.00000000000E+00 -0.00000000000E+00 -0.45593999997E+02  0.45594000000E+02  0.51100000000E-03 0. -1.
    9900012    2    1    2    0    0  0.14528310167E+00  0.36962224812E+00 -0.11113372476E+01  0.90007831256E+02  0.90000093829E+02 0.  0.
        -12    1    1    2    0    0 -0.14528310167E+00 -0.36962224812E+00  0.11113372476E+01  0.11801687438E+01  0.00000000000E+00 0.  1.
         11    1    3    3    0    0 -0.14136757685E+02 -0.33224033919E+02 -0.20468889247E+02  0.41504936754E+02  0.51100000000E-03 0. -1.
        -11    1    3    3    0    0  0.42115319576E+01 -0.17764940172E+01  0.93220629902E+01  0.10382378874E+02  0.51100000000E-03 0.  1.
        -12    1    3    3    0    0  0.10070508829E+02  0.35370150184E+02  0.10035489009E+02  0.38120515629E+02  0.00000000000E+00 0.  1.
</event>
<event>
 7    1  0.3058982E-015  0.9000772E+02  0.7816164E-02  0.1186339E+00
        -11   -1    0    0    0    0  0.00000000000E+00  0.00000000000E+00  0.45593999997E+02  0.45594000000E+02  0.51100000000E-03 0.  1.
         11   -1    0    0    0    0 -0.00000000000E+00 -0.00000000000E+00 -0.45593999997E+02  0.45594000000E+02  0.51100000000E-03 0. -1.
    9900012    2    1    2    0    0 -0.12715248815E+00 -0.11091636021E+01 -0.38295711469E+00  0.90007717066E+02  0.89999978132E+02 0.  0.
        -12    1    1    2    0    0  0.12715248815E+00  0.11091636021E+01  0.38295711469E+00  0.11802829335E+01  0.00000000000E+00 0.  1.
         11    1    3    3    0    0  0.90546531686E+01  0.21973098493E+01 -0.16787388518E+00  0.93189643459E+01  0.51100000000E-03 0. -1.
        -11    1    3    3    0    0  0.16500535880E+02 -0.25960182168E+02  0.23773940817E+02  0.38876715457E+02  0.51100000000E-03 0.  1.
         12    1    3    3    0    0 -0.25682341536E+02  0.22653708716E+02 -0.23989024047E+02  0.41812037263E+02  0.00000000000E+00 0. -1.
</event>
<event>
 7    1  0.1910099E-015  0.9000774E+02  0.7816164E-02  0.1186339E+00
        -11   -1    0    0    0    0  0.00000000000E+00  0.00000000000E+00  0.45593999997E+02  0.45594000000E+02  0.51100000000E-03 0.  1.
         11   -1    0    0    0    0 -0.00000000000E+00 -0.00000000000E+00 -0.45593999997E+02  0.45594000000E+02  0.51100000000E-03 0. -1.
    9900012    2    1    2    0    0  0.51040638053E-01 -0.11616471144E+01  0.20243814203E+00  0.90007741398E+02  0.90000002785E+02 0.  0.
        -12    1    1    2    0    0 -0.51040638053E-01  0.11616471144E+01 -0.20243814203E+00  0.11802586015E+01  0.00000000000E+00 0.  1.
         11    1    3    3    0    0 -0.50544631279E+01 -0.14588670156E+02  0.16041121006E+02  0.22264196771E+02  0.51100000000E-03 0. -1.
        -11    1    3    3    0    0  0.93946817307E+01  0.25808773253E+02  0.17059103736E+02  0.32332117812E+02  0.51100000000E-03 0.  1.
         12    1    3    3    0    0 -0.42891779648E+01 -0.12381750211E+02 -0.32897786601E+02  0.35411426816E+02  0.00000000000E+00 0. -1.
</event>
<event>
 7    1  0.1910099E-015  0.9000775E+02  0.7816164E-02  0.1186339E+00
        -11   -1    0    0    0    0  0.00000000000E+00  0.00000000000E+00  0.45593999997E+02  0.45594000000E+02  0.51100000000E-03 0.  1.
         11   -1    0    0    0    0 -0.00000000000E+00 -0.00000000000E+00 -0.45593999997E+02  0.45594000000E+02  0.51100000000E-03 0. -1.
    9900012    2    1    2    0    0 -0.70037202833E+00 -0.93636262595E+00  0.16027513971E+00  0.90007752540E+02  0.90000014074E+02 0.  0.
        -12    1    1    2    0    0  0.70037202833E+00  0.93636262595E+00 -0.16027513971E+00  0.11802474595E+01  0.00000000000E+00 0.  1.
         11    1    3    3    0    0 -0.15327405481E+02  0.39076426725E+02  0.14848825832E+02  0.44523972344E+02  0.51100000000E-03 0.  1.
        -11    1    3    3    0    0  0.68213179939E+01 -0.12111760295E+02 -0.66957758859E+01  0.15429145524E+02  0.51100000000E-03 0. -1.
        -12    1    3    3    0    0  0.78057154590E+01 -0.27901029056E+02 -0.79927748063E+01  0.30054634673E+02  0.00000000000E+00 0.  1.
</event>
<event>
 7    1  0.1910099E-015  0.9000780E+02  0.7816164E-02  0.1186339E+00
        -11   -1    0    0    0    0  0.00000000000E+00  0.00000000000E+00  0.45593999997E+02  0.45594000000E+02  0.51100000000E-03 0. -1.
         11   -1    0    0    0    0 -0.00000000000E+00 -0.00000000000E+00 -0.45593999997E+02  0.45594000000E+02  0.51100000000E-03 0.  1.
    9900012    2    1    2    0    0  0.21386960087E+00 -0.75681864057E+00  0.87997751250E+00  0.90007798711E+02  0.90000060854E+02 0.  0.
        -12    1    1    2    0    0 -0.21386960087E+00  0.75681864057E+00 -0.87997751250E+00  0.11802012894E+01  0.00000000000E+00 0.  1.
         11    1    3    3    0    0 -0.21017273785E+02  0.92803650886E+00  0.34325357255E+02  0.40259374064E+02  0.51100000000E-03 0. -1.
        -11    1    3    3    0    0  0.47479806857E+01  0.79301212969E+01  0.20329355050E+01  0.94637715211E+01  0.51100000000E-03 0.  1.
        -12    1    3    3    0    0  0.16483162700E+02 -0.96149764463E+01 -0.35478315247E+02  0.40284653125E+02  0.00000000000E+00 0.  1.
</event>
<event>
 7    1  0.1910099E-015  0.9000777E+02  0.7816164E-02  0.1186339E+00
        -11   -1    0    0    0    0  0.00000000000E+00  0.00000000000E+00  0.45593999997E+02  0.45594000000E+02  0.51100000000E-03 0. -1.
         11   -1    0    0    0    0 -0.00000000000E+00 -0.00000000000E+00 -0.45593999997E+02  0.45594000000E+02  0.51100000000E-03 0.  1.
    9900012    2    1    2    0    0  0.25142421309E+00 -0.72730808307E+00  0.89484972488E+00  0.90007768153E+02  0.90000029893E+02 0.  0.
        -12    1    1    2    0    0 -0.25142421309E+00  0.72730808307E+00 -0.89484972488E+00  0.11802318470E+01  0.00000000000E+00 0.  1.
         11    1    3    3    0    0  0.28353226333E+02  0.53864996733E+01  0.18148560720E+02  0.34092375668E+02  0.51100000000E-03 0. -1.
        -11    1    3    3    0    0  0.51626591620E+01 -0.55159244408E+01  0.10260786800E+02  0.12742143386E+02  0.51100000000E-03 0.  1.
        -12    1    3    3    0    0 -0.33264461282E+02 -0.59788331559E+00 -0.27514497795E+02  0.43173249099E+02  0.00000000000E+00 0.  1.
</event>
<event>
 7    1  0.1910099E-015  0.9000771E+02  0.7816164E-02  0.1186339E+00
        -11   -1    0    0    0    0  0.00000000000E+00  0.00000000000E+00  0.45593999997E+02  0.45594000000E+02  0.51100000000E-03 0.  1.
         11   -1    0    0    0    0 -0.00000000000E+00 -0.00000000000E+00 -0.45593999997E+02  0.45594000000E+02  0.51100000000E-03 0. -1.
    9900012    2    1    2    0    0 -0.11727579947E+01 -0.99334226683E-01 -0.88666403023E-01  0.90007707522E+02  0.89999968461E+02 0.  0.
        -12    1    1    2    0    0  0.11727579947E+01  0.99334226683E-01  0.88666403023E-01  0.11802924780E+01  0.00000000000E+00 0.  1.
         11    1    3    3    0    0 -0.20268204285E+02  0.18425695276E+01 -0.32684434444E+02  0.38502823566E+02  0.51100000000E-03 0. -1.
        -11    1    3    3    0    0 -0.65171789606E+01  0.59907899896E+01 -0.55294833263E+00  0.88695511962E+01  0.51100000000E-03 0.  1.
        -12    1    3    3    0    0  0.25612625251E+02 -0.79326937438E+01  0.33148716374E+02  0.42635332759E+02  0.00000000000E+00 0.  1.
</event>
<event>
 7    1  0.1910099E-015  0.9000719E+02  0.7816164E-02  0.1186340E+00
        -11   -1    0    0    0    0  0.00000000000E+00  0.00000000000E+00  0.45593999997E+02  0.45594000000E+02  0.51100000000E-03 0.  1.
         11   -1    0    0    0    0 -0.00000000000E+00 -0.00000000000E+00 -0.45593999997E+02  0.45594000000E+02  0.51100000000E-03 0. -1.
    9900012    2    1    2    0    0 -0.80962080816E+00 -0.48108138747E-01 -0.85820013868E+00  0.90007191919E+02  0.89999446051E+02 0.  0.
        -12    1    1    2    0    0  0.80962080816E+00  0.48108138747E-01  0.85820013868E+00  0.11808080810E+01  0.00000000000E+00 0.  1.
         11    1    3    3    0    0  0.13752789483E+02  0.30072267148E+02 -0.16948950626E+02  0.37158409514E+02  0.51100000000E-03 0. -1.
        -11    1    3    3    0    0  0.99058598184E+00  0.64906020881E+01 -0.45950393108E+01  0.80139604805E+01  0.51100000000E-03 0.  1.
        -12    1    3    3    0    0 -0.15552996273E+02 -0.36610977375E+02  0.20685789798E+02  0.44834821925E+02  0.00000000000E+00 0.  1.
</event>
<event>
 7    1  0.1910099E-015  0.9000730E+02  0.7816164E-02  0.1186340E+00
        -11   -1    0    0    0    0  0.00000000000E+00  0.00000000000E+00  0.45593999997E+02  0.45594000000E+02  0.51100000000E-03 0. -1.
         11   -1    0    0    0    0 -0.00000000000E+00 -0.00000000000E+00 -0.45593999997E+02  0.45594000000E+02  0.51100000000E-03 0.  1.
    9900012    2    1    2    0    0  0.71353808517E+00 -0.44935618087E+00  0.82642981870E+00  0.90007303671E+02  0.89999559278E+02 0.  0.
        -12    1    1    2    0    0 -0.71353808517E+00  0.44935618087E+00 -0.82642981870E+00  0.11806963291E+01  0.00000000000E+00 0.  1.
         11    1    3    3    0    0  0.10611770034E+02  0.61076075075E+00  0.40448688618E+02  0.41821993055E+02  0.51100000000E-03 0. -1.
        -11    1    3    3    0    0 -0.11405571548E+02  0.29179981039E+01 -0.41865488246E+01  0.12495157726E+02  0.51100000000E-03 0.  1.
        -12    1    3    3    0    0  0.15073395992E+01 -0.39781150355E+01 -0.35435709974E+02  0.35690152890E+02  0.00000000000E+00 0.  1.
</event>
<event>
 7    1  0.1910099E-015  0.9000776E+02  0.7816164E-02  0.1186339E+00
        -11   -1    0    0    0    0  0.00000000000E+00  0.00000000000E+00  0.45593999997E+02  0.45594000000E+02  0.51100000000E-03 0.  1.
         11   -1    0    0    0    0 -0.00000000000E+00 -0.00000000000E+00 -0.45593999997E+02  0.45594000000E+02  0.51100000000E-03 0. -1.
    9900012    2    1    2    0    0  0.10475888839E+01  0.54245018809E+00 -0.35658613326E-01  0.90007760104E+02  0.90000021737E+02 0.  0.
        -12    1    1    2    0    0 -0.10475888839E+01 -0.54245018809E+00  0.35658613326E-01  0.11802398964E+01  0.00000000000E+00 0.  1.
         11    1    3    3    0    0  0.37197164004E+01 -0.75425747763E+01 -0.35436008671E+02  0.36420288784E+02  0.51100000000E-03 0. -1.
        -11    1    3    3    0    0  0.80922075977E-01  0.15505148400E+01 -0.87422184404E+01  0.88790218027E+01  0.51100000000E-03 0.  1.
        -12    1    3    3    0    0 -0.27530495924E+01  0.65345101244E+01  0.44142568498E+02  0.44708449517E+02  0.00000000000E+00 0.  1.
</event>
<event>
 7    1  0.1910099E-015  0.9000777E+02  0.7816164E-02  0.1186339E+00
        -11   -1    0    0    0    0  0.00000000000E+00  0.00000000000E+00  0.45593999997E+02  0.45594000000E+02  0.51100000000E-03 0.  1.
         11   -1    0    0    0    0 -0.00000000000E+00 -0.00000000000E+00 -0.45593999997E+02  0.45594000000E+02  0.51100000000E-03 0. -1.
    9900012    2    1    2    0    0  0.26984411233E+00  0.11049536549E+01  0.31496660552E+00  0.90007770197E+02  0.90000031964E+02 0.  0.
        -12    1    1    2    0    0 -0.26984411233E+00 -0.11049536549E+01 -0.31496660552E+00  0.11802298027E+01  0.00000000000E+00 0.  1.
         11    1    3    3    0    0  0.63238570375E+00  0.34493882111E+01  0.77878218880E+01  0.85409812509E+01  0.51100000000E-03 0. -1.
        -11    1    3    3    0    0 -0.14334837449E+02  0.22995097620E+01  0.34261901405E+02  0.37210928475E+02  0.51100000000E-03 0.  1.
         12    1    3    3    0    0  0.13972295857E+02 -0.46439443182E+01 -0.41734756687E+02  0.44255860472E+02  0.00000000000E+00 0. -1.
</event>
<event>
 7    1  0.1910099E-015  0.9000775E+02  0.7816164E-02  0.1186339E+00
        -11   -1    0    0    0    0  0.00000000000E+00  0.00000000000E+00  0.45593999997E+02  0.45594000000E+02  0.51100000000E-03 0. -1.
         11   -1    0    0    0    0 -0.00000000000E+00 -0.00000000000E+00 -0.45593999997E+02  0.45594000000E+02  0.51100000000E-03 0.  1.
    9900012    2    1    2    0    0 -0.60917706240E+00  0.92642649868E+00 -0.40450756828E+00  0.90007750398E+02  0.90000011903E+02 0.  0.
        -12    1    1    2    0    0  0.60917706240E+00 -0.92642649868E+00  0.40450756828E+00  0.11802496022E+01  0.00000000000E+00 0.  1.
         11    1    3    3    0    0 -0.82945656350E+01  0.29727031334E+01 -0.47157460019E+01  0.99937502274E+01  0.51100000000E-03 0. -1.
        -11    1    3    3    0    0  0.16308850015E+01  0.64032396491E+01 -0.36912836090E+02  0.37499583095E+02  0.51100000000E-03 0.  1.
         12    1    3    3    0    0  0.60545035710E+01 -0.84495162838E+01  0.41224074523E+02  0.42514417075E+02  0.00000000000E+00 0. -1.
</event>
<event>
 7    1  0.1910099E-015  0.9000777E+02  0.7816164E-02  0.1186339E+00
        -11   -1    0    0    0    0  0.00000000000E+00  0.00000000000E+00  0.45593999997E+02  0.45594000000E+02  0.51100000000E-03 0.  1.
         11   -1    0    0    0    0 -0.00000000000E+00 -0.00000000000E+00 -0.45593999997E+02  0.45594000000E+02  0.51100000000E-03 0. -1.
    9900012    2    1    2    0    0 -0.10541450298E+01  0.23044545250E+00 -0.47812935095E+00  0.90007773527E+02  0.90000035338E+02 0.  0.
        -12    1    1    2    0    0  0.10541450298E+01 -0.23044545250E+00  0.47812935095E+00  0.11802264726E+01  0.00000000000E+00 0.  1.
         11    1    3    3    0    0  0.93271228480E+01  0.43789398892E+01  0.12471083060E+01  0.10379095074E+02  0.51100000000E-03 0. -1.
        -11    1    3    3    0    0  0.32182454788E+02  0.93787340829E+00  0.12390157156E+02  0.34497912941E+02  0.51100000000E-03 0.  1.
         12    1    3    3    0    0 -0.42563722665E+02 -0.50863678450E+01 -0.14115394813E+02  0.45130765512E+02  0.00000000000E+00 0. -1.
</event>
<event>
 7    1  0.1910099E-015  0.9000771E+02  0.7816164E-02  0.1186339E+00
        -11   -1    0    0    0    0  0.00000000000E+00  0.00000000000E+00  0.45593999997E+02  0.45594000000E+02  0.51100000000E-03 0. -1.
         11   -1    0    0    0    0 -0.00000000000E+00 -0.00000000000E+00 -0.45593999997E+02  0.45594000000E+02  0.51100000000E-03 0.  1.
    9900012    2    1    2    0    0 -0.65804394689E+00  0.57912262658E+00  0.79037151907E+00  0.90007706820E+02  0.89999967750E+02 0.  0.
        -12    1    1    2    0    0  0.65804394689E+00 -0.57912262658E+00 -0.79037151907E+00  0.11802931800E+01  0.00000000000E+00 0.  1.
         11    1    3    3    0    0 -0.86387030843E+01 -0.54931823520E+01 -0.37693310127E+01  0.10909175032E+02  0.51100000000E-03 0. -1.
        -11    1    3    3    0    0  0.19382693360E+02 -0.30181751553E+02 -0.11745551054E+02  0.37743673623E+02  0.51100000000E-03 0.  1.
         12    1    3    3    0    0 -0.11402034223E+02  0.36254056532E+02  0.16305253585E+02  0.41354858166E+02  0.00000000000E+00 0. -1.
</event>
<event>
 7    1  0.1910099E-015  0.9000771E+02  0.7816164E-02  0.1186339E+00
        -11   -1    0    0    0    0  0.00000000000E+00  0.00000000000E+00  0.45593999997E+02  0.45594000000E+02  0.51100000000E-03 0. -1.
         11   -1    0    0    0    0 -0.00000000000E+00 -0.00000000000E+00 -0.45593999997E+02  0.45594000000E+02  0.51100000000E-03 0.  1.
    9900012    2    1    2    0    0 -0.92438555383E+00 -0.69107226181E+00 -0.24702293839E+00  0.90007707725E+02  0.89999968667E+02 0.  0.
        -12    1    1    2    0    0  0.92438555383E+00  0.69107226181E+00  0.24702293839E+00  0.11802922754E+01  0.00000000000E+00 0.  1.
         11    1    3    3    0    0  0.12986157408E+01  0.10511989717E+02  0.40347041609E+01  0.11334335824E+02  0.51100000000E-03 0. -1.
        -11    1    3    3    0    0  0.33140077592E+02 -0.21581521293E+02 -0.11356161498E+02  0.41145950085E+02  0.51100000000E-03 0.  1.
         12    1    3    3    0    0 -0.35363078887E+02  0.10378459315E+02  0.70744343992E+01  0.37527421816E+02  0.00000000000E+00 0. -1.
</event>
<event>
 7    1  0.1910099E-015  0.9000779E+02  0.7816164E-02  0.1186339E+00
        -11   -1    0    0    0    0  0.00000000000E+00  0.00000000000E+00  0.45593999997E+02  0.45594000000E+02  0.51100000000E-03 0. -1.
         11   -1    0    0    0    0 -0.00000000000E+00 -0.00000000000E+00 -0.45593999997E+02  0.45594000000E+02  0.51100000000E-03 0.  1.
    9900012    2    1    2    0    0 -0.81468234360E+00 -0.58312331818E+00 -0.62382605137E+00  0.90007788550E+02  0.90000050558E+02 0.  0.
        -12    1    1    2    0    0  0.81468234360E+00  0.58312331818E+00  0.62382605137E+00  0.11802114504E+01  0.00000000000E+00 0.  1.
         11    1    3    3    0    0 -0.63231701085E+01 -0.41465381596E+01  0.43421195247E+01  0.87195333108E+01  0.51100000000E-03 0. -1.
        -11    1    3    3    0    0 -0.14802370690E+02  0.11983359387E+02 -0.37478089868E+02  0.42039485019E+02  0.51100000000E-03 0.  1.
         12    1    3    3    0    0  0.20310858455E+02 -0.84199445458E+01  0.32512144292E+02  0.39248770220E+02  0.00000000000E+00 0. -1.
</event>
<event>
 7    1  0.1910099E-015  0.9000771E+02  0.7816164E-02  0.1186339E+00
        -11   -1    0    0    0    0  0.00000000000E+00  0.00000000000E+00  0.45593999997E+02  0.45594000000E+02  0.51100000000E-03 0.  1.
         11   -1    0    0    0    0 -0.00000000000E+00 -0.00000000000E+00 -0.45593999997E+02  0.45594000000E+02  0.51100000000E-03 0. -1.
    9900012    2    1    2    0    0  0.10649962620E+01  0.27585499643E+00 -0.42751406818E+00  0.90007711351E+02  0.89999972341E+02 0.  0.
        -12    1    1    2    0    0 -0.10649962620E+01 -0.27585499643E+00  0.42751406818E+00  0.11802886493E+01  0.00000000000E+00 0.  1.
         11    1    3    3    0    0 -0.14071636596E+02 -0.34071597554E+02 -0.23122160480E+01  0.36935498639E+02  0.51100000000E-03 0. -1.
        -11    1    3    3    0    0 -0.34573781383E+01 -0.50634357108E+01  0.68733612703E+01  0.92105884829E+01  0.51100000000E-03 0.  1.
        -12    1    3    3    0    0  0.18594010997E+02  0.39410888261E+02 -0.49886592905E+01  0.43861624229E+02  0.00000000000E+00 0.  1.
</event>
<event>
 7    1  0.1910099E-015  0.9000786E+02  0.7816164E-02  0.1186339E+00
        -11   -1    0    0    0    0  0.00000000000E+00  0.00000000000E+00  0.45593999997E+02  0.45594000000E+02  0.51100000000E-03 0.  1.
         11   -1    0    0    0    0 -0.00000000000E+00 -0.00000000000E+00 -0.45593999997E+02  0.45594000000E+02  0.51100000000E-03 0. -1.
    9900012    2    1    2    0    0  0.70515710965E+00  0.94624202295E+00  0.99088661852E-02  0.90007864965E+02  0.90000127982E+02 0.  0.
        -12    1    1    2    0    0 -0.70515710965E+00 -0.94624202295E+00 -0.99088661852E-02  0.11801350350E+01  0.00000000000E+00 0.  1.
         11    1    3    3    0    0  0.48974632437E+01 -0.53874401769E+01  0.31847477972E+01  0.79468406727E+01  0.51100000000E-03 0. -1.
        -11    1    3    3    0    0  0.98487687730E+01  0.24158350780E+01  0.37503116352E+02  0.38849945197E+02  0.51100000000E-03 0.  1.
         12    1    3    3    0    0 -0.14041074907E+02  0.39178471219E+01 -0.40677955283E+02  0.43211079095E+02  0.00000000000E+00 0. -1.
</event>
<event>
 7    1  0.1910099E-015  0.9000766E+02  0.7816164E-02  0.1186339E+00
        -11   -1    0    0    0    0  0.00000000000E+00  0.00000000000E+00  0.45593999997E+02  0.45594000000E+02  0.51100000000E-03 0.  1.
         11   -1    0    0    0    0 -0.00000000000E+00 -0.00000000000E+00 -0.45593999997E+02  0.45594000000E+02  0.51100000000E-03 0. -1.
    9900012    2    1    2    0    0  0.25120814991E+00 -0.61989445822E+00 -0.97253222666E+00  0.90007663774E+02  0.89999924136E+02 0.  0.
        -12    1    1    2    0    0 -0.25120814991E+00  0.61989445822E+00  0.97253222666E+00  0.11803362257E+01  0.00000000000E+00 0.  1.
         11    1    3    3    0    0 -0.10826531863E+02 -0.89130872979E+01 -0.42072798601E+02  0.44348362988E+02  0.51100000000E-03 0. -1.
        -11    1    3    3    0    0  0.28323337554E+01  0.68829604332E+01  0.59543778672E+01  0.95316249860E+01  0.51100000000E-03 0.  1.
        -12    1    3    3    0    0  0.82454062577E+01  0.14102324065E+01  0.35145888507E+02  0.36127675800E+02  0.00000000000E+00 0.  1.
</event>
<event>
 7    1  0.1910099E-015  0.9000783E+02  0.7816164E-02  0.1186339E+00
        -11   -1    0    0    0    0  0.00000000000E+00  0.00000000000E+00  0.45593999997E+02  0.45594000000E+02  0.51100000000E-03 0. -1.
         11   -1    0    0    0    0 -0.00000000000E+00 -0.00000000000E+00 -0.45593999997E+02  0.45594000000E+02  0.51100000000E-03 0.  1.
    9900012    2    1    2    0    0 -0.69961825654E+00 -0.14136583644E+00  0.93986339616E+00  0.90007833398E+02  0.90000095999E+02 0.  0.
        -12    1    1    2    0    0  0.69961825654E+00  0.14136583644E+00 -0.93986339616E+00  0.11801666018E+01  0.00000000000E+00 0.  1.
         11    1    3    3    0    0 -0.21075074549E+02  0.25205688671E+02  0.21320450071E+02  0.39166913334E+02  0.51100000000E-03 0. -1.
        -11    1    3    3    0    0 -0.25745867035E+01 -0.49528443449E+01  0.75130785426E+01  0.93597816880E+01  0.51100000000E-03 0.  1.
        -12    1    3    3    0    0  0.22950042996E+02 -0.20394210162E+02 -0.27893665218E+02  0.41481138376E+02  0.00000000000E+00 0.  1.
</event>
<event>
 7    1  0.1910099E-015  0.9000784E+02  0.7816164E-02  0.1186339E+00
        -11   -1    0    0    0    0  0.00000000000E+00  0.00000000000E+00  0.45593999997E+02  0.45594000000E+02  0.51100000000E-03 0.  1.
         11   -1    0    0    0    0 -0.00000000000E+00 -0.00000000000E+00 -0.45593999997E+02  0.45594000000E+02  0.51100000000E-03 0. -1.
    9900012    2    1    2    0    0  0.20455288643E+00 -0.11589638892E+01  0.87942842831E-01  0.90007841907E+02  0.90000104621E+02 0.  0.
        -12    1    1    2    0    0 -0.20455288643E+00  0.11589638892E+01 -0.87942842831E-01  0.11801580926E+01  0.00000000000E+00 0.  1.
         11    1    3    3    0    0 -0.86390180977E+01  0.12700168940E+00 -0.23483181070E+01  0.89533994278E+01  0.51100000000E-03 0. -1.
        -11    1    3    3    0    0 -0.35272720375E+02  0.59437556780E+01 -0.35712401280E+01  0.35947834295E+02  0.51100000000E-03 0.  1.
         12    1    3    3    0    0  0.44116291359E+02 -0.72297212567E+01  0.60075010778E+01  0.45106608184E+02  0.00000000000E+00 0. -1.
</event>
<event>
 7    1  0.1910099E-015  0.9000770E+02  0.7816164E-02  0.1186339E+00
        -11   -1    0    0    0    0  0.00000000000E+00  0.00000000000E+00  0.45593999997E+02  0.45594000000E+02  0.51100000000E-03 0. -1.
         11   -1    0    0    0    0 -0.00000000000E+00 -0.00000000000E+00 -0.45593999997E+02  0.45594000000E+02  0.51100000000E-03 0.  1.
    9900012    2    1    2    0    0  0.76593110314E+00 -0.74811191948E+00  0.49677558413E+00  0.90007700089E+02  0.89999960930E+02 0.  0.
        -12    1    1    2    0    0 -0.76593110314E+00  0.74811191948E+00 -0.49677558413E+00  0.11802999110E+01  0.00000000000E+00 0.  1.
         11    1    3    3    0    0  0.97952925501E+01 -0.18658976402E+01  0.22322187449E+01  0.10218225430E+02  0.51100000000E-03 0. -1.
        -11    1    3    3    0    0  0.96308807154E+01  0.10588418601E+02 -0.36503709031E+02  0.39209555533E+02  0.51100000000E-03 0.  1.
         12    1    3    3    0    0 -0.18660242162E+02 -0.94706328806E+01  0.34768265870E+02  0.40579919126E+02  0.00000000000E+00 0. -1.
</event>
<event>
 7    1  0.1910099E-015  0.9000784E+02  0.7816164E-02  0.1186339E+00
        -11   -1    0    0    0    0  0.00000000000E+00  0.00000000000E+00  0.45593999997E+02  0.45594000000E+02  0.51100000000E-03 0. -1.
         11   -1    0    0    0    0 -0.00000000000E+00 -0.00000000000E+00 -0.45593999997E+02  0.45594000000E+02  0.51100000000E-03 0.  1.
    9900012    2    1    2    0    0  0.10743665950E+01  0.38500617356E+00  0.30046081427E+00  0.90007843216E+02  0.90000105946E+02 0.  0.
        -12    1    1    2    0    0 -0.10743665950E+01 -0.38500617356E+00 -0.30046081427E+00  0.11801567841E+01  0.00000000000E+00 0.  1.
         11    1    3    3    0    0 -0.12022520108E+02  0.34813600528E+01 -0.20064369042E+01  0.12676223684E+02  0.51100000000E-03 0. -1.
        -11    1    3    3    0    0 -0.29157436071E+02  0.45465468418E+01 -0.12306578493E+02  0.31973098706E+02  0.51100000000E-03 0.  1.
         12    1    3    3    0    0  0.42254322774E+02 -0.76429007210E+01  0.14613476212E+02  0.45358520826E+02  0.00000000000E+00 0. -1.
</event>
<event>
 7    1  0.1910099E-015  0.9000777E+02  0.7816164E-02  0.1186339E+00
        -11   -1    0    0    0    0  0.00000000000E+00  0.00000000000E+00  0.45593999997E+02  0.45594000000E+02  0.51100000000E-03 0.  1.
         11   -1    0    0    0    0 -0.00000000000E+00 -0.00000000000E+00 -0.45593999997E+02  0.45594000000E+02  0.51100000000E-03 0. -1.
    9900012    2    1    2    0    0 -0.10043531650E+01 -0.41973572691E+00 -0.45612089821E+00  0.90007767127E+02  0.90000028853E+02 0.  0.
        -12    1    1    2    0    0  0.10043531650E+01  0.41973572691E+00  0.45612089821E+00  0.11802328729E+01  0.00000000000E+00 0.  1.
         11    1    3    3    0    0 -0.31636211708E+02 -0.10652434732E+02 -0.12114961657E+02  0.35511921282E+02  0.51100000000E-03 0. -1.
        -11    1    3    3    0    0 -0.67933395459E+01 -0.45370865753E+01 -0.64166215618E+01  0.10387860670E+02  0.51100000000E-03 0.  1.
        -12    1    3    3    0    0  0.37425198089E+02  0.14769785580E+02  0.18075462320E+02  0.44107985175E+02  0.00000000000E+00 0.  1.
</event>
<event>
 7    1  0.1910099E-015  0.9000825E+02  0.7816164E-02  0.1186338E+00
        -11   -1    0    0    0    0  0.00000000000E+00  0.00000000000E+00  0.45593999997E+02  0.45594000000E+02  0.51100000000E-03 0. -1.
         11   -1    0    0    0    0 -0.00000000000E+00 -0.00000000000E+00 -0.45593999997E+02  0.45594000000E+02  0.51100000000E-03 0.  1.
    9900012    2    1    2    0    0  0.35624987271E+00 -0.10939992423E+01 -0.26089544287E+00  0.90008248015E+02  0.90000516087E+02 0.  0.
        -12    1    1    2    0    0 -0.35624987271E+00  0.10939992423E+01  0.26089544287E+00  0.11797519850E+01  0.00000000000E+00 0.  1.
         11    1    3    3    0    0  0.39207427756E+02  0.13408750542E+02 -0.84894562654E+01  0.42297610456E+02  0.51100000000E-03 0. -1.
        -11    1    3    3    0    0 -0.32700119674E+01  0.35398764286E+01  0.60803939600E+01  0.77585368702E+01  0.51100000000E-03 0.  1.
        -12    1    3    3    0    0 -0.35581165916E+02 -0.18042626213E+02  0.21481668626E+01  0.39952100689E+02  0.00000000000E+00 0.  1.
</event>
<event>
 7    1  0.1910099E-015  0.9000781E+02  0.7816164E-02  0.1186339E+00
        -11   -1    0    0    0    0  0.00000000000E+00  0.00000000000E+00  0.45593999997E+02  0.45594000000E+02  0.51100000000E-03 0.  1.
         11   -1    0    0    0    0 -0.00000000000E+00 -0.00000000000E+00 -0.45593999997E+02  0.45594000000E+02  0.51100000000E-03 0. -1.
    9900012    2    1    2    0    0  0.79601201382E+00  0.55963783842E+00 -0.66784307086E+00  0.90007811878E+02  0.90000074195E+02 0.  0.
        -12    1    1    2    0    0 -0.79601201382E+00 -0.55963783842E+00  0.66784307086E+00  0.11801881221E+01  0.00000000000E+00 0.  1.
         11    1    3    3    0    0  0.73985830369E+01  0.50129411605E+00  0.31921717021E+01  0.80734309424E+01  0.51100000000E-03 0. -1.
        -11    1    3    3    0    0  0.26933722938E+02 -0.93650380884E+01  0.24045470245E+02  0.37300321838E+02  0.51100000000E-03 0.  1.
         12    1    3    3    0    0 -0.33536293961E+02  0.94233818108E+01 -0.27905485018E+02  0.44634059097E+02  0.00000000000E+00 0. -1.
</event>
<event>
 7    1  0.1910099E-015  0.9000788E+02  0.7816164E-02  0.1186339E+00
        -11   -1    0    0    0    0  0.00000000000E+00  0.00000000000E+00  0.45593999997E+02  0.45594000000E+02  0.51100000000E-03 0. -1.
         11   -1    0    0    0    0 -0.00000000000E+00 -0.00000000000E+00 -0.45593999997E+02  0.45594000000E+02  0.51100000000E-03 0.  1.
    9900012    2    1    2    0    0 -0.32622211975E+00  0.11037590900E+01 -0.26071952906E+00  0.90007881500E+02  0.90000144736E+02 0.  0.
        -12    1    1    2    0    0  0.32622211975E+00 -0.11037590900E+01  0.26071952906E+00  0.11801184996E+01  0.00000000000E+00 0.  1.
         11    1    3    3    0    0 -0.25136066810E+02 -0.17691487359E+02  0.13367085660E+02  0.33518495774E+02  0.51100000000E-03 0. -1.
        -11    1    3    3    0    0 -0.52745982002E+01 -0.83773033778E+01  0.58658509183E+01  0.11506902507E+02  0.51100000000E-03 0.  1.
        -12    1    3    3    0    0  0.30084442891E+02  0.27172549827E+02 -0.19493656107E+02  0.44982483219E+02  0.00000000000E+00 0.  1.
</event>
<event>
 7    1  0.1910099E-015  0.9000772E+02  0.7816164E-02  0.1186339E+00
        -11   -1    0    0    0    0  0.00000000000E+00  0.00000000000E+00  0.45593999997E+02  0.45594000000E+02  0.51100000000E-03 0. -1.
         11   -1    0    0    0    0 -0.00000000000E+00 -0.00000000000E+00 -0.45593999997E+02  0.45594000000E+02  0.51100000000E-03 0.  1.
    9900012    2    1    2    0    0  0.25933935130E+00  0.29183733774E+00  0.11138409681E+01  0.90007717139E+02  0.89999978205E+02 0.  0.
        -12    1    1    2    0    0 -0.25933935130E+00 -0.29183733774E+00 -0.11138409681E+01  0.11802828615E+01  0.00000000000E+00 0.  1.
         11    1    3    3    0    0 -0.28111686781E+01  0.32544938093E+02  0.23882462223E+02  0.40465388506E+02  0.51100000000E-03 0. -1.
        -11    1    3    3    0    0  0.52164281519E+01 -0.65824360301E+01  0.64499073992E+01  0.10589659696E+02  0.51100000000E-03 0.  1.
        -12    1    3    3    0    0 -0.21459201225E+01 -0.25670664725E+02 -0.29218528654E+02  0.38952668937E+02  0.00000000000E+00 0.  1.
</event>
<event>
 7    1  0.1910099E-015  0.9000766E+02  0.7816164E-02  0.1186339E+00
        -11   -1    0    0    0    0  0.00000000000E+00  0.00000000000E+00  0.45593999997E+02  0.45594000000E+02  0.51100000000E-03 0. -1.
         11   -1    0    0    0    0 -0.00000000000E+00 -0.00000000000E+00 -0.45593999997E+02  0.45594000000E+02  0.51100000000E-03 0.  1.
    9900012    2    1    2    0    0  0.11633997070E+01 -0.82813128449E-01 -0.18123351793E+00  0.90007660015E+02  0.89999920327E+02 0.  0.
        -12    1    1    2    0    0 -0.11633997070E+01  0.82813128449E-01  0.18123351793E+00  0.11803399852E+01  0.00000000000E+00 0.  1.
         11    1    3    3    0    0 -0.44487779738E-01 -0.91097804058E+01 -0.42173054395E+01  0.10038712250E+02  0.51100000000E-03 0. -1.
        -11    1    3    3    0    0  0.82335575496E+01 -0.31703496483E+02 -0.13030722627E+02  0.35251991315E+02  0.51100000000E-03 0.  1.
         12    1    3    3    0    0 -0.70256700628E+01  0.40730463761E+02  0.17066794549E+02  0.44716956450E+02  0.00000000000E+00 0. -1.
</event>
<event>
 7    1  0.1910099E-015  0.9000780E+02  0.7816164E-02  0.1186339E+00
        -11   -1    0    0    0    0  0.00000000000E+00  0.00000000000E+00  0.45593999997E+02  0.45594000000E+02  0.51100000000E-03 0. -1.
         11   -1    0    0    0    0 -0.00000000000E+00 -0.00000000000E+00 -0.45593999997E+02  0.45594000000E+02  0.51100000000E-03 0.  1.
    9900012    2    1    2    0    0 -0.72364349240E+00 -0.74668814834E+00  0.55826686029E+00  0.90007802990E+02  0.90000065190E+02 0.  0.
        -12    1    1    2    0    0  0.72364349240E+00  0.74668814834E+00 -0.55826686029E+00  0.11801970099E+01  0.00000000000E+00 0.  1.
         11    1    3    3    0    0 -0.10706191950E+02 -0.37332854649E+02 -0.21547545838E+01  0.38897397727E+02  0.51100000000E-03 0. -1.
        -11    1    3    3    0    0 -0.11204296211E+01  0.57427639417E+01 -0.13371773896E+02  0.14595856864E+02  0.51100000000E-03 0.  1.
        -12    1    3    3    0    0  0.11102978079E+02  0.30843402559E+02  0.16084795340E+02  0.36514548399E+02  0.00000000000E+00 0.  1.
</event>
<event>
 7    1  0.1910099E-015  0.9000774E+02  0.7816164E-02  0.1186339E+00
        -11   -1    0    0    0    0  0.00000000000E+00  0.00000000000E+00  0.45593999997E+02  0.45594000000E+02  0.51100000000E-03 0.  1.
         11   -1    0    0    0    0 -0.00000000000E+00 -0.00000000000E+00 -0.45593999997E+02  0.45594000000E+02  0.51100000000E-03 0. -1.
    9900012    2    1    2    0    0  0.82565212155E+00  0.22985201981E+00 -0.81147418682E+00  0.90007735736E+02  0.89999997048E+02 0.  0.
        -12    1    1    2    0    0 -0.82565212155E+00 -0.22985201981E+00  0.81147418682E+00  0.11802642639E+01  0.00000000000E+00 0.  1.
         11    1    3    3    0    0 -0.20591379572E+02  0.28903938412E+02  0.14824863582E+02  0.38460618155E+02  0.51100000000E-03 0. -1.
        -11    1    3    3    0    0 -0.44092365934E+01 -0.62395204682E+01  0.71332672819E+01  0.10452582714E+02  0.51100000000E-03 0.  1.
        -12    1    3    3    0    0  0.25826268287E+02 -0.22434565924E+02 -0.22769605050E+02  0.41094534867E+02  0.00000000000E+00 0.  1.
</event>
<event>
 7    1  0.1910099E-015  0.9000781E+02  0.7816164E-02  0.1186339E+00
        -11   -1    0    0    0    0  0.00000000000E+00  0.00000000000E+00  0.45593999997E+02  0.45594000000E+02  0.51100000000E-03 0.  1.
         11   -1    0    0    0    0 -0.00000000000E+00 -0.00000000000E+00 -0.45593999997E+02  0.45594000000E+02  0.51100000000E-03 0. -1.
    9900012    2    1    2    0    0  0.99018560650E-01 -0.10839206984E+01 -0.45624371659E+00  0.90007810573E+02  0.90000072872E+02 0.  0.
        -12    1    1    2    0    0 -0.99018560650E-01  0.10839206984E+01  0.45624371659E+00  0.11801894274E+01  0.00000000000E+00 0.  1.
         11    1    3    3    0    0 -0.99515424993E+01 -0.26059436149E+02  0.25681950074E+02  0.37916882393E+02  0.51100000000E-03 0. -1.
        -11    1    3    3    0    0 -0.11793038573E+02  0.60266867200E+01 -0.20008535214E+00  0.13245253716E+02  0.51100000000E-03 0.  1.
        -12    1    3    3    0    0  0.21843599633E+02  0.18948828731E+02 -0.25938108438E+02  0.38845674464E+02  0.00000000000E+00 0.  1.
</event>
<event>
 7    1  0.1910099E-015  0.9000770E+02  0.7816164E-02  0.1186339E+00
        -11   -1    0    0    0    0  0.00000000000E+00  0.00000000000E+00  0.45593999997E+02  0.45594000000E+02  0.51100000000E-03 0. -1.
         11   -1    0    0    0    0 -0.00000000000E+00 -0.00000000000E+00 -0.45593999997E+02  0.45594000000E+02  0.51100000000E-03 0.  1.
    9900012    2    1    2    0    0  0.20647688043E+00  0.78087018064E+00  0.86064949510E+00  0.90007699829E+02  0.89999960666E+02 0.  0.
        -12    1    1    2    0    0 -0.20647688043E+00 -0.78087018064E+00 -0.86064949510E+00  0.11803001714E+01  0.00000000000E+00 0.  1.
         11    1    3    3    0    0  0.11253839919E+02 -0.15940120761E+01  0.38276326430E+02  0.39928272598E+02  0.51100000000E-03 0. -1.
        -11    1    3    3    0    0  0.55925337100E+01  0.78227538097E+01 -0.99365303420E+00  0.96674328070E+01  0.51100000000E-03 0.  1.
        -12    1    3    3    0    0 -0.16639896749E+02 -0.54478715530E+01 -0.36422023901E+02  0.40411994424E+02  0.00000000000E+00 0.  1.
</event>
<event>
 7    1  0.1910099E-015  0.9000769E+02  0.7816164E-02  0.1186339E+00
        -11   -1    0    0    0    0  0.00000000000E+00  0.00000000000E+00  0.45593999997E+02  0.45594000000E+02  0.51100000000E-03 0. -1.
         11   -1    0    0    0    0 -0.00000000000E+00 -0.00000000000E+00 -0.45593999997E+02  0.45594000000E+02  0.51100000000E-03 0.  1.
    9900012    2    1    2    0    0  0.11427561951E+01 -0.98935839152E-01  0.27828447436E+00  0.90007693993E+02  0.89999954754E+02 0.  0.
        -12    1    1    2    0    0 -0.11427561951E+01  0.98935839152E-01 -0.27828447436E+00  0.11803060071E+01  0.00000000000E+00 0.  1.
         11    1    3    3    0    0 -0.10050444047E+02  0.33703424002E+01 -0.15197728133E+02  0.18529478517E+02  0.51100000000E-03 0. -1.
        -11    1    3    3    0    0 -0.10624961342E+02  0.28072817962E+02 -0.27385196256E+00  0.30017460036E+02  0.51100000000E-03 0.  1.
         12    1    3    3    0    0  0.21818161584E+02 -0.31542096202E+02  0.15749864570E+02  0.41460755440E+02  0.00000000000E+00 0. -1.
</event>
<event>
 7    1  0.1910099E-015  0.9000779E+02  0.7816164E-02  0.1186339E+00
        -11   -1    0    0    0    0  0.00000000000E+00  0.00000000000E+00  0.45593999997E+02  0.45594000000E+02  0.51100000000E-03 0.  1.
         11   -1    0    0    0    0 -0.00000000000E+00 -0.00000000000E+00 -0.45593999997E+02  0.45594000000E+02  0.51100000000E-03 0. -1.
    9900012    2    1    2    0    0  0.76375890893E+00  0.73092285219E+00 -0.52471842574E+00  0.90007785904E+02  0.90000047878E+02 0.  0.
        -12    1    1    2    0    0 -0.76375890893E+00 -0.73092285219E+00  0.52471842574E+00  0.11802140963E+01  0.00000000000E+00 0.  1.
         11    1    3    3    0    0 -0.10016088560E+02 -0.19106729676E+02 -0.31419795664E+02  0.38112894259E+02  0.51100000000E-03 0. -1.
        -11    1    3    3    0    0  0.49109508278E+01 -0.64491159302E+00 -0.69083087740E+01  0.85004752440E+01  0.51100000000E-03 0.  1.
        -12    1    3    3    0    0  0.58688966416E+01  0.20482564121E+02  0.37803386012E+02  0.43394416401E+02  0.00000000000E+00 0.  1.
</event>
<event>
 7    1  0.1910099E-015  0.9000775E+02  0.7816164E-02  0.1186339E+00
        -11   -1    0    0    0    0  0.00000000000E+00  0.00000000000E+00  0.45593999997E+02  0.45594000000E+02  0.51100000000E-03 0.  1.
         11   -1    0    0    0    0 -0.00000000000E+00 -0.00000000000E+00 -0.45593999997E+02  0.45594000000E+02  0.51100000000E-03 0. -1.
    9900012    2    1    2    0    0 -0.63641437273E+00  0.98452617625E+00  0.13662246659E+00  0.90007753948E+02  0.90000015500E+02 0.  0.
        -12    1    1    2    0    0  0.63641437273E+00 -0.98452617625E+00 -0.13662246659E+00  0.11802460523E+01  0.00000000000E+00 0.  1.
         11    1    3    3    0    0  0.15702401592E+02 -0.32098411882E+02 -0.75544738206E+01  0.36523191757E+02  0.51100000000E-03 0. -1.
        -11    1    3    3    0    0 -0.62211073820E+00 -0.83389559899E+01 -0.70807660147E+00  0.83920546654E+01  0.51100000000E-03 0.  1.
        -12    1    3    3    0    0 -0.15716705227E+02  0.41421894048E+02  0.83991728886E+01  0.45092507526E+02  0.00000000000E+00 0.  1.
</event>
<event>
 7    1  0.1910099E-015  0.9000802E+02  0.7816164E-02  0.1186338E+00
        -11   -1    0    0    0    0  0.00000000000E+00  0.00000000000E+00  0.45593999997E+02  0.45594000000E+02  0.51100000000E-03 0.  1.
         11   -1    0    0    0    0 -0.00000000000E+00 -0.00000000000E+00 -0.45593999997E+02  0.45594000000E+02  0.51100000000E-03 0. -1.
    9900012    2    1    2    0    0  0.92864366385E+00  0.70903007463E+00  0.16507516094E+00  0.90008020123E+02  0.90000285188E+02 0.  0.
        -12    1    1    2    0    0 -0.92864366385E+00 -0.70903007463E+00 -0.16507516094E+00  0.11799798769E+01  0.00000000000E+00 0.  1.
         11    1    3    3    0    0  0.11589854191E+01 -0.10617887003E+02 -0.26582835596E+00  0.10684261162E+02  0.51100000000E-03 0. -1.
        -11    1    3    3    0    0  0.30749407098E+02 -0.17881197583E+02 -0.65762463617E+01  0.36173336594E+02  0.51100000000E-03 0.  1.
         12    1    3    3    0    0 -0.30979748853E+02  0.29208114661E+02  0.70071498786E+01  0.43150422367E+02  0.00000000000E+00 0. -1.
</event>
<event>
 7    1  0.1910099E-015  0.9000770E+02  0.7816164E-02  0.1186339E+00
        -11   -1    0    0    0    0  0.00000000000E+00  0.00000000000E+00  0.45593999997E+02  0.45594000000E+02  0.51100000000E-03 0.  1.
         11   -1    0    0    0    0 -0.00000000000E+00 -0.00000000000E+00 -0.45593999997E+02  0.45594000000E+02  0.51100000000E-03 0. -1.
    9900012    2    1    2    0    0 -0.93321574819E+00  0.23274142501E+00 -0.68413399961E+00  0.90007703625E+02  0.89999964513E+02 0.  0.
        -12    1    1    2    0    0  0.93321574819E+00 -0.23274142501E+00  0.68413399961E+00  0.11802963751E+01  0.00000000000E+00 0.  1.
         11    1    3    3    0    0  0.29993913151E+02  0.17450819822E+02 -0.42227322119E+01  0.34957079486E+02  0.51100000000E-03 0. -1.
        -11    1    3    3    0    0  0.70612002211E+01  0.63297957117E+01 -0.28492170539E+01  0.99017624894E+01  0.51100000000E-03 0.  1.
        -12    1    3    3    0    0 -0.37988329121E+02 -0.23547874109E+02  0.63878152662E+01  0.45148861650E+02  0.00000000000E+00 0.  1.
</event>
<event>
 7    1  0.1910099E-015  0.9000769E+02  0.7816164E-02  0.1186339E+00
        -11   -1    0    0    0    0  0.00000000000E+00  0.00000000000E+00  0.45593999997E+02  0.45594000000E+02  0.51100000000E-03 0. -1.
         11   -1    0    0    0    0 -0.00000000000E+00 -0.00000000000E+00 -0.45593999997E+02  0.45594000000E+02  0.51100000000E-03 0.  1.
    9900012    2    1    2    0    0 -0.47115056338E+00 -0.10779841247E+01  0.95412043274E-01  0.90007688141E+02  0.89999948824E+02 0.  0.
        -12    1    1    2    0    0  0.47115056338E+00  0.10779841247E+01 -0.95412043274E-01  0.11803118590E+01  0.00000000000E+00 0.  1.
         11    1    3    3    0    0 -0.30389539791E+02  0.29559896685E+02 -0.30027403828E+01  0.42500918470E+02  0.51100000000E-03 0. -1.
        -11    1    3    3    0    0  0.87623543779E+01  0.14485166232E+01 -0.56571830721E+00  0.88992748084E+01  0.51100000000E-03 0.  1.
        -12    1    3    3    0    0  0.21156034850E+02 -0.32086397433E+02  0.36638707333E+01  0.38607494862E+02  0.00000000000E+00 0.  1.
</event>
<event>
 7    1  0.1910099E-015  0.9000775E+02  0.7816164E-02  0.1186339E+00
        -11   -1    0    0    0    0  0.00000000000E+00  0.00000000000E+00  0.45593999997E+02  0.45594000000E+02  0.51100000000E-03 0.  1.
         11   -1    0    0    0    0 -0.00000000000E+00 -0.00000000000E+00 -0.45593999997E+02  0.45594000000E+02  0.51100000000E-03 0. -1.
    9900012    2    1    2    0    0 -0.69333884105E+00 -0.87417184645E+00 -0.38481704328E+00  0.90007754550E+02  0.90000016110E+02 0.  0.
        -12    1    1    2    0    0  0.69333884105E+00  0.87417184645E+00  0.38481704328E+00  0.11802454501E+01  0.00000000000E+00 0.  1.
         11    1    3    3    0    0 -0.23100497837E+02  0.66275785176E+01 -0.34646387451E+02  0.42165506768E+02  0.51100000000E-03 0. -1.
        -11    1    3    3    0    0 -0.28995362474E+01 -0.75028510653E+01  0.93081156764E+01  0.12302077152E+02  0.51100000000E-03 0.  1.
        -12    1    3    3    0    0  0.25306695243E+02  0.11007012439E-02  0.24953454731E+02  0.35540170630E+02  0.00000000000E+00 0.  1.
</event>
<event>
 7    1  0.1910099E-015  0.9000746E+02  0.7816164E-02  0.1186340E+00
        -11   -1    0    0    0    0  0.00000000000E+00  0.00000000000E+00  0.45593999997E+02  0.45594000000E+02  0.51100000000E-03 0.  1.
         11   -1    0    0    0    0 -0.00000000000E+00 -0.00000000000E+00 -0.45593999997E+02  0.45594000000E+02  0.51100000000E-03 0. -1.
    9900012    2    1    2    0    0 -0.10070745332E+01 -0.56303778354E+00 -0.24992188307E+00  0.90007461306E+02  0.89999718994E+02 0.  0.
        -12    1    1    2    0    0  0.10070745332E+01  0.56303778354E+00  0.24992188307E+00  0.11805386943E+01  0.00000000000E+00 0.  1.
         11    1    3    3    0    0 -0.35648526250E+01  0.33786225306E+02 -0.11036493251E+01  0.33991693643E+02  0.51100000000E-03 0. -1.
        -11    1    3    3    0    0 -0.44690845248E+00  0.10482213331E+02 -0.30180856357E+01  0.10917204983E+02  0.51100000000E-03 0.  1.
        -12    1    3    3    0    0  0.30046865442E+01 -0.44831476420E+02  0.38718130777E+01  0.45098562679E+02  0.00000000000E+00 0.  1.
</event>
<event>
 7    1  0.1910099E-015  0.9000773E+02  0.7816164E-02  0.1186339E+00
        -11   -1    0    0    0    0  0.00000000000E+00  0.00000000000E+00  0.45593999997E+02  0.45594000000E+02  0.51100000000E-03 0. -1.
         11   -1    0    0    0    0 -0.00000000000E+00 -0.00000000000E+00 -0.45593999997E+02  0.45594000000E+02  0.51100000000E-03 0.  1.
    9900012    2    1    2    0    0  0.78570663829E+00 -0.78873497792E+00 -0.39191793940E+00  0.90007729922E+02  0.89999991157E+02 0.  0.
        -12    1    1    2    0    0 -0.78570663829E+00  0.78873497792E+00  0.39191793940E+00  0.11802700784E+01  0.00000000000E+00 0.  1.
         11    1    3    3    0    0  0.29792249800E+02 -0.21961862130E+02  0.24139017093E+02  0.44188162248E+02  0.51100000000E-03 0. -1.
        -11    1    3    3    0    0 -0.22560005533E+01  0.38901021005E+01 -0.96916650736E+01  0.10684138010E+02  0.51100000000E-03 0.  1.
        -12    1    3    3    0    0 -0.26750542609E+02  0.17283025051E+02 -0.14839269958E+02  0.35135429664E+02  0.00000000000E+00 0.  1.
</event>
<event>
 7    1  0.1910099E-015  0.9000758E+02  0.7816164E-02  0.1186339E+00
        -11   -1    0    0    0    0  0.00000000000E+00  0.00000000000E+00  0.45593999997E+02  0.45594000000E+02  0.51100000000E-03 0. -1.
         11   -1    0    0    0    0 -0.00000000000E+00 -0.00000000000E+00 -0.45593999997E+02  0.45594000000E+02  0.51100000000E-03 0.  1.
    9900012    2    1    2    0    0  0.24164588035E+00 -0.10627052755E+01 -0.45348089608E+00  0.90007584752E+02  0.89999844071E+02 0.  0.
        -12    1    1    2    0    0 -0.24164588035E+00  0.10627052755E+01  0.45348089608E+00  0.11804152478E+01  0.00000000000E+00 0.  1.
         11    1    3    3    0    0  0.42108547848E+01 -0.22321420299E+02  0.31345058587E+02  0.38710331958E+02  0.51100000000E-03 0. -1.
        -11    1    3    3    0    0  0.50404033371E+01  0.55969265783E+01  0.58503489662E+01  0.95371817751E+01  0.51100000000E-03 0.  1.
        -12    1    3    3    0    0 -0.90096122415E+01  0.15661788446E+02 -0.37648888449E+02  0.41760071019E+02  0.00000000000E+00 0.  1.
</event>
<event>
 7    1  0.1910099E-015  0.9000785E+02  0.7816164E-02  0.1186339E+00
        -11   -1    0    0    0    0  0.00000000000E+00  0.00000000000E+00  0.45593999997E+02  0.45594000000E+02  0.51100000000E-03 0. -1.
         11   -1    0    0    0    0 -0.00000000000E+00 -0.00000000000E+00 -0.45593999997E+02  0.45594000000E+02  0.51100000000E-03 0.  1.
    9900012    2    1    2    0    0  0.42063710965E+00  0.38121877503E-01  0.11019810086E+01  0.90007851281E+02  0.90000114118E+02 0.  0.
        -12    1    1    2    0    0 -0.42063710965E+00 -0.38121877503E-01 -0.11019810086E+01  0.11801487190E+01  0.00000000000E+00 0.  1.
         11    1    3    3    0    0 -0.65163617571E+00  0.11022115420E+01 -0.77813212326E+01  0.78859660394E+01  0.51100000000E-03 0. -1.
        -11    1    3    3    0    0 -0.86654198717E+01 -0.12747522455E+02 -0.33616880089E+02  0.36982204606E+02  0.51100000000E-03 0.  1.
         12    1    3    3    0    0  0.97376931571E+01  0.11683432791E+02  0.42500182330E+02  0.45139680636E+02  0.00000000000E+00 0. -1.
</event>
<event>
 7    1  0.1910099E-015  0.9000778E+02  0.7816164E-02  0.1186339E+00
        -11   -1    0    0    0    0  0.00000000000E+00  0.00000000000E+00  0.45593999997E+02  0.45594000000E+02  0.51100000000E-03 0.  1.
         11   -1    0    0    0    0 -0.00000000000E+00 -0.00000000000E+00 -0.45593999997E+02  0.45594000000E+02  0.51100000000E-03 0. -1.
    9900012    2    1    2    0    0 -0.13226753299E+00  0.10906260181E+01 -0.43123784777E+00  0.90007777185E+02  0.90000039044E+02 0.  0.
        -12    1    1    2    0    0  0.13226753299E+00 -0.10906260181E+01  0.43123784777E+00  0.11802228150E+01  0.00000000000E+00 0.  1.
         11    1    3    3    0    0  0.36958228437E+02  0.10558327633E+01 -0.13368131293E+02  0.39315803013E+02  0.51100000000E-03 0. -1.
        -11    1    3    3    0    0  0.10895544333E+01  0.23508166886E+00  0.12458641950E+02  0.12508403245E+02  0.51100000000E-03 0.  1.
        -12    1    3    3    0    0 -0.38180050403E+02 -0.20028841405E+00  0.47825149549E+00  0.38183570927E+02  0.00000000000E+00 0.  1.
</event>
<event>
 7    1  0.1910099E-015  0.9000771E+02  0.7816164E-02  0.1186339E+00
        -11   -1    0    0    0    0  0.00000000000E+00  0.00000000000E+00  0.45593999997E+02  0.45594000000E+02  0.51100000000E-03 0.  1.
         11   -1    0    0    0    0 -0.00000000000E+00 -0.00000000000E+00 -0.45593999997E+02  0.45594000000E+02  0.51100000000E-03 0. -1.
    9900012    2    1    2    0    0 -0.13563460129E+00 -0.86569968534E-01 -0.11692709619E+01  0.90007709490E+02  0.89999970456E+02 0.  0.
        -12    1    1    2    0    0  0.13563460129E+00  0.86569968534E-01  0.11692709619E+01  0.11802905096E+01  0.00000000000E+00 0.  1.
         11    1    3    3    0    0 -0.25822321688E+02  0.38185096690E+01 -0.33336639045E+02  0.42340345022E+02  0.51100000000E-03 0. -1.
        -11    1    3    3    0    0 -0.19433750383E+01  0.54301341184E+01  0.75590744991E+01  0.95080319008E+01  0.51100000000E-03 0.  1.
        -12    1    3    3    0    0  0.27630062125E+02 -0.93352137560E+01  0.24608293584E+02  0.38159332568E+02  0.00000000000E+00 0.  1.
</event>
<event>
 7    1  0.1910099E-015  0.9000818E+02  0.7816164E-02  0.1186338E+00
        -11   -1    0    0    0    0  0.00000000000E+00  0.00000000000E+00  0.45593999997E+02  0.45594000000E+02  0.51100000000E-03 0.  1.
         11   -1    0    0    0    0 -0.00000000000E+00 -0.00000000000E+00 -0.45593999997E+02  0.45594000000E+02  0.51100000000E-03 0. -1.
    9900012    2    1    2    0    0 -0.66665149558E+00  0.95439711461E+00 -0.19153857530E+00  0.90008175820E+02  0.90000442940E+02 0.  0.
        -12    1    1    2    0    0  0.66665149558E+00 -0.95439711461E+00  0.19153857530E+00  0.11798241796E+01  0.00000000000E+00 0.  1.
         11    1    3    3    0    0 -0.24843586253E+02 -0.21471876153E+02  0.19160768138E+02  0.38018157232E+02  0.51100000000E-03 0. -1.
        -11    1    3    3    0    0  0.12897180320E+01 -0.52675509057E+01  0.59473066864E+01  0.80486596542E+01  0.51100000000E-03 0.  1.
        -12    1    3    3    0    0  0.22887216726E+02  0.27693824173E+02 -0.25299613400E+02  0.43941358934E+02  0.00000000000E+00 0.  1.
</event>
<event>
 7    1  0.1910099E-015  0.9000771E+02  0.7816164E-02  0.1186339E+00
        -11   -1    0    0    0    0  0.00000000000E+00  0.00000000000E+00  0.45593999997E+02  0.45594000000E+02  0.51100000000E-03 0.  1.
         11   -1    0    0    0    0 -0.00000000000E+00 -0.00000000000E+00 -0.45593999997E+02  0.45594000000E+02  0.51100000000E-03 0. -1.
    9900012    2    1    2    0    0 -0.66517617567E-01  0.10864769211E+01 -0.45633050524E+00  0.90007705874E+02  0.89999966792E+02 0.  0.
        -12    1    1    2    0    0  0.66517617567E-01 -0.10864769211E+01  0.45633050524E+00  0.11802941259E+01  0.00000000000E+00 0.  1.
         11    1    3    3    0    0  0.36244576905E+02 -0.90908409822E+01 -0.74780426775E+01  0.38108186356E+02  0.51100000000E-03 0. -1.
        -11    1    3    3    0    0 -0.33170855325E+00 -0.10091983978E+02  0.20731993926E+01  0.10308070972E+02  0.51100000000E-03 0.  1.
        -12    1    3    3    0    0 -0.35979385969E+02  0.20269301881E+02  0.49485127797E+01  0.41591448547E+02  0.00000000000E+00 0.  1.
</event>
<event>
 7    1  0.1910099E-015  0.9000762E+02  0.7816164E-02  0.1186339E+00
        -11   -1    0    0    0    0  0.00000000000E+00  0.00000000000E+00  0.45593999997E+02  0.45594000000E+02  0.51100000000E-03 0.  1.
         11   -1    0    0    0    0 -0.00000000000E+00 -0.00000000000E+00 -0.45593999997E+02  0.45594000000E+02  0.51100000000E-03 0. -1.
    9900012    2    1    2    0    0 -0.51222472999E+00 -0.41480911605E+00 -0.97920740505E+00  0.90007623823E+02  0.89999883658E+02 0.  0.
        -12    1    1    2    0    0  0.51222472999E+00  0.41480911605E+00  0.97920740505E+00  0.11803761768E+01  0.00000000000E+00 0.  1.
         11    1    3    3    0    0 -0.28369944914E+02 -0.18901316191E+02 -0.19171508585E+02  0.39110871504E+02  0.51100000000E-03 0. -1.
        -11    1    3    3    0    0 -0.38555478574E+01 -0.57140009910E+01 -0.35782707477E+00  0.69023979227E+01  0.51100000000E-03 0.  1.
        -12    1    3    3    0    0  0.31713268041E+02  0.24200508066E+02  0.18550128254E+02  0.43994354396E+02  0.00000000000E+00 0.  1.
</event>
<event>
 7    1  0.1910099E-015  0.9000771E+02  0.7816164E-02  0.1186339E+00
        -11   -1    0    0    0    0  0.00000000000E+00  0.00000000000E+00  0.45593999997E+02  0.45594000000E+02  0.51100000000E-03 0. -1.
         11   -1    0    0    0    0 -0.00000000000E+00 -0.00000000000E+00 -0.45593999997E+02  0.45594000000E+02  0.51100000000E-03 0.  1.
    9900012    2    1    2    0    0 -0.38061576062E+00 -0.76624287594E+00  0.81306807584E+00  0.90007713510E+02  0.89999974528E+02 0.  0.
        -12    1    1    2    0    0  0.38061576062E+00  0.76624287594E+00 -0.81306807584E+00  0.11802864898E+01  0.00000000000E+00 0.  1.
         11    1    3    3    0    0  0.77881488619E+01  0.23083773886E+01 -0.28107558708E+01  0.85955929225E+01  0.51100000000E-03 0. -1.
        -11    1    3    3    0    0  0.35932364688E+02  0.47847700749E+01  0.50135131835E+01  0.36594592107E+02  0.51100000000E-03 0.  1.
         12    1    3    3    0    0 -0.44101129311E+02 -0.78593903394E+01 -0.13896892369E+01  0.44817528481E+02  0.00000000000E+00 0. -1.
</event>
<event>
 7    1  0.1910099E-015  0.9000782E+02  0.7816164E-02  0.1186339E+00
        -11   -1    0    0    0    0  0.00000000000E+00  0.00000000000E+00  0.45593999997E+02  0.45594000000E+02  0.51100000000E-03 0.  1.
         11   -1    0    0    0    0 -0.00000000000E+00 -0.00000000000E+00 -0.45593999997E+02  0.45594000000E+02  0.51100000000E-03 0. -1.
    9900012    2    1    2    0    0 -0.11243685831E+01  0.19377240995E+00  0.30177366288E+00  0.90007822132E+02  0.90000084584E+02 0.  0.
        -12    1    1    2    0    0  0.11243685831E+01 -0.19377240995E+00 -0.30177366288E+00  0.11801778685E+01  0.00000000000E+00 0.  1.
         11    1    3    3    0    0 -0.30492790539E+01  0.12982987683E+02 -0.36521403399E+02  0.38880187480E+02  0.51100000000E-03 0. -1.
        -11    1    3    3    0    0 -0.90744441941E+01 -0.33313622851E+01 -0.18332709194E+01  0.98389224324E+01  0.51100000000E-03 0.  1.
        -12    1    3    3    0    0  0.10999354665E+02 -0.94578529876E+01  0.38656447982E+02  0.41288712220E+02  0.00000000000E+00 0.  1.
</event>
<event>
 7    1  0.1910099E-015  0.9000762E+02  0.7816164E-02  0.1186339E+00
        -11   -1    0    0    0    0  0.00000000000E+00  0.00000000000E+00  0.45593999997E+02  0.45594000000E+02  0.51100000000E-03 0.  1.
         11   -1    0    0    0    0 -0.00000000000E+00 -0.00000000000E+00 -0.45593999997E+02  0.45594000000E+02  0.51100000000E-03 0. -1.
    9900012    2    1    2    0    0  0.99642992586E-01 -0.72533535184E-01 -0.11739259236E+01  0.90007622131E+02  0.89999881943E+02 0.  0.
        -12    1    1    2    0    0 -0.99642992586E-01  0.72533535184E-01  0.11739259236E+01  0.11803778691E+01  0.00000000000E+00 0.  1.
         11    1    3    3    0    0 -0.70797487931E+01 -0.16274463909E+00  0.54351890997E+01  0.89269597065E+01  0.51100000000E-03 0. -1.
        -11    1    3    3    0    0  0.95951150290E+01 -0.37150370382E+02  0.10858171893E+02  0.39876260470E+02  0.51100000000E-03 0.  1.
         12    1    3    3    0    0 -0.24157232433E+01  0.37240581486E+02 -0.17467286916E+02  0.41204401954E+02  0.00000000000E+00 0. -1.
</event>
<event>
 7    1  0.1910099E-015  0.9000773E+02  0.7816164E-02  0.1186339E+00
        -11   -1    0    0    0    0  0.00000000000E+00  0.00000000000E+00  0.45593999997E+02  0.45594000000E+02  0.51100000000E-03 0.  1.
         11   -1    0    0    0    0 -0.00000000000E+00 -0.00000000000E+00 -0.45593999997E+02  0.45594000000E+02  0.51100000000E-03 0. -1.
    9900012    2    1    2    0    0 -0.13037493676E+00  0.92047623981E+00 -0.72716435084E+00  0.90007727944E+02  0.89999989153E+02 0.  0.
        -12    1    1    2    0    0  0.13037493676E+00 -0.92047623981E+00  0.72716435084E+00  0.11802720556E+01  0.00000000000E+00 0.  1.
         11    1    3    3    0    0  0.11994184017E+02 -0.83557653892E+01  0.41431607216E+02  0.43934694061E+02  0.51100000000E-03 0. -1.
        -11    1    3    3    0    0 -0.73762880016E+00 -0.17537918877E+01 -0.10453283868E+02  0.10625018876E+02  0.51100000000E-03 0.  1.
        -12    1    3    3    0    0 -0.11386930154E+02  0.11030033517E+02 -0.31705487699E+02  0.35448015007E+02  0.00000000000E+00 0.  1.
</event>
<event>
 7    1  0.1910099E-015  0.9000771E+02  0.7816164E-02  0.1186339E+00
        -11   -1    0    0    0    0  0.00000000000E+00  0.00000000000E+00  0.45593999997E+02  0.45594000000E+02  0.51100000000E-03 0.  1.
         11   -1    0    0    0    0 -0.00000000000E+00 -0.00000000000E+00 -0.45593999997E+02  0.45594000000E+02  0.51100000000E-03 0. -1.
    9900012    2    1    2    0    0 -0.11662329909E+01 -0.41686738283E-01  0.17675102797E+00  0.90007712705E+02  0.89999973713E+02 0.  0.
        -12    1    1    2    0    0  0.11662329909E+01  0.41686738283E-01 -0.17675102797E+00  0.11802872951E+01  0.00000000000E+00 0.  1.
         11    1    3    3    0    0 -0.80720395350E+01  0.13621419810E+01  0.96626049059E+01  0.12664090447E+02  0.51100000000E-03 0. -1.
        -11    1    3    3    0    0 -0.67735501020E+01 -0.15417522094E+02  0.29356633723E+02  0.33843653944E+02  0.51100000000E-03 0.  1.
         12    1    3    3    0    0  0.13679356646E+02  0.14013693375E+02 -0.38842487601E+02  0.43499968313E+02  0.00000000000E+00 0. -1.
</event>
<event>
 7    1  0.1910099E-015  0.9000772E+02  0.7816164E-02  0.1186339E+00
        -11   -1    0    0    0    0  0.00000000000E+00  0.00000000000E+00  0.45593999997E+02  0.45594000000E+02  0.51100000000E-03 0. -1.
         11   -1    0    0    0    0 -0.00000000000E+00 -0.00000000000E+00 -0.45593999997E+02  0.45594000000E+02  0.51100000000E-03 0.  1.
    9900012    2    1    2    0    0 -0.55176961118E+00  0.82208674636E+00  0.64248554310E+00  0.90007718680E+02  0.89999979766E+02 0.  0.
        -12    1    1    2    0    0  0.55176961118E+00 -0.82208674636E+00 -0.64248554310E+00  0.11802813205E+01  0.00000000000E+00 0.  1.
         11    1    3    3    0    0  0.90737063732E+01 -0.57549341561E+01 -0.16648010017E+00  0.10746121643E+02  0.51100000000E-03 0. -1.
        -11    1    3    3    0    0 -0.33416533940E+01  0.42489073619E+02 -0.22219173007E+01  0.42678155316E+02  0.51100000000E-03 0.  1.
         12    1    3    3    0    0 -0.62838225904E+01 -0.35912052717E+02  0.30308829440E+01  0.36583441720E+02  0.00000000000E+00 0. -1.
</event>
<event>
 7    1  0.1910099E-015  0.9000772E+02  0.7816164E-02  0.1186339E+00
        -11   -1    0    0    0    0  0.00000000000E+00  0.00000000000E+00  0.45593999997E+02  0.45594000000E+02  0.51100000000E-03 0. -1.
         11   -1    0    0    0    0 -0.00000000000E+00 -0.00000000000E+00 -0.45593999997E+02  0.45594000000E+02  0.51100000000E-03 0.  1.
    9900012    2    1    2    0    0 -0.97871317414E+00  0.17902000009E+00  0.63492892041E+00  0.90007719367E+02  0.89999980463E+02 0.  0.
        -12    1    1    2    0    0  0.97871317414E+00 -0.17902000009E+00 -0.63492892041E+00  0.11802806326E+01  0.00000000000E+00 0.  1.
         11    1    3    3    0    0 -0.75054847447E+01 -0.57888008717E+01 -0.30191551490E+01  0.99477542621E+01  0.51100000000E-03 0. -1.
        -11    1    3    3    0    0  0.34973077944E+02 -0.12844271507E+02  0.19950389716E+02  0.42262389208E+02  0.51100000000E-03 0.  1.
         12    1    3    3    0    0 -0.28446306374E+02  0.18812092379E+02 -0.16296305647E+02  0.37797575898E+02  0.00000000000E+00 0. -1.
</event>
<event>
 7    1  0.1910099E-015  0.9000793E+02  0.7816164E-02  0.1186339E+00
        -11   -1    0    0    0    0  0.00000000000E+00  0.00000000000E+00  0.45593999997E+02  0.45594000000E+02  0.51100000000E-03 0. -1.
         11   -1    0    0    0    0 -0.00000000000E+00 -0.00000000000E+00 -0.45593999997E+02  0.45594000000E+02  0.51100000000E-03 0.  1.
    9900012    2    1    2    0    0 -0.93107411330E+00 -0.49147421333E+00 -0.53303689940E+00  0.90007926171E+02  0.90000189996E+02 0.  0.
        -12    1    1    2    0    0  0.93107411330E+00  0.49147421333E+00  0.53303689940E+00  0.11800738294E+01  0.00000000000E+00 0.  1.
         11    1    3    3    0    0 -0.89705487150E+01  0.34625696948E+02  0.20088990316E+02  0.41024104689E+02  0.51100000000E-03 0. -1.
        -11    1    3    3    0    0  0.74220515251E+01 -0.70354681450E+01  0.46181142424E+01  0.11221035615E+02  0.51100000000E-03 0.  1.
        -12    1    3    3    0    0  0.61742307660E+00 -0.28081703016E+02 -0.25240141458E+02  0.37762785866E+02  0.00000000000E+00 0.  1.
</event>
<event>
 7    1  0.1910099E-015  0.9000764E+02  0.7816164E-02  0.1186339E+00
        -11   -1    0    0    0    0  0.00000000000E+00  0.00000000000E+00  0.45593999997E+02  0.45594000000E+02  0.51100000000E-03 0.  1.
         11   -1    0    0    0    0 -0.00000000000E+00 -0.00000000000E+00 -0.45593999997E+02  0.45594000000E+02  0.51100000000E-03 0. -1.
    9900012    2    1    2    0    0 -0.77820226626E+00  0.48132097011E+00 -0.74564820753E+00  0.90007635695E+02  0.89999895686E+02 0.  0.
        -12    1    1    2    0    0  0.77820226626E+00 -0.48132097011E+00  0.74564820753E+00  0.11803643052E+01  0.00000000000E+00 0.  1.
         11    1    3    3    0    0 -0.71860762434E+01 -0.95747057792E+01  0.48897432172E+01  0.12931522398E+02  0.51100000000E-03 0. -1.
        -11    1    3    3    0    0 -0.21099159145E+02  0.28091465925E+02  0.15049422817E+02  0.38220283906E+02  0.51100000000E-03 0.  1.
         12    1    3    3    0    0  0.27507033122E+02 -0.18035439176E+02 -0.20684814242E+02  0.38855829391E+02  0.00000000000E+00 0. -1.
</event>
<event>
 7    1  0.1910099E-015  0.9000774E+02  0.7816164E-02  0.1186339E+00
        -11   -1    0    0    0    0  0.00000000000E+00  0.00000000000E+00  0.45593999997E+02  0.45594000000E+02  0.51100000000E-03 0.  1.
         11   -1    0    0    0    0 -0.00000000000E+00 -0.00000000000E+00 -0.45593999997E+02  0.45594000000E+02  0.51100000000E-03 0. -1.
    9900012    2    1    2    0    0 -0.56170658711E+00  0.12986385041E+00 -0.10298670923E+01  0.90007743614E+02  0.90000005029E+02 0.  0.
        -12    1    1    2    0    0  0.56170658711E+00 -0.12986385041E+00  0.10298670923E+01  0.11802563863E+01  0.00000000000E+00 0.  1.
         11    1    3    3    0    0 -0.78302757487E+00 -0.27287462999E+02 -0.32928452423E+02  0.42772675254E+02  0.51100000000E-03 0. -1.
        -11    1    3    3    0    0  0.83245016906E+00  0.56920678080E+01 -0.27171039905E+01  0.63620172564E+01  0.51100000000E-03 0.  1.
        -12    1    3    3    0    0 -0.61112918130E+00  0.21725259041E+02  0.34615689322E+02  0.40873051103E+02  0.00000000000E+00 0.  1.
</event>
<event>
 7    1  0.1910099E-015  0.9000776E+02  0.7816164E-02  0.1186339E+00
        -11   -1    0    0    0    0  0.00000000000E+00  0.00000000000E+00  0.45593999997E+02  0.45594000000E+02  0.51100000000E-03 0. -1.
         11   -1    0    0    0    0 -0.00000000000E+00 -0.00000000000E+00 -0.45593999997E+02  0.45594000000E+02  0.51100000000E-03 0.  1.
    9900012    2    1    2    0    0  0.11512182180E+01 -0.22673706563E+00  0.12752217148E+00  0.90007756387E+02  0.90000017971E+02 0.  0.
        -12    1    1    2    0    0 -0.11512182180E+01  0.22673706563E+00 -0.12752217148E+00  0.11802436133E+01  0.00000000000E+00 0.  1.
         11    1    3    3    0    0  0.29460091414E+02  0.12412039440E+02 -0.26547064204E+02  0.41553607873E+02  0.51100000000E-03 0. -1.
        -11    1    3    3    0    0 -0.41834215575E+01  0.76455894608E+01  0.37940257534E+01  0.95052977759E+01  0.51100000000E-03 0.  1.
        -12    1    3    3    0    0 -0.24125451638E+02 -0.20284365966E+02  0.22880560622E+02  0.38948850738E+02  0.00000000000E+00 0.  1.
</event>
<event>
 7    1  0.1910099E-015  0.9000779E+02  0.7816164E-02  0.1186339E+00
        -11   -1    0    0    0    0  0.00000000000E+00  0.00000000000E+00  0.45593999997E+02  0.45594000000E+02  0.51100000000E-03 0.  1.
         11   -1    0    0    0    0 -0.00000000000E+00 -0.00000000000E+00 -0.45593999997E+02  0.45594000000E+02  0.51100000000E-03 0. -1.
    9900012    2    1    2    0    0  0.21193144615E-01 -0.58895425363E+00 -0.10225385148E+01  0.90007787614E+02  0.90000049610E+02 0.  0.
        -12    1    1    2    0    0 -0.21193144615E-01  0.58895425363E+00  0.10225385148E+01  0.11802123862E+01  0.00000000000E+00 0.  1.
         11    1    3    3    0    0 -0.94725679818E+00 -0.45972975049E+01 -0.67079294387E+01  0.81871092216E+01  0.51100000000E-03 0. -1.
        -11    1    3    3    0    0 -0.42741070484E+01 -0.30869331148E+02 -0.21012414639E+02  0.37585970332E+02  0.51100000000E-03 0.  1.
         12    1    3    3    0    0  0.52425569912E+01  0.34877674399E+02  0.26697805563E+02  0.44234708060E+02  0.00000000000E+00 0. -1.
</event>
<event>
 7    1  0.2234206E-015  0.9000789E+02  0.7816164E-02  0.1186339E+00
        -11   -1    0    0    0    0  0.00000000000E+00  0.00000000000E+00  0.45593999997E+02  0.45594000000E+02  0.51100000000E-03 0. -1.
         11   -1    0    0    0    0 -0.00000000000E+00 -0.00000000000E+00 -0.45593999997E+02  0.45594000000E+02  0.51100000000E-03 0.  1.
    9900012    2    1    2    0    0 -0.24606721037E+00 -0.19984225117E+00  0.11367385360E+01  0.90007889625E+02  0.90000152968E+02 0.  0.
        -12    1    1    2    0    0  0.24606721037E+00  0.19984225117E+00 -0.11367385360E+01  0.11801103748E+01  0.00000000000E+00 0.  1.
         11    1    3    3    0    0 -0.77370756404E+01  0.19574207999E-01  0.60954906486E+01  0.98497578205E+01  0.51100000000E-03 0. -1.
        -11    1    3    3    0    0 -0.26041571630E+02  0.13440269803E+02 -0.25222956537E+02  0.38665253679E+02  0.51100000000E-03 0.  1.
         12    1    3    3    0    0  0.33532580060E+02 -0.13659686262E+02  0.20264204424E+02  0.41492878126E+02  0.00000000000E+00 0. -1.
</event>
<event>
 7    1  0.1910099E-015  0.9000777E+02  0.7816164E-02  0.1186339E+00
        -11   -1    0    0    0    0  0.00000000000E+00  0.00000000000E+00  0.45593999997E+02  0.45594000000E+02  0.51100000000E-03 0. -1.
         11   -1    0    0    0    0 -0.00000000000E+00 -0.00000000000E+00 -0.45593999997E+02  0.45594000000E+02  0.51100000000E-03 0.  1.
    9900012    2    1    2    0    0  0.24639630860E+00  0.23609774768E+00  0.11298144145E+01  0.90007773793E+02  0.90000035608E+02 0.  0.
        -12    1    1    2    0    0 -0.24639630860E+00 -0.23609774768E+00 -0.11298144145E+01  0.11802262065E+01  0.00000000000E+00 0.  1.
         11    1    3    3    0    0 -0.22653481500E+02 -0.21137296248E+02  0.27991691980E+02  0.41755243226E+02  0.51100000000E-03 0. -1.
        -11    1    3    3    0    0  0.52355829954E+01 -0.56775338292E+01 -0.61895096949E+01  0.98972597323E+01  0.51100000000E-03 0.  1.
        -12    1    3    3    0    0  0.17664294813E+02  0.27050927825E+02 -0.20672367870E+02  0.38355270835E+02  0.00000000000E+00 0.  1.
</event>
<event>
 7    1  0.1910099E-015  0.9000774E+02  0.7816164E-02  0.1186339E+00
        -11   -1    0    0    0    0  0.00000000000E+00  0.00000000000E+00  0.45593999997E+02  0.45594000000E+02  0.51100000000E-03 0.  1.
         11   -1    0    0    0    0 -0.00000000000E+00 -0.00000000000E+00 -0.45593999997E+02  0.45594000000E+02  0.51100000000E-03 0. -1.
    9900012    2    1    2    0    0  0.85594125204E+00 -0.45381877355E+00  0.67411266725E+00  0.90007739523E+02  0.90000000884E+02 0.  0.
        -12    1    1    2    0    0 -0.85594125204E+00  0.45381877355E+00 -0.67411266725E+00  0.11802604773E+01  0.00000000000E+00 0.  1.
         11    1    3    3    0    0 -0.62576479766E+01  0.75477504961E+01 -0.13779686643E+01  0.99007824768E+01  0.51100000000E-03 0. -1.
        -11    1    3    3    0    0  0.53220520902E+00  0.34601825144E+02  0.10529923405E+02  0.36172487237E+02  0.51100000000E-03 0.  1.
         12    1    3    3    0    0  0.65813840196E+01 -0.42603394414E+02 -0.84778420733E+01  0.43934469809E+02  0.00000000000E+00 0. -1.
</event>
<event>
 7    1  0.1910099E-015  0.9000775E+02  0.7816164E-02  0.1186339E+00
        -11   -1    0    0    0    0  0.00000000000E+00  0.00000000000E+00  0.45593999997E+02  0.45594000000E+02  0.51100000000E-03 0. -1.
         11   -1    0    0    0    0 -0.00000000000E+00 -0.00000000000E+00 -0.45593999997E+02  0.45594000000E+02  0.51100000000E-03 0.  1.
    9900012    2    1    2    0    0  0.20455411148E+00 -0.15582933984E-01  0.11622859781E+01  0.90007748371E+02  0.90000009850E+02 0.  0.
        -12    1    1    2    0    0 -0.20455411148E+00  0.15582933984E-01 -0.11622859781E+01  0.11802516288E+01  0.00000000000E+00 0.  1.
         11    1    3    3    0    0  0.36328904878E+01 -0.16646771587E+02  0.13034048882E+02  0.21452256946E+02  0.51100000000E-03 0. -1.
        -11    1    3    3    0    0 -0.32406418106E+02  0.10815506843E+02  0.49929704543E+01  0.34526524252E+02  0.51100000000E-03 0.  1.
         12    1    3    3    0    0  0.28978081729E+02  0.58156818095E+01 -0.16864733358E+02  0.34028967173E+02  0.00000000000E+00 0. -1.
</event>
<event>
 7    1  0.1910099E-015  0.9000772E+02  0.7816164E-02  0.1186339E+00
        -11   -1    0    0    0    0  0.00000000000E+00  0.00000000000E+00  0.45593999997E+02  0.45594000000E+02  0.51100000000E-03 0. -1.
         11   -1    0    0    0    0 -0.00000000000E+00 -0.00000000000E+00 -0.45593999997E+02  0.45594000000E+02  0.51100000000E-03 0.  1.
    9900012    2    1    2    0    0 -0.53060837644E+00  0.93747143543E+00 -0.48234140450E+00  0.90007724112E+02  0.89999985270E+02 0.  0.
        -12    1    1    2    0    0  0.53060837644E+00 -0.93747143543E+00  0.48234140450E+00  0.11802758880E+01  0.00000000000E+00 0.  1.
         11    1    3    3    0    0  0.42270445873E+01  0.80038027374E+01  0.45407342388E+01  0.10126550839E+02  0.51100000000E-03 0. -1.
        -11    1    3    3    0    0 -0.37015825875E+02  0.64753878446E+01  0.13948353327E+02  0.40083145757E+02  0.51100000000E-03 0.  1.
         12    1    3    3    0    0  0.32258172912E+02 -0.13541719147E+02 -0.18971428970E+02  0.39798027516E+02  0.00000000000E+00 0. -1.
</event>
<event>
 7    1  0.1910099E-015  0.9000665E+02  0.7816164E-02  0.1186341E+00
        -11   -1    0    0    0    0  0.00000000000E+00  0.00000000000E+00  0.45593999997E+02  0.45594000000E+02  0.51100000000E-03 0.  1.
         11   -1    0    0    0    0 -0.00000000000E+00 -0.00000000000E+00 -0.45593999997E+02  0.45594000000E+02  0.51100000000E-03 0. -1.
    9900012    2    1    2    0    0 -0.81181212611E+00  0.85640669194E+00 -0.55875359495E-01  0.90006647637E+02  0.89998894579E+02 0.  0.
        -12    1    1    2    0    0  0.81181212611E+00 -0.85640669194E+00  0.55875359495E-01  0.11813523631E+01  0.00000000000E+00 0.  1.
         11    1    3    3    0    0 -0.27237124510E+02  0.10408620317E+02  0.24356158913E+02  0.37992404579E+02  0.51100000000E-03 0. -1.
        -11    1    3    3    0    0 -0.71644157273E+01 -0.76595577874E+01 -0.69487005863E-01  0.10488207994E+02  0.51100000000E-03 0.  1.
        -12    1    3    3    0    0  0.33589728111E+02 -0.18926558373E+01 -0.24342547267E+02  0.41526035064E+02  0.00000000000E+00 0.  1.
</event>
<event>
 7    1  0.1910099E-015  0.9000788E+02  0.7816164E-02  0.1186339E+00
        -11   -1    0    0    0    0  0.00000000000E+00  0.00000000000E+00  0.45593999997E+02  0.45594000000E+02  0.51100000000E-03 0. -1.
         11   -1    0    0    0    0 -0.00000000000E+00 -0.00000000000E+00 -0.45593999997E+02  0.45594000000E+02  0.51100000000E-03 0.  1.
    9900012    2    1    2    0    0 -0.52007127084E+00  0.87141828494E+00  0.60235986579E+00  0.90007880785E+02  0.90000144011E+02 0.  0.
        -12    1    1    2    0    0  0.52007127084E+00 -0.87141828494E+00 -0.60235986579E+00  0.11801192152E+01  0.00000000000E+00 0.  1.
         11    1    3    3    0    0 -0.19701554263E+01  0.44575688948E+01 -0.10955363996E+02  0.11990472610E+02  0.51100000000E-03 0. -1.
        -11    1    3    3    0    0  0.14906250442E+02  0.30511574868E+02 -0.10115587308E+02  0.35432719484E+02  0.51100000000E-03 0.  1.
         12    1    3    3    0    0 -0.13456166286E+02 -0.34097725478E+02  0.21673311170E+02  0.42584688691E+02  0.00000000000E+00 0. -1.
</event>
<event>
 7    1  0.1910099E-015  0.9000767E+02  0.7816164E-02  0.1186339E+00
        -11   -1    0    0    0    0  0.00000000000E+00  0.00000000000E+00  0.45593999997E+02  0.45594000000E+02  0.51100000000E-03 0.  1.
         11   -1    0    0    0    0 -0.00000000000E+00 -0.00000000000E+00 -0.45593999997E+02  0.45594000000E+02  0.51100000000E-03 0. -1.
    9900012    2    1    2    0    0 -0.61565375379E+00  0.77796450059E+00  0.63946452927E+00  0.90007672421E+02  0.89999932897E+02 0.  0.
        -12    1    1    2    0    0  0.61565375379E+00 -0.77796450059E+00 -0.63946452927E+00  0.11803275787E+01  0.00000000000E+00 0.  1.
         11    1    3    3    0    0 -0.81596068663E+01  0.25733290018E+01  0.13650487295E+01  0.86639808783E+01  0.51100000000E-03 0. -1.
        -11    1    3    3    0    0 -0.34416485899E+02  0.34694346686E+01 -0.13553567307E+02  0.37151455766E+02  0.51100000000E-03 0.  1.
         12    1    3    3    0    0  0.41960439012E+02 -0.52647991698E+01  0.12827983106E+02  0.44192235777E+02  0.00000000000E+00 0. -1.
</event>
<event>
 7    1  0.1910099E-015  0.9000753E+02  0.7816164E-02  0.1186339E+00
        -11   -1    0    0    0    0  0.00000000000E+00  0.00000000000E+00  0.45593999997E+02  0.45594000000E+02  0.51100000000E-03 0. -1.
         11   -1    0    0    0    0 -0.00000000000E+00 -0.00000000000E+00 -0.45593999997E+02  0.45594000000E+02  0.51100000000E-03 0.  1.
    9900012    2    1    2    0    0  0.10183562597E+00  0.11476006230E+01 -0.25721023630E+00  0.90007527726E+02  0.89999786291E+02 0.  0.
        -12    1    1    2    0    0 -0.10183562597E+00 -0.11476006230E+01  0.25721023630E+00  0.11804722743E+01  0.00000000000E+00 0.  1.
         11    1    3    3    0    0 -0.43343436214E+01  0.81932071454E+01 -0.36977971408E+01  0.99794229248E+01  0.51100000000E-03 0. -1.
        -11    1    3    3    0    0  0.11175609600E+02  0.33970172803E+02  0.11745613618E+02  0.37640753576E+02  0.51100000000E-03 0.  1.
         12    1    3    3    0    0 -0.67394303529E+01 -0.41015779326E+02 -0.83050267130E+01  0.42387351225E+02  0.00000000000E+00 0. -1.
</event>
<event>
 7    1  0.1910099E-015  0.9000770E+02  0.7816164E-02  0.1186339E+00
        -11   -1    0    0    0    0  0.00000000000E+00  0.00000000000E+00  0.45593999997E+02  0.45594000000E+02  0.51100000000E-03 0.  1.
         11   -1    0    0    0    0 -0.00000000000E+00 -0.00000000000E+00 -0.45593999997E+02  0.45594000000E+02  0.51100000000E-03 0. -1.
    9900012    2    1    2    0    0  0.11376517297E+01 -0.22645950238E+00 -0.21809686846E+00  0.90007702746E+02  0.89999963622E+02 0.  0.
        -12    1    1    2    0    0 -0.11376517297E+01  0.22645950238E+00  0.21809686846E+00  0.11802972543E+01  0.00000000000E+00 0.  1.
         11    1    3    3    0    0  0.20740104996E+02 -0.28501200855E+02  0.85704016645E+01  0.36275641832E+02  0.51100000000E-03 0. -1.
        -11    1    3    3    0    0  0.50033183115E+01 -0.78324385964E+01 -0.21090534854E+01  0.95303932426E+01  0.51100000000E-03 0.  1.
        -12    1    3    3    0    0 -0.24605771577E+02  0.36107179949E+02 -0.66794450476E+01  0.44201667671E+02  0.00000000000E+00 0.  1.
</event>
<event>
 7    1  0.1910099E-015  0.9000773E+02  0.7816164E-02  0.1186339E+00
        -11   -1    0    0    0    0  0.00000000000E+00  0.00000000000E+00  0.45593999997E+02  0.45594000000E+02  0.51100000000E-03 0.  1.
         11   -1    0    0    0    0 -0.00000000000E+00 -0.00000000000E+00 -0.45593999997E+02  0.45594000000E+02  0.51100000000E-03 0. -1.
    9900012    2    1    2    0    0  0.74743525815E+00  0.71966461566E-01 -0.91059991921E+00  0.90007732721E+02  0.89999993993E+02 0.  0.
        -12    1    1    2    0    0 -0.74743525815E+00 -0.71966461566E-01  0.91059991921E+00  0.11802672789E+01  0.00000000000E+00 0.  1.
         11    1    3    3    0    0  0.46493550721E+01  0.10046491907E+02  0.43386045073E+01  0.11889995439E+02  0.51100000000E-03 0. -1.
        -11    1    3    3    0    0  0.36818555338E+01 -0.30376672488E+02  0.25919462681E+02  0.40101332116E+02  0.51100000000E-03 0.  1.
         12    1    3    3    0    0 -0.75837753478E+01  0.20402147042E+02 -0.31168667107E+02  0.38016405165E+02  0.00000000000E+00 0. -1.
</event>
<event>
 7    1  0.1910099E-015  0.9000786E+02  0.7816164E-02  0.1186339E+00
        -11   -1    0    0    0    0  0.00000000000E+00  0.00000000000E+00  0.45593999997E+02  0.45594000000E+02  0.51100000000E-03 0. -1.
         11   -1    0    0    0    0 -0.00000000000E+00 -0.00000000000E+00 -0.45593999997E+02  0.45594000000E+02  0.51100000000E-03 0.  1.
    9900012    2    1    2    0    0  0.72409797155E+00  0.58214853654E+00 -0.72767758608E+00  0.90007860406E+02  0.90000123364E+02 0.  0.
        -12    1    1    2    0    0 -0.72409797155E+00 -0.58214853654E+00  0.72767758608E+00  0.11801395936E+01  0.00000000000E+00 0.  1.
         11    1    3    3    0    0 -0.28165736157E+01 -0.61118282884E+01 -0.80820290032E+01  0.10516973188E+02  0.51100000000E-03 0. -1.
        -11    1    3    3    0    0 -0.23116999554E+02  0.32975880584E+02 -0.37445082150E+01  0.40445342262E+02  0.51100000000E-03 0.  1.
         12    1    3    3    0    0  0.26657671141E+02 -0.26281903759E+02  0.11098859632E+02  0.39045544957E+02  0.00000000000E+00 0. -1.
</event>
<event>
 7    1  0.1910099E-015  0.9000774E+02  0.7816164E-02  0.1186339E+00
        -11   -1    0    0    0    0  0.00000000000E+00  0.00000000000E+00  0.45593999997E+02  0.45594000000E+02  0.51100000000E-03 0. -1.
         11   -1    0    0    0    0 -0.00000000000E+00 -0.00000000000E+00 -0.45593999997E+02  0.45594000000E+02  0.51100000000E-03 0.  1.
    9900012    2    1    2    0    0  0.98632907573E-01  0.25533451228E+00  0.11480781193E+01  0.90007742599E+02  0.90000004002E+02 0.  0.
        -12    1    1    2    0    0 -0.98632907573E-01 -0.25533451228E+00 -0.11480781193E+01  0.11802574006E+01  0.00000000000E+00 0.  1.
         11    1    3    3    0    0  0.62277769420E+01 -0.67943293637E+01  0.29445818115E+01  0.96756746249E+01  0.51100000000E-03 0. -1.
        -11    1    3    3    0    0  0.35934383191E+02 -0.22966649456E+01  0.61125877552E+01  0.36522846199E+02  0.51100000000E-03 0.  1.
         12    1    3    3    0    0 -0.42063527225E+02  0.93463288216E+01 -0.79090914474E+01  0.43809221775E+02  0.00000000000E+00 0. -1.
</event>
<event>
 7    1  0.1910099E-015  0.9000779E+02  0.7816164E-02  0.1186339E+00
        -11   -1    0    0    0    0  0.00000000000E+00  0.00000000000E+00  0.45593999997E+02  0.45594000000E+02  0.51100000000E-03 0.  1.
         11   -1    0    0    0    0 -0.00000000000E+00 -0.00000000000E+00 -0.45593999997E+02  0.45594000000E+02  0.51100000000E-03 0. -1.
    9900012    2    1    2    0    0 -0.70887055996E+00 -0.36821510091E+00 -0.86879840228E+00  0.90007792181E+02  0.90000054238E+02 0.  0.
        -12    1    1    2    0    0  0.70887055996E+00  0.36821510091E+00  0.86879840228E+00  0.11802078186E+01  0.00000000000E+00 0.  1.
         11    1    3    3    0    0 -0.23990844685E+02 -0.24885672203E+02 -0.22077328411E+01  0.34637138945E+02  0.51100000000E-03 0. -1.
        -11    1    3    3    0    0 -0.35141704615E+01 -0.10607989839E+02  0.28797516748E+00  0.11178630168E+02  0.51100000000E-03 0.  1.
        -12    1    3    3    0    0  0.26796144587E+02  0.35125446941E+02  0.10509592713E+01  0.44192023069E+02  0.00000000000E+00 0.  1.
</event>
<event>
 7    1  0.1986288E-015  0.9000784E+02  0.7816164E-02  0.1186339E+00
        -11   -1    0    0    0    0  0.00000000000E+00  0.00000000000E+00  0.45593999997E+02  0.45594000000E+02  0.51100000000E-03 0.  1.
         11   -1    0    0    0    0 -0.00000000000E+00 -0.00000000000E+00 -0.45593999997E+02  0.45594000000E+02  0.51100000000E-03 0. -1.
    9900012    2    1    2    0    0  0.72841604741E+00  0.12702224802E-01 -0.92845925147E+00  0.90007835661E+02  0.90000098292E+02 0.  0.
        -12    1    1    2    0    0 -0.72841604741E+00 -0.12702224802E-01  0.92845925147E+00  0.11801643387E+01  0.00000000000E+00 0.  1.
         11    1    3    3    0    0  0.65064599290E+01  0.78005431969E+01  0.17447603465E+01  0.10306633005E+02  0.51100000000E-03 0. -1.
        -11    1    3    3    0    0  0.22439609469E+02 -0.11480530866E+02  0.28125533818E+02  0.37767503424E+02  0.51100000000E-03 0.  1.
         12    1    3    3    0    0 -0.28217653351E+02  0.36926898941E+01 -0.30798753416E+02  0.41933699232E+02  0.00000000000E+00 0. -1.
</event>
<event>
 7    1  0.1910099E-015  0.9000733E+02  0.7816164E-02  0.1186340E+00
        -11   -1    0    0    0    0  0.00000000000E+00  0.00000000000E+00  0.45593999997E+02  0.45594000000E+02  0.51100000000E-03 0.  1.
         11   -1    0    0    0    0 -0.00000000000E+00 -0.00000000000E+00 -0.45593999997E+02  0.45594000000E+02  0.51100000000E-03 0. -1.
    9900012    2    1    2    0    0  0.51966160224E+00 -0.10499173445E+01 -0.14697739954E+00  0.90007331983E+02  0.89999587964E+02 0.  0.
        -12    1    1    2    0    0 -0.51966160224E+00  0.10499173445E+01  0.14697739954E+00  0.11806680173E+01  0.00000000000E+00 0.  1.
         11    1    3    3    0    0  0.74082856062E+01 -0.24992444132E+01  0.41532874206E+01  0.88531754144E+01  0.51100000000E-03 0. -1.
        -11    1    3    3    0    0 -0.23452880195E+02  0.83050924735E+01  0.32079715456E+02  0.40597047853E+02  0.51100000000E-03 0.  1.
         12    1    3    3    0    0  0.16564256191E+02 -0.68557654048E+01 -0.36379980276E+02  0.40557108715E+02  0.00000000000E+00 0. -1.
</event>
<event>
 7    1  0.1910099E-015  0.9000782E+02  0.7816164E-02  0.1186339E+00
        -11   -1    0    0    0    0  0.00000000000E+00  0.00000000000E+00  0.45593999997E+02  0.45594000000E+02  0.51100000000E-03 0. -1.
         11   -1    0    0    0    0 -0.00000000000E+00 -0.00000000000E+00 -0.45593999997E+02  0.45594000000E+02  0.51100000000E-03 0.  1.
    9900012    2    1    2    0    0 -0.41238555980E+00 -0.74406889637E+00 -0.81800182313E+00  0.90007818931E+02  0.90000081341E+02 0.  0.
        -12    1    1    2    0    0  0.41238555980E+00  0.74406889637E+00  0.81800182313E+00  0.11801810688E+01  0.00000000000E+00 0.  1.
         11    1    3    3    0    0 -0.12279761290E+02 -0.21334893600E+01  0.34635673923E+02  0.36809974498E+02  0.51100000000E-03 0. -1.
        -11    1    3    3    0    0 -0.30893253902E+01  0.82449838087E+01  0.45730515678E+01  0.99215165310E+01  0.51100000000E-03 0.  1.
        -12    1    3    3    0    0  0.14956701121E+02 -0.68555633451E+01 -0.40026727314E+02  0.43276327902E+02  0.00000000000E+00 0.  1.
</event>
<event>
 7    1  0.1910099E-015  0.9000758E+02  0.7816164E-02  0.1186339E+00
        -11   -1    0    0    0    0  0.00000000000E+00  0.00000000000E+00  0.45593999997E+02  0.45594000000E+02  0.51100000000E-03 0. -1.
         11   -1    0    0    0    0 -0.00000000000E+00 -0.00000000000E+00 -0.45593999997E+02  0.45594000000E+02  0.51100000000E-03 0.  1.
    9900012    2    1    2    0    0  0.28016133257E+00 -0.98518957546E+00 -0.58677890495E+00  0.90007577044E+02  0.89999836261E+02 0.  0.
        -12    1    1    2    0    0 -0.28016133257E+00  0.98518957546E+00  0.58677890495E+00  0.11804229560E+01  0.00000000000E+00 0.  1.
         11    1    3    3    0    0  0.20633747715E+02 -0.35697674904E+01 -0.14784783033E+02  0.25633661352E+02  0.51100000000E-03 0. -1.
        -11    1    3    3    0    0  0.20881528236E+02 -0.28609008752E+01  0.29121336842E+01  0.21276830077E+02  0.51100000000E-03 0.  1.
        -12    1    3    3    0    0 -0.41235114618E+02  0.54454787901E+01  0.11285870444E+02  0.43097085615E+02  0.00000000000E+00 0.  1.
</event>
<event>
 7    1  0.1910099E-015  0.9000781E+02  0.7816164E-02  0.1186339E+00
        -11   -1    0    0    0    0  0.00000000000E+00  0.00000000000E+00  0.45593999997E+02  0.45594000000E+02  0.51100000000E-03 0. -1.
         11   -1    0    0    0    0 -0.00000000000E+00 -0.00000000000E+00 -0.45593999997E+02  0.45594000000E+02  0.51100000000E-03 0.  1.
    9900012    2    1    2    0    0  0.34733621023E+00  0.85534737488E+00 -0.73524566518E+00  0.90007810285E+02  0.90000072581E+02 0.  0.
        -12    1    1    2    0    0 -0.34733621023E+00 -0.85534737488E+00  0.73524566518E+00  0.11801897148E+01  0.00000000000E+00 0.  1.
         11    1    3    3    0    0 -0.15284591237E+02 -0.28883352565E+01  0.11465651329E+02  0.19324139580E+02  0.51100000000E-03 0. -1.
        -11    1    3    3    0    0 -0.22131756869E+02  0.18384767385E+02 -0.85583100261E+01  0.30017644889E+02  0.51100000000E-03 0.  1.
         12    1    3    3    0    0  0.37763684316E+02 -0.14641084754E+02 -0.36425869681E+01  0.40666025817E+02  0.00000000000E+00 0. -1.
</event>
<event>
 7    1  0.1910099E-015  0.9000768E+02  0.7816164E-02  0.1186339E+00
        -11   -1    0    0    0    0  0.00000000000E+00  0.00000000000E+00  0.45593999997E+02  0.45594000000E+02  0.51100000000E-03 0.  1.
         11   -1    0    0    0    0 -0.00000000000E+00 -0.00000000000E+00 -0.45593999997E+02  0.45594000000E+02  0.51100000000E-03 0. -1.
    9900012    2    1    2    0    0  0.44551250258E+00 -0.71730586825E+00 -0.82470398156E+00  0.90007684044E+02  0.89999944673E+02 0.  0.
        -12    1    1    2    0    0 -0.44551250258E+00  0.71730586825E+00  0.82470398156E+00  0.11803159559E+01  0.00000000000E+00 0.  1.
         11    1    3    3    0    0 -0.25294319244E+01 -0.45391542270E+01  0.67113420766E+01  0.84878772192E+01  0.51100000000E-03 0. -1.
        -11    1    3    3    0    0 -0.15232958149E+02 -0.92983564295E+01  0.31665672492E+02  0.36348552390E+02  0.51100000000E-03 0.  1.
         12    1    3    3    0    0  0.18207902576E+02  0.13120204788E+02 -0.39201718550E+02  0.45171254434E+02  0.00000000000E+00 0. -1.
</event>
<event>
 7    1  0.1910099E-015  0.9000778E+02  0.7816164E-02  0.1186339E+00
        -11   -1    0    0    0    0  0.00000000000E+00  0.00000000000E+00  0.45593999997E+02  0.45594000000E+02  0.51100000000E-03 0. -1.
         11   -1    0    0    0    0 -0.00000000000E+00 -0.00000000000E+00 -0.45593999997E+02  0.45594000000E+02  0.51100000000E-03 0.  1.
    9900012    2    1    2    0    0  0.98603869102E+00 -0.31624201186E+00 -0.56625546013E+00  0.90007776904E+02  0.90000038759E+02 0.  0.
        -12    1    1    2    0    0 -0.98603869102E+00  0.31624201186E+00  0.56625546013E+00  0.11802230960E+01  0.00000000000E+00 0.  1.
         11    1    3    3    0    0  0.25070936103E+02  0.42624639333E+01  0.22606812091E+02  0.34026289675E+02  0.51100000000E-03 0. -1.
        -11    1    3    3    0    0  0.36288650229E+01  0.13306254522E+02  0.27084500271E+01  0.14055631348E+02  0.51100000000E-03 0.  1.
        -12    1    3    3    0    0 -0.27713762435E+02 -0.17884960468E+02 -0.25881517578E+02  0.41925855881E+02  0.00000000000E+00 0.  1.
</event>
<event>
 7    1  0.1910099E-015  0.9000773E+02  0.7816164E-02  0.1186339E+00
        -11   -1    0    0    0    0  0.00000000000E+00  0.00000000000E+00  0.45593999997E+02  0.45594000000E+02  0.51100000000E-03 0. -1.
         11   -1    0    0    0    0 -0.00000000000E+00 -0.00000000000E+00 -0.45593999997E+02  0.45594000000E+02  0.51100000000E-03 0.  1.
    9900012    2    1    2    0    0 -0.10997664062E+01 -0.41959414134E+00 -0.86512180226E-01  0.90007733187E+02  0.89999994465E+02 0.  0.
        -12    1    1    2    0    0  0.10997664062E+01  0.41959414134E+00  0.86512180226E-01  0.11802668126E+01  0.00000000000E+00 0.  1.
         11    1    3    3    0    0 -0.66137379292E+01  0.13953984239E+02 -0.54516163661E+01  0.16376059562E+02  0.51100000000E-03 0. -1.
        -11    1    3    3    0    0 -0.23499781374E+02 -0.29844683460E+02 -0.67666592814E+01  0.38584096899E+02  0.51100000000E-03 0.  1.
         12    1    3    3    0    0  0.29013752897E+02  0.15471105080E+02  0.12131763467E+02  0.35047576726E+02  0.00000000000E+00 0. -1.
</event>
<event>
 7    1  0.1910099E-015  0.9000775E+02  0.7816164E-02  0.1186339E+00
        -11   -1    0    0    0    0  0.00000000000E+00  0.00000000000E+00  0.45593999997E+02  0.45594000000E+02  0.51100000000E-03 0.  1.
         11   -1    0    0    0    0 -0.00000000000E+00 -0.00000000000E+00 -0.45593999997E+02  0.45594000000E+02  0.51100000000E-03 0. -1.
    9900012    2    1    2    0    0 -0.11599437085E+01 -0.19357413285E+00 -0.10030358211E+00  0.90007745299E+02  0.90000006736E+02 0.  0.
        -12    1    1    2    0    0  0.11599437085E+01  0.19357413285E+00  0.10030358211E+00  0.11802547015E+01  0.00000000000E+00 0.  1.
         11    1    3    3    0    0 -0.50876800686E+01 -0.55011503430E+01  0.10004925568E+02  0.12499827177E+02  0.51100000000E-03 0. -1.
        -11    1    3    3    0    0  0.72949933610E+01 -0.31149982523E+02 -0.22209601569E+02  0.38946177495E+02  0.51100000000E-03 0.  1.
         12    1    3    3    0    0 -0.33672570009E+01  0.36457558734E+02  0.12104372419E+02  0.38561740627E+02  0.00000000000E+00 0. -1.
</event>
<event>
 7    1  0.1910099E-015  0.9000770E+02  0.7816164E-02  0.1186339E+00
        -11   -1    0    0    0    0  0.00000000000E+00  0.00000000000E+00  0.45593999997E+02  0.45594000000E+02  0.51100000000E-03 0.  1.
         11   -1    0    0    0    0 -0.00000000000E+00 -0.00000000000E+00 -0.45593999997E+02  0.45594000000E+02  0.51100000000E-03 0. -1.
    9900012    2    1    2    0    0  0.85232331285E+00  0.21088709496E+00  0.78878894237E+00  0.90007696483E+02  0.89999957277E+02 0.  0.
        -12    1    1    2    0    0 -0.85232331285E+00 -0.21088709496E+00 -0.78878894237E+00  0.11803035169E+01  0.00000000000E+00 0.  1.
         11    1    3    3    0    0 -0.21707836807E+02 -0.28914771754E+02 -0.44576177402E+01  0.36430269840E+02  0.51100000000E-03 0. -1.
        -11    1    3    3    0    0 -0.96234590674E+01  0.12524653855E+01 -0.31070457471E+01  0.10189865922E+02  0.51100000000E-03 0.  1.
        -12    1    3    3    0    0  0.32183619187E+02  0.27873193464E+02  0.83534524296E+01  0.43387560721E+02  0.00000000000E+00 0.  1.
</event>
<event>
 7    1  0.1910099E-015  0.9000777E+02  0.7816164E-02  0.1186339E+00
        -11   -1    0    0    0    0  0.00000000000E+00  0.00000000000E+00  0.45593999997E+02  0.45594000000E+02  0.51100000000E-03 0. -1.
         11   -1    0    0    0    0 -0.00000000000E+00 -0.00000000000E+00 -0.45593999997E+02  0.45594000000E+02  0.51100000000E-03 0.  1.
    9900012    2    1    2    0    0  0.10783598799E+01  0.40309412482E+00  0.26001643774E+00  0.90007765510E+02  0.90000027215E+02 0.  0.
        -12    1    1    2    0    0 -0.10783598799E+01 -0.40309412482E+00 -0.26001643774E+00  0.11802344902E+01  0.00000000000E+00 0.  1.
         11    1    3    3    0    0 -0.33017261298E+02  0.10221493973E+02  0.13588127788E+01  0.34589953094E+02  0.51100000000E-03 0. -1.
        -11    1    3    3    0    0 -0.63846646288E+01  0.59063893719E+01 -0.75457471840E+01  0.11514672321E+02  0.51100000000E-03 0.  1.
        -12    1    3    3    0    0  0.40480285806E+02 -0.15724789220E+02  0.64469508429E+01  0.43903140094E+02  0.00000000000E+00 0.  1.
</event>
<event>
 7    1  0.1910099E-015  0.9000773E+02  0.7816164E-02  0.1186339E+00
        -11   -1    0    0    0    0  0.00000000000E+00  0.00000000000E+00  0.45593999997E+02  0.45594000000E+02  0.51100000000E-03 0. -1.
         11   -1    0    0    0    0 -0.00000000000E+00 -0.00000000000E+00 -0.45593999997E+02  0.45594000000E+02  0.51100000000E-03 0.  1.
    9900012    2    1    2    0    0  0.27170704108E+00 -0.66763428860E+00 -0.93460363357E+00  0.90007727061E+02  0.89999988258E+02 0.  0.
        -12    1    1    2    0    0 -0.27170704108E+00  0.66763428860E+00  0.93460363357E+00  0.11802729394E+01  0.00000000000E+00 0.  1.
         11    1    3    3    0    0  0.64288376163E+01 -0.40035881077E+02 -0.52551722204E-01  0.40548791457E+02  0.51100000000E-03 0. -1.
        -11    1    3    3    0    0  0.19291320955E+01  0.59815107562E+00  0.85180839054E+01  0.87542611928E+01  0.51100000000E-03 0.  1.
        -12    1    3    3    0    0 -0.80862626707E+01  0.38770095712E+02 -0.94001358168E+01  0.40704674411E+02  0.00000000000E+00 0.  1.
</event>
<event>
 7    1  0.1910099E-015  0.9000771E+02  0.7816164E-02  0.1186339E+00
        -11   -1    0    0    0    0  0.00000000000E+00  0.00000000000E+00  0.45593999997E+02  0.45594000000E+02  0.51100000000E-03 0. -1.
         11   -1    0    0    0    0 -0.00000000000E+00 -0.00000000000E+00 -0.45593999997E+02  0.45594000000E+02  0.51100000000E-03 0.  1.
    9900012    2    1    2    0    0 -0.48611063905E-01 -0.54161786908E+00  0.10475561351E+01  0.90007709016E+02  0.89999969975E+02 0.  0.
        -12    1    1    2    0    0  0.48611063905E-01  0.54161786908E+00 -0.10475561351E+01  0.11802909844E+01  0.00000000000E+00 0.  1.
         11    1    3    3    0    0  0.61263115433E+01  0.23053550873E+02  0.29486400469E+02  0.37926846875E+02  0.51100000000E-03 0. -1.
        -11    1    3    3    0    0  0.41109613824E+01  0.14659108928E+01  0.65252107388E+01  0.78503040502E+01  0.51100000000E-03 0.  1.
        -12    1    3    3    0    0 -0.10285883990E+02 -0.25061079635E+02 -0.34964055072E+02  0.44230558091E+02  0.00000000000E+00 0.  1.
</event>
<event>
 7    1  0.1910099E-015  0.9000777E+02  0.7816164E-02  0.1186339E+00
        -11   -1    0    0    0    0  0.00000000000E+00  0.00000000000E+00  0.45593999997E+02  0.45594000000E+02  0.51100000000E-03 0.  1.
         11   -1    0    0    0    0 -0.00000000000E+00 -0.00000000000E+00 -0.45593999997E+02  0.45594000000E+02  0.51100000000E-03 0. -1.
    9900012    2    1    2    0    0 -0.63993035532E+00 -0.66679058823E+00  0.73404125536E+00  0.90007772432E+02  0.90000034228E+02 0.  0.
        -12    1    1    2    0    0  0.63993035532E+00  0.66679058823E+00 -0.73404125536E+00  0.11802275682E+01  0.00000000000E+00 0.  1.
         11    1    3    3    0    0  0.53778853147E+01  0.29273806362E+02 -0.23212853311E+02  0.37745383141E+02  0.51100000000E-03 0. -1.
        -11    1    3    3    0    0  0.20858571406E+01 -0.88235136999E+01 -0.86867909908E+01  0.12556493619E+02  0.51100000000E-03 0.  1.
        -12    1    3    3    0    0 -0.81036728107E+01 -0.21117083250E+02  0.32633685557E+02  0.39705895672E+02  0.00000000000E+00 0.  1.
</event>
<event>
 7    1  0.1910099E-015  0.9000782E+02  0.7816164E-02  0.1186339E+00
        -11   -1    0    0    0    0  0.00000000000E+00  0.00000000000E+00  0.45593999997E+02  0.45594000000E+02  0.51100000000E-03 0.  1.
         11   -1    0    0    0    0 -0.00000000000E+00 -0.00000000000E+00 -0.45593999997E+02  0.45594000000E+02  0.51100000000E-03 0. -1.
    9900012    2    1    2    0    0 -0.84293949732E+00  0.62683781370E+00  0.53791900961E+00  0.90007818022E+02  0.90000080420E+02 0.  0.
        -12    1    1    2    0    0  0.84293949732E+00 -0.62683781370E+00 -0.53791900961E+00  0.11801819782E+01  0.00000000000E+00 0.  1.
         11    1    3    3    0    0  0.39578561460E+01  0.62299809370E+01 -0.50123758703E+01  0.89219504523E+01  0.51100000000E-03 0. -1.
        -11    1    3    3    0    0 -0.82182421623E+01  0.16454343959E+02  0.37700098203E+02  0.41947375891E+02  0.51100000000E-03 0.  1.
         12    1    3    3    0    0  0.34174465190E+01 -0.22057487083E+02 -0.32149803323E+02  0.39138491678E+02  0.00000000000E+00 0. -1.
</event>
<event>
 7    1  0.1910099E-015  0.9000777E+02  0.7816164E-02  0.1186339E+00
        -11   -1    0    0    0    0  0.00000000000E+00  0.00000000000E+00  0.45593999997E+02  0.45594000000E+02  0.51100000000E-03 0.  1.
         11   -1    0    0    0    0 -0.00000000000E+00 -0.00000000000E+00 -0.45593999997E+02  0.45594000000E+02  0.51100000000E-03 0. -1.
    9900012    2    1    2    0    0  0.94470120635E+00  0.67920727447E+00  0.19788054099E+00  0.90007771378E+02  0.90000033160E+02 0.  0.
        -12    1    1    2    0    0 -0.94470120635E+00 -0.67920727447E+00 -0.19788054099E+00  0.11802286217E+01  0.00000000000E+00 0.  1.
         11    1    3    3    0    0  0.31780163409E+02  0.34163246780E+01 -0.21336256126E+02  0.38430273045E+02  0.51100000000E-03 0. -1.
        -11    1    3    3    0    0 -0.18609829139E+01  0.64046058644E+01 -0.71613581426E+01  0.97860760467E+01  0.51100000000E-03 0.  1.
        -12    1    3    3    0    0 -0.28974479288E+02 -0.91417232680E+01  0.28695494810E+02  0.41791422286E+02  0.00000000000E+00 0.  1.
</event>
<event>
 7    1  0.3333978E-015  0.9000771E+02  0.7816164E-02  0.1186339E+00
        -11   -1    0    0    0    0  0.00000000000E+00  0.00000000000E+00  0.45593999997E+02  0.45594000000E+02  0.51100000000E-03 0. -1.
         11   -1    0    0    0    0 -0.00000000000E+00 -0.00000000000E+00 -0.45593999997E+02  0.45594000000E+02  0.51100000000E-03 0.  1.
    9900012    2    1    2    0    0 -0.79322869122E-01 -0.87793595436E+00  0.78486857427E+00  0.90007710910E+02  0.89999971894E+02 0.  0.
        -12    1    1    2    0    0  0.79322869122E-01  0.87793595436E+00 -0.78486857427E+00  0.11802890902E+01  0.00000000000E+00 0.  1.
         11    1    3    3    0    0 -0.64362634853E+01  0.52795397382E+01  0.42159648904E+01  0.93313122184E+01  0.51100000000E-03 0. -1.
        -11    1    3    3    0    0 -0.14257867081E+02 -0.38880570526E+02 -0.63270564016E+01  0.41892925192E+02  0.51100000000E-03 0.  1.
         12    1    3    3    0    0  0.20614807698E+02  0.32723094833E+02  0.28959600855E+01  0.38783473500E+02  0.00000000000E+00 0. -1.
</event>
<event>
 7    1  0.1910099E-015  0.9000778E+02  0.7816164E-02  0.1186339E+00
        -11   -1    0    0    0    0  0.00000000000E+00  0.00000000000E+00  0.45593999997E+02  0.45594000000E+02  0.51100000000E-03 0.  1.
         11   -1    0    0    0    0 -0.00000000000E+00 -0.00000000000E+00 -0.45593999997E+02  0.45594000000E+02  0.51100000000E-03 0. -1.
    9900012    2    1    2    0    0  0.25750430499E+00  0.38041976399E+00 -0.10871533172E+01  0.90007775445E+02  0.90000037281E+02 0.  0.
        -12    1    1    2    0    0 -0.25750430499E+00 -0.38041976399E+00  0.10871533172E+01  0.11802245545E+01  0.00000000000E+00 0.  1.
         11    1    3    3    0    0  0.14218173367E+02 -0.14986833338E+01 -0.45876626810E+01  0.15014964361E+02  0.51100000000E-03 0. -1.
        -11    1    3    3    0    0  0.12686077489E+02 -0.30465501310E+02  0.12382074162E+01  0.33024483191E+02  0.51100000000E-03 0.  1.
         12    1    3    3    0    0 -0.26646746551E+02  0.32344604408E+02  0.22623019476E+01  0.41968327894E+02  0.00000000000E+00 0. -1.
</event>
<event>
 7    1  0.1910099E-015  0.9000774E+02  0.7816164E-02  0.1186339E+00
        -11   -1    0    0    0    0  0.00000000000E+00  0.00000000000E+00  0.45593999997E+02  0.45594000000E+02  0.51100000000E-03 0. -1.
         11   -1    0    0    0    0 -0.00000000000E+00 -0.00000000000E+00 -0.45593999997E+02  0.45594000000E+02  0.51100000000E-03 0.  1.
    9900012    2    1    2    0    0 -0.88895064219E+00  0.72291528020E+00 -0.28316583997E+00  0.90007736199E+02  0.89999997517E+02 0.  0.
        -12    1    1    2    0    0  0.88895064219E+00 -0.72291528020E+00  0.28316583997E+00  0.11802638008E+01  0.00000000000E+00 0.  1.
         11    1    3    3    0    0 -0.80948133436E+01  0.31837573127E+02  0.19634344439E+02  0.38270936067E+02  0.51100000000E-03 0. -1.
        -11    1    3    3    0    0  0.12181579299E+01  0.80337962274E+01 -0.39577499013E+01  0.90382285382E+01  0.51100000000E-03 0.  1.
        -12    1    3    3    0    0  0.59877047715E+01 -0.39148454074E+02 -0.15959760378E+02  0.42698571594E+02  0.00000000000E+00 0.  1.
</event>
<event>
 7    1  0.1910099E-015  0.9000763E+02  0.7816164E-02  0.1186339E+00
        -11   -1    0    0    0    0  0.00000000000E+00  0.00000000000E+00  0.45593999997E+02  0.45594000000E+02  0.51100000000E-03 0.  1.
         11   -1    0    0    0    0 -0.00000000000E+00 -0.00000000000E+00 -0.45593999997E+02  0.45594000000E+02  0.51100000000E-03 0. -1.
    9900012    2    1    2    0    0  0.87798749075E+00  0.39259273556E+00 -0.68431838520E+00  0.90007626016E+02  0.89999885879E+02 0.  0.
        -12    1    1    2    0    0 -0.87798749075E+00 -0.39259273556E+00  0.68431838520E+00  0.11803739841E+01  0.00000000000E+00 0.  1.
         11    1    3    3    0    0 -0.11313421531E+02 -0.15403818478E+02 -0.29519642331E+02  0.35166467182E+02  0.51100000000E-03 0. -1.
        -11    1    3    3    0    0 -0.88387227887E+00 -0.10102546193E+02 -0.41099300908E+01  0.10942312160E+02  0.51100000000E-03 0.  1.
        -12    1    3    3    0    0  0.13075281301E+02  0.25898957407E+02  0.32945254036E+02  0.43898846675E+02  0.00000000000E+00 0.  1.
</event>
<event>
 7    1  0.1910099E-015  0.9000761E+02  0.7816164E-02  0.1186339E+00
        -11   -1    0    0    0    0  0.00000000000E+00  0.00000000000E+00  0.45593999997E+02  0.45594000000E+02  0.51100000000E-03 0. -1.
         11   -1    0    0    0    0 -0.00000000000E+00 -0.00000000000E+00 -0.45593999997E+02  0.45594000000E+02  0.51100000000E-03 0.  1.
    9900012    2    1    2    0    0 -0.31890443524E+00 -0.90540947783E+00  0.68691239388E+00  0.90007612353E+02  0.89999872036E+02 0.  0.
        -12    1    1    2    0    0  0.31890443524E+00  0.90540947783E+00 -0.68691239388E+00  0.11803876474E+01  0.00000000000E+00 0.  1.
         11    1    3    3    0    0  0.24866248429E+01  0.71756965114E+01 -0.59093187964E+01  0.96225761847E+01  0.51100000000E-03 0. -1.
        -11    1    3    3    0    0  0.16131689447E+02  0.25692411912E+02 -0.17262173811E+02  0.34904356164E+02  0.51100000000E-03 0.  1.
         12    1    3    3    0    0 -0.18937218725E+02 -0.33773517901E+02  0.23858405001E+02  0.45480680004E+02  0.00000000000E+00 0. -1.
</event>
<event>
 7    1  0.2120694E-015  0.9000765E+02  0.7816164E-02  0.1186339E+00
        -11   -1    0    0    0    0  0.00000000000E+00  0.00000000000E+00  0.45593999997E+02  0.45594000000E+02  0.51100000000E-03 0.  1.
         11   -1    0    0    0    0 -0.00000000000E+00 -0.00000000000E+00 -0.45593999997E+02  0.45594000000E+02  0.51100000000E-03 0. -1.
    9900012    2    1    2    0    0  0.11612041082E+01  0.16575521931E+00 -0.13170486570E+00  0.90007654311E+02  0.89999914548E+02 0.  0.
        -12    1    1    2    0    0 -0.11612041082E+01 -0.16575521931E+00  0.13170486570E+00  0.11803456889E+01  0.00000000000E+00 0.  1.
         11    1    3    3    0    0 -0.22611836049E+01 -0.73588464611E+01 -0.55730589543E+01  0.95039233426E+01  0.51100000000E-03 0. -1.
        -11    1    3    3    0    0  0.23803162920E+02 -0.24234414026E+02  0.20722587045E+02  0.39790991471E+02  0.51100000000E-03 0.  1.
         12    1    3    3    0    0 -0.20380775207E+02  0.31759015707E+02 -0.15281232957E+02  0.40712739497E+02  0.00000000000E+00 0. -1.
</event>
<event>
 7    1  0.1910099E-015  0.9000769E+02  0.7816164E-02  0.1186339E+00
        -11   -1    0    0    0    0  0.00000000000E+00  0.00000000000E+00  0.45593999997E+02  0.45594000000E+02  0.51100000000E-03 0. -1.
         11   -1    0    0    0    0 -0.00000000000E+00 -0.00000000000E+00 -0.45593999997E+02  0.45594000000E+02  0.51100000000E-03 0.  1.
    9900012    2    1    2    0    0  0.14930970241E+00  0.11602587002E+01  0.15698430350E+00  0.90007687452E+02  0.89999948127E+02 0.  0.
        -12    1    1    2    0    0 -0.14930970241E+00 -0.11602587002E+01 -0.15698430350E+00  0.11803125477E+01  0.00000000000E+00 0.  1.
         11    1    3    3    0    0  0.16232787838E+02  0.34400356245E+02 -0.75448125173E+01  0.38779016323E+02  0.51100000000E-03 0. -1.
        -11    1    3    3    0    0  0.83950736260E+01 -0.28812518256E+01 -0.50335525154E+01  0.10203701508E+02  0.51100000000E-03 0.  1.
        -12    1    3    3    0    0 -0.24478551762E+02 -0.30358845719E+02  0.12735349336E+02  0.41024969622E+02  0.00000000000E+00 0.  1.
</event>
<event>
 7    1  0.1910099E-015  0.9000774E+02  0.7816164E-02  0.1186339E+00
        -11   -1    0    0    0    0  0.00000000000E+00  0.00000000000E+00  0.45593999997E+02  0.45594000000E+02  0.51100000000E-03 0.  1.
         11   -1    0    0    0    0 -0.00000000000E+00 -0.00000000000E+00 -0.45593999997E+02  0.45594000000E+02  0.51100000000E-03 0. -1.
    9900012    2    1    2    0    0  0.10778015438E+01  0.21137772331E+00  0.43207191474E+00  0.90007736110E+02  0.89999997427E+02 0.  0.
        -12    1    1    2    0    0 -0.10778015438E+01 -0.21137772331E+00 -0.43207191474E+00  0.11802638897E+01  0.00000000000E+00 0.  1.
         11    1    3    3    0    0  0.25503566718E+02 -0.26900481539E+02 -0.63890127660E+01  0.37614987794E+02  0.51100000000E-03 0. -1.
        -11    1    3    3    0    0 -0.10239707926E+01 -0.30713361695E+01 -0.10109897463E+02  0.10615632295E+02  0.51100000000E-03 0.  1.
        -12    1    3    3    0    0 -0.23401794381E+02  0.30183195432E+02  0.16930982143E+02  0.41777116022E+02  0.00000000000E+00 0.  1.
</event>
<event>
 7    1  0.1910099E-015  0.9000771E+02  0.7816164E-02  0.1186339E+00
        -11   -1    0    0    0    0  0.00000000000E+00  0.00000000000E+00  0.45593999997E+02  0.45594000000E+02  0.51100000000E-03 0.  1.
         11   -1    0    0    0    0 -0.00000000000E+00 -0.00000000000E+00 -0.45593999997E+02  0.45594000000E+02  0.51100000000E-03 0. -1.
    9900012    2    1    2    0    0 -0.11705737363E+01 -0.13734052944E+00 -0.63051547033E-01  0.90007711565E+02  0.89999972557E+02 0.  0.
        -12    1    1    2    0    0  0.11705737363E+01  0.13734052944E+00  0.63051547033E-01  0.11802884354E+01  0.00000000000E+00 0.  1.
         11    1    3    3    0    0  0.37154993836E+02  0.31837684123E+01 -0.59037900953E+01  0.37755591454E+02  0.51100000000E-03 0. -1.
        -11    1    3    3    0    0  0.51310794481E+01 -0.51498687563E+01 -0.30055179384E+01  0.78665280048E+01  0.51100000000E-03 0.  1.
        -12    1    3    3    0    0 -0.43456647021E+02  0.18287598146E+01  0.88462564867E+01  0.44385592106E+02  0.00000000000E+00 0.  1.
</event>
<event>
 7    1  0.1910099E-015  0.9000772E+02  0.7816164E-02  0.1186339E+00
        -11   -1    0    0    0    0  0.00000000000E+00  0.00000000000E+00  0.45593999997E+02  0.45594000000E+02  0.51100000000E-03 0. -1.
         11   -1    0    0    0    0 -0.00000000000E+00 -0.00000000000E+00 -0.45593999997E+02  0.45594000000E+02  0.51100000000E-03 0.  1.
    9900012    2    1    2    0    0 -0.65383752294E+00 -0.31951743213E+00  0.92922715867E+00  0.90007721216E+02  0.89999982336E+02 0.  0.
        -12    1    1    2    0    0  0.65383752294E+00  0.31951743213E+00 -0.92922715867E+00  0.11802787841E+01  0.00000000000E+00 0.  1.
         11    1    3    3    0    0  0.18488000662E+01  0.10079144928E+02  0.24946292721E+01  0.10546582367E+02  0.51100000000E-03 0. -1.
        -11    1    3    3    0    0 -0.27207468395E+02  0.71318047239E+01 -0.27682496156E+02  0.39464282190E+02  0.51100000000E-03 0.  1.
         12    1    3    3    0    0  0.24704830806E+02 -0.17530467084E+02  0.26117094043E+02  0.39996856659E+02  0.00000000000E+00 0. -1.
</event>
<event>
 7    1  0.1910099E-015  0.9000781E+02  0.7816164E-02  0.1186339E+00
        -11   -1    0    0    0    0  0.00000000000E+00  0.00000000000E+00  0.45593999997E+02  0.45594000000E+02  0.51100000000E-03 0. -1.
         11   -1    0    0    0    0 -0.00000000000E+00 -0.00000000000E+00 -0.45593999997E+02  0.45594000000E+02  0.51100000000E-03 0.  1.
    9900012    2    1    2    0    0 -0.55884986371E+00 -0.77907873936E+00  0.68816522930E+00  0.90007810085E+02  0.90000072378E+02 0.  0.
        -12    1    1    2    0    0  0.55884986371E+00  0.77907873936E+00 -0.68816522930E+00  0.11801899149E+01  0.00000000000E+00 0.  1.
         11    1    3    3    0    0  0.33117168022E+02 -0.28135126625E+01  0.18547920183E+02  0.38061634420E+02  0.51100000000E-03 0. -1.
        -11    1    3    3    0    0  0.19820136348E+00 -0.12503398843E+01  0.86901995887E+01  0.87819247754E+01  0.51100000000E-03 0.  1.
        -12    1    3    3    0    0 -0.33874219249E+02  0.32847738074E+01 -0.26549954542E+02  0.43164250890E+02  0.00000000000E+00 0.  1.
</event>
<event>
 7    1  0.1910099E-015  0.9000779E+02  0.7816164E-02  0.1186339E+00
        -11   -1    0    0    0    0  0.00000000000E+00  0.00000000000E+00  0.45593999997E+02  0.45594000000E+02  0.51100000000E-03 0. -1.
         11   -1    0    0    0    0 -0.00000000000E+00 -0.00000000000E+00 -0.45593999997E+02  0.45594000000E+02  0.51100000000E-03 0.  1.
    9900012    2    1    2    0    0  0.45946501192E+00 -0.47979590107E+00  0.97549576194E+00  0.90007786381E+02  0.90000048362E+02 0.  0.
        -12    1    1    2    0    0 -0.45946501192E+00  0.47979590107E+00 -0.97549576194E+00  0.11802136186E+01  0.00000000000E+00 0.  1.
         11    1    3    3    0    0  0.75971680481E+01 -0.55194942387E+01 -0.13408848261E+01  0.94857657245E+01  0.51100000000E-03 0. -1.
        -11    1    3    3    0    0 -0.21700943480E+02 -0.31746102355E+02  0.11040348894E+02  0.40007940045E+02  0.51100000000E-03 0.  1.
         12    1    3    3    0    0  0.14563240443E+02  0.36785800693E+02 -0.87239683060E+01  0.40514080612E+02  0.00000000000E+00 0. -1.
</event>
<event>
 7    1  0.1910099E-015  0.9000774E+02  0.7816164E-02  0.1186339E+00
        -11   -1    0    0    0    0  0.00000000000E+00  0.00000000000E+00  0.45593999997E+02  0.45594000000E+02  0.51100000000E-03 0.  1.
         11   -1    0    0    0    0 -0.00000000000E+00 -0.00000000000E+00 -0.45593999997E+02  0.45594000000E+02  0.51100000000E-03 0. -1.
    9900012    2    1    2    0    0 -0.81105211566E+00  0.26355299830E+00 -0.81592920204E+00  0.90007743172E+02  0.90000004582E+02 0.  0.
        -12    1    1    2    0    0  0.81105211566E+00 -0.26355299830E+00  0.81592920204E+00  0.11802568280E+01  0.00000000000E+00 0.  1.
         11    1    3    3    0    0 -0.43650184761E+01 -0.34830354753E+02  0.18995352040E+01  0.35154163804E+02  0.51100000000E-03 0. -1.
        -11    1    3    3    0    0  0.18596109964E+02  0.43764895243E+01  0.50918858327E+01  0.19771096782E+02  0.51100000000E-03 0.  1.
        -12    1    3    3    0    0 -0.15042143604E+02  0.30717418227E+02 -0.78073502387E+01  0.35082482587E+02  0.00000000000E+00 0.  1.
</event>
<event>
 7    1  0.1970553E-015  0.9000781E+02  0.7816164E-02  0.1186339E+00
        -11   -1    0    0    0    0  0.00000000000E+00  0.00000000000E+00  0.45593999997E+02  0.45594000000E+02  0.51100000000E-03 0.  1.
         11   -1    0    0    0    0 -0.00000000000E+00 -0.00000000000E+00 -0.45593999997E+02  0.45594000000E+02  0.51100000000E-03 0. -1.
    9900012    2    1    2    0    0  0.52788466138E+00  0.10499401102E+01 -0.10871688456E+00  0.90007806875E+02  0.90000069126E+02 0.  0.
        -12    1    1    2    0    0 -0.52788466138E+00 -0.10499401102E+01  0.10871688456E+00  0.11801931248E+01  0.00000000000E+00 0.  1.
         11    1    3    3    0    0 -0.33336429518E+01 -0.57113059696E+01  0.69797572450E+01  0.96150508407E+01  0.51100000000E-03 0. -1.
        -11    1    3    3    0    0 -0.94860420955E+00 -0.34655162309E+02  0.88094138093E+01  0.35769902104E+02  0.51100000000E-03 0.  1.
         12    1    3    3    0    0  0.48101318228E+01  0.41416408389E+02 -0.15897887939E+02  0.44622853930E+02  0.00000000000E+00 0. -1.
</event>
<event>
 7    1  0.1910099E-015  0.9000767E+02  0.7816164E-02  0.1186339E+00
        -11   -1    0    0    0    0  0.00000000000E+00  0.00000000000E+00  0.45593999997E+02  0.45594000000E+02  0.51100000000E-03 0.  1.
         11   -1    0    0    0    0 -0.00000000000E+00 -0.00000000000E+00 -0.45593999997E+02  0.45594000000E+02  0.51100000000E-03 0. -1.
    9900012    2    1    2    0    0 -0.34800096026E+00 -0.95720685603E+00 -0.59651430643E+00  0.90007669982E+02  0.89999930426E+02 0.  0.
        -12    1    1    2    0    0  0.34800096026E+00  0.95720685603E+00  0.59651430643E+00  0.11803300180E+01  0.00000000000E+00 0.  1.
         11    1    3    3    0    0 -0.90357466193E+01 -0.15214726523E+01 -0.33725750427E+00  0.91691514812E+01  0.51100000000E-03 0. -1.
        -11    1    3    3    0    0 -0.30149384386E+02  0.16734109259E+02  0.12812633502E+02  0.36785586431E+02  0.51100000000E-03 0.  1.
         12    1    3    3    0    0  0.38837130045E+02 -0.16169843463E+02 -0.13071890305E+02  0.44052932069E+02  0.00000000000E+00 0. -1.
</event>
<event>
 7    1  0.2717092E-015  0.9000766E+02  0.7816164E-02  0.1186339E+00
        -11   -1    0    0    0    0  0.00000000000E+00  0.00000000000E+00  0.45593999997E+02  0.45594000000E+02  0.51100000000E-03 0. -1.
         11   -1    0    0    0    0 -0.00000000000E+00 -0.00000000000E+00 -0.45593999997E+02  0.45594000000E+02  0.51100000000E-03 0.  1.
    9900012    2    1    2    0    0  0.43482703371E+00  0.45003825499E+00  0.10007977341E+01  0.90007658912E+02  0.89999919209E+02 0.  0.
        -12    1    1    2    0    0 -0.43482703371E+00 -0.45003825499E+00 -0.10007977341E+01  0.11803410883E+01  0.00000000000E+00 0.  1.
         11    1    3    3    0    0  0.28203343829E+01  0.91728998834E+00 -0.89179347632E+01  0.93981523533E+01  0.51100000000E-03 0. -1.
        -11    1    3    3    0    0  0.20613381957E+02  0.60668014237E+01 -0.28297032002E+02  0.35530826273E+02  0.51100000000E-03 0.  1.
         12    1    3    3    0    0 -0.22998889307E+02 -0.65340531570E+01  0.38215764499E+02  0.45078680285E+02  0.00000000000E+00 0. -1.
</event>
<event>
 7    1  0.1910099E-015  0.9000868E+02  0.7816164E-02  0.1186337E+00
        -11   -1    0    0    0    0  0.00000000000E+00  0.00000000000E+00  0.45593999997E+02  0.45594000000E+02  0.51100000000E-03 0.  1.
         11   -1    0    0    0    0 -0.00000000000E+00 -0.00000000000E+00 -0.45593999997E+02  0.45594000000E+02  0.51100000000E-03 0. -1.
    9900012    2    1    2    0    0  0.96817897723E-01  0.20122558403E+00 -0.11579872615E+01  0.90008678187E+02  0.90000951934E+02 0.  0.
        -12    1    1    2    0    0 -0.96817897723E-01 -0.20122558403E+00  0.11579872615E+01  0.11793218130E+01  0.00000000000E+00 0.  1.
         11    1    3    3    0    0  0.16690588209E+02 -0.33370861319E+02 -0.22141055707E+02  0.43386823668E+02  0.51100000000E-03 0. -1.
        -11    1    3    3    0    0  0.25734271138E+01  0.10219829678E+01 -0.96735878254E+00  0.29330461251E+01  0.51100000000E-03 0.  1.
        -12    1    3    3    0    0 -0.19167197425E+02  0.32550103936E+02  0.21950427228E+02  0.43688808393E+02  0.00000000000E+00 0.  1.
</event>
<event>
 7    1  0.1910099E-015  0.9000777E+02  0.7816164E-02  0.1186339E+00
        -11   -1    0    0    0    0  0.00000000000E+00  0.00000000000E+00  0.45593999997E+02  0.45594000000E+02  0.51100000000E-03 0.  1.
         11   -1    0    0    0    0 -0.00000000000E+00 -0.00000000000E+00 -0.45593999997E+02  0.45594000000E+02  0.51100000000E-03 0. -1.
    9900012    2    1    2    0    0  0.82548825847E-01  0.80983976934E+00  0.85456773029E+00  0.90007770884E+02  0.90000032660E+02 0.  0.
        -12    1    1    2    0    0 -0.82548825847E-01 -0.80983976934E+00 -0.85456773029E+00  0.11802291160E+01  0.00000000000E+00 0.  1.
         11    1    3    3    0    0 -0.22802075702E+01 -0.56477587149E+00  0.96686570122E+01  0.99499370364E+01  0.51100000000E-03 0. -1.
        -11    1    3    3    0    0 -0.16927610480E+02 -0.24200811874E+02  0.21045619566E+02  0.36264878258E+02  0.51100000000E-03 0.  1.
         12    1    3    3    0    0  0.19290366876E+02  0.25575427515E+02 -0.29859708848E+02  0.43792955589E+02  0.00000000000E+00 0. -1.
</event>
<event>
 7    1  0.1910099E-015  0.9000771E+02  0.7816164E-02  0.1186339E+00
        -11   -1    0    0    0    0  0.00000000000E+00  0.00000000000E+00  0.45593999997E+02  0.45594000000E+02  0.51100000000E-03 0. -1.
         11   -1    0    0    0    0 -0.00000000000E+00 -0.00000000000E+00 -0.45593999997E+02  0.45594000000E+02  0.51100000000E-03 0.  1.
    9900012    2    1    2    0    0 -0.60088788686E+00 -0.10135811035E+01  0.68366512784E-01  0.90007708983E+02  0.89999969941E+02 0.  0.
        -12    1    1    2    0    0  0.60088788686E+00  0.10135811035E+01 -0.68366512784E-01  0.11802910175E+01  0.00000000000E+00 0.  1.
         11    1    3    3    0    0  0.18315111749E+02 -0.29579348438E+02 -0.16789328059E+02  0.38629816325E+02  0.51100000000E-03 0. -1.
        -11    1    3    3    0    0  0.39241671894E+00  0.86391880669E+01 -0.96820953985E+01  0.12982008046E+02  0.51100000000E-03 0.  1.
        -12    1    3    3    0    0 -0.19308416355E+02  0.19926579268E+02  0.26539789970E+02  0.38395884611E+02  0.00000000000E+00 0.  1.
</event>
<event>
 7    1  0.1910099E-015  0.9000771E+02  0.7816164E-02  0.1186339E+00
        -11   -1    0    0    0    0  0.00000000000E+00  0.00000000000E+00  0.45593999997E+02  0.45594000000E+02  0.51100000000E-03 0. -1.
         11   -1    0    0    0    0 -0.00000000000E+00 -0.00000000000E+00 -0.45593999997E+02  0.45594000000E+02  0.51100000000E-03 0.  1.
    9900012    2    1    2    0    0 -0.10344850115E+01  0.46412868406E+00 -0.32788962027E+00  0.90007709240E+02  0.89999970202E+02 0.  0.
        -12    1    1    2    0    0  0.10344850115E+01 -0.46412868406E+00  0.32788962027E+00  0.11802907597E+01  0.00000000000E+00 0.  1.
         11    1    3    3    0    0  0.26521458152E+01 -0.94269502391E+01 -0.61262367268E+01  0.11551278930E+02  0.51100000000E-03 0. -1.
        -11    1    3    3    0    0  0.30076725667E+02  0.24875561217E+02  0.12355716008E+02  0.40939793490E+02  0.51100000000E-03 0.  1.
         12    1    3    3    0    0 -0.33763356494E+02 -0.14984482294E+02 -0.65573689015E+01  0.37516636819E+02  0.00000000000E+00 0. -1.
</event>
<event>
 7    1  0.1971767E-015  0.9000762E+02  0.7816164E-02  0.1186339E+00
        -11   -1    0    0    0    0  0.00000000000E+00  0.00000000000E+00  0.45593999997E+02  0.45594000000E+02  0.51100000000E-03 0.  1.
         11   -1    0    0    0    0 -0.00000000000E+00 -0.00000000000E+00 -0.45593999997E+02  0.45594000000E+02  0.51100000000E-03 0. -1.
    9900012    2    1    2    0    0  0.11217224228E+01  0.21286220382E+00 -0.29955476392E+00  0.90007616771E+02  0.89999876512E+02 0.  0.
        -12    1    1    2    0    0 -0.11217224228E+01 -0.21286220382E+00  0.29955476392E+00  0.11803832294E+01  0.00000000000E+00 0.  1.
         11    1    3    3    0    0  0.79696628424E+01 -0.21283579544E+01  0.49910200408E+01  0.96413544024E+01  0.51100000000E-03 0. -1.
        -11    1    3    3    0    0  0.62529472311E+01  0.70857444534E+01  0.35774533858E+02  0.37001680997E+02  0.51100000000E-03 0.  1.
         12    1    3    3    0    0 -0.13100887651E+02 -0.47445242952E+01 -0.41065108663E+02  0.43364581372E+02  0.00000000000E+00 0. -1.
</event>
<event>
 7    1  0.1910099E-015  0.9000767E+02  0.7816164E-02  0.1186339E+00
        -11   -1    0    0    0    0  0.00000000000E+00  0.00000000000E+00  0.45593999997E+02  0.45594000000E+02  0.51100000000E-03 0.  1.
         11   -1    0    0    0    0 -0.00000000000E+00 -0.00000000000E+00 -0.45593999997E+02  0.45594000000E+02  0.51100000000E-03 0. -1.
    9900012    2    1    2    0    0 -0.22472634270E+00 -0.76114762453E+00  0.87368435588E+00  0.90007672931E+02  0.89999933414E+02 0.  0.
        -12    1    1    2    0    0  0.22472634270E+00  0.76114762453E+00 -0.87368435588E+00  0.11803270687E+01  0.00000000000E+00 0.  1.
         11    1    3    3    0    0 -0.72299172327E+00  0.37315543192E+01 -0.10708115756E+02  0.11362700294E+02  0.51100000000E-03 0. -1.
        -11    1    3    3    0    0 -0.35781845514E+02 -0.52345310625E+01  0.20096625974E+02  0.41371670980E+02  0.51100000000E-03 0.  1.
         12    1    3    3    0    0  0.36280110895E+02  0.74182911882E+00 -0.85148258620E+01  0.37273301658E+02  0.00000000000E+00 0. -1.
</event>
<event>
 7    1  0.1910099E-015  0.9000772E+02  0.7816164E-02  0.1186339E+00
        -11   -1    0    0    0    0  0.00000000000E+00  0.00000000000E+00  0.45593999997E+02  0.45594000000E+02  0.51100000000E-03 0. -1.
         11   -1    0    0    0    0 -0.00000000000E+00 -0.00000000000E+00 -0.45593999997E+02  0.45594000000E+02  0.51100000000E-03 0.  1.
    9900012    2    1    2    0    0  0.13200026586E+00  0.10177224195E+01  0.58299906302E+00  0.90007715754E+02  0.89999976802E+02 0.  0.
        -12    1    1    2    0    0 -0.13200026586E+00 -0.10177224195E+01 -0.58299906302E+00  0.11802842458E+01  0.00000000000E+00 0.  1.
         11    1    3    3    0    0  0.11267744056E+02  0.15647933049E+02  0.13240122068E+02  0.23390611310E+02  0.51100000000E-03 0. -1.
        -11    1    3    3    0    0 -0.24103303428E+02  0.11583195612E+02  0.11084128608E+02  0.28948187577E+02  0.51100000000E-03 0.  1.
         12    1    3    3    0    0  0.12967559638E+02 -0.26213406242E+02 -0.23741251613E+02  0.37668916867E+02  0.00000000000E+00 0. -1.
</event>
<event>
 7    1  0.1910099E-015  0.9000779E+02  0.7816164E-02  0.1186339E+00
        -11   -1    0    0    0    0  0.00000000000E+00  0.00000000000E+00  0.45593999997E+02  0.45594000000E+02  0.51100000000E-03 0. -1.
         11   -1    0    0    0    0 -0.00000000000E+00 -0.00000000000E+00 -0.45593999997E+02  0.45594000000E+02  0.51100000000E-03 0.  1.
    9900012    2    1    2    0    0  0.10928834186E+01 -0.35955367771E-01  0.44408244179E+00  0.90007789777E+02  0.90000051802E+02 0.  0.
        -12    1    1    2    0    0 -0.10928834186E+01  0.35955367771E-01 -0.44408244179E+00  0.11802102229E+01  0.00000000000E+00 0.  1.
         11    1    3    3    0    0 -0.18334072087E+02 -0.14494145243E+02  0.29307181432E+02  0.37485054747E+02  0.51100000000E-03 0. -1.
        -11    1    3    3    0    0  0.54395181723E+01 -0.24295004232E+01  0.77924931498E+01  0.98088623195E+01  0.51100000000E-03 0.  1.
        -12    1    3    3    0    0  0.13987437333E+02  0.16887690299E+02 -0.36655592140E+02  0.42713872711E+02  0.00000000000E+00 0.  1.
</event>
<event>
 7    1  0.1910099E-015  0.9000777E+02  0.7816164E-02  0.1186339E+00
        -11   -1    0    0    0    0  0.00000000000E+00  0.00000000000E+00  0.45593999997E+02  0.45594000000E+02  0.51100000000E-03 0. -1.
         11   -1    0    0    0    0 -0.00000000000E+00 -0.00000000000E+00 -0.45593999997E+02  0.45594000000E+02  0.51100000000E-03 0.  1.
    9900012    2    1    2    0    0 -0.17783303827E+00  0.32033000688E+00 -0.11219236512E+01  0.90007767573E+02  0.90000029305E+02 0.  0.
        -12    1    1    2    0    0  0.17783303827E+00 -0.32033000688E+00  0.11219236512E+01  0.11802324271E+01  0.00000000000E+00 0.  1.
         11    1    3    3    0    0  0.18472689852E+01 -0.57516640992E+01  0.68500829503E+01  0.91333279423E+01  0.51100000000E-03 0. -1.
        -11    1    3    3    0    0  0.49769908316E+01 -0.22028217095E+02 -0.34742278025E+02  0.41437165308E+02  0.51100000000E-03 0.  1.
         12    1    3    3    0    0 -0.70020928551E+01  0.28100211201E+02  0.26770271423E+02  0.39437274323E+02  0.00000000000E+00 0. -1.
</event>
<event>
 7    1  0.1910099E-015  0.9000771E+02  0.7816164E-02  0.1186339E+00
        -11   -1    0    0    0    0  0.00000000000E+00  0.00000000000E+00  0.45593999997E+02  0.45594000000E+02  0.51100000000E-03 0.  1.
         11   -1    0    0    0    0 -0.00000000000E+00 -0.00000000000E+00 -0.45593999997E+02  0.45594000000E+02  0.51100000000E-03 0. -1.
    9900012    2    1    2    0    0 -0.29066863226E-02  0.92452272830E+00 -0.73371871711E+00  0.90007706020E+02  0.89999966939E+02 0.  0.
        -12    1    1    2    0    0  0.29066863226E-02 -0.92452272830E+00  0.73371871711E+00  0.11802939802E+01  0.00000000000E+00 0.  1.
         11    1    3    3    0    0 -0.25195603966E+00 -0.31901262022E+01  0.83394686222E+01  0.89323638638E+01  0.51100000000E-03 0. -1.
        -11    1    3    3    0    0 -0.17784840527E+02  0.20610239514E+02  0.26450185767E+02  0.37956486307E+02  0.51100000000E-03 0.  1.
         12    1    3    3    0    0  0.18033889881E+02 -0.16495590583E+02 -0.35523373106E+02  0.43118855849E+02  0.00000000000E+00 0. -1.
</event>
<event>
 7    1  0.1910099E-015  0.9000776E+02  0.7816164E-02  0.1186339E+00
        -11   -1    0    0    0    0  0.00000000000E+00  0.00000000000E+00  0.45593999997E+02  0.45594000000E+02  0.51100000000E-03 0.  1.
         11   -1    0    0    0    0 -0.00000000000E+00 -0.00000000000E+00 -0.45593999997E+02  0.45594000000E+02  0.51100000000E-03 0. -1.
    9900012    2    1    2    0    0  0.11124466738E+01 -0.39206917174E+00  0.41486488918E-01  0.90007755548E+02  0.90000017121E+02 0.  0.
        -12    1    1    2    0    0 -0.11124466738E+01  0.39206917174E+00 -0.41486488918E-01  0.11802444519E+01  0.00000000000E+00 0.  1.
         11    1    3    3    0    0  0.22717318150E+02 -0.23650938898E+02 -0.17506655781E+02  0.37174271365E+02  0.51100000000E-03 0. -1.
        -11    1    3    3    0    0  0.40625918975E+01 -0.61906687803E+01 -0.37923610876E+01  0.83193170244E+01  0.51100000000E-03 0.  1.
        -12    1    3    3    0    0 -0.25667463373E+02  0.29449538506E+02  0.21340503358E+02  0.44514167158E+02  0.00000000000E+00 0.  1.
</event>
<event>
 7    1  0.1910099E-015  0.9000775E+02  0.7816164E-02  0.1186339E+00
        -11   -1    0    0    0    0  0.00000000000E+00  0.00000000000E+00  0.45593999997E+02  0.45594000000E+02  0.51100000000E-03 0. -1.
         11   -1    0    0    0    0 -0.00000000000E+00 -0.00000000000E+00 -0.45593999997E+02  0.45594000000E+02  0.51100000000E-03 0.  1.
    9900012    2    1    2    0    0 -0.75648296014E+00  0.69666757450E-02  0.90591733578E+00  0.90007745272E+02  0.90000006710E+02 0.  0.
        -12    1    1    2    0    0  0.75648296014E+00 -0.69666757450E-02 -0.90591733578E+00  0.11802547279E+01  0.00000000000E+00 0.  1.
         11    1    3    3    0    0 -0.99629250941E+01 -0.24651712230E+01  0.48666064963E+01  0.11358732528E+02  0.51100000000E-03 0. -1.
        -11    1    3    3    0    0  0.11662443223E+02 -0.36488301595E+02  0.48982441628E+01  0.38618668172E+02  0.51100000000E-03 0.  1.
         12    1    3    3    0    0 -0.24560010893E+01  0.38960439494E+02 -0.88589333233E+01  0.40030344572E+02  0.00000000000E+00 0. -1.
</event>
<event>
 7    1  0.1910099E-015  0.9000779E+02  0.7816164E-02  0.1186339E+00
        -11   -1    0    0    0    0  0.00000000000E+00  0.00000000000E+00  0.45593999997E+02  0.45594000000E+02  0.51100000000E-03 0.  1.
         11   -1    0    0    0    0 -0.00000000000E+00 -0.00000000000E+00 -0.45593999997E+02  0.45594000000E+02  0.51100000000E-03 0. -1.
    9900012    2    1    2    0    0  0.10807147276E+01  0.43509477690E+00 -0.18880826397E+00  0.90007788007E+02  0.90000050009E+02 0.  0.
        -12    1    1    2    0    0 -0.10807147276E+01 -0.43509477690E+00  0.18880826397E+00  0.11802119928E+01  0.00000000000E+00 0.  1.
         11    1    3    3    0    0  0.31471037870E+02 -0.14978679516E+02  0.10809143414E+01  0.34870552631E+02  0.51100000000E-03 0. -1.
        -11    1    3    3    0    0  0.10498163627E+02 -0.53408200969E+00 -0.37957879054E+01  0.11176076647E+02  0.51100000000E-03 0.  1.
        -12    1    3    3    0    0 -0.40888486770E+02  0.15947856303E+02  0.25260653000E+01  0.43961158730E+02  0.00000000000E+00 0.  1.
</event>
<event>
 7    1  0.1910099E-015  0.9000777E+02  0.7816164E-02  0.1186339E+00
        -11   -1    0    0    0    0  0.00000000000E+00  0.00000000000E+00  0.45593999997E+02  0.45594000000E+02  0.51100000000E-03 0.  1.
         11   -1    0    0    0    0 -0.00000000000E+00 -0.00000000000E+00 -0.45593999997E+02  0.45594000000E+02  0.51100000000E-03 0. -1.
    9900012    2    1    2    0    0 -0.94503449811E-01 -0.33698887552E+00 -0.11271429330E+01  0.90007769685E+02  0.90000031445E+02 0.  0.
        -12    1    1    2    0    0  0.94503449811E-01  0.33698887552E+00  0.11271429330E+01  0.11802303147E+01  0.00000000000E+00 0.  1.
         11    1    3    3    0    0  0.10787933191E+02 -0.17330041276E+02 -0.29266720391E+02  0.35682639419E+02  0.51100000000E-03 0. -1.
        -11    1    3    3    0    0 -0.57166575768E+00  0.83240711742E+01 -0.10496102508E+02  0.13408397771E+02  0.51100000000E-03 0.  1.
        -12    1    3    3    0    0 -0.10310770884E+02  0.86689812260E+01  0.38635679966E+02  0.40916732496E+02  0.00000000000E+00 0.  1.
</event>
<event>
 7    1  0.1910099E-015  0.9000771E+02  0.7816164E-02  0.1186339E+00
        -11   -1    0    0    0    0  0.00000000000E+00  0.00000000000E+00  0.45593999997E+02  0.45594000000E+02  0.51100000000E-03 0.  1.
         11   -1    0    0    0    0 -0.00000000000E+00 -0.00000000000E+00 -0.45593999997E+02  0.45594000000E+02  0.51100000000E-03 0. -1.
    9900012    2    1    2    0    0 -0.10007333711E+01 -0.58877791450E+00  0.21205335706E+00  0.90007706249E+02  0.89999967171E+02 0.  0.
        -12    1    1    2    0    0  0.10007333711E+01  0.58877791450E+00 -0.21205335706E+00  0.11802937511E+01  0.00000000000E+00 0.  1.
         11    1    3    3    0    0 -0.32095907358E+02  0.42079229618E+01 -0.14578930964E+02  0.35502100122E+02  0.51100000000E-03 0. -1.
        -11    1    3    3    0    0 -0.78623485958E+01  0.28552256882E+01 -0.54081152023E+01  0.99607504474E+01  0.51100000000E-03 0.  1.
        -12    1    3    3    0    0  0.38957522583E+02 -0.76519265645E+01  0.20199099524E+02  0.44544855679E+02  0.00000000000E+00 0.  1.
</event>
<event>
 7    1  0.1910099E-015  0.9000771E+02  0.7816164E-02  0.1186339E+00
        -11   -1    0    0    0    0  0.00000000000E+00  0.00000000000E+00  0.45593999997E+02  0.45594000000E+02  0.51100000000E-03 0.  1.
         11   -1    0    0    0    0 -0.00000000000E+00 -0.00000000000E+00 -0.45593999997E+02  0.45594000000E+02  0.51100000000E-03 0. -1.
    9900012    2    1    2    0    0  0.37517712114E+00  0.22944339636E+00 -0.10952957409E+01  0.90007714058E+02  0.89999975084E+02 0.  0.
        -12    1    1    2    0    0 -0.37517712114E+00 -0.22944339636E+00  0.10952957409E+01  0.11802859418E+01  0.00000000000E+00 0.  1.
         11    1    3    3    0    0  0.11989668833E+02 -0.26728653758E+02 -0.20139917436E+02  0.35549815260E+02  0.51100000000E-03 0. -1.
        -11    1    3    3    0    0  0.14065884203E+01 -0.10544916634E+02  0.52437460925E+00  0.10651231234E+02  0.51100000000E-03 0.  1.
        -12    1    3    3    0    0 -0.13021080132E+02  0.37503013788E+02  0.18520247086E+02  0.43806667565E+02  0.00000000000E+00 0.  1.
</event>
<event>
 7    1  0.1910099E-015  0.9000778E+02  0.7816164E-02  0.1186339E+00
        -11   -1    0    0    0    0  0.00000000000E+00  0.00000000000E+00  0.45593999997E+02  0.45594000000E+02  0.51100000000E-03 0.  1.
         11   -1    0    0    0    0 -0.00000000000E+00 -0.00000000000E+00 -0.45593999997E+02  0.45594000000E+02  0.51100000000E-03 0. -1.
    9900012    2    1    2    0    0 -0.95697804414E+00  0.34893014821E+00 -0.59611375308E+00  0.90007783566E+02  0.90000045509E+02 0.  0.
        -12    1    1    2    0    0  0.95697804414E+00 -0.34893014821E+00  0.59611375308E+00  0.11802164343E+01  0.00000000000E+00 0.  1.
         11    1    3    3    0    0  0.24420130107E+02  0.24863319773E+02  0.12003666292E+02  0.36859400826E+02  0.51100000000E-03 0. -1.
        -11    1    3    3    0    0 -0.65777635580E+00  0.91939375502E+01  0.80098211669E+00  0.92521743403E+01  0.51100000000E-03 0.  1.
        -12    1    3    3    0    0 -0.24719331795E+02 -0.33708327175E+02 -0.13400762161E+02  0.43896208399E+02  0.00000000000E+00 0.  1.
</event>
<event>
 7    1  0.1910099E-015  0.9000777E+02  0.7816164E-02  0.1186339E+00
        -11   -1    0    0    0    0  0.00000000000E+00  0.00000000000E+00  0.45593999997E+02  0.45594000000E+02  0.51100000000E-03 0. -1.
         11   -1    0    0    0    0 -0.00000000000E+00 -0.00000000000E+00 -0.45593999997E+02  0.45594000000E+02  0.51100000000E-03 0.  1.
    9900012    2    1    2    0    0  0.71032691002E+00  0.82967714036E+00 -0.44723991084E+00  0.90007766119E+02  0.90000027832E+02 0.  0.
        -12    1    1    2    0    0 -0.71032691002E+00 -0.82967714036E+00  0.44723991084E+00  0.11802338811E+01  0.00000000000E+00 0.  1.
         11    1    3    3    0    0 -0.20806689773E+02 -0.27508565154E+02  0.23918839332E+02  0.41973210163E+02  0.51100000000E-03 0. -1.
        -11    1    3    3    0    0 -0.40150273008E+01  0.67583819393E+01 -0.60187336607E+01  0.99005719937E+01  0.51100000000E-03 0.  1.
        -12    1    3    3    0    0  0.25532043984E+02  0.21579860355E+02 -0.18347345582E+02  0.38133983962E+02  0.00000000000E+00 0.  1.
</event>
<event>
 7    1  0.1910099E-015  0.9000754E+02  0.7816164E-02  0.1186339E+00
        -11   -1    0    0    0    0  0.00000000000E+00  0.00000000000E+00  0.45593999997E+02  0.45594000000E+02  0.51100000000E-03 0.  1.
         11   -1    0    0    0    0 -0.00000000000E+00 -0.00000000000E+00 -0.45593999997E+02  0.45594000000E+02  0.51100000000E-03 0. -1.
    9900012    2    1    2    0    0  0.66550041932E+00 -0.90394380093E+00  0.36535719248E+00  0.90007537768E+02  0.89999796466E+02 0.  0.
        -12    1    1    2    0    0 -0.66550041932E+00  0.90394380093E+00 -0.36535719248E+00  0.11804622321E+01  0.00000000000E+00 0.  1.
         11    1    3    3    0    0  0.26540772605E+02 -0.18373474643E+02 -0.20954646351E+02  0.38484989085E+02  0.51100000000E-03 0. -1.
        -11    1    3    3    0    0  0.60310311256E+01 -0.42180812624E+01 -0.16992620878E+00  0.73616860264E+01  0.51100000000E-03 0.  1.
        -12    1    3    3    0    0 -0.31906303311E+02  0.21687612105E+02  0.21489929752E+02  0.44160862656E+02  0.00000000000E+00 0.  1.
</event>
<event>
 7    1  0.1910099E-015  0.9000767E+02  0.7816164E-02  0.1186339E+00
        -11   -1    0    0    0    0  0.00000000000E+00  0.00000000000E+00  0.45593999997E+02  0.45594000000E+02  0.51100000000E-03 0.  1.
         11   -1    0    0    0    0 -0.00000000000E+00 -0.00000000000E+00 -0.45593999997E+02  0.45594000000E+02  0.51100000000E-03 0. -1.
    9900012    2    1    2    0    0 -0.41226774016E+00 -0.19864130993E+00 -0.10880082377E+01  0.90007667426E+02  0.89999927836E+02 0.  0.
        -12    1    1    2    0    0  0.41226774016E+00  0.19864130993E+00  0.10880082377E+01  0.11803325739E+01  0.00000000000E+00 0.  1.
         11    1    3    3    0    0 -0.26230506421E+02 -0.14950590354E+02 -0.22278408977E+02  0.37521821995E+02  0.51100000000E-03 0. -1.
        -11    1    3    3    0    0 -0.25776088197E+01  0.96086536695E+00 -0.86315333475E+01  0.90592879230E+01  0.51100000000E-03 0.  1.
        -12    1    3    3    0    0  0.28395847501E+02  0.13791083677E+02  0.29821934087E+02  0.43426557508E+02  0.00000000000E+00 0.  1.
</event>
<event>
 7    1  0.1910099E-015  0.9000772E+02  0.7816164E-02  0.1186339E+00
        -11   -1    0    0    0    0  0.00000000000E+00  0.00000000000E+00  0.45593999997E+02  0.45594000000E+02  0.51100000000E-03 0. -1.
         11   -1    0    0    0    0 -0.00000000000E+00 -0.00000000000E+00 -0.45593999997E+02  0.45594000000E+02  0.51100000000E-03 0.  1.
    9900012    2    1    2    0    0  0.64226258453E+00  0.81985407972E+00 -0.55533200589E+00  0.90007722246E+02  0.89999983380E+02 0.  0.
        -12    1    1    2    0    0 -0.64226258453E+00 -0.81985407972E+00  0.55533200589E+00  0.11802777539E+01  0.00000000000E+00 0.  1.
         11    1    3    3    0    0  0.32810995434E+01 -0.91745211638E+01  0.28059206864E+01  0.10139558371E+02  0.51100000000E-03 0. -1.
        -11    1    3    3    0    0  0.17309183343E+01 -0.14918725267E+02 -0.35748050189E+02  0.38774831198E+02  0.51100000000E-03 0.  1.
         12    1    3    3    0    0 -0.43697552932E+01  0.24913100510E+02  0.32386797497E+02  0.41093332677E+02  0.00000000000E+00 0. -1.
</event>
<event>
 7    1  0.1910099E-015  0.9000773E+02  0.7816164E-02  0.1186339E+00
        -11   -1    0    0    0    0  0.00000000000E+00  0.00000000000E+00  0.45593999997E+02  0.45594000000E+02  0.51100000000E-03 0.  1.
         11   -1    0    0    0    0 -0.00000000000E+00 -0.00000000000E+00 -0.45593999997E+02  0.45594000000E+02  0.51100000000E-03 0. -1.
    9900012    2    1    2    0    0  0.38253467771E+00  0.98371636833E+00 -0.52821311677E+00  0.90007728942E+02  0.89999990164E+02 0.  0.
        -12    1    1    2    0    0 -0.38253467771E+00 -0.98371636833E+00  0.52821311677E+00  0.11802710577E+01  0.00000000000E+00 0.  1.
         11    1    3    3    0    0 -0.29832898640E+02  0.52541922668E+01 -0.21880463532E+02  0.37367941638E+02  0.51100000000E-03 0. -1.
        -11    1    3    3    0    0 -0.10699681415E+01  0.33915006621E+01 -0.81930507660E+01  0.89315838282E+01  0.51100000000E-03 0.  1.
        -12    1    3    3    0    0  0.31285401459E+02 -0.76619765606E+01  0.29545301181E+02  0.43708203476E+02  0.00000000000E+00 0.  1.
</event>
<event>
 7    1  0.1910099E-015  0.9000772E+02  0.7816164E-02  0.1186339E+00
        -11   -1    0    0    0    0  0.00000000000E+00  0.00000000000E+00  0.45593999997E+02  0.45594000000E+02  0.51100000000E-03 0. -1.
         11   -1    0    0    0    0 -0.00000000000E+00 -0.00000000000E+00 -0.45593999997E+02  0.45594000000E+02  0.51100000000E-03 0.  1.
    9900012    2    1    2    0    0  0.65632089906E+00 -0.95599339630E+00 -0.21995907854E+00  0.90007719316E+02  0.89999980411E+02 0.  0.
        -12    1    1    2    0    0 -0.65632089906E+00  0.95599339630E+00  0.21995907854E+00  0.11802806838E+01  0.00000000000E+00 0.  1.
         11    1    3    3    0    0  0.37162027922E+02  0.24635877949E+01  0.11810199321E+02  0.39071298831E+02  0.51100000000E-03 0. -1.
        -11    1    3    3    0    0  0.15828694010E+01  0.85284477499E+01 -0.60424545793E+01  0.10571241846E+02  0.51100000000E-03 0.  1.
        -12    1    3    3    0    0 -0.38088576423E+02 -0.11948028941E+02 -0.59877038203E+01  0.40365178639E+02  0.00000000000E+00 0.  1.
</event>
<event>
 7    1  0.1910099E-015  0.9000783E+02  0.7816164E-02  0.1186339E+00
        -11   -1    0    0    0    0  0.00000000000E+00  0.00000000000E+00  0.45593999997E+02  0.45594000000E+02  0.51100000000E-03 0. -1.
         11   -1    0    0    0    0 -0.00000000000E+00 -0.00000000000E+00 -0.45593999997E+02  0.45594000000E+02  0.51100000000E-03 0.  1.
    9900012    2    1    2    0    0 -0.68151991479E-01 -0.50408578366E+00  0.10649246912E+01  0.90007825534E+02  0.90000088031E+02 0.  0.
        -12    1    1    2    0    0  0.68151991479E-01  0.50408578366E+00 -0.10649246912E+01  0.11801744656E+01  0.00000000000E+00 0.  1.
         11    1    3    3    0    0 -0.92071729309E+01  0.37324704766E+02 -0.44307979820E+01  0.38698030832E+02  0.51100000000E-03 0. -1.
        -11    1    3    3    0    0 -0.21472636916E+01  0.34345956860E+01  0.74566744676E+01  0.84858224860E+01  0.51100000000E-03 0.  1.
        -12    1    3    3    0    0  0.11286284631E+02 -0.41263386236E+02 -0.19609517944E+01  0.42823972216E+02  0.00000000000E+00 0.  1.
</event>
<event>
 7    1  0.1910099E-015  0.9000777E+02  0.7816164E-02  0.1186339E+00
        -11   -1    0    0    0    0  0.00000000000E+00  0.00000000000E+00  0.45593999997E+02  0.45594000000E+02  0.51100000000E-03 0.  1.
         11   -1    0    0    0    0 -0.00000000000E+00 -0.00000000000E+00 -0.45593999997E+02  0.45594000000E+02  0.51100000000E-03 0. -1.
    9900012    2    1    2    0    0 -0.35543305645E+00 -0.33040416930E+00 -0.10758408898E+01  0.90007774092E+02  0.90000035910E+02 0.  0.
        -12    1    1    2    0    0  0.35543305645E+00  0.33040416930E+00  0.10758408898E+01  0.11802259075E+01  0.00000000000E+00 0.  1.
         11    1    3    3    0    0 -0.68083654166E+00 -0.80759169406E+01 -0.73673717449E+01  0.10952722927E+02  0.51100000000E-03 0. -1.
        -11    1    3    3    0    0 -0.17153133433E+02  0.47466894754E+01  0.38428454641E+02  0.42349819054E+02  0.51100000000E-03 0.  1.
         12    1    3    3    0    0  0.17478536918E+02  0.29988232959E+01 -0.32136923786E+02  0.36705232112E+02  0.00000000000E+00 0. -1.
</event>
<event>
 7    1  0.1910099E-015  0.9000784E+02  0.7816164E-02  0.1186339E+00
        -11   -1    0    0    0    0  0.00000000000E+00  0.00000000000E+00  0.45593999997E+02  0.45594000000E+02  0.51100000000E-03 0. -1.
         11   -1    0    0    0    0 -0.00000000000E+00 -0.00000000000E+00 -0.45593999997E+02  0.45594000000E+02  0.51100000000E-03 0.  1.
    9900012    2    1    2    0    0 -0.80637719166E+00 -0.81010626783E+00  0.29368760727E+00  0.90007843760E+02  0.90000106497E+02 0.  0.
        -12    1    1    2    0    0  0.80637719166E+00  0.81010626783E+00 -0.29368760727E+00  0.11801562401E+01  0.00000000000E+00 0.  1.
         11    1    3    3    0    0 -0.23356563978E+02 -0.34587437080E+01 -0.37405982899E+02  0.44234596706E+02  0.51100000000E-03 0. -1.
        -11    1    3    3    0    0 -0.16036954465E-01 -0.14210051130E+01  0.86406038958E+01  0.87566859405E+01  0.51100000000E-03 0.  1.
        -12    1    3    3    0    0  0.22566223740E+02  0.40696425532E+01  0.29059066610E+02  0.37016561113E+02  0.00000000000E+00 0.  1.
</event>
<event>
 7    1  0.1910099E-015  0.9000808E+02  0.7816164E-02  0.1186338E+00
        -11   -1    0    0    0    0  0.00000000000E+00  0.00000000000E+00  0.45593999997E+02  0.45594000000E+02  0.51100000000E-03 0. -1.
         11   -1    0    0    0    0 -0.00000000000E+00 -0.00000000000E+00 -0.45593999997E+02  0.45594000000E+02  0.51100000000E-03 0.  1.
    9900012    2    1    2    0    0 -0.43490281859E+00  0.51506601540E+00  0.96839509822E+00  0.90008075202E+02  0.90000340994E+02 0.  0.
        -12    1    1    2    0    0  0.43490281859E+00 -0.51506601540E+00 -0.96839509822E+00  0.11799247976E+01  0.00000000000E+00 0.  1.
         11    1    3    3    0    0  0.65659751789E+00 -0.20684359293E+01 -0.24710878426E+02  0.24805988397E+02  0.51100000000E-03 0. -1.
        -11    1    3    3    0    0 -0.19421780908E+02  0.19483698601E+02 -0.24436145786E+01  0.27618677327E+02  0.51100000000E-03 0.  1.
         12    1    3    3    0    0  0.18330280572E+02 -0.16900196656E+02  0.28122888103E+02  0.37583409479E+02  0.00000000000E+00 0. -1.
</event>
<event>
 7    1  0.1910099E-015  0.9000778E+02  0.7816164E-02  0.1186339E+00
        -11   -1    0    0    0    0  0.00000000000E+00  0.00000000000E+00  0.45593999997E+02  0.45594000000E+02  0.51100000000E-03 0.  1.
         11   -1    0    0    0    0 -0.00000000000E+00 -0.00000000000E+00 -0.45593999997E+02  0.45594000000E+02  0.51100000000E-03 0. -1.
    9900012    2    1    2    0    0 -0.10943370655E+01 -0.24505885093E+00  0.36782100557E+00  0.90007779789E+02  0.90000041683E+02 0.  0.
        -12    1    1    2    0    0  0.10943370655E+01  0.24505885093E+00 -0.36782100557E+00  0.11802202106E+01  0.00000000000E+00 0.  1.
         11    1    3    3    0    0 -0.32828484093E+01  0.45389778418E+01 -0.11084782851E+02  0.12419815806E+02  0.51100000000E-03 0. -1.
        -11    1    3    3    0    0 -0.33896152002E+02  0.67169112608E+01  0.18298352234E+02  0.39101096048E+02  0.51100000000E-03 0.  1.
         12    1    3    3    0    0  0.36084663346E+02 -0.11500947953E+02 -0.68457483772E+01  0.38486867935E+02  0.00000000000E+00 0. -1.
</event>
<event>
 7    1  0.1910099E-015  0.9000738E+02  0.7816164E-02  0.1186340E+00
        -11   -1    0    0    0    0  0.00000000000E+00  0.00000000000E+00  0.45593999997E+02  0.45594000000E+02  0.51100000000E-03 0.  1.
         11   -1    0    0    0    0 -0.00000000000E+00 -0.00000000000E+00 -0.45593999997E+02  0.45594000000E+02  0.51100000000E-03 0. -1.
    9900012    2    1    2    0    0  0.36274617625E+00 -0.73418998111E+00  0.85043448530E+00  0.90007382140E+02  0.89999638784E+02 0.  0.
        -12    1    1    2    0    0 -0.36274617625E+00  0.73418998111E+00 -0.85043448530E+00  0.11806178597E+01  0.00000000000E+00 0.  1.
         11    1    3    3    0    0 -0.61363945631E+01 -0.16264057278E+02 -0.32080710712E+02  0.36487626635E+02  0.51100000000E-03 0. -1.
        -11    1    3    3    0    0 -0.14980829375E+01 -0.41861512436E+01 -0.69892273860E+01  0.82835629072E+01  0.51100000000E-03 0.  1.
        -12    1    3    3    0    0  0.79972236768E+01  0.19716018541E+02  0.39920372583E+02  0.45236192599E+02  0.00000000000E+00 0.  1.
</event>
<event>
 7    1  0.1910099E-015  0.9000775E+02  0.7816164E-02  0.1186339E+00
        -11   -1    0    0    0    0  0.00000000000E+00  0.00000000000E+00  0.45593999997E+02  0.45594000000E+02  0.51100000000E-03 0.  1.
         11   -1    0    0    0    0 -0.00000000000E+00 -0.00000000000E+00 -0.45593999997E+02  0.45594000000E+02  0.51100000000E-03 0. -1.
    9900012    2    1    2    0    0 -0.15417688453E+00  0.14551949317E+00 -0.11610490678E+01  0.90007753681E+02  0.90000015230E+02 0.  0.
        -12    1    1    2    0    0  0.15417688453E+00 -0.14551949317E+00  0.11610490678E+01  0.11802463185E+01  0.00000000000E+00 0.  1.
         11    1    3    3    0    0 -0.25474555036E+01 -0.35457420546E+02 -0.11092431640E+02  0.37239229870E+02  0.51100000000E-03 0. -1.
        -11    1    3    3    0    0  0.82852128275E+01 -0.50768615066E+01 -0.20965952640E+01  0.99405727359E+01  0.51100000000E-03 0.  1.
        -12    1    3    3    0    0 -0.58919342084E+01  0.40679801546E+02  0.12027977836E+02  0.42827951076E+02  0.00000000000E+00 0.  1.
</event>
<event>
 7    1  0.1910099E-015  0.9000769E+02  0.7816164E-02  0.1186339E+00
        -11   -1    0    0    0    0  0.00000000000E+00  0.00000000000E+00  0.45593999997E+02  0.45594000000E+02  0.51100000000E-03 0.  1.
         11   -1    0    0    0    0 -0.00000000000E+00 -0.00000000000E+00 -0.45593999997E+02  0.45594000000E+02  0.51100000000E-03 0. -1.
    9900012    2    1    2    0    0  0.21849596034E+00  0.94709323405E+00 -0.66963675991E+00  0.90007686707E+02  0.89999947372E+02 0.  0.
        -12    1    1    2    0    0 -0.21849596034E+00 -0.94709323405E+00  0.66963675991E+00  0.11803132927E+01  0.00000000000E+00 0.  1.
         11    1    3    3    0    0  0.48076460067E+01 -0.90968979198E+01  0.26502733406E+01  0.10625015808E+02  0.51100000000E-03 0. -1.
        -11    1    3    3    0    0  0.27423207703E+02 -0.18898623463E+02  0.90059423820E+01  0.34500685326E+02  0.51100000000E-03 0.  1.
         12    1    3    3    0    0 -0.32012357749E+02  0.28942614617E+02 -0.12325852483E+02  0.44881985573E+02  0.00000000000E+00 0. -1.
</event>
<event>
 7    1  0.1910099E-015  0.9000774E+02  0.7816164E-02  0.1186339E+00
        -11   -1    0    0    0    0  0.00000000000E+00  0.00000000000E+00  0.45593999997E+02  0.45594000000E+02  0.51100000000E-03 0.  1.
         11   -1    0    0    0    0 -0.00000000000E+00 -0.00000000000E+00 -0.45593999997E+02  0.45594000000E+02  0.51100000000E-03 0. -1.
    9900012    2    1    2    0    0  0.51879615511E+00 -0.50312819288E+00 -0.93312545823E+00  0.90007741321E+02  0.90000002706E+02 0.  0.
        -12    1    1    2    0    0 -0.51879615511E+00  0.50312819288E+00  0.93312545823E+00  0.11802586792E+01  0.00000000000E+00 0.  1.
         11    1    3    3    0    0 -0.68328030825E+01 -0.20631078635E+01  0.80870731179E+01  0.10786304460E+02  0.51100000000E-03 0. -1.
        -11    1    3    3    0    0  0.71357180426E+01 -0.20747218194E+02  0.28259643337E+02  0.35776709974E+02  0.51100000000E-03 0.  1.
         12    1    3    3    0    0  0.21588119500E+00  0.22307197865E+02 -0.37279841913E+02  0.43444726887E+02  0.00000000000E+00 0. -1.
</event>
<event>
 7    1  0.2022439E-015  0.9000775E+02  0.7816164E-02  0.1186339E+00
        -11   -1    0    0    0    0  0.00000000000E+00  0.00000000000E+00  0.45593999997E+02  0.45594000000E+02  0.51100000000E-03 0. -1.
         11   -1    0    0    0    0 -0.00000000000E+00 -0.00000000000E+00 -0.45593999997E+02  0.45594000000E+02  0.51100000000E-03 0.  1.
    9900012    2    1    2    0    0  0.67407077610E+00 -0.20400622784E+00  0.94709921074E+00  0.90007751354E+02  0.90000012872E+02 0.  0.
        -12    1    1    2    0    0 -0.67407077610E+00  0.20400622784E+00 -0.94709921074E+00  0.11802486463E+01  0.00000000000E+00 0.  1.
         11    1    3    3    0    0  0.50017003994E+01 -0.24482029558E+01  0.84783261603E+01  0.10143604849E+02  0.51100000000E-03 0. -1.
        -11    1    3    3    0    0  0.37259647353E+02  0.55575208254E+01 -0.57402541389E+01  0.38106664462E+02  0.51100000000E-03 0.  1.
         12    1    3    3    0    0 -0.41587276976E+02 -0.33133240975E+01 -0.17909728107E+01  0.41757482042E+02  0.00000000000E+00 0. -1.
</event>
<event>
 7    1  0.1910099E-015  0.9000784E+02  0.7816164E-02  0.1186339E+00
        -11   -1    0    0    0    0  0.00000000000E+00  0.00000000000E+00  0.45593999997E+02  0.45594000000E+02  0.51100000000E-03 0. -1.
         11   -1    0    0    0    0 -0.00000000000E+00 -0.00000000000E+00 -0.45593999997E+02  0.45594000000E+02  0.51100000000E-03 0.  1.
    9900012    2    1    2    0    0 -0.16406557206E+00  0.92467819434E+00  0.71472359461E+00  0.90007840226E+02  0.90000102917E+02 0.  0.
        -12    1    1    2    0    0  0.16406557206E+00 -0.92467819434E+00 -0.71472359461E+00  0.11801597738E+01  0.00000000000E+00 0.  1.
         11    1    3    3    0    0  0.22401024545E+02 -0.28897376667E+02  0.13691440174E+02  0.39042538509E+02  0.51100000000E-03 0. -1.
        -11    1    3    3    0    0 -0.19909435588E+01 -0.18823316735E+01  0.74964170752E+01  0.79814345834E+01  0.51100000000E-03 0.  1.
        -12    1    3    3    0    0 -0.20574146558E+02  0.31704386535E+02 -0.20473133655E+02  0.42983867134E+02  0.00000000000E+00 0.  1.
</event>
<event>
 7    1  0.1910099E-015  0.9000776E+02  0.7816164E-02  0.1186339E+00
        -11   -1    0    0    0    0  0.00000000000E+00  0.00000000000E+00  0.45593999997E+02  0.45594000000E+02  0.51100000000E-03 0.  1.
         11   -1    0    0    0    0 -0.00000000000E+00 -0.00000000000E+00 -0.45593999997E+02  0.45594000000E+02  0.51100000000E-03 0. -1.
    9900012    2    1    2    0    0  0.67239830165E+00  0.28115896559E-01  0.96956506301E+00  0.90007760028E+02  0.90000021661E+02 0.  0.
        -12    1    1    2    0    0 -0.67239830165E+00 -0.28115896559E-01 -0.96956506301E+00  0.11802399718E+01  0.00000000000E+00 0.  1.
         11    1    3    3    0    0 -0.50465931324E+01 -0.31926922998E+02  0.17977944043E+02  0.36986524393E+02  0.51100000000E-03 0. -1.
        -11    1    3    3    0    0  0.58266792437E+01 -0.56671084006E+01  0.48941345665E+01  0.94878270458E+01  0.51100000000E-03 0.  1.
        -12    1    3    3    0    0 -0.10768780969E+00  0.37622147295E+02 -0.21902513547E+02  0.43533408590E+02  0.00000000000E+00 0.  1.
</event>
<event>
 7    1  0.1910099E-015  0.9000794E+02  0.7816164E-02  0.1186339E+00
        -11   -1    0    0    0    0  0.00000000000E+00  0.00000000000E+00  0.45593999997E+02  0.45594000000E+02  0.51100000000E-03 0. -1.
         11   -1    0    0    0    0 -0.00000000000E+00 -0.00000000000E+00 -0.45593999997E+02  0.45594000000E+02  0.51100000000E-03 0.  1.
    9900012    2    1    2    0    0 -0.17956101085E+00 -0.51544939508E+00 -0.10462338002E+01  0.90007942628E+02  0.90000206671E+02 0.  0.
        -12    1    1    2    0    0  0.17956101085E+00  0.51544939508E+00  0.10462338002E+01  0.11800573716E+01  0.00000000000E+00 0.  1.
         11    1    3    3    0    0 -0.13040387698E+02  0.28854385010E+02  0.36027687659E+01  0.31868592511E+02  0.51100000000E-03 0. -1.
        -11    1    3    3    0    0 -0.43298669247E+01  0.11631565786E+02  0.35963410344E+01  0.12921870581E+02  0.51100000000E-03 0.  1.
        -12    1    3    3    0    0  0.17190693612E+02 -0.41001400191E+02 -0.82453436006E+01  0.45217479536E+02  0.00000000000E+00 0.  1.
</event>
<event>
 7    1  0.2085518E-015  0.9000772E+02  0.7816164E-02  0.1186339E+00
        -11   -1    0    0    0    0  0.00000000000E+00  0.00000000000E+00  0.45593999997E+02  0.45594000000E+02  0.51100000000E-03 0.  1.
         11   -1    0    0    0    0 -0.00000000000E+00 -0.00000000000E+00 -0.45593999997E+02  0.45594000000E+02  0.51100000000E-03 0. -1.
    9900012    2    1    2    0    0  0.88126219767E+00  0.55640361070E+00 -0.55393671296E+00  0.90007722947E+02  0.89999984090E+02 0.  0.
        -12    1    1    2    0    0 -0.88126219767E+00 -0.55640361070E+00  0.55393671296E+00  0.11802770526E+01  0.00000000000E+00 0.  1.
         11    1    3    3    0    0 -0.97613150482E+01  0.71096169229E+00  0.17791552130E+01  0.99475691268E+01  0.51100000000E-03 0. -1.
        -11    1    3    3    0    0  0.20157676942E+02  0.16634318008E+02  0.31609940993E+02  0.41014885653E+02  0.51100000000E-03 0.  1.
         12    1    3    3    0    0 -0.95150996963E+01 -0.16788876089E+02 -0.33943032919E+02  0.39045268168E+02  0.00000000000E+00 0. -1.
</event>
<event>
 7    1  0.1910099E-015  0.9000774E+02  0.7816164E-02  0.1186339E+00
        -11   -1    0    0    0    0  0.00000000000E+00  0.00000000000E+00  0.45593999997E+02  0.45594000000E+02  0.51100000000E-03 0.  1.
         11   -1    0    0    0    0 -0.00000000000E+00 -0.00000000000E+00 -0.45593999997E+02  0.45594000000E+02  0.51100000000E-03 0. -1.
    9900012    2    1    2    0    0 -0.73174217073E+00  0.33085463247E+00  0.86492848122E+00  0.90007740423E+02  0.90000001796E+02 0.  0.
        -12    1    1    2    0    0  0.73174217073E+00 -0.33085463247E+00 -0.86492848122E+00  0.11802595773E+01  0.00000000000E+00 0.  1.
         11    1    3    3    0    0  0.37712688586E+02  0.15857599069E+02  0.42023300461E-01  0.40911026568E+02  0.51100000000E-03 0. -1.
        -11    1    3    3    0    0  0.88650339068E+00 -0.78052229465E+01  0.41370587519E+01  0.88782120319E+01  0.51100000000E-03 0.  1.
        -12    1    3    3    0    0 -0.39330934147E+02 -0.77215214897E+01 -0.33141535711E+01  0.40218501823E+02  0.00000000000E+00 0.  1.
</event>
<event>
 7    1  0.1910099E-015  0.9000779E+02  0.7816164E-02  0.1186339E+00
        -11   -1    0    0    0    0  0.00000000000E+00  0.00000000000E+00  0.45593999997E+02  0.45594000000E+02  0.51100000000E-03 0. -1.
         11   -1    0    0    0    0 -0.00000000000E+00 -0.00000000000E+00 -0.45593999997E+02  0.45594000000E+02  0.51100000000E-03 0.  1.
    9900012    2    1    2    0    0  0.55490060572E+00  0.10402854870E+01  0.52833156868E-01  0.90007788189E+02  0.90000050193E+02 0.  0.
        -12    1    1    2    0    0 -0.55490060572E+00 -0.10402854870E+01 -0.52833156868E-01  0.11802118111E+01  0.00000000000E+00 0.  1.
         11    1    3    3    0    0 -0.74171585696E+01  0.57440324083E+01  0.12574924519E+01  0.94651696806E+01  0.51100000000E-03 0. -1.
        -11    1    3    3    0    0 -0.75782359984E+01 -0.38998081177E+02  0.10533479475E+02  0.41100294238E+02  0.51100000000E-03 0.  1.
         12    1    3    3    0    0  0.15550295174E+02  0.34294334256E+02 -0.11738138770E+02  0.39442324270E+02  0.00000000000E+00 0. -1.
</event>
<event>
 7    1  0.1910099E-015  0.9000775E+02  0.7816164E-02  0.1186339E+00
        -11   -1    0    0    0    0  0.00000000000E+00  0.00000000000E+00  0.45593999997E+02  0.45594000000E+02  0.51100000000E-03 0.  1.
         11   -1    0    0    0    0 -0.00000000000E+00 -0.00000000000E+00 -0.45593999997E+02  0.45594000000E+02  0.51100000000E-03 0. -1.
    9900012    2    1    2    0    0 -0.77153782385E+00 -0.52442573332E+00 -0.72297475076E+00  0.90007751952E+02  0.90000013478E+02 0.  0.
        -12    1    1    2    0    0  0.77153782385E+00  0.52442573332E+00  0.72297475076E+00  0.11802480475E+01  0.00000000000E+00 0.  1.
         11    1    3    3    0    0 -0.14971508204E+02  0.29129344897E+02 -0.16296269160E+02  0.36581869565E+02  0.51100000000E-03 0. -1.
        -11    1    3    3    0    0 -0.19778424633E+01 -0.45520534280E+01 -0.11871267575E+02  0.12867013846E+02  0.51100000000E-03 0.  1.
        -12    1    3    3    0    0  0.16177812843E+02 -0.25101717202E+02  0.27444561984E+02  0.40558868542E+02  0.00000000000E+00 0.  1.
</event>
<event>
 7    1  0.1910099E-015  0.9000775E+02  0.7816164E-02  0.1186339E+00
        -11   -1    0    0    0    0  0.00000000000E+00  0.00000000000E+00  0.45593999997E+02  0.45594000000E+02  0.51100000000E-03 0.  1.
         11   -1    0    0    0    0 -0.00000000000E+00 -0.00000000000E+00 -0.45593999997E+02  0.45594000000E+02  0.51100000000E-03 0. -1.
    9900012    2    1    2    0    0  0.10454635355E+00  0.15335223354E+00 -0.11655624340E+01  0.90007753146E+02  0.90000014688E+02 0.  0.
        -12    1    1    2    0    0 -0.10454635355E+00 -0.15335223354E+00  0.11655624340E+01  0.11802468535E+01  0.00000000000E+00 0.  1.
         11    1    3    3    0    0 -0.14112510192E+02 -0.27795280286E+02  0.16055729583E+02  0.35064611830E+02  0.51100000000E-03 0. -1.
        -11    1    3    3    0    0  0.66987817742E+01 -0.87452881476E+01  0.42053184487E+01  0.11791456465E+02  0.51100000000E-03 0.  1.
        -12    1    3    3    0    0  0.75182747713E+01  0.36693920668E+02 -0.21426610465E+02  0.43151684852E+02  0.00000000000E+00 0.  1.
</event>
<event>
 7    1  0.1910099E-015  0.9000761E+02  0.7816164E-02  0.1186339E+00
        -11   -1    0    0    0    0  0.00000000000E+00  0.00000000000E+00  0.45593999997E+02  0.45594000000E+02  0.51100000000E-03 0. -1.
         11   -1    0    0    0    0 -0.00000000000E+00 -0.00000000000E+00 -0.45593999997E+02  0.45594000000E+02  0.51100000000E-03 0.  1.
    9900012    2    1    2    0    0 -0.34883643581E+00  0.78865538484E+00 -0.80601368042E+00  0.90007609290E+02  0.89999868933E+02 0.  0.
        -12    1    1    2    0    0  0.34883643581E+00 -0.78865538484E+00  0.80601368042E+00  0.11803907099E+01  0.00000000000E+00 0.  1.
         11    1    3    3    0    0  0.37753383286E+02  0.12506781944E+02  0.12013097775E+02  0.41545782728E+02  0.51100000000E-03 0. -1.
        -11    1    3    3    0    0  0.28999742668E+00 -0.38532430798E+01 -0.81187605330E+01  0.89914322326E+01  0.51100000000E-03 0.  1.
        -12    1    3    3    0    0 -0.38392217148E+02 -0.78648834789E+01 -0.47003509224E+01  0.39470394329E+02  0.00000000000E+00 0.  1.
</event>
<event>
 7    1  0.1910099E-015  0.9000780E+02  0.7816164E-02  0.1186339E+00
        -11   -1    0    0    0    0  0.00000000000E+00  0.00000000000E+00  0.45593999997E+02  0.45594000000E+02  0.51100000000E-03 0.  1.
         11   -1    0    0    0    0 -0.00000000000E+00 -0.00000000000E+00 -0.45593999997E+02  0.45594000000E+02  0.51100000000E-03 0. -1.
    9900012    2    1    2    0    0  0.81515932149E+00  0.70418955293E+00 -0.48218241334E+00  0.90007801913E+02  0.90000064098E+02 0.  0.
        -12    1    1    2    0    0 -0.81515932149E+00 -0.70418955293E+00  0.48218241334E+00  0.11801980874E+01  0.00000000000E+00 0.  1.
         11    1    3    3    0    0  0.12776130648E+02 -0.29891024323E+01 -0.34770942148E+02  0.37164265980E+02  0.51100000000E-03 0. -1.
        -11    1    3    3    0    0  0.10169887041E+01  0.91032150619E+01 -0.54720614712E+01  0.10669875702E+02  0.51100000000E-03 0.  1.
        -12    1    3    3    0    0 -0.12977960030E+02 -0.54099230767E+01  0.39760821206E+02  0.42173660231E+02  0.00000000000E+00 0.  1.
</event>
<event>
 7    1  0.1910099E-015  0.9000779E+02  0.7816164E-02  0.1186339E+00
        -11   -1    0    0    0    0  0.00000000000E+00  0.00000000000E+00  0.45593999997E+02  0.45594000000E+02  0.51100000000E-03 0. -1.
         11   -1    0    0    0    0 -0.00000000000E+00 -0.00000000000E+00 -0.45593999997E+02  0.45594000000E+02  0.51100000000E-03 0.  1.
    9900012    2    1    2    0    0 -0.29303985231E+00 -0.72827635470E+00  0.88127329829E+00  0.90007787549E+02  0.90000049544E+02 0.  0.
        -12    1    1    2    0    0  0.29303985231E+00  0.72827635470E+00 -0.88127329829E+00  0.11802124513E+01  0.00000000000E+00 0.  1.
         11    1    3    3    0    0  0.56313073166E+01 -0.32924638874E+02  0.21713853950E+02  0.39840116977E+02  0.51100000000E-03 0. -1.
        -11    1    3    3    0    0 -0.35735055001E+01  0.31376469772E+01  0.79089503704E+01  0.92285571102E+01  0.51100000000E-03 0.  1.
        -12    1    3    3    0    0 -0.23508416688E+01  0.29058715542E+02 -0.28741531022E+02  0.40939113462E+02  0.00000000000E+00 0.  1.
</event>
<event>
 7    1  0.1910099E-015  0.9000771E+02  0.7816164E-02  0.1186339E+00
        -11   -1    0    0    0    0  0.00000000000E+00  0.00000000000E+00  0.45593999997E+02  0.45594000000E+02  0.51100000000E-03 0.  1.
         11   -1    0    0    0    0 -0.00000000000E+00 -0.00000000000E+00 -0.45593999997E+02  0.45594000000E+02  0.51100000000E-03 0. -1.
    9900012    2    1    2    0    0 -0.66693820693E+00 -0.39130284487E-01 -0.97301133256E+00  0.90007708170E+02  0.89999969118E+02 0.  0.
        -12    1    1    2    0    0  0.66693820693E+00  0.39130284487E-01  0.97301133256E+00  0.11802918302E+01  0.00000000000E+00 0.  1.
         11    1    3    3    0    0  0.16423750530E+02  0.19610371991E+02 -0.30277326153E+02  0.39636129356E+02  0.51100000000E-03 0. -1.
        -11    1    3    3    0    0 -0.27537912114E+01  0.81645502149E+01  0.20078322177E+01  0.88472954468E+01  0.51100000000E-03 0.  1.
        -12    1    3    3    0    0 -0.14336897526E+02 -0.27814052490E+02  0.27296482603E+02  0.41524283367E+02  0.00000000000E+00 0.  1.
</event>
<event>
 7    1  0.1910099E-015  0.9000772E+02  0.7816164E-02  0.1186339E+00
        -11   -1    0    0    0    0  0.00000000000E+00  0.00000000000E+00  0.45593999997E+02  0.45594000000E+02  0.51100000000E-03 0. -1.
         11   -1    0    0    0    0 -0.00000000000E+00 -0.00000000000E+00 -0.45593999997E+02  0.45594000000E+02  0.51100000000E-03 0.  1.
    9900012    2    1    2    0    0  0.10214488552E+00 -0.26161236820E+00  0.11463754989E+01  0.90007724018E+02  0.89999985175E+02 0.  0.
        -12    1    1    2    0    0 -0.10214488552E+00  0.26161236820E+00 -0.11463754989E+01  0.11802759818E+01  0.00000000000E+00 0.  1.
         11    1    3    3    0    0 -0.68369639519E+01 -0.29684916769E+02  0.25729661388E+02  0.39874225197E+02  0.51100000000E-03 0. -1.
        -11    1    3    3    0    0 -0.20318049015E+01 -0.64141335842E+01 -0.43570042147E+01  0.80157860988E+01  0.51100000000E-03 0.  1.
        -12    1    3    3    0    0  0.89709137389E+01  0.35837437985E+02 -0.20226281674E+02  0.42117712723E+02  0.00000000000E+00 0.  1.
</event>
<event>
 7    1  0.1910099E-015  0.9000768E+02  0.7816164E-02  0.1186339E+00
        -11   -1    0    0    0    0  0.00000000000E+00  0.00000000000E+00  0.45593999997E+02  0.45594000000E+02  0.51100000000E-03 0. -1.
         11   -1    0    0    0    0 -0.00000000000E+00 -0.00000000000E+00 -0.45593999997E+02  0.45594000000E+02  0.51100000000E-03 0.  1.
    9900012    2    1    2    0    0 -0.11021165580E+01 -0.34154283679E+00  0.24869895442E+00  0.90007676491E+02  0.89999937020E+02 0.  0.
        -12    1    1    2    0    0  0.11021165580E+01  0.34154283679E+00 -0.24869895442E+00  0.11803235093E+01  0.00000000000E+00 0.  1.
         11    1    3    3    0    0  0.56849428709E+01 -0.37452231187E+02  0.10694943418E+02  0.39362037693E+02  0.51100000000E-03 0. -1.
        -11    1    3    3    0    0  0.86607346724E+01 -0.70890298020E+00 -0.22928274201E+01  0.89870977707E+01  0.51100000000E-03 0.  1.
        -12    1    3    3    0    0 -0.15447794101E+02  0.37819591331E+02 -0.81534170433E+01  0.41658541027E+02  0.00000000000E+00 0.  1.
</event>
<event>
 7    1  0.1910099E-015  0.9000778E+02  0.7816164E-02  0.1186339E+00
        -11   -1    0    0    0    0  0.00000000000E+00  0.00000000000E+00  0.45593999997E+02  0.45594000000E+02  0.51100000000E-03 0.  1.
         11   -1    0    0    0    0 -0.00000000000E+00 -0.00000000000E+00 -0.45593999997E+02  0.45594000000E+02  0.51100000000E-03 0. -1.
    9900012    2    1    2    0    0 -0.10239912313E+01 -0.28916089594E+00 -0.51062843409E+00  0.90007782451E+02  0.90000044379E+02 0.  0.
        -12    1    1    2    0    0  0.10239912313E+01  0.28916089594E+00  0.51062843409E+00  0.11802175491E+01  0.00000000000E+00 0.  1.
         11    1    3    3    0    0  0.22472287795E+01  0.51705103847E+01  0.92040542399E+01  0.10793462352E+02  0.51100000000E-03 0. -1.
        -11    1    3    3    0    0 -0.70437995620E+01 -0.40741024052E+02  0.31653832479E+01  0.41466441907E+02  0.51100000000E-03 0.  1.
         12    1    3    3    0    0  0.37725795512E+01  0.35281352771E+02 -0.12880065922E+02  0.37747878192E+02  0.00000000000E+00 0. -1.
</event>
<event>
 7    1  0.1910099E-015  0.9000770E+02  0.7816164E-02  0.1186339E+00
        -11   -1    0    0    0    0  0.00000000000E+00  0.00000000000E+00  0.45593999997E+02  0.45594000000E+02  0.51100000000E-03 0.  1.
         11   -1    0    0    0    0 -0.00000000000E+00 -0.00000000000E+00 -0.45593999997E+02  0.45594000000E+02  0.51100000000E-03 0. -1.
    9900012    2    1    2    0    0 -0.98966354762E+00  0.10045756065E+00 -0.63528673777E+00  0.90007697116E+02  0.89999957918E+02 0.  0.
        -12    1    1    2    0    0  0.98966354762E+00 -0.10045756065E+00  0.63528673777E+00  0.11803028841E+01  0.00000000000E+00 0.  1.
         11    1    3    3    0    0 -0.19732191455E+02  0.17322659321E+00 -0.29623701517E+02  0.35594284358E+02  0.51100000000E-03 0. -1.
        -11    1    3    3    0    0 -0.57770054163E+01  0.13372969571E+00 -0.81013514938E+01  0.99510588130E+01  0.51100000000E-03 0.  1.
        -12    1    3    3    0    0  0.24519533324E+02 -0.20649872827E+00  0.37089766273E+02  0.44462353945E+02  0.00000000000E+00 0.  1.
</event>
<event>
 7    1  0.1910099E-015  0.9000775E+02  0.7816164E-02  0.1186339E+00
        -11   -1    0    0    0    0  0.00000000000E+00  0.00000000000E+00  0.45593999997E+02  0.45594000000E+02  0.51100000000E-03 0.  1.
         11   -1    0    0    0    0 -0.00000000000E+00 -0.00000000000E+00 -0.45593999997E+02  0.45594000000E+02  0.51100000000E-03 0. -1.
    9900012    2    1    2    0    0  0.33268955675E+00 -0.11140054812E+01 -0.20324664340E+00  0.90007745895E+02  0.90000007341E+02 0.  0.
        -12    1    1    2    0    0 -0.33268955675E+00  0.11140054812E+01  0.20324664340E+00  0.11802541046E+01  0.00000000000E+00 0.  1.
         11    1    3    3    0    0  0.59762497968E+01  0.75622595165E+01 -0.99567435724E+01  0.13857852411E+02  0.51100000000E-03 0. -1.
        -11    1    3    3    0    0  0.58463326720E+01  0.25335289150E+02  0.25977296117E+02  0.36754270443E+02  0.51100000000E-03 0.  1.
         12    1    3    3    0    0 -0.11489892912E+02 -0.34011554148E+02 -0.16223799188E+02  0.39395623041E+02  0.00000000000E+00 0. -1.
</event>
<event>
 7    1  0.1910099E-015  0.9000815E+02  0.7816164E-02  0.1186338E+00
        -11   -1    0    0    0    0  0.00000000000E+00  0.00000000000E+00  0.45593999997E+02  0.45594000000E+02  0.51100000000E-03 0.  1.
         11   -1    0    0    0    0 -0.00000000000E+00 -0.00000000000E+00 -0.45593999997E+02  0.45594000000E+02  0.51100000000E-03 0. -1.
    9900012    2    1    2    0    0  0.32013139155E+00 -0.11291047785E+01 -0.12120369125E+00  0.90008147448E+02  0.90000414194E+02 0.  0.
        -12    1    1    2    0    0 -0.32013139155E+00  0.11291047785E+01  0.12120369125E+00  0.11798525516E+01  0.00000000000E+00 0.  1.
         11    1    3    3    0    0 -0.20188856510E+02  0.91544696060E+01  0.28465344421E+02  0.36078665084E+02  0.51100000000E-03 0. -1.
        -11    1    3    3    0    0 -0.11972529673E+01  0.10350849653E+02  0.25499927980E+01  0.10727346678E+02  0.51100000000E-03 0.  1.
        -12    1    3    3    0    0  0.21706240869E+02 -0.20634424038E+02 -0.31136540910E+02  0.43202135687E+02  0.00000000000E+00 0.  1.
</event>
<event>
 7    1  0.1910099E-015  0.9000780E+02  0.7816164E-02  0.1186339E+00
        -11   -1    0    0    0    0  0.00000000000E+00  0.00000000000E+00  0.45593999997E+02  0.45594000000E+02  0.51100000000E-03 0.  1.
         11   -1    0    0    0    0 -0.00000000000E+00 -0.00000000000E+00 -0.45593999997E+02  0.45594000000E+02  0.51100000000E-03 0. -1.
    9900012    2    1    2    0    0 -0.92034844039E+00  0.62405822477E+00 -0.39546372906E+00  0.90007796000E+02  0.90000058108E+02 0.  0.
        -12    1    1    2    0    0  0.92034844039E+00 -0.62405822477E+00  0.39546372906E+00  0.11802039996E+01  0.00000000000E+00 0.  1.
         11    1    3    3    0    0 -0.41180532134E+01 -0.40083714239E+01  0.55711697581E+01  0.80039575508E+01  0.51100000000E-03 0. -1.
        -11    1    3    3    0    0  0.14765926848E+02 -0.24786329610E+02  0.24686201066E+02  0.37971084454E+02  0.51100000000E-03 0.  1.
         12    1    3    3    0    0 -0.11568222075E+02  0.29418759259E+02 -0.30652834554E+02  0.44032753996E+02  0.00000000000E+00 0. -1.
</event>
<event>
 7    1  0.1910099E-015  0.9000711E+02  0.7816164E-02  0.1186340E+00
        -11   -1    0    0    0    0  0.00000000000E+00  0.00000000000E+00  0.45593999997E+02  0.45594000000E+02  0.51100000000E-03 0. -1.
         11   -1    0    0    0    0 -0.00000000000E+00 -0.00000000000E+00 -0.45593999997E+02  0.45594000000E+02  0.51100000000E-03 0.  1.
    9900012    2    1    2    0    0 -0.46392767387E+00  0.19686006301E+00  0.10679500823E+01  0.90007110442E+02  0.89999363497E+02 0.  0.
        -12    1    1    2    0    0  0.46392767387E+00 -0.19686006301E+00 -0.10679500823E+01  0.11808895585E+01  0.00000000000E+00 0.  1.
         11    1    3    3    0    0 -0.11848404241E+02  0.39611136249E+02 -0.20359470545E+01  0.41395312279E+02  0.51100000000E-03 0. -1.
        -11    1    3    3    0    0  0.18826801768E+01 -0.19531673992E+01  0.91056670263E+01  0.95011851783E+01  0.51100000000E-03 0.  1.
        -12    1    3    3    0    0  0.95017963903E+01 -0.37461108787E+02 -0.60017698895E+01  0.39110612984E+02  0.00000000000E+00 0.  1.
</event>
<event>
 7    1  0.1910099E-015  0.9000772E+02  0.7816164E-02  0.1186339E+00
        -11   -1    0    0    0    0  0.00000000000E+00  0.00000000000E+00  0.45593999997E+02  0.45594000000E+02  0.51100000000E-03 0.  1.
         11   -1    0    0    0    0 -0.00000000000E+00 -0.00000000000E+00 -0.45593999997E+02  0.45594000000E+02  0.51100000000E-03 0. -1.
    9900012    2    1    2    0    0  0.31103902596E+00  0.11350275518E+01 -0.89641421052E-01  0.90007716812E+02  0.89999977874E+02 0.  0.
        -12    1    1    2    0    0 -0.31103902596E+00 -0.11350275518E+01  0.89641421052E-01  0.11802831878E+01  0.00000000000E+00 0.  1.
         11    1    3    3    0    0  0.33598083330E+02  0.28289316597E+01 -0.17657557093E+02  0.38060785338E+02  0.51100000000E-03 0. -1.
        -11    1    3    3    0    0  0.57099065565E+01 -0.74952761611E+01  0.25931554561E+01  0.97727505389E+01  0.51100000000E-03 0.  1.
        -12    1    3    3    0    0 -0.38996950860E+02  0.58013720532E+01  0.14974760216E+02  0.42174180936E+02  0.00000000000E+00 0.  1.
</event>
<event>
 7    1  0.1910099E-015  0.9000770E+02  0.7816164E-02  0.1186339E+00
        -11   -1    0    0    0    0  0.00000000000E+00  0.00000000000E+00  0.45593999997E+02  0.45594000000E+02  0.51100000000E-03 0. -1.
         11   -1    0    0    0    0 -0.00000000000E+00 -0.00000000000E+00 -0.45593999997E+02  0.45594000000E+02  0.51100000000E-03 0.  1.
    9900012    2    1    2    0    0 -0.96997895207E+00 -0.59679762303E+00  0.30997719608E+00  0.90007698160E+02  0.89999958976E+02 0.  0.
        -12    1    1    2    0    0  0.96997895207E+00  0.59679762303E+00 -0.30997719608E+00  0.11803018395E+01  0.00000000000E+00 0.  1.
         11    1    3    3    0    0 -0.94872420836E+01  0.35025704610E+02  0.86226837157E+01  0.37298236158E+02  0.51100000000E-03 0. -1.
        -11    1    3    3    0    0  0.29899664059E+01  0.26630112932E+01  0.93605509762E+01  0.10180935276E+02  0.51100000000E-03 0.  1.
        -12    1    3    3    0    0  0.55272967256E+01 -0.38285513526E+02 -0.17673257496E+02  0.42528526727E+02  0.00000000000E+00 0.  1.
</event>
<event>
 7    1  0.1910099E-015  0.9000774E+02  0.7816164E-02  0.1186339E+00
        -11   -1    0    0    0    0  0.00000000000E+00  0.00000000000E+00  0.45593999997E+02  0.45594000000E+02  0.51100000000E-03 0.  1.
         11   -1    0    0    0    0 -0.00000000000E+00 -0.00000000000E+00 -0.45593999997E+02  0.45594000000E+02  0.51100000000E-03 0. -1.
    9900012    2    1    2    0    0 -0.87215732419E+00  0.50683438489E+00 -0.61275187777E+00  0.90007743945E+02  0.90000005365E+02 0.  0.
        -12    1    1    2    0    0  0.87215732419E+00 -0.50683438489E+00  0.61275187777E+00  0.11802560551E+01  0.00000000000E+00 0.  1.
         11    1    3    3    0    0  0.15713560980E+02 -0.18168640516E+02  0.23706539810E+02  0.33749304095E+02  0.51100000000E-03 0. -1.
        -11    1    3    3    0    0  0.19806163109E+01  0.34293241585E+00  0.11650025664E+02  0.11822163163E+02  0.51100000000E-03 0.  1.
        -12    1    3    3    0    0 -0.18566334615E+02  0.18332542485E+02 -0.35969317352E+02  0.44436276687E+02  0.00000000000E+00 0.  1.
</event>
<event>
 7    1  0.1910099E-015  0.9000773E+02  0.7816164E-02  0.1186339E+00
        -11   -1    0    0    0    0  0.00000000000E+00  0.00000000000E+00  0.45593999997E+02  0.45594000000E+02  0.51100000000E-03 0. -1.
         11   -1    0    0    0    0 -0.00000000000E+00 -0.00000000000E+00 -0.45593999997E+02  0.45594000000E+02  0.51100000000E-03 0.  1.
    9900012    2    1    2    0    0  0.10836066669E+01 -0.23713207240E+00  0.40325130025E+00  0.90007726032E+02  0.89999987216E+02 0.  0.
        -12    1    1    2    0    0 -0.10836066669E+01  0.23713207240E+00 -0.40325130025E+00  0.11802739680E+01  0.00000000000E+00 0.  1.
         11    1    3    3    0    0  0.35310029401E+02 -0.46596329572E+01  0.26652650107E+02  0.44484537916E+02  0.51100000000E-03 0. -1.
        -11    1    3    3    0    0 -0.84015852572E+01  0.55647643914E+01 -0.24164496870E+01  0.10363033673E+02  0.51100000000E-03 0.  1.
        -12    1    3    3    0    0 -0.25824837477E+02 -0.11422635065E+01 -0.23832949120E+02  0.35160154442E+02  0.00000000000E+00 0.  1.
</event>
<event>
 7    1  0.1910099E-015  0.9000766E+02  0.7816164E-02  0.1186339E+00
        -11   -1    0    0    0    0  0.00000000000E+00  0.00000000000E+00  0.45593999997E+02  0.45594000000E+02  0.51100000000E-03 0.  1.
         11   -1    0    0    0    0 -0.00000000000E+00 -0.00000000000E+00 -0.45593999997E+02  0.45594000000E+02  0.51100000000E-03 0. -1.
    9900012    2    1    2    0    0  0.11156512627E+01  0.37785991633E+00  0.75870209197E-01  0.90007655921E+02  0.89999916179E+02 0.  0.
        -12    1    1    2    0    0 -0.11156512627E+01 -0.37785991633E+00 -0.75870209197E-01  0.11803440791E+01  0.00000000000E+00 0.  1.
         11    1    3    3    0    0 -0.20231830139E+02 -0.10679667011E+02 -0.23571123069E+01  0.22998656850E+02  0.51100000000E-03 0. -1.
        -11    1    3    3    0    0  0.10090055620E+02 -0.25025975792E+02 -0.73463252144E+01  0.27965642870E+02  0.51100000000E-03 0.  1.
         12    1    3    3    0    0  0.11257425782E+02  0.36083502719E+02  0.97793077305E+01  0.39043356200E+02  0.00000000000E+00 0. -1.
</event>
<event>
 7    1  0.1910099E-015  0.9000771E+02  0.7816164E-02  0.1186339E+00
        -11   -1    0    0    0    0  0.00000000000E+00  0.00000000000E+00  0.45593999997E+02  0.45594000000E+02  0.51100000000E-03 0. -1.
         11   -1    0    0    0    0 -0.00000000000E+00 -0.00000000000E+00 -0.45593999997E+02  0.45594000000E+02  0.51100000000E-03 0.  1.
    9900012    2    1    2    0    0 -0.39194049887E+00  0.38284206188E+00  0.10454231808E+01  0.90007705534E+02  0.89999966447E+02 0.  0.
        -12    1    1    2    0    0  0.39194049887E+00 -0.38284206188E+00 -0.10454231808E+01  0.11802944658E+01  0.00000000000E+00 0.  1.
         11    1    3    3    0    0  0.45178191639E+00  0.32046233831E+02  0.19594470476E+02  0.37564723919E+02  0.51100000000E-03 0. -1.
        -11    1    3    3    0    0 -0.31546427214E+01 -0.31158008714E+01  0.10653585248E+02  0.11539448196E+02  0.51100000000E-03 0.  1.
        -12    1    3    3    0    0  0.23109203061E+01 -0.28547590897E+02 -0.29202632543E+02  0.40903533419E+02  0.00000000000E+00 0.  1.
</event>
<event>
 7    1  0.1910099E-015  0.9000773E+02  0.7816164E-02  0.1186339E+00
        -11   -1    0    0    0    0  0.00000000000E+00  0.00000000000E+00  0.45593999997E+02  0.45594000000E+02  0.51100000000E-03 0. -1.
         11   -1    0    0    0    0 -0.00000000000E+00 -0.00000000000E+00 -0.45593999997E+02  0.45594000000E+02  0.51100000000E-03 0.  1.
    9900012    2    1    2    0    0 -0.51861535994E+00  0.19017215305E+00  0.10430256877E+01  0.90007733113E+02  0.89999994390E+02 0.  0.
        -12    1    1    2    0    0  0.51861535994E+00 -0.19017215305E+00 -0.10430256877E+01  0.11802668870E+01  0.00000000000E+00 0.  1.
         11    1    3    3    0    0 -0.32498246240E+01  0.31664616251E+00 -0.78262615354E+01  0.84800940301E+01  0.51100000000E-03 0. -1.
        -11    1    3    3    0    0 -0.23574573771E+02 -0.30645251623E+02  0.13540848618E+02  0.40966407667E+02  0.51100000000E-03 0.  1.
         12    1    3    3    0    0  0.26305783035E+02  0.30518777614E+02 -0.46715613947E+01  0.40561231416E+02  0.00000000000E+00 0. -1.
</event>
<event>
 7    1  0.1910099E-015  0.9000781E+02  0.7816164E-02  0.1186339E+00
        -11   -1    0    0    0    0  0.00000000000E+00  0.00000000000E+00  0.45593999997E+02  0.45594000000E+02  0.51100000000E-03 0. -1.
         11   -1    0    0    0    0 -0.00000000000E+00 -0.00000000000E+00 -0.45593999997E+02  0.45594000000E+02  0.51100000000E-03 0.  1.
    9900012    2    1    2    0    0  0.35586885594E+00 -0.48987318047E+00  0.10130256855E+01  0.90007813822E+02  0.90000076164E+02 0.  0.
        -12    1    1    2    0    0 -0.35586885594E+00  0.48987318047E+00 -0.10130256855E+01  0.11801861781E+01  0.00000000000E+00 0.  1.
         11    1    3    3    0    0  0.10275852813E+02  0.62334505193E+01  0.53834877308E+01  0.13169320287E+02  0.51100000000E-03 0. -1.
        -11    1    3    3    0    0  0.89907649789E+01 -0.56161002355E+00 -0.37297899379E+02  0.38370334362E+02  0.51100000000E-03 0.  1.
         12    1    3    3    0    0 -0.18910748936E+02 -0.61617136762E+01  0.32927437334E+02  0.38468159172E+02  0.00000000000E+00 0. -1.
</event>
<event>
 7    1  0.1910099E-015  0.9000778E+02  0.7816164E-02  0.1186339E+00
        -11   -1    0    0    0    0  0.00000000000E+00  0.00000000000E+00  0.45593999997E+02  0.45594000000E+02  0.51100000000E-03 0.  1.
         11   -1    0    0    0    0 -0.00000000000E+00 -0.00000000000E+00 -0.45593999997E+02  0.45594000000E+02  0.51100000000E-03 0. -1.
    9900012    2    1    2    0    0  0.38154569668E+00  0.98050904301E+00  0.53474113347E+00  0.90007778334E+02  0.90000040208E+02 0.  0.
        -12    1    1    2    0    0 -0.38154569668E+00 -0.98050904301E+00 -0.53474113347E+00  0.11802216664E+01  0.00000000000E+00 0.  1.
         11    1    3    3    0    0  0.34994996954E+01  0.68163634779E+01 -0.64814444309E+01  0.10035857280E+02  0.51100000000E-03 0. -1.
        -11    1    3    3    0    0  0.86844803839E+01  0.33659744164E+02 -0.87366779876E+01  0.35843104208E+02  0.51100000000E-03 0.  1.
         12    1    3    3    0    0 -0.11802434383E+02 -0.39495598599E+02  0.15752863552E+02  0.44128816845E+02  0.00000000000E+00 0. -1.
</event>
<event>
 7    1  0.1910099E-015  0.9000774E+02  0.7816164E-02  0.1186339E+00
        -11   -1    0    0    0    0  0.00000000000E+00  0.00000000000E+00  0.45593999997E+02  0.45594000000E+02  0.51100000000E-03 0. -1.
         11   -1    0    0    0    0 -0.00000000000E+00 -0.00000000000E+00 -0.45593999997E+02  0.45594000000E+02  0.51100000000E-03 0.  1.
    9900012    2    1    2    0    0  0.35742298480E-01  0.87993872823E+00  0.78578331329E+00  0.90007735160E+02  0.89999996464E+02 0.  0.
        -12    1    1    2    0    0 -0.35742298480E-01 -0.87993872823E+00 -0.78578331329E+00  0.11802648401E+01  0.00000000000E+00 0.  1.
         11    1    3    3    0    0 -0.23888469130E+02  0.21027637704E+02 -0.16940380199E+02  0.36052697352E+02  0.51100000000E-03 0. -1.
        -11    1    3    3    0    0 -0.78117131670E+01  0.14999919225E+01 -0.49275732817E+01  0.93570196686E+01  0.51100000000E-03 0.  1.
        -12    1    3    3    0    0  0.31735924596E+02 -0.21647690898E+02  0.22653736794E+02  0.44598018139E+02  0.00000000000E+00 0.  1.
</event>
<event>
 7    1  0.1910099E-015  0.9000780E+02  0.7816164E-02  0.1186339E+00
        -11   -1    0    0    0    0  0.00000000000E+00  0.00000000000E+00  0.45593999997E+02  0.45594000000E+02  0.51100000000E-03 0. -1.
         11   -1    0    0    0    0 -0.00000000000E+00 -0.00000000000E+00 -0.45593999997E+02  0.45594000000E+02  0.51100000000E-03 0.  1.
    9900012    2    1    2    0    0  0.44926977022E-01 -0.80450411581E+00 -0.86233565359E+00  0.90007801676E+02  0.90000063858E+02 0.  0.
        -12    1    1    2    0    0 -0.44926977022E-01  0.80450411581E+00  0.86233565359E+00  0.11801983245E+01  0.00000000000E+00 0.  1.
         11    1    3    3    0    0  0.21931315796E+02  0.16997025204E+02  0.32522715290E+02  0.42750537873E+02  0.51100000000E-03 0. -1.
        -11    1    3    3    0    0 -0.64511969612E+01  0.32882119948E+01 -0.60114911408E+01  0.94110736025E+01  0.51100000000E-03 0.  1.
        -12    1    3    3    0    0 -0.15435191857E+02 -0.21089741315E+02 -0.27373559803E+02  0.37846190200E+02  0.00000000000E+00 0.  1.
</event>
<event>
 7    1  0.1910099E-015  0.9000778E+02  0.7816164E-02  0.1186339E+00
        -11   -1    0    0    0    0  0.00000000000E+00  0.00000000000E+00  0.45593999997E+02  0.45594000000E+02  0.51100000000E-03 0. -1.
         11   -1    0    0    0    0 -0.00000000000E+00 -0.00000000000E+00 -0.45593999997E+02  0.45594000000E+02  0.51100000000E-03 0.  1.
    9900012    2    1    2    0    0  0.33603677897E+00  0.10009036783E+01 -0.52744555731E+00  0.90007776417E+02  0.90000038266E+02 0.  0.
        -12    1    1    2    0    0 -0.33603677897E+00 -0.10009036783E+01  0.52744555731E+00  0.11802235830E+01  0.00000000000E+00 0.  1.
         11    1    3    3    0    0 -0.24925286108E+01  0.10968673911E+02 -0.62642826377E+01  0.12875004600E+02  0.51100000000E-03 0. -1.
        -11    1    3    3    0    0 -0.47497341318E+01  0.30803711241E+02 -0.10067670330E+02  0.32753420992E+02  0.51100000000E-03 0.  1.
         12    1    3    3    0    0  0.75782995216E+01 -0.40771481473E+02  0.15804507411E+02  0.44379350825E+02  0.00000000000E+00 0. -1.
</event>
<event>
 7    1  0.1910099E-015  0.9000774E+02  0.7816164E-02  0.1186339E+00
        -11   -1    0    0    0    0  0.00000000000E+00  0.00000000000E+00  0.45593999997E+02  0.45594000000E+02  0.51100000000E-03 0. -1.
         11   -1    0    0    0    0 -0.00000000000E+00 -0.00000000000E+00 -0.45593999997E+02  0.45594000000E+02  0.51100000000E-03 0.  1.
    9900012    2    1    2    0    0  0.11789077430E+01  0.53419275952E-01  0.18508917653E-01  0.90007737459E+02  0.89999998794E+02 0.  0.
        -12    1    1    2    0    0 -0.11789077430E+01 -0.53419275952E-01 -0.18508917653E-01  0.11802625409E+01  0.00000000000E+00 0.  1.
         11    1    3    3    0    0  0.45273425637E+01 -0.62467754662E+01  0.51439138082E+01  0.92724799240E+01  0.51100000000E-03 0. -1.
        -11    1    3    3    0    0 -0.30049966565E+02 -0.35095908304E+01  0.25040136140E+02  0.39272460281E+02  0.51100000000E-03 0.  1.
         12    1    3    3    0    0  0.26701531744E+02  0.98097855726E+01 -0.30165541031E+02  0.41462797254E+02  0.00000000000E+00 0. -1.
</event>
<event>
 7    1  0.1910099E-015  0.9000788E+02  0.7816164E-02  0.1186339E+00
        -11   -1    0    0    0    0  0.00000000000E+00  0.00000000000E+00  0.45593999997E+02  0.45594000000E+02  0.51100000000E-03 0.  1.
         11   -1    0    0    0    0 -0.00000000000E+00 -0.00000000000E+00 -0.45593999997E+02  0.45594000000E+02  0.51100000000E-03 0. -1.
    9900012    2    1    2    0    0  0.60003817780E+00 -0.88165910017E+00  0.50528727866E+00  0.90007879744E+02  0.90000142957E+02 0.  0.
        -12    1    1    2    0    0 -0.60003817780E+00  0.88165910017E+00 -0.50528727866E+00  0.11801202556E+01  0.00000000000E+00 0.  1.
         11    1    3    3    0    0  0.12909089385E+02 -0.49869368676E-01  0.17480740833E+01  0.13027004221E+02  0.51100000000E-03 0. -1.
        -11    1    3    3    0    0  0.42537548269E+01 -0.36517986001E+02 -0.63467524796E+01  0.37308698704E+02  0.51100000000E-03 0.  1.
         12    1    3    3    0    0 -0.16562806034E+02  0.35686196270E+02  0.51039656750E+01  0.39672176819E+02  0.00000000000E+00 0. -1.
</event>
<event>
 7    1  0.1910099E-015  0.9000784E+02  0.7816164E-02  0.1186339E+00
        -11   -1    0    0    0    0  0.00000000000E+00  0.00000000000E+00  0.45593999997E+02  0.45594000000E+02  0.51100000000E-03 0.  1.
         11   -1    0    0    0    0 -0.00000000000E+00 -0.00000000000E+00 -0.45593999997E+02  0.45594000000E+02  0.51100000000E-03 0. -1.
    9900012    2    1    2    0    0 -0.10509620057E+01  0.90687705480E-01  0.52917798369E+00  0.90007841224E+02  0.90000103928E+02 0.  0.
        -12    1    1    2    0    0  0.10509620057E+01 -0.90687705480E-01 -0.52917798369E+00  0.11801587757E+01  0.00000000000E+00 0.  1.
         11    1    3    3    0    0  0.30432331201E+02 -0.25412968259E+02  0.16204703902E+02  0.42831509043E+02  0.51100000000E-03 0. -1.
        -11    1    3    3    0    0 -0.31550671339E+01  0.81009749109E+01  0.28094948072E+01  0.91363835548E+01  0.51100000000E-03 0.  1.
        -12    1    3    3    0    0 -0.28328226073E+02  0.17402681053E+02 -0.18485020726E+02  0.38039948627E+02  0.00000000000E+00 0.  1.
</event>
<event>
 7    1  0.1910099E-015  0.9000773E+02  0.7816164E-02  0.1186339E+00
        -11   -1    0    0    0    0  0.00000000000E+00  0.00000000000E+00  0.45593999997E+02  0.45594000000E+02  0.51100000000E-03 0. -1.
         11   -1    0    0    0    0 -0.00000000000E+00 -0.00000000000E+00 -0.45593999997E+02  0.45594000000E+02  0.51100000000E-03 0.  1.
    9900012    2    1    2    0    0 -0.54962157339E+00  0.10342234520E+01  0.14608871913E+00  0.90007727177E+02  0.89999988376E+02 0.  0.
        -12    1    1    2    0    0  0.54962157339E+00 -0.10342234520E+01 -0.14608871913E+00  0.11802728229E+01  0.00000000000E+00 0.  1.
         11    1    3    3    0    0 -0.11545295998E+02 -0.14962267413E+02  0.36212234121E+02  0.40847144406E+02  0.51100000000E-03 0. -1.
        -11    1    3    3    0    0  0.22748701052E+01  0.85295591641E+01  0.22926350553E+01  0.91205586061E+01  0.51100000000E-03 0.  1.
        -12    1    3    3    0    0  0.87208043197E+01  0.74669317013E+01 -0.38358780457E+02  0.40040024165E+02  0.00000000000E+00 0.  1.
</event>
<event>
 7    1  0.1910099E-015  0.9000772E+02  0.7816164E-02  0.1186339E+00
        -11   -1    0    0    0    0  0.00000000000E+00  0.00000000000E+00  0.45593999997E+02  0.45594000000E+02  0.51100000000E-03 0.  1.
         11   -1    0    0    0    0 -0.00000000000E+00 -0.00000000000E+00 -0.45593999997E+02  0.45594000000E+02  0.51100000000E-03 0. -1.
    9900012    2    1    2    0    0 -0.24009922823E+00 -0.77917411452E+00 -0.85340065519E+00  0.90007723499E+02  0.89999984649E+02 0.  0.
        -12    1    1    2    0    0  0.24009922823E+00  0.77917411452E+00  0.85340065519E+00  0.11802765008E+01  0.00000000000E+00 0.  1.
         11    1    3    3    0    0 -0.38075956875E+02  0.67475880564E+01  0.69895892719E+01  0.39295836865E+02  0.51100000000E-03 0. -1.
        -11    1    3    3    0    0 -0.23342413994E+01  0.50117776544E+01 -0.66032043638E+01  0.86121371505E+01  0.51100000000E-03 0.  1.
        -12    1    3    3    0    0  0.40170099046E+02 -0.12538539825E+02 -0.12397855633E+01  0.42099749483E+02  0.00000000000E+00 0.  1.
</event>
<event>
 7    1  0.1910099E-015  0.9000777E+02  0.7816164E-02  0.1186339E+00
        -11   -1    0    0    0    0  0.00000000000E+00  0.00000000000E+00  0.45593999997E+02  0.45594000000E+02  0.51100000000E-03 0.  1.
         11   -1    0    0    0    0 -0.00000000000E+00 -0.00000000000E+00 -0.45593999997E+02  0.45594000000E+02  0.51100000000E-03 0. -1.
    9900012    2    1    2    0    0 -0.11610856026E+01 -0.56469710609E-01 -0.20405192925E+00  0.90007768754E+02  0.90000030501E+02 0.  0.
        -12    1    1    2    0    0  0.11610856026E+01  0.56469710609E-01  0.20405192925E+00  0.11802312463E+01  0.00000000000E+00 0.  1.
         11    1    3    3    0    0 -0.19936142734E+02  0.10078622190E+02 -0.29056040036E+02  0.36650810021E+02  0.51100000000E-03 0. -1.
        -11    1    3    3    0    0 -0.92128283690E+01 -0.27390294661E+01 -0.32350487646E+01  0.10141204551E+02  0.51100000000E-03 0.  1.
        -12    1    3    3    0    0  0.27987885500E+02 -0.73960624345E+01  0.32087036872E+02  0.43215754182E+02  0.00000000000E+00 0.  1.
</event>
<event>
 7    1  0.1910099E-015  0.9000780E+02  0.7816164E-02  0.1186339E+00
        -11   -1    0    0    0    0  0.00000000000E+00  0.00000000000E+00  0.45593999997E+02  0.45594000000E+02  0.51100000000E-03 0.  1.
         11   -1    0    0    0    0 -0.00000000000E+00 -0.00000000000E+00 -0.45593999997E+02  0.45594000000E+02  0.51100000000E-03 0. -1.
    9900012    2    1    2    0    0  0.93458959467E+00 -0.56539540347E+00 -0.44692797820E+00  0.90007799047E+02  0.90000061194E+02 0.  0.
        -12    1    1    2    0    0 -0.93458959467E+00  0.56539540347E+00  0.44692797820E+00  0.11802009534E+01  0.00000000000E+00 0.  1.
         11    1    3    3    0    0  0.29277329917E+02 -0.24124837321E+01 -0.27296462874E+02  0.40100860471E+02  0.51100000000E-03 0. -1.
        -11    1    3    3    0    0 -0.14420977094E+00  0.94771339136E+01 -0.10195761551E+01  0.95329113849E+01  0.51100000000E-03 0.  1.
        -12    1    3    3    0    0 -0.28198530551E+02 -0.76300455850E+01  0.27869111050E+02  0.40374027191E+02  0.00000000000E+00 0.  1.
</event>
<event>
 7    1  0.1910099E-015  0.9000772E+02  0.7816164E-02  0.1186339E+00
        -11   -1    0    0    0    0  0.00000000000E+00  0.00000000000E+00  0.45593999997E+02  0.45594000000E+02  0.51100000000E-03 0. -1.
         11   -1    0    0    0    0 -0.00000000000E+00 -0.00000000000E+00 -0.45593999997E+02  0.45594000000E+02  0.51100000000E-03 0.  1.
    9900012    2    1    2    0    0  0.71477862030E+00  0.88381396847E+00 -0.31784175246E+00  0.90007720801E+02  0.89999981916E+02 0.  0.
        -12    1    1    2    0    0 -0.71477862030E+00 -0.88381396847E+00  0.31784175246E+00  0.11802791985E+01  0.00000000000E+00 0.  1.
         11    1    3    3    0    0  0.26883016917E+01 -0.30208825197E+02  0.11864037686E+02  0.32566170733E+02  0.51100000000E-03 0. -1.
        -11    1    3    3    0    0 -0.10026756496E+02 -0.87744899019E+01  0.36206647441E+01  0.13807126143E+02  0.51100000000E-03 0.  1.
        -12    1    3    3    0    0  0.80532334247E+01  0.39867129067E+02 -0.15802544182E+02  0.43634423925E+02  0.00000000000E+00 0.  1.
</event>
<event>
 7    1  0.1910099E-015  0.9000773E+02  0.7816164E-02  0.1186339E+00
        -11   -1    0    0    0    0  0.00000000000E+00  0.00000000000E+00  0.45593999997E+02  0.45594000000E+02  0.51100000000E-03 0.  1.
         11   -1    0    0    0    0 -0.00000000000E+00 -0.00000000000E+00 -0.45593999997E+02  0.45594000000E+02  0.51100000000E-03 0. -1.
    9900012    2    1    2    0    0  0.97460963653E+00  0.44337881045E+00  0.49657003997E+00  0.90007732862E+02  0.89999994135E+02 0.  0.
        -12    1    1    2    0    0 -0.97460963653E+00 -0.44337881045E+00 -0.49657003997E+00  0.11802671383E+01  0.00000000000E+00 0.  1.
         11    1    3    3    0    0 -0.14289031795E+02 -0.25517238896E+02 -0.18519728784E+02  0.34616271679E+02  0.51100000000E-03 0. -1.
        -11    1    3    3    0    0 -0.36480932174E+01 -0.60993565118E+01 -0.70022928574E+01  0.99771157908E+01  0.51100000000E-03 0.  1.
        -12    1    3    3    0    0  0.18911734649E+02  0.32059974218E+02  0.26018591681E+02  0.45414345392E+02  0.00000000000E+00 0.  1.
</event>
<event>
 7    1  0.1910099E-015  0.9000765E+02  0.7816164E-02  0.1186339E+00
        -11   -1    0    0    0    0  0.00000000000E+00  0.00000000000E+00  0.45593999997E+02  0.45594000000E+02  0.51100000000E-03 0.  1.
         11   -1    0    0    0    0 -0.00000000000E+00 -0.00000000000E+00 -0.45593999997E+02  0.45594000000E+02  0.51100000000E-03 0. -1.
    9900012    2    1    2    0    0  0.52948647289E+00 -0.47071229257E+00 -0.94408201423E+00  0.90007653933E+02  0.89999914165E+02 0.  0.
        -12    1    1    2    0    0 -0.52948647289E+00  0.47071229257E+00  0.94408201423E+00  0.11803460666E+01  0.00000000000E+00 0.  1.
         11    1    3    3    0    0 -0.42309333656E+01  0.73086338198E+01 -0.39419242842E+01  0.93196401636E+01  0.51100000000E-03 0. -1.
        -11    1    3    3    0    0 -0.32440477256E+02  0.16005797857E+02  0.48305784600E+01  0.36495268435E+02  0.51100000000E-03 0.  1.
         12    1    3    3    0    0  0.37200897094E+02 -0.23785143969E+02 -0.18327361901E+01  0.44192745335E+02  0.00000000000E+00 0. -1.
</event>
<event>
 7    1  0.1973023E-015  0.9000774E+02  0.7816164E-02  0.1186339E+00
        -11   -1    0    0    0    0  0.00000000000E+00  0.00000000000E+00  0.45593999997E+02  0.45594000000E+02  0.51100000000E-03 0. -1.
         11   -1    0    0    0    0 -0.00000000000E+00 -0.00000000000E+00 -0.45593999997E+02  0.45594000000E+02  0.51100000000E-03 0.  1.
    9900012    2    1    2    0    0 -0.95310781270E+00 -0.36765064694E+00  0.59113254244E+00  0.90007737663E+02  0.89999999000E+02 0.  0.
        -12    1    1    2    0    0  0.95310781270E+00  0.36765064694E+00 -0.59113254244E+00  0.11802623367E+01  0.00000000000E+00 0.  1.
         11    1    3    3    0    0 -0.77623189982E+01 -0.25556076363E+00  0.55389113141E+01  0.95393105799E+01  0.51100000000E-03 0. -1.
        -11    1    3    3    0    0 -0.65575037763E+01 -0.15452645107E+01 -0.41229455019E+02  0.41776269096E+02  0.51100000000E-03 0.  1.
         12    1    3    3    0    0  0.13366714962E+02  0.14331746274E+01  0.36281676247E+02  0.38692157987E+02  0.00000000000E+00 0. -1.
</event>
<event>
 7    1  0.1910099E-015  0.9000776E+02  0.7816164E-02  0.1186339E+00
        -11   -1    0    0    0    0  0.00000000000E+00  0.00000000000E+00  0.45593999997E+02  0.45594000000E+02  0.51100000000E-03 0. -1.
         11   -1    0    0    0    0 -0.00000000000E+00 -0.00000000000E+00 -0.45593999997E+02  0.45594000000E+02  0.51100000000E-03 0.  1.
    9900012    2    1    2    0    0 -0.74214487521E+00 -0.85645393632E+00  0.32964960693E+00  0.90007762217E+02  0.90000023878E+02 0.  0.
        -12    1    1    2    0    0  0.74214487521E+00  0.85645393632E+00 -0.32964960693E+00  0.11802377829E+01  0.00000000000E+00 0.  1.
         11    1    3    3    0    0 -0.57346289561E+01  0.23167090291E+02  0.28156193394E+02  0.36910313850E+02  0.51100000000E-03 0. -1.
        -11    1    3    3    0    0  0.38633606283E+01  0.96358425512E+01 -0.18043884919E+01  0.10537117021E+02  0.51100000000E-03 0.  1.
        -12    1    3    3    0    0  0.11291234526E+01 -0.33659386779E+02 -0.26022155295E+02  0.42560331346E+02  0.00000000000E+00 0.  1.
</event>
<event>
 7    1  0.1910099E-015  0.9000771E+02  0.7816164E-02  0.1186339E+00
        -11   -1    0    0    0    0  0.00000000000E+00  0.00000000000E+00  0.45593999997E+02  0.45594000000E+02  0.51100000000E-03 0.  1.
         11   -1    0    0    0    0 -0.00000000000E+00 -0.00000000000E+00 -0.45593999997E+02  0.45594000000E+02  0.51100000000E-03 0. -1.
    9900012    2    1    2    0    0 -0.45117804758E+00 -0.10906483002E+01  0.15547471833E-02  0.90007712847E+02  0.89999973857E+02 0.  0.
        -12    1    1    2    0    0  0.45117804758E+00  0.10906483002E+01 -0.15547471833E-02  0.11802871526E+01  0.00000000000E+00 0.  1.
         11    1    3    3    0    0  0.30528529337E+02 -0.16239435901E+02  0.12984014206E+02  0.36936364291E+02  0.51100000000E-03 0. -1.
        -11    1    3    3    0    0  0.22761083751E+00 -0.39235581396E+01  0.94025075450E+01  0.10190842142E+02  0.51100000000E-03 0.  1.
        -12    1    3    3    0    0 -0.31207318222E+02  0.19072345740E+02 -0.22384967004E+02  0.42880506415E+02  0.00000000000E+00 0.  1.
</event>
<event>
 7    1  0.1910099E-015  0.9000770E+02  0.7816164E-02  0.1186339E+00
        -11   -1    0    0    0    0  0.00000000000E+00  0.00000000000E+00  0.45593999997E+02  0.45594000000E+02  0.51100000000E-03 0. -1.
         11   -1    0    0    0    0 -0.00000000000E+00 -0.00000000000E+00 -0.45593999997E+02  0.45594000000E+02  0.51100000000E-03 0.  1.
    9900012    2    1    2    0    0 -0.68949490028E+00 -0.87036574190E+00 -0.40022128469E+00  0.90007696302E+02  0.89999957093E+02 0.  0.
        -12    1    1    2    0    0  0.68949490028E+00  0.87036574190E+00  0.40022128469E+00  0.11803036977E+01  0.00000000000E+00 0.  1.
         11    1    3    3    0    0 -0.34168292899E+01  0.64797029525E+01  0.44501840309E+01  0.85711965862E+01  0.51100000000E-03 0. -1.
        -11    1    3    3    0    0  0.24534911269E+02  0.12121787348E+02  0.26832376199E+02  0.38325918282E+02  0.51100000000E-03 0.  1.
         12    1    3    3    0    0 -0.21807576879E+02 -0.19471856042E+02 -0.31682781514E+02  0.43110581434E+02  0.00000000000E+00 0. -1.
</event>
<event>
 7    1  0.1910099E-015  0.9000827E+02  0.7816164E-02  0.1186338E+00
        -11   -1    0    0    0    0  0.00000000000E+00  0.00000000000E+00  0.45593999997E+02  0.45594000000E+02  0.51100000000E-03 0. -1.
         11   -1    0    0    0    0 -0.00000000000E+00 -0.00000000000E+00 -0.45593999997E+02  0.45594000000E+02  0.51100000000E-03 0.  1.
    9900012    2    1    2    0    0  0.21398941225E+00 -0.55907793611E-01  0.11588101392E+01  0.90008272028E+02  0.90000540417E+02 0.  0.
        -12    1    1    2    0    0 -0.21398941225E+00  0.55907793611E-01 -0.11588101392E+01  0.11797279723E+01  0.00000000000E+00 0.  1.
         11    1    3    3    0    0  0.47517754622E+01 -0.23316235334E+01 -0.69763189577E+01  0.87569894830E+01  0.51100000000E-03 0. -1.
        -11    1    3    3    0    0 -0.28201363295E+02 -0.23367214082E+02  0.23082556546E+02  0.43291431053E+02  0.51100000000E-03 0.  1.
         12    1    3    3    0    0  0.23663577246E+02  0.25642929822E+02 -0.14947427449E+02  0.37959851491E+02  0.00000000000E+00 0. -1.
</event>
<event>
 7    1  0.1910099E-015  0.9000785E+02  0.7816164E-02  0.1186339E+00
        -11   -1    0    0    0    0  0.00000000000E+00  0.00000000000E+00  0.45593999997E+02  0.45594000000E+02  0.51100000000E-03 0. -1.
         11   -1    0    0    0    0 -0.00000000000E+00 -0.00000000000E+00 -0.45593999997E+02  0.45594000000E+02  0.51100000000E-03 0.  1.
    9900012    2    1    2    0    0 -0.72780095441E+00  0.50754865400E+00  0.77811528505E+00  0.90007846085E+02  0.90000108854E+02 0.  0.
        -12    1    1    2    0    0  0.72780095441E+00 -0.50754865400E+00 -0.77811528505E+00  0.11801539146E+01  0.00000000000E+00 0.  1.
         11    1    3    3    0    0  0.25022363874E+02 -0.19243147644E+02  0.25226605377E+02  0.40407908188E+02  0.51100000000E-03 0. -1.
        -11    1    3    3    0    0 -0.42717068007E+01 -0.71846827224E+01 -0.23941641905E+01  0.86947781596E+01  0.51100000000E-03 0.  1.
        -12    1    3    3    0    0 -0.21478458027E+02  0.26935379020E+02 -0.22054325901E+02  0.40905159737E+02  0.00000000000E+00 0.  1.
</event>
<event>
 7    1  0.1910099E-015  0.9000769E+02  0.7816164E-02  0.1186339E+00
        -11   -1    0    0    0    0  0.00000000000E+00  0.00000000000E+00  0.45593999997E+02  0.45594000000E+02  0.51100000000E-03 0.  1.
         11   -1    0    0    0    0 -0.00000000000E+00 -0.00000000000E+00 -0.45593999997E+02  0.45594000000E+02  0.51100000000E-03 0. -1.
    9900012    2    1    2    0    0 -0.15311874026E+00  0.10923385375E+01 -0.42009922373E+00  0.90007689792E+02  0.89999950497E+02 0.  0.
        -12    1    1    2    0    0  0.15311874026E+00 -0.10923385375E+01  0.42009922373E+00  0.11803102080E+01  0.00000000000E+00 0.  1.
         11    1    3    3    0    0  0.54459429345E+01 -0.23576086928E+01  0.83743510722E+01  0.10263837944E+02  0.51100000000E-03 0. -1.
        -11    1    3    3    0    0 -0.37650819710E+02 -0.97031084895E+01  0.10249357129E+02  0.40209250938E+02  0.51100000000E-03 0.  1.
         12    1    3    3    0    0  0.32051758035E+02  0.13153055720E+02 -0.19043807425E+02  0.39534600910E+02  0.00000000000E+00 0. -1.
</event>
<event>
 7    1  0.1910099E-015  0.9000777E+02  0.7816164E-02  0.1186339E+00
        -11   -1    0    0    0    0  0.00000000000E+00  0.00000000000E+00  0.45593999997E+02  0.45594000000E+02  0.51100000000E-03 0.  1.
         11   -1    0    0    0    0 -0.00000000000E+00 -0.00000000000E+00 -0.45593999997E+02  0.45594000000E+02  0.51100000000E-03 0. -1.
    9900012    2    1    2    0    0 -0.64532246389E+00  0.10907918929E+00 -0.98214113197E+00  0.90007770973E+02  0.90000032750E+02 0.  0.
        -12    1    1    2    0    0  0.64532246389E+00 -0.10907918929E+00  0.98214113197E+00  0.11802290265E+01  0.00000000000E+00 0.  1.
         11    1    3    3    0    0  0.87522603742E+01 -0.18698071384E+01 -0.79791035379E+00  0.89852602403E+01  0.51100000000E-03 0. -1.
        -11    1    3    3    0    0  0.33150205332E+02  0.88982286011E+01 -0.11940672126E+02  0.36341357113E+02  0.51100000000E-03 0.  1.
         12    1    3    3    0    0 -0.42547788170E+02 -0.69193422734E+01  0.11756441348E+02  0.44681153620E+02  0.00000000000E+00 0. -1.
</event>
<event>
 7    1  0.1910099E-015  0.9000788E+02  0.7816164E-02  0.1186339E+00
        -11   -1    0    0    0    0  0.00000000000E+00  0.00000000000E+00  0.45593999997E+02  0.45594000000E+02  0.51100000000E-03 0.  1.
         11   -1    0    0    0    0 -0.00000000000E+00 -0.00000000000E+00 -0.45593999997E+02  0.45594000000E+02  0.51100000000E-03 0. -1.
    9900012    2    1    2    0    0  0.18077633378E+00  0.11474121105E+01  0.20841534530E+00  0.90007884925E+02  0.90000148206E+02 0.  0.
        -12    1    1    2    0    0 -0.18077633378E+00 -0.11474121105E+01 -0.20841534530E+00  0.11801150751E+01  0.00000000000E+00 0.  1.
         11    1    3    3    0    0  0.42704486389E+01 -0.53597577202E+01  0.89762543301E+01  0.11293222589E+02  0.51100000000E-03 0. -1.
        -11    1    3    3    0    0  0.20907666456E+02  0.12580840300E+02  0.25874580343E+02  0.35565460315E+02  0.51100000000E-03 0.  1.
         12    1    3    3    0    0 -0.24997338761E+02 -0.60736704688E+01 -0.34642419327E+02  0.43149202020E+02  0.00000000000E+00 0. -1.
</event>
<event>
 7    1  0.1910099E-015  0.9000774E+02  0.7816164E-02  0.1186339E+00
        -11   -1    0    0    0    0  0.00000000000E+00  0.00000000000E+00  0.45593999997E+02  0.45594000000E+02  0.51100000000E-03 0. -1.
         11   -1    0    0    0    0 -0.00000000000E+00 -0.00000000000E+00 -0.45593999997E+02  0.45594000000E+02  0.51100000000E-03 0.  1.
    9900012    2    1    2    0    0 -0.11338493608E+01 -0.20407063490E+00 -0.25642343080E+00  0.90007740633E+02  0.90000002010E+02 0.  0.
        -12    1    1    2    0    0  0.11338493608E+01  0.20407063490E+00  0.25642343080E+00  0.11802593668E+01  0.00000000000E+00 0.  1.
         11    1    3    3    0    0  0.26473666542E+02 -0.22824560161E+02 -0.16023297898E+01  0.34991185001E+02  0.51100000000E-03 0. -1.
        -11    1    3    3    0    0  0.58789234532E+01 -0.68083856928E+01 -0.44939423264E+01  0.10055415188E+02  0.51100000000E-03 0.  1.
        -12    1    3    3    0    0 -0.33486439356E+02  0.29428875219E+02  0.58398486854E+01  0.44961140445E+02  0.00000000000E+00 0.  1.
</event>
<event>
 7    1  0.1910099E-015  0.9000777E+02  0.7816164E-02  0.1186339E+00
        -11   -1    0    0    0    0  0.00000000000E+00  0.00000000000E+00  0.45593999997E+02  0.45594000000E+02  0.51100000000E-03 0.  1.
         11   -1    0    0    0    0 -0.00000000000E+00 -0.00000000000E+00 -0.45593999997E+02  0.45594000000E+02  0.51100000000E-03 0. -1.
    9900012    2    1    2    0    0 -0.37906773932E+00  0.11175235007E+01  0.19878691500E-01  0.90007768545E+02  0.90000030290E+02 0.  0.
        -12    1    1    2    0    0  0.37906773932E+00 -0.11175235007E+01 -0.19878691500E-01  0.11802314552E+01  0.00000000000E+00 0.  1.
         11    1    3    3    0    0 -0.23270124050E+01 -0.38712076671E+02 -0.13520651637E+02  0.41071253790E+02  0.51100000000E-03 0. -1.
        -11    1    3    3    0    0 -0.63503945957E+01  0.24443153335E+01  0.75698821913E+01  0.10178669148E+02  0.51100000000E-03 0.  1.
        -12    1    3    3    0    0  0.82983392614E+01  0.37385284838E+02  0.59706481374E+01  0.38757845607E+02  0.00000000000E+00 0.  1.
</event>
<event>
 7    1  0.2641814E-015  0.9000789E+02  0.7816164E-02  0.1186339E+00
        -11   -1    0    0    0    0  0.00000000000E+00  0.00000000000E+00  0.45593999997E+02  0.45594000000E+02  0.51100000000E-03 0. -1.
         11   -1    0    0    0    0 -0.00000000000E+00 -0.00000000000E+00 -0.45593999997E+02  0.45594000000E+02  0.51100000000E-03 0.  1.
    9900012    2    1    2    0    0  0.74033700197E+00 -0.13258308081E+00  0.90939219899E+00  0.90007885039E+02  0.90000148321E+02 0.  0.
        -12    1    1    2    0    0 -0.74033700197E+00  0.13258308081E+00 -0.90939219899E+00  0.11801149611E+01  0.00000000000E+00 0.  1.
         11    1    3    3    0    0  0.52517130843E+01 -0.67558799256E+01  0.48310004018E+01  0.98265441043E+01  0.51100000000E-03 0. -1.
        -11    1    3    3    0    0  0.20733149864E+02 -0.72213285597E+01 -0.32756319766E+02  0.39433330753E+02  0.51100000000E-03 0.  1.
         12    1    3    3    0    0 -0.25244525946E+02  0.13844625404E+02  0.28834711563E+02  0.40748010181E+02  0.00000000000E+00 0. -1.
</event>
<event>
 7    1  0.1910099E-015  0.9000792E+02  0.7816164E-02  0.1186339E+00
        -11   -1    0    0    0    0  0.00000000000E+00  0.00000000000E+00  0.45593999997E+02  0.45594000000E+02  0.51100000000E-03 0.  1.
         11   -1    0    0    0    0 -0.00000000000E+00 -0.00000000000E+00 -0.45593999997E+02  0.45594000000E+02  0.51100000000E-03 0. -1.
    9900012    2    1    2    0    0  0.10805357050E+01 -0.46150715422E+00 -0.10972316912E+00  0.90007921428E+02  0.90000185190E+02 0.  0.
        -12    1    1    2    0    0 -0.10805357050E+01  0.46150715422E+00  0.10972316912E+00  0.11800785724E+01  0.00000000000E+00 0.  1.
         11    1    3    3    0    0  0.24793727037E+02  0.29758162984E+02  0.40181545846E+00  0.38735495614E+02  0.51100000000E-03 0. -1.
        -11    1    3    3    0    0  0.30513446994E+01  0.97804930477E+00 -0.87777324725E+01  0.93442962569E+01  0.51100000000E-03 0.  1.
        -12    1    3    3    0    0 -0.26764536031E+02 -0.31197719443E+02  0.82661938450E+01  0.41928129556E+02  0.00000000000E+00 0.  1.
</event>
<event>
 7    1  0.1910099E-015  0.9000776E+02  0.7816164E-02  0.1186339E+00
        -11   -1    0    0    0    0  0.00000000000E+00  0.00000000000E+00  0.45593999997E+02  0.45594000000E+02  0.51100000000E-03 0. -1.
         11   -1    0    0    0    0 -0.00000000000E+00 -0.00000000000E+00 -0.45593999997E+02  0.45594000000E+02  0.51100000000E-03 0.  1.
    9900012    2    1    2    0    0  0.38231336705E+00  0.47950878321E+00  0.10083983800E+01  0.90007762957E+02  0.90000024628E+02 0.  0.
        -12    1    1    2    0    0 -0.38231336705E+00 -0.47950878321E+00 -0.10083983800E+01  0.11802370426E+01  0.00000000000E+00 0.  1.
         11    1    3    3    0    0 -0.30531664808E+01  0.69281189377E+01 -0.45364237307E+01  0.88260862278E+01  0.51100000000E-03 0. -1.
        -11    1    3    3    0    0  0.20001413912E+02  0.31848371502E+02 -0.55251084973E+01  0.38011868541E+02  0.51100000000E-03 0.  1.
         12    1    3    3    0    0 -0.16565934064E+02 -0.38296981656E+02  0.11069930608E+02  0.43169808189E+02  0.00000000000E+00 0. -1.
</event>
<event>
 7    1  0.1910099E-015  0.9000775E+02  0.7816164E-02  0.1186339E+00
        -11   -1    0    0    0    0  0.00000000000E+00  0.00000000000E+00  0.45593999997E+02  0.45594000000E+02  0.51100000000E-03 0.  1.
         11   -1    0    0    0    0 -0.00000000000E+00 -0.00000000000E+00 -0.45593999997E+02  0.45594000000E+02  0.51100000000E-03 0. -1.
    9900012    2    1    2    0    0  0.11918045458E+00 -0.88213992324E+00 -0.77499707647E+00  0.90007747784E+02  0.90000009255E+02 0.  0.
        -12    1    1    2    0    0 -0.11918045458E+00  0.88213992324E+00  0.77499707647E+00  0.11802522160E+01  0.00000000000E+00 0.  1.
         11    1    3    3    0    0 -0.17934344169E+01  0.33242676396E+02 -0.20680229335E+02  0.39191374391E+02  0.51100000000E-03 0. -1.
        -11    1    3    3    0    0  0.67796159646E+00 -0.54350884437E+01 -0.87021330028E+01  0.10282360496E+02  0.51100000000E-03 0.  1.
        -12    1    3    3    0    0  0.12346532750E+01 -0.28689727876E+02  0.28607365262E+02  0.40534012897E+02  0.00000000000E+00 0.  1.
</event>
<event>
 7    1  0.1910099E-015  0.9000773E+02  0.7816164E-02  0.1186339E+00
        -11   -1    0    0    0    0  0.00000000000E+00  0.00000000000E+00  0.45593999997E+02  0.45594000000E+02  0.51100000000E-03 0.  1.
         11   -1    0    0    0    0 -0.00000000000E+00 -0.00000000000E+00 -0.45593999997E+02  0.45594000000E+02  0.51100000000E-03 0. -1.
    9900012    2    1    2    0    0  0.50026036995E+00 -0.92866613382E+00  0.52949755760E+00  0.90007725079E+02  0.89999986250E+02 0.  0.
        -12    1    1    2    0    0 -0.50026036995E+00  0.92866613382E+00 -0.52949755760E+00  0.11802749211E+01  0.00000000000E+00 0.  1.
         11    1    3    3    0    0 -0.75578246581E+01 -0.11765624259E+01  0.47800136156E+01  0.90196198995E+01  0.51100000000E-03 0. -1.
        -11    1    3    3    0    0 -0.25852758238E+02  0.33133275121E+01  0.24988380511E+02  0.36107650278E+02  0.51100000000E-03 0.  1.
         12    1    3    3    0    0  0.33910843266E+02 -0.30654312200E+01 -0.29238896569E+02  0.44880454902E+02  0.00000000000E+00 0. -1.
</event>
<event>
 7    1  0.1910099E-015  0.9000768E+02  0.7816164E-02  0.1186339E+00
        -11   -1    0    0    0    0  0.00000000000E+00  0.00000000000E+00  0.45593999997E+02  0.45594000000E+02  0.51100000000E-03 0.  1.
         11   -1    0    0    0    0 -0.00000000000E+00 -0.00000000000E+00 -0.45593999997E+02  0.45594000000E+02  0.51100000000E-03 0. -1.
    9900012    2    1    2    0    0 -0.11305140841E+01 -0.19310415182E+00 -0.27892006501E+00  0.90007683216E+02  0.89999943834E+02 0.  0.
        -12    1    1    2    0    0  0.11305140841E+01  0.19310415182E+00  0.27892006501E+00  0.11803167840E+01  0.00000000000E+00 0.  1.
         11    1    3    3    0    0  0.69985869633E+01  0.84199098762E+01 -0.38190853648E+01  0.11595711064E+02  0.51100000000E-03 0. -1.
        -11    1    3    3    0    0 -0.41114471608E+01  0.34598007625E+02 -0.32330380244E+00  0.34842942686E+02  0.51100000000E-03 0.  1.
         12    1    3    3    0    0 -0.40176538866E+01 -0.43211021653E+02  0.38634691022E+01  0.43569029466E+02  0.00000000000E+00 0. -1.
</event>
<event>
 7    1  0.1910099E-015  0.9000771E+02  0.7816164E-02  0.1186339E+00
        -11   -1    0    0    0    0  0.00000000000E+00  0.00000000000E+00  0.45593999997E+02  0.45594000000E+02  0.51100000000E-03 0.  1.
         11   -1    0    0    0    0 -0.00000000000E+00 -0.00000000000E+00 -0.45593999997E+02  0.45594000000E+02  0.51100000000E-03 0. -1.
    9900012    2    1    2    0    0  0.11543819854E+01 -0.24408917870E+00 -0.30037436465E-01  0.90007712093E+02  0.89999973093E+02 0.  0.
        -12    1    1    2    0    0 -0.11543819854E+01  0.24408917870E+00  0.30037436465E-01  0.11802879068E+01  0.00000000000E+00 0.  1.
         11    1    3    3    0    0 -0.12741314056E+01 -0.85158849913E+01 -0.27411040547E+01  0.90364461889E+01  0.51100000000E-03 0. -1.
        -11    1    3    3    0    0 -0.33126418606E+02  0.13403410325E+02  0.20165076136E+02  0.41032198501E+02  0.51100000000E-03 0.  1.
         12    1    3    3    0    0  0.35554931997E+02 -0.51316145121E+01 -0.17454009518E+02  0.39939067403E+02  0.00000000000E+00 0. -1.
</event>
<event>
 7    1  0.1910099E-015  0.9000780E+02  0.7816164E-02  0.1186339E+00
        -11   -1    0    0    0    0  0.00000000000E+00  0.00000000000E+00  0.45593999997E+02  0.45594000000E+02  0.51100000000E-03 0. -1.
         11   -1    0    0    0    0 -0.00000000000E+00 -0.00000000000E+00 -0.45593999997E+02  0.45594000000E+02  0.51100000000E-03 0.  1.
    9900012    2    1    2    0    0 -0.55387970637E+00  0.98651869110E+00  0.33596959677E+00  0.90007797718E+02  0.90000059848E+02 0.  0.
        -12    1    1    2    0    0  0.55387970637E+00 -0.98651869110E+00 -0.33596959677E+00  0.11802022822E+01  0.00000000000E+00 0.  1.
         11    1    3    3    0    0 -0.38274542909E+01 -0.30039789600E+01  0.40204535241E+02  0.40497875872E+02  0.51100000000E-03 0. -1.
        -11    1    3    3    0    0  0.31036798416E+01  0.94090121830E+01 -0.66140569426E+00  0.99297430265E+01  0.51100000000E-03 0.  1.
        -12    1    3    3    0    0  0.16989474297E+00 -0.54185145320E+01 -0.39207159950E+02  0.39580178819E+02  0.00000000000E+00 0.  1.
</event>
<event>
 7    1  0.1910099E-015  0.9000773E+02  0.7816164E-02  0.1186339E+00
        -11   -1    0    0    0    0  0.00000000000E+00  0.00000000000E+00  0.45593999997E+02  0.45594000000E+02  0.51100000000E-03 0.  1.
         11   -1    0    0    0    0 -0.00000000000E+00 -0.00000000000E+00 -0.45593999997E+02  0.45594000000E+02  0.51100000000E-03 0. -1.
    9900012    2    1    2    0    0 -0.69503490453E+00 -0.72964036584E+00 -0.61449124832E+00  0.90007725423E+02  0.89999986599E+02 0.  0.
        -12    1    1    2    0    0  0.69503490453E+00  0.72964036584E+00  0.61449124832E+00  0.11802745766E+01  0.00000000000E+00 0.  1.
         11    1    3    3    0    0  0.30810029512E+01 -0.87741244732E+01 -0.91780440387E-01  0.92997991036E+01  0.51100000000E-03 0. -1.
        -11    1    3    3    0    0 -0.34715249187E+02 -0.18143653775E+02 -0.65919993605E+01  0.39721469689E+02  0.51100000000E-03 0.  1.
         12    1    3    3    0    0  0.30939211332E+02  0.26188137882E+02  0.60692885525E+01  0.40986456630E+02  0.00000000000E+00 0. -1.
</event>
<event>
 7    1  0.1910099E-015  0.9000773E+02  0.7816164E-02  0.1186339E+00
        -11   -1    0    0    0    0  0.00000000000E+00  0.00000000000E+00  0.45593999997E+02  0.45594000000E+02  0.51100000000E-03 0. -1.
         11   -1    0    0    0    0 -0.00000000000E+00 -0.00000000000E+00 -0.45593999997E+02  0.45594000000E+02  0.51100000000E-03 0.  1.
    9900012    2    1    2    0    0  0.92969115993E+00 -0.66802185119E+00 -0.28716984219E+00  0.90007726572E+02  0.89999987763E+02 0.  0.
        -12    1    1    2    0    0 -0.92969115993E+00  0.66802185119E+00  0.28716984219E+00  0.11802734280E+01  0.00000000000E+00 0.  1.
         11    1    3    3    0    0  0.60917592520E+01 -0.37651211592E+02  0.16589653337E+01  0.38176896565E+02  0.51100000000E-03 0. -1.
        -11    1    3    3    0    0 -0.10891515602E+02 -0.28110782340E+01  0.20297987762E+01  0.11430107448E+02  0.51100000000E-03 0.  1.
        -12    1    3    3    0    0  0.57294475100E+01  0.39794267975E+02 -0.39759339521E+01  0.40400722558E+02  0.00000000000E+00 0.  1.
</event>
<event>
 7    1  0.1910099E-015  0.9000774E+02  0.7816164E-02  0.1186339E+00
        -11   -1    0    0    0    0  0.00000000000E+00  0.00000000000E+00  0.45593999997E+02  0.45594000000E+02  0.51100000000E-03 0. -1.
         11   -1    0    0    0    0 -0.00000000000E+00 -0.00000000000E+00 -0.45593999997E+02  0.45594000000E+02  0.51100000000E-03 0.  1.
    9900012    2    1    2    0    0  0.17410330059E+00  0.11636409901E+01  0.92957679919E-01  0.90007740095E+02  0.90000001464E+02 0.  0.
        -12    1    1    2    0    0 -0.17410330059E+00 -0.11636409901E+01 -0.92957679919E-01  0.11802599050E+01  0.00000000000E+00 0.  1.
         11    1    3    3    0    0  0.35196624555E+02 -0.21028249486E+02  0.13450160601E+02  0.43149698457E+02  0.51100000000E-03 0. -1.
        -11    1    3    3    0    0 -0.51320810523E+01  0.20145896414E+01 -0.89699458734E+01  0.10528853527E+02  0.51100000000E-03 0.  1.
        -12    1    3    3    0    0 -0.29890440202E+02  0.20177300834E+02 -0.43872570480E+01  0.36329188111E+02  0.00000000000E+00 0.  1.
</event>
<event>
 7    1  0.1910099E-015  0.9000776E+02  0.7816164E-02  0.1186339E+00
        -11   -1    0    0    0    0  0.00000000000E+00  0.00000000000E+00  0.45593999997E+02  0.45594000000E+02  0.51100000000E-03 0. -1.
         11   -1    0    0    0    0 -0.00000000000E+00 -0.00000000000E+00 -0.45593999997E+02  0.45594000000E+02  0.51100000000E-03 0.  1.
    9900012    2    1    2    0    0  0.30904796166E+00 -0.90579597450E+00  0.69064700226E+00  0.90007758384E+02  0.90000019995E+02 0.  0.
        -12    1    1    2    0    0 -0.30904796166E+00  0.90579597450E+00 -0.69064700226E+00  0.11802416158E+01  0.00000000000E+00 0.  1.
         11    1    3    3    0    0  0.82456855761E+01 -0.59586105622E+01  0.11223209040E+01  0.10235036635E+02  0.51100000000E-03 0. -1.
        -11    1    3    3    0    0  0.73266068201E+01  0.35738702449E+02 -0.18635352785E+02  0.40965966288E+02  0.51100000000E-03 0.  1.
         12    1    3    3    0    0 -0.15263244435E+02 -0.30685887861E+02  0.18203678884E+02  0.38806755461E+02  0.00000000000E+00 0. -1.
</event>
<event>
 7    1  0.1910099E-015  0.9000781E+02  0.7816164E-02  0.1186339E+00
        -11   -1    0    0    0    0  0.00000000000E+00  0.00000000000E+00  0.45593999997E+02  0.45594000000E+02  0.51100000000E-03 0. -1.
         11   -1    0    0    0    0 -0.00000000000E+00 -0.00000000000E+00 -0.45593999997E+02  0.45594000000E+02  0.51100000000E-03 0.  1.
    9900012    2    1    2    0    0  0.87004625024E+00 -0.29237773749E+00 -0.74187096593E+00  0.90007814528E+02  0.90000076879E+02 0.  0.
        -12    1    1    2    0    0 -0.87004625024E+00  0.29237773749E+00  0.74187096593E+00  0.11801854723E+01  0.00000000000E+00 0.  1.
         11    1    3    3    0    0  0.29039499607E+01 -0.10463604827E+02  0.39308457049E+00  0.10866207576E+02  0.51100000000E-03 0. -1.
        -11    1    3    3    0    0 -0.87599820525E+00 -0.95114483849E+01 -0.37000657145E+02  0.38213657933E+02  0.51100000000E-03 0.  1.
         12    1    3    3    0    0 -0.11579055052E+01  0.19682675474E+02  0.35865701608E+02  0.40927949018E+02  0.00000000000E+00 0. -1.
</event>
<event>
 7    1  0.1910099E-015  0.9000805E+02  0.7816164E-02  0.1186338E+00
        -11   -1    0    0    0    0  0.00000000000E+00  0.00000000000E+00  0.45593999997E+02  0.45594000000E+02  0.51100000000E-03 0.  1.
         11   -1    0    0    0    0 -0.00000000000E+00 -0.00000000000E+00 -0.45593999997E+02  0.45594000000E+02  0.51100000000E-03 0. -1.
    9900012    2    1    2    0    0 -0.30609803415E+00  0.76402667646E+00 -0.84549084426E+00  0.90008047655E+02  0.90000313083E+02 0.  0.
        -12    1    1    2    0    0  0.30609803415E+00 -0.76402667646E+00  0.84549084426E+00  0.11799523450E+01  0.00000000000E+00 0.  1.
         11    1    3    3    0    0 -0.87980841126E+01  0.20724774713E+02 -0.36620398622E+02  0.42988093311E+02  0.51100000000E-03 0. -1.
        -11    1    3    3    0    0  0.85351068487E+01 -0.12342040710E+01  0.27440418199E+01  0.90499212361E+01  0.51100000000E-03 0.  1.
        -12    1    3    3    0    0 -0.43120770335E-01 -0.18726543966E+02  0.33030865958E+02  0.37970033108E+02  0.00000000000E+00 0.  1.
</event>
<event>
 7    1  0.1910099E-015  0.9000743E+02  0.7816164E-02  0.1186340E+00
        -11   -1    0    0    0    0  0.00000000000E+00  0.00000000000E+00  0.45593999997E+02  0.45594000000E+02  0.51100000000E-03 0. -1.
         11   -1    0    0    0    0 -0.00000000000E+00 -0.00000000000E+00 -0.45593999997E+02  0.45594000000E+02  0.51100000000E-03 0.  1.
    9900012    2    1    2    0    0 -0.16881850983E+00 -0.79253533607E+00  0.85856880223E+00  0.90007427115E+02  0.89999684353E+02 0.  0.
        -12    1    1    2    0    0  0.16881850983E+00  0.79253533607E+00 -0.85856880223E+00  0.11805728848E+01  0.00000000000E+00 0.  1.
         11    1    3    3    0    0 -0.28971493979E+01 -0.18155414201E+02 -0.30490020249E+02  0.35604127211E+02  0.51100000000E-03 0. -1.
        -11    1    3    3    0    0 -0.13023817015E+02 -0.45325155391E+01  0.10379193983E+01  0.13828983466E+02  0.51100000000E-03 0.  1.
        -12    1    3    3    0    0  0.15752147903E+02  0.21895394404E+02  0.30310669653E+02  0.40574316438E+02  0.00000000000E+00 0.  1.
</event>
<event>
 7    1  0.1910099E-015  0.9000771E+02  0.7816164E-02  0.1186339E+00
        -11   -1    0    0    0    0  0.00000000000E+00  0.00000000000E+00  0.45593999997E+02  0.45594000000E+02  0.51100000000E-03 0. -1.
         11   -1    0    0    0    0 -0.00000000000E+00 -0.00000000000E+00 -0.45593999997E+02  0.45594000000E+02  0.51100000000E-03 0.  1.
    9900012    2    1    2    0    0 -0.86372370292E+00 -0.26216978221E+00 -0.76047431640E+00  0.90007714943E+02  0.89999975980E+02 0.  0.
        -12    1    1    2    0    0  0.86372370292E+00  0.26216978221E+00  0.76047431640E+00  0.11802850569E+01  0.00000000000E+00 0.  1.
         11    1    3    3    0    0  0.30795583634E+01 -0.58799999049E+01  0.17586864037E+01  0.68666627063E+01  0.51100000000E-03 0. -1.
        -11    1    3    3    0    0  0.26467218146E+01  0.27485716152E+01 -0.42423407511E+02  0.42594662663E+02  0.51100000000E-03 0.  1.
         12    1    3    3    0    0 -0.65900038809E+01  0.28692585074E+01  0.39904246791E+02  0.40546389574E+02  0.00000000000E+00 0. -1.
</event>
<event>
 7    1  0.1910099E-015  0.9000768E+02  0.7816164E-02  0.1186339E+00
        -11   -1    0    0    0    0  0.00000000000E+00  0.00000000000E+00  0.45593999997E+02  0.45594000000E+02  0.51100000000E-03 0.  1.
         11   -1    0    0    0    0 -0.00000000000E+00 -0.00000000000E+00 -0.45593999997E+02  0.45594000000E+02  0.51100000000E-03 0. -1.
    9900012    2    1    2    0    0  0.29615926205E-01 -0.11645319815E+01 -0.19011335649E+00  0.90007680159E+02  0.89999940737E+02 0.  0.
        -12    1    1    2    0    0 -0.29615926205E-01  0.11645319815E+01  0.19011335649E+00  0.11803198411E+01  0.00000000000E+00 0.  1.
         11    1    3    3    0    0  0.60146208071E+01  0.68768707618E+01  0.27280833050E+01  0.95346449178E+01  0.51100000000E-03 0. -1.
        -11    1    3    3    0    0 -0.67383151954E+01  0.25180112041E+02 -0.28436270890E+02  0.38575438254E+02  0.51100000000E-03 0.  1.
         12    1    3    3    0    0  0.75331031449E+00 -0.33221514784E+02  0.25518074228E+02  0.41897596987E+02  0.00000000000E+00 0. -1.
</event>
<event>
 7    1  0.1910099E-015  0.9000776E+02  0.7816164E-02  0.1186339E+00
        -11   -1    0    0    0    0  0.00000000000E+00  0.00000000000E+00  0.45593999997E+02  0.45594000000E+02  0.51100000000E-03 0.  1.
         11   -1    0    0    0    0 -0.00000000000E+00 -0.00000000000E+00 -0.45593999997E+02  0.45594000000E+02  0.51100000000E-03 0. -1.
    9900012    2    1    2    0    0 -0.10773962403E+01  0.18150672146E+00 -0.44636756488E+00  0.90007757927E+02  0.90000019531E+02 0.  0.
        -12    1    1    2    0    0  0.10773962403E+01 -0.18150672146E+00  0.44636756488E+00  0.11802420733E+01  0.00000000000E+00 0.  1.
         11    1    3    3    0    0 -0.35264114898E+02  0.13366169134E+02  0.92226192061E+01  0.38823562203E+02  0.51100000000E-03 0. -1.
        -11    1    3    3    0    0  0.79884489531E+00  0.87567820196E+01  0.29688811937E+01  0.92808211010E+01  0.51100000000E-03 0.  1.
        -12    1    3    3    0    0  0.33387873762E+02 -0.21941444432E+02 -0.12637867965E+02  0.41903374623E+02  0.00000000000E+00 0.  1.
</event>
<event>
 7    1  0.1910099E-015  0.9000772E+02  0.7816164E-02  0.1186339E+00
        -11   -1    0    0    0    0  0.00000000000E+00  0.00000000000E+00  0.45593999997E+02  0.45594000000E+02  0.51100000000E-03 0. -1.
         11   -1    0    0    0    0 -0.00000000000E+00 -0.00000000000E+00 -0.45593999997E+02  0.45594000000E+02  0.51100000000E-03 0.  1.
    9900012    2    1    2    0    0 -0.54035638796E+00  0.82551587944E+00  0.64775675860E+00  0.90007724476E+02  0.89999985640E+02 0.  0.
        -12    1    1    2    0    0  0.54035638796E+00 -0.82551587944E+00 -0.64775675860E+00  0.11802755236E+01  0.00000000000E+00 0.  1.
         11    1    3    3    0    0 -0.37852163180E+02 -0.11775866175E+02 -0.37723912936E+01  0.39820700872E+02  0.51100000000E-03 0. -1.
        -11    1    3    3    0    0  0.16109864285E+01 -0.45772986551E+01 -0.73940782393E+01  0.88441694648E+01  0.51100000000E-03 0.  1.
        -12    1    3    3    0    0  0.35700820364E+02  0.17178680710E+02  0.11814226292E+02  0.41342854140E+02  0.00000000000E+00 0.  1.
</event>
<event>
 7    1  0.2057469E-015  0.9000772E+02  0.7816164E-02  0.1186339E+00
        -11   -1    0    0    0    0  0.00000000000E+00  0.00000000000E+00  0.45593999997E+02  0.45594000000E+02  0.51100000000E-03 0.  1.
         11   -1    0    0    0    0 -0.00000000000E+00 -0.00000000000E+00 -0.45593999997E+02  0.45594000000E+02  0.51100000000E-03 0. -1.
    9900012    2    1    2    0    0 -0.48202701838E+00 -0.87919998898E+00  0.62266292237E+00  0.90007723854E+02  0.89999985008E+02 0.  0.
        -12    1    1    2    0    0  0.48202701838E+00  0.87919998898E+00 -0.62266292237E+00  0.11802761465E+01  0.00000000000E+00 0.  1.
         11    1    3    3    0    0  0.48131184963E-01 -0.62845852235E+01 -0.71977206165E+01  0.95553916914E+01  0.51100000000E-03 0. -1.
        -11    1    3    3    0    0  0.10489466163E+02 -0.31025039630E+02 -0.15056552744E+02  0.36045551254E+02  0.51100000000E-03 0.  1.
         12    1    3    3    0    0 -0.11019624366E+02  0.36430424864E+02  0.22876936282E+02  0.44406780908E+02  0.00000000000E+00 0. -1.
</event>
<event>
 7    1  0.1910099E-015  0.9000767E+02  0.7816164E-02  0.1186339E+00
        -11   -1    0    0    0    0  0.00000000000E+00  0.00000000000E+00  0.45593999997E+02  0.45594000000E+02  0.51100000000E-03 0.  1.
         11   -1    0    0    0    0 -0.00000000000E+00 -0.00000000000E+00 -0.45593999997E+02  0.45594000000E+02  0.51100000000E-03 0. -1.
    9900012    2    1    2    0    0 -0.23492303603E+00  0.11558890695E+01  0.43836771126E-01  0.90007665286E+02  0.89999925668E+02 0.  0.
        -12    1    1    2    0    0  0.23492303603E+00 -0.11558890695E+01 -0.43836771126E-01  0.11803347137E+01  0.00000000000E+00 0.  1.
         11    1    3    3    0    0 -0.13670837641E+02  0.73564713780E+01 -0.34218632761E+02  0.37575581183E+02  0.51100000000E-03 0. -1.
        -11    1    3    3    0    0 -0.92851305382E+01  0.30326803617E+01 -0.62365291262E+00  0.97877342886E+01  0.51100000000E-03 0.  1.
        -12    1    3    3    0    0  0.22721045144E+02 -0.92332626702E+01  0.34886122444E+02  0.42644349815E+02  0.00000000000E+00 0.  1.
</event>
<event>
 7    1  0.1910099E-015  0.9000781E+02  0.7816164E-02  0.1186339E+00
        -11   -1    0    0    0    0  0.00000000000E+00  0.00000000000E+00  0.45593999997E+02  0.45594000000E+02  0.51100000000E-03 0.  1.
         11   -1    0    0    0    0 -0.00000000000E+00 -0.00000000000E+00 -0.45593999997E+02  0.45594000000E+02  0.51100000000E-03 0. -1.
    9900012    2    1    2    0    0  0.95174877924E+00 -0.13242269517E-01  0.69773956233E+00  0.90007812899E+02  0.90000075229E+02 0.  0.
        -12    1    1    2    0    0 -0.95174877924E+00  0.13242269517E-01 -0.69773956233E+00  0.11801871010E+01  0.00000000000E+00 0.  1.
         11    1    3    3    0    0 -0.11171995460E+01  0.21075918487E+01  0.82982653491E+01  0.86343086748E+01  0.51100000000E-03 0. -1.
        -11    1    3    3    0    0 -0.63132030936E+01 -0.85888792104E+00  0.36201968290E+02  0.36758355922E+02  0.51100000000E-03 0.  1.
         12    1    3    3    0    0  0.83821514189E+01 -0.12619461971E+01 -0.43802494077E+02  0.44615148302E+02  0.00000000000E+00 0. -1.
</event>
<event>
 7    1  0.1910099E-015  0.9000759E+02  0.7816164E-02  0.1186339E+00
        -11   -1    0    0    0    0  0.00000000000E+00  0.00000000000E+00  0.45593999997E+02  0.45594000000E+02  0.51100000000E-03 0. -1.
         11   -1    0    0    0    0 -0.00000000000E+00 -0.00000000000E+00 -0.45593999997E+02  0.45594000000E+02  0.51100000000E-03 0.  1.
    9900012    2    1    2    0    0 -0.93147248146E+00 -0.66509705560E+00  0.28873703470E+00  0.90007591532E+02  0.89999850940E+02 0.  0.
        -12    1    1    2    0    0  0.93147248146E+00  0.66509705560E+00 -0.28873703470E+00  0.11804084684E+01  0.00000000000E+00 0.  1.
         11    1    3    3    0    0 -0.29752072396E+01 -0.19166164321E+02 -0.51178278634E+01  0.20059558200E+02  0.51100000000E-03 0. -1.
        -11    1    3    3    0    0  0.18390904603E+02  0.13155724570E+02  0.31451845750E+02  0.38736508134E+02  0.51100000000E-03 0.  1.
         12    1    3    3    0    0 -0.16347169845E+02  0.53453426956E+01 -0.26045280852E+02  0.31211525197E+02  0.00000000000E+00 0. -1.
</event>
<event>
 7    1  0.1910099E-015  0.9000795E+02  0.7816164E-02  0.1186339E+00
        -11   -1    0    0    0    0  0.00000000000E+00  0.00000000000E+00  0.45593999997E+02  0.45594000000E+02  0.51100000000E-03 0.  1.
         11   -1    0    0    0    0 -0.00000000000E+00 -0.00000000000E+00 -0.45593999997E+02  0.45594000000E+02  0.51100000000E-03 0. -1.
    9900012    2    1    2    0    0  0.90825771652E+00  0.42701311411E+00 -0.62067993041E+00  0.90007950910E+02  0.90000215062E+02 0.  0.
        -12    1    1    2    0    0 -0.90825771652E+00 -0.42701311411E+00  0.62067993041E+00  0.11800490902E+01  0.00000000000E+00 0.  1.
         11    1    3    3    0    0  0.37650005804E+02 -0.10997077831E+02  0.12706709260E+02  0.41230075410E+02  0.51100000000E-03 0. -1.
        -11    1    3    3    0    0  0.35602141821E+01 -0.24200596627E+01 -0.13963860518E+01  0.45256721115E+01  0.51100000000E-03 0.  1.
        -12    1    3    3    0    0 -0.40301962269E+02  0.13844150608E+02 -0.11931003139E+02  0.44252203388E+02  0.00000000000E+00 0.  1.
</event>
<event>
 7    1  0.1910099E-015  0.9000812E+02  0.7816164E-02  0.1186338E+00
        -11   -1    0    0    0    0  0.00000000000E+00  0.00000000000E+00  0.45593999997E+02  0.45594000000E+02  0.51100000000E-03 0. -1.
         11   -1    0    0    0    0 -0.00000000000E+00 -0.00000000000E+00 -0.45593999997E+02  0.45594000000E+02  0.51100000000E-03 0.  1.
    9900012    2    1    2    0    0 -0.42372004203E+00  0.87915037431E+00  0.66307045104E+00  0.90008124380E+02  0.90000390821E+02 0.  0.
        -12    1    1    2    0    0  0.42372004203E+00 -0.87915037431E+00 -0.66307045104E+00  0.11798756196E+01  0.00000000000E+00 0.  1.
         11    1    3    3    0    0 -0.92051134033E+01 -0.18633175189E+02  0.29391298079E+02  0.35996912831E+02  0.51100000000E-03 0. -1.
        -11    1    3    3    0    0 -0.16421657296E+01 -0.11296052082E+02 -0.13430861611E+01  0.11493536514E+02  0.51100000000E-03 0.  1.
        -12    1    3    3    0    0  0.10423559091E+02  0.30808377644E+02 -0.27385141467E+02  0.42517675035E+02  0.00000000000E+00 0.  1.
</event>
<event>
 7    1  0.1910099E-015  0.9000807E+02  0.7816164E-02  0.1186338E+00
        -11   -1    0    0    0    0  0.00000000000E+00  0.00000000000E+00  0.45593999997E+02  0.45594000000E+02  0.51100000000E-03 0.  1.
         11   -1    0    0    0    0 -0.00000000000E+00 -0.00000000000E+00 -0.45593999997E+02  0.45594000000E+02  0.51100000000E-03 0. -1.
    9900012    2    1    2    0    0 -0.11446854125E+01  0.53697884214E-01  0.28114776164E+00  0.90008071095E+02  0.90000336833E+02 0.  0.
        -12    1    1    2    0    0  0.11446854125E+01 -0.53697884214E-01 -0.28114776164E+00  0.11799289048E+01  0.00000000000E+00 0.  1.
         11    1    3    3    0    0 -0.11705362963E+02  0.28294009880E+02 -0.19165796307E+02  0.36123320245E+02  0.51100000000E-03 0. -1.
        -11    1    3    3    0    0 -0.10530972462E+02  0.26379180073E+01 -0.16012789927E+01  0.10973790916E+02  0.51100000000E-03 0.  1.
        -12    1    3    3    0    0  0.21091650013E+02 -0.30878230003E+02  0.21048223062E+02  0.42910959934E+02  0.00000000000E+00 0.  1.
</event>
<event>
 7    1  0.1910099E-015  0.9000766E+02  0.7816164E-02  0.1186339E+00
        -11   -1    0    0    0    0  0.00000000000E+00  0.00000000000E+00  0.45593999997E+02  0.45594000000E+02  0.51100000000E-03 0.  1.
         11   -1    0    0    0    0 -0.00000000000E+00 -0.00000000000E+00 -0.45593999997E+02  0.45594000000E+02  0.51100000000E-03 0. -1.
    9900012    2    1    2    0    0  0.15865119103E+00  0.11613963509E+01  0.13854921212E+00  0.90007657860E+02  0.89999918143E+02 0.  0.
        -12    1    1    2    0    0 -0.15865119103E+00 -0.11613963509E+01 -0.13854921212E+00  0.11803421405E+01  0.00000000000E+00 0.  1.
         11    1    3    3    0    0  0.35121371839E+01 -0.78214740039E+01 -0.45704195132E+01  0.97159301140E+01  0.51100000000E-03 0. -1.
        -11    1    3    3    0    0 -0.14245130052E+02 -0.89804619640E+01 -0.33044094626E+02  0.37087526437E+02  0.51100000000E-03 0.  1.
         12    1    3    3    0    0  0.10891644059E+02  0.17963332319E+02  0.37753063351E+02  0.43204201309E+02  0.00000000000E+00 0. -1.
</event>
<event>
 7    1  0.1910099E-015  0.9000787E+02  0.7816164E-02  0.1186339E+00
        -11   -1    0    0    0    0  0.00000000000E+00  0.00000000000E+00  0.45593999997E+02  0.45594000000E+02  0.51100000000E-03 0.  1.
         11   -1    0    0    0    0 -0.00000000000E+00 -0.00000000000E+00 -0.45593999997E+02  0.45594000000E+02  0.51100000000E-03 0. -1.
    9900012    2    1    2    0    0 -0.17798456770E+00  0.32858869648E+00 -0.11193996246E+01  0.90007870957E+02  0.90000134054E+02 0.  0.
        -12    1    1    2    0    0  0.17798456770E+00 -0.32858869648E+00  0.11193996246E+01  0.11801290427E+01  0.00000000000E+00 0.  1.
         11    1    3    3    0    0  0.24681252653E+02 -0.17368678574E+02  0.19332254483E+02  0.35840916444E+02  0.51100000000E-03 0. -1.
        -11    1    3    3    0    0 -0.37271076743E+01 -0.11274181755E+02 -0.12876846888E+02  0.17516040988E+02  0.51100000000E-03 0.  1.
        -12    1    3    3    0    0 -0.21132129546E+02  0.28971449026E+02 -0.75748072202E+01  0.36650913525E+02  0.00000000000E+00 0.  1.
</event>
<event>
 7    1  0.1970349E-015  0.9000774E+02  0.7816164E-02  0.1186339E+00
        -11   -1    0    0    0    0  0.00000000000E+00  0.00000000000E+00  0.45593999997E+02  0.45594000000E+02  0.51100000000E-03 0. -1.
         11   -1    0    0    0    0 -0.00000000000E+00 -0.00000000000E+00 -0.45593999997E+02  0.45594000000E+02  0.51100000000E-03 0.  1.
    9900012    2    1    2    0    0 -0.41235667895E+00  0.91660363365E+00  0.61872754518E+00  0.90007735611E+02  0.89999996921E+02 0.  0.
        -12    1    1    2    0    0  0.41235667895E+00 -0.91660363365E+00 -0.61872754518E+00  0.11802643886E+01  0.00000000000E+00 0.  1.
         11    1    3    3    0    0 -0.63438477030E+01  0.68131100253E+01 -0.12083800090E+01  0.93873880501E+01  0.51100000000E-03 0. -1.
        -11    1    3    3    0    0 -0.27036576672E+02  0.15325519821E+02 -0.18795381560E+02  0.36319614593E+02  0.51100000000E-03 0.  1.
         12    1    3    3    0    0  0.32968067696E+02 -0.21222026213E+02  0.20622489115E+02  0.44300732968E+02  0.00000000000E+00 0. -1.
</event>
<event>
 7    1  0.1910099E-015  0.9000764E+02  0.7816164E-02  0.1186339E+00
        -11   -1    0    0    0    0  0.00000000000E+00  0.00000000000E+00  0.45593999997E+02  0.45594000000E+02  0.51100000000E-03 0.  1.
         11   -1    0    0    0    0 -0.00000000000E+00 -0.00000000000E+00 -0.45593999997E+02  0.45594000000E+02  0.51100000000E-03 0. -1.
    9900012    2    1    2    0    0  0.93327268894E+00 -0.65489013490E+00 -0.30557614399E+00  0.90007637437E+02  0.89999897451E+02 0.  0.
        -12    1    1    2    0    0 -0.93327268894E+00  0.65489013490E+00  0.30557614399E+00  0.11803625631E+01  0.00000000000E+00 0.  1.
         11    1    3    3    0    0 -0.43554396655E+01  0.37946158379E+01 -0.49930902663E+01  0.76354380821E+01  0.51100000000E-03 0. -1.
        -11    1    3    3    0    0  0.26334394471E+02  0.25923141492E+02 -0.15722604637E+02  0.40158559409E+02  0.51100000000E-03 0.  1.
         12    1    3    3    0    0 -0.21045682116E+02 -0.30372647464E+02  0.20410118759E+02  0.42213639946E+02  0.00000000000E+00 0. -1.
</event>
<event>
 7    1  0.1910099E-015  0.9000799E+02  0.7816164E-02  0.1186339E+00
        -11   -1    0    0    0    0  0.00000000000E+00  0.00000000000E+00  0.45593999997E+02  0.45594000000E+02  0.51100000000E-03 0. -1.
         11   -1    0    0    0    0 -0.00000000000E+00 -0.00000000000E+00 -0.45593999997E+02  0.45594000000E+02  0.51100000000E-03 0.  1.
    9900012    2    1    2    0    0  0.48389956946E+00  0.45417514824E+00  0.97569620643E+00  0.90007992820E+02  0.90000257524E+02 0.  0.
        -12    1    1    2    0    0 -0.48389956946E+00 -0.45417514824E+00 -0.97569620643E+00  0.11800071804E+01  0.00000000000E+00 0.  1.
         11    1    3    3    0    0 -0.15832094111E+02  0.35185940705E+02 -0.26944848651E+01  0.38677718084E+02  0.51100000000E-03 0. -1.
        -11    1    3    3    0    0 -0.88975670966E+01 -0.12113096134E+01  0.26914325385E+01  0.93743149397E+01  0.51100000000E-03 0.  1.
        -12    1    3    3    0    0  0.25213560777E+02 -0.33520455943E+02  0.97874853302E+00  0.41955959796E+02  0.00000000000E+00 0.  1.
</event>
<event>
 7    1  0.1910099E-015  0.9000776E+02  0.7816164E-02  0.1186339E+00
        -11   -1    0    0    0    0  0.00000000000E+00  0.00000000000E+00  0.45593999997E+02  0.45594000000E+02  0.51100000000E-03 0.  1.
         11   -1    0    0    0    0 -0.00000000000E+00 -0.00000000000E+00 -0.45593999997E+02  0.45594000000E+02  0.51100000000E-03 0. -1.
    9900012    2    1    2    0    0 -0.42139010602E+00 -0.10713907878E+01  0.25984021796E+00  0.90007760710E+02  0.90000022352E+02 0.  0.
        -12    1    1    2    0    0  0.42139010602E+00  0.10713907878E+01 -0.25984021796E+00  0.11802392895E+01  0.00000000000E+00 0.  1.
         11    1    3    3    0    0  0.12279356624E+02  0.38593328894E+02 -0.98967577631E+01  0.41691407373E+02  0.51100000000E-03 0. -1.
        -11    1    3    3    0    0  0.13423747238E+01 -0.34494245212E+01  0.86905692919E+01  0.94459776786E+01  0.51100000000E-03 0.  1.
        -12    1    3    3    0    0 -0.14043121454E+02 -0.36215295161E+02  0.14660286891E+01  0.38870375659E+02  0.00000000000E+00 0.  1.
</event>
<event>
 7    1  0.1910099E-015  0.9000812E+02  0.7816164E-02  0.1186338E+00
        -11   -1    0    0    0    0  0.00000000000E+00  0.00000000000E+00  0.45593999997E+02  0.45594000000E+02  0.51100000000E-03 0.  1.
         11   -1    0    0    0    0 -0.00000000000E+00 -0.00000000000E+00 -0.45593999997E+02  0.45594000000E+02  0.51100000000E-03 0. -1.
    9900012    2    1    2    0    0 -0.99438826516E+00 -0.57709888658E+00  0.26506443091E+00  0.90008122761E+02  0.90000389181E+02 0.  0.
        -12    1    1    2    0    0  0.99438826516E+00  0.57709888658E+00 -0.26506443091E+00  0.11798772391E+01  0.00000000000E+00 0.  1.
         11    1    3    3    0    0 -0.16121667545E+02 -0.13570809400E+02  0.31898700767E+02  0.38230905601E+02  0.51100000000E-03 0. -1.
        -11    1    3    3    0    0 -0.90912628444E+01  0.32694647342E+01  0.13091017111E+01  0.97495747243E+01  0.51100000000E-03 0.  1.
        -12    1    3    3    0    0  0.24218542124E+02  0.97242457796E+01 -0.32942738048E+02  0.42027642435E+02  0.00000000000E+00 0.  1.
</event>
<event>
 7    1  0.1910099E-015  0.9000779E+02  0.7816164E-02  0.1186339E+00
        -11   -1    0    0    0    0  0.00000000000E+00  0.00000000000E+00  0.45593999997E+02  0.45594000000E+02  0.51100000000E-03 0.  1.
         11   -1    0    0    0    0 -0.00000000000E+00 -0.00000000000E+00 -0.45593999997E+02  0.45594000000E+02  0.51100000000E-03 0. -1.
    9900012    2    1    2    0    0  0.45616233642E+00 -0.84832379513E+00 -0.68202485356E+00  0.90007790171E+02  0.90000052202E+02 0.  0.
        -12    1    1    2    0    0 -0.45616233642E+00  0.84832379513E+00  0.68202485356E+00  0.11802098286E+01  0.00000000000E+00 0.  1.
         11    1    3    3    0    0  0.11862743853E+02  0.21962756658E+02 -0.26495077327E+02  0.36401600165E+02  0.51100000000E-03 0. -1.
        -11    1    3    3    0    0 -0.44957397832E+01  0.67860091376E+01 -0.56126338581E+01  0.98875302932E+01  0.51100000000E-03 0.  1.
        -12    1    3    3    0    0 -0.69108417338E+01 -0.29597089591E+02  0.31425686332E+02  0.43718659713E+02  0.00000000000E+00 0.  1.
</event>
<event>
 7    1  0.1910099E-015  0.9000774E+02  0.7816164E-02  0.1186339E+00
        -11   -1    0    0    0    0  0.00000000000E+00  0.00000000000E+00  0.45593999997E+02  0.45594000000E+02  0.51100000000E-03 0. -1.
         11   -1    0    0    0    0 -0.00000000000E+00 -0.00000000000E+00 -0.45593999997E+02  0.45594000000E+02  0.51100000000E-03 0.  1.
    9900012    2    1    2    0    0  0.40245874264E+00 -0.71646269988E+00  0.84717806668E+00  0.90007744724E+02  0.90000006154E+02 0.  0.
        -12    1    1    2    0    0 -0.40245874264E+00  0.71646269988E+00 -0.84717806668E+00  0.11802552760E+01  0.00000000000E+00 0.  1.
         11    1    3    3    0    0 -0.16973111921E+02  0.26632049874E+02 -0.17208817481E+02  0.35965205520E+02  0.51100000000E-03 0. -1.
        -11    1    3    3    0    0 -0.38814032584E+01  0.67716954687E+01  0.10589114071E+02  0.13154865558E+02  0.51100000000E-03 0.  1.
        -12    1    3    3    0    0  0.21256973922E+02 -0.34120208043E+02  0.74668814766E+01  0.40887673646E+02  0.00000000000E+00 0.  1.
</event>
<event>
 7    1  0.1910099E-015  0.9000775E+02  0.7816164E-02  0.1186339E+00
        -11   -1    0    0    0    0  0.00000000000E+00  0.00000000000E+00  0.45593999997E+02  0.45594000000E+02  0.51100000000E-03 0.  1.
         11   -1    0    0    0    0 -0.00000000000E+00 -0.00000000000E+00 -0.45593999997E+02  0.45594000000E+02  0.51100000000E-03 0. -1.
    9900012    2    1    2    0    0 -0.27412887043E+00  0.69740388271E+00  0.91184620862E+00  0.90007753279E+02  0.90000014823E+02 0.  0.
        -12    1    1    2    0    0  0.27412887043E+00 -0.69740388271E+00 -0.91184620862E+00  0.11802467206E+01  0.00000000000E+00 0.  1.
         11    1    3    3    0    0 -0.37493242072E+00  0.17153398315E+00 -0.38272289886E+02  0.38274510730E+02  0.51100000000E-03 0. -1.
        -11    1    3    3    0    0  0.61644616958E+01  0.10011598809E+02  0.85881453022E+00  0.11788564856E+02  0.51100000000E-03 0.  1.
        -12    1    3    3    0    0 -0.60636581455E+01 -0.94857289095E+01  0.38325321564E+02  0.39944677694E+02  0.00000000000E+00 0.  1.
</event>
<event>
 7    1  0.1910099E-015  0.9000776E+02  0.7816164E-02  0.1186339E+00
        -11   -1    0    0    0    0  0.00000000000E+00  0.00000000000E+00  0.45593999997E+02  0.45594000000E+02  0.51100000000E-03 0. -1.
         11   -1    0    0    0    0 -0.00000000000E+00 -0.00000000000E+00 -0.45593999997E+02  0.45594000000E+02  0.51100000000E-03 0.  1.
    9900012    2    1    2    0    0  0.39522821518E+00 -0.11577711773E+00  0.11060564588E+01  0.90007758257E+02  0.90000019866E+02 0.  0.
        -12    1    1    2    0    0 -0.39522821518E+00  0.11577711773E+00 -0.11060564588E+01  0.11802417435E+01  0.00000000000E+00 0.  1.
         11    1    3    3    0    0 -0.16047623829E+02 -0.15232100743E+02  0.32695442679E+02  0.39478286384E+02  0.51100000000E-03 0. -1.
        -11    1    3    3    0    0 -0.23494086407E+01 -0.85116947089E+01 -0.42473020947E+01  0.97983796172E+01  0.51100000000E-03 0.  1.
        -12    1    3    3    0    0  0.18792260685E+02  0.23628018334E+02 -0.27342084125E+02  0.40731092256E+02  0.00000000000E+00 0.  1.
</event>
<event>
 7    1  0.1910099E-015  0.9000771E+02  0.7816164E-02  0.1186339E+00
        -11   -1    0    0    0    0  0.00000000000E+00  0.00000000000E+00  0.45593999997E+02  0.45594000000E+02  0.51100000000E-03 0.  1.
         11   -1    0    0    0    0 -0.00000000000E+00 -0.00000000000E+00 -0.45593999997E+02  0.45594000000E+02  0.51100000000E-03 0. -1.
    9900012    2    1    2    0    0  0.17679877209E+00 -0.11131569223E+01 -0.35030936003E+00  0.90007706483E+02  0.89999967408E+02 0.  0.
        -12    1    1    2    0    0 -0.17679877209E+00  0.11131569223E+01  0.35030936003E+00  0.11802935174E+01  0.00000000000E+00 0.  1.
         11    1    3    3    0    0 -0.12304333672E+02  0.25037358775E+02 -0.10226809747E+02  0.29712852428E+02  0.51100000000E-03 0. -1.
        -11    1    3    3    0    0 -0.81102768569E+01 -0.33177674039E+01 -0.17214273095E+02  0.19316194493E+02  0.51100000000E-03 0.  1.
        -12    1    3    3    0    0  0.20591409301E+02 -0.22832748294E+02  0.27090773482E+02  0.40978659562E+02  0.00000000000E+00 0.  1.
</event>
<event>
 7    1  0.1910099E-015  0.9000755E+02  0.7816164E-02  0.1186339E+00
        -11   -1    0    0    0    0  0.00000000000E+00  0.00000000000E+00  0.45593999997E+02  0.45594000000E+02  0.51100000000E-03 0.  1.
         11   -1    0    0    0    0 -0.00000000000E+00 -0.00000000000E+00 -0.45593999997E+02  0.45594000000E+02  0.51100000000E-03 0. -1.
    9900012    2    1    2    0    0  0.91240737039E+00  0.74887436452E+00  0.12328098255E-01  0.90007554319E+02  0.89999813236E+02 0.  0.
        -12    1    1    2    0    0 -0.91240737039E+00 -0.74887436452E+00 -0.12328098255E-01  0.11804456808E+01  0.00000000000E+00 0.  1.
         11    1    3    3    0    0  0.10206494965E+02 -0.34706105798E+02  0.26150763454E+01  0.36270166028E+02  0.51100000000E-03 0. -1.
        -11    1    3    3    0    0 -0.14857078698E+01 -0.86993834842E+01 -0.53422399271E-01  0.88255002744E+01  0.51100000000E-03 0.  1.
        -12    1    3    3    0    0 -0.78083797243E+01  0.44154363647E+02 -0.25493258479E+01  0.44911888017E+02  0.00000000000E+00 0.  1.
</event>
<event>
 7    1  0.1910099E-015  0.9000789E+02  0.7816164E-02  0.1186339E+00
        -11   -1    0    0    0    0  0.00000000000E+00  0.00000000000E+00  0.45593999997E+02  0.45594000000E+02  0.51100000000E-03 0. -1.
         11   -1    0    0    0    0 -0.00000000000E+00 -0.00000000000E+00 -0.45593999997E+02  0.45594000000E+02  0.51100000000E-03 0.  1.
    9900012    2    1    2    0    0  0.17487073635E+00 -0.10094808483E+01 -0.58568429507E+00  0.90007890916E+02  0.90000154276E+02 0.  0.
        -12    1    1    2    0    0 -0.17487073635E+00  0.10094808483E+01  0.58568429507E+00  0.11801090843E+01  0.00000000000E+00 0.  1.
         11    1    3    3    0    0  0.20463564705E+01 -0.82681696275E+01  0.45162189577E+01  0.96408732866E+01  0.51100000000E-03 0. -1.
        -11    1    3    3    0    0  0.17427505230E+02 -0.18997435826E+02 -0.29855231813E+02  0.39445600177E+02  0.51100000000E-03 0.  1.
         12    1    3    3    0    0 -0.19298990964E+02  0.26256124605E+02  0.24753328560E+02  0.40921417452E+02  0.00000000000E+00 0. -1.
</event>
<event>
 7    1  0.1910099E-015  0.9000771E+02  0.7816164E-02  0.1186339E+00
        -11   -1    0    0    0    0  0.00000000000E+00  0.00000000000E+00  0.45593999997E+02  0.45594000000E+02  0.51100000000E-03 0. -1.
         11   -1    0    0    0    0 -0.00000000000E+00 -0.00000000000E+00 -0.45593999997E+02  0.45594000000E+02  0.51100000000E-03 0.  1.
    9900012    2    1    2    0    0 -0.20350320232E+00  0.90782242318E+00  0.72631144789E+00  0.90007710449E+02  0.89999971427E+02 0.  0.
        -12    1    1    2    0    0  0.20350320232E+00 -0.90782242318E+00 -0.72631144789E+00  0.11802895512E+01  0.00000000000E+00 0.  1.
         11    1    3    3    0    0 -0.12304521895E+02 -0.70900259834E+01 -0.13802235088E+02  0.19803318439E+02  0.51100000000E-03 0. -1.
        -11    1    3    3    0    0 -0.91968123021E+01 -0.49416447483E+01 -0.22940698176E+02  0.25204698816E+02  0.51100000000E-03 0.  1.
         12    1    3    3    0    0  0.21297830995E+02  0.12939493155E+02  0.37469244712E+02  0.44999693193E+02  0.00000000000E+00 0. -1.
</event>
<event>
 7    1  0.1910099E-015  0.9000752E+02  0.7816164E-02  0.1186339E+00
        -11   -1    0    0    0    0  0.00000000000E+00  0.00000000000E+00  0.45593999997E+02  0.45594000000E+02  0.51100000000E-03 0.  1.
         11   -1    0    0    0    0 -0.00000000000E+00 -0.00000000000E+00 -0.45593999997E+02  0.45594000000E+02  0.51100000000E-03 0. -1.
    9900012    2    1    2    0    0  0.95036747428E+00  0.60130387841E+00  0.35884369235E+00  0.90007519807E+02  0.89999778268E+02 0.  0.
        -12    1    1    2    0    0 -0.95036747428E+00 -0.60130387841E+00 -0.35884369235E+00  0.11804801929E+01  0.00000000000E+00 0.  1.
         11    1    3    3    0    0  0.58381877075E+01  0.64063640764E+01  0.23721279075E+00  0.86707673569E+01  0.51100000000E-03 0. -1.
        -11    1    3    3    0    0 -0.25929444432E+02  0.23787617595E+02  0.19446306723E+02  0.40203801870E+02  0.51100000000E-03 0.  1.
         12    1    3    3    0    0  0.21041624198E+02 -0.29592677793E+02 -0.19324675821E+02  0.41132950580E+02  0.00000000000E+00 0. -1.
</event>
<event>
 7    1  0.1910099E-015  0.9000786E+02  0.7816164E-02  0.1186339E+00
        -11   -1    0    0    0    0  0.00000000000E+00  0.00000000000E+00  0.45593999997E+02  0.45594000000E+02  0.51100000000E-03 0. -1.
         11   -1    0    0    0    0 -0.00000000000E+00 -0.00000000000E+00 -0.45593999997E+02  0.45594000000E+02  0.51100000000E-03 0.  1.
    9900012    2    1    2    0    0  0.54563597610E+00  0.10428529300E+01  0.86396727257E-01  0.90007862192E+02  0.90000125173E+02 0.  0.
        -12    1    1    2    0    0 -0.54563597610E+00 -0.10428529300E+01 -0.86396727257E-01  0.11801378083E+01  0.00000000000E+00 0.  1.
         11    1    3    3    0    0  0.10662366440E+02  0.34731564683E+02  0.97144000527E+01  0.37607674909E+02  0.51100000000E-03 0. -1.
        -11    1    3    3    0    0 -0.34440399679E+01  0.51360862788E+01  0.72618707500E+01  0.95381109563E+01  0.51100000000E-03 0.  1.
        -12    1    3    3    0    0 -0.66726904961E+01 -0.38824798032E+02 -0.16889874075E+02  0.42862076326E+02  0.00000000000E+00 0.  1.
</event>
<event>
 7    1  0.1910099E-015  0.9000766E+02  0.7816164E-02  0.1186339E+00
        -11   -1    0    0    0    0  0.00000000000E+00  0.00000000000E+00  0.45593999997E+02  0.45594000000E+02  0.51100000000E-03 0.  1.
         11   -1    0    0    0    0 -0.00000000000E+00 -0.00000000000E+00 -0.45593999997E+02  0.45594000000E+02  0.51100000000E-03 0. -1.
    9900012    2    1    2    0    0 -0.48812835880E+00  0.21848890082E+00 -0.10522345487E+01  0.90007659270E+02  0.89999919572E+02 0.  0.
        -12    1    1    2    0    0  0.48812835880E+00 -0.21848890082E+00  0.10522345487E+01  0.11803407304E+01  0.00000000000E+00 0.  1.
         11    1    3    3    0    0  0.56347620132E+01  0.18137230916E+01 -0.65624235274E+01  0.88377337147E+01  0.51100000000E-03 0. -1.
        -11    1    3    3    0    0  0.33100612071E+01 -0.11690725883E+02  0.41170791407E+02  0.42926258190E+02  0.51100000000E-03 0.  1.
         12    1    3    3    0    0 -0.94329515791E+01  0.10095491693E+02 -0.35660602428E+02  0.38243667365E+02  0.00000000000E+00 0. -1.
</event>
<event>
 7    1  0.1910099E-015  0.9000769E+02  0.7816164E-02  0.1186339E+00
        -11   -1    0    0    0    0  0.00000000000E+00  0.00000000000E+00  0.45593999997E+02  0.45594000000E+02  0.51100000000E-03 0. -1.
         11   -1    0    0    0    0 -0.00000000000E+00 -0.00000000000E+00 -0.45593999997E+02  0.45594000000E+02  0.51100000000E-03 0.  1.
    9900012    2    1    2    0    0 -0.37026710360E+00  0.10294909238E+01 -0.44292216350E+00  0.90007691001E+02  0.89999951722E+02 0.  0.
        -12    1    1    2    0    0  0.37026710360E+00 -0.10294909238E+01  0.44292216350E+00  0.11803089990E+01  0.00000000000E+00 0.  1.
         11    1    3    3    0    0 -0.48668980754E+01 -0.70721341363E+01 -0.24859767588E+01  0.89376651775E+01  0.51100000000E-03 0. -1.
        -11    1    3    3    0    0 -0.31669340899E+02 -0.17990244113E+02 -0.10802134532E+00  0.36422626280E+02  0.51100000000E-03 0.  1.
         12    1    3    3    0    0  0.36165971871E+02  0.26091869173E+02  0.21510759406E+01  0.44647399544E+02  0.00000000000E+00 0. -1.
</event>
<event>
 7    1  0.1910099E-015  0.9000774E+02  0.7816164E-02  0.1186339E+00
        -11   -1    0    0    0    0  0.00000000000E+00  0.00000000000E+00  0.45593999997E+02  0.45594000000E+02  0.51100000000E-03 0. -1.
         11   -1    0    0    0    0 -0.00000000000E+00 -0.00000000000E+00 -0.45593999997E+02  0.45594000000E+02  0.51100000000E-03 0.  1.
    9900012    2    1    2    0    0  0.64638609573E+00 -0.91282073141E+00  0.37676372380E+00  0.90007742581E+02  0.90000003983E+02 0.  0.
        -12    1    1    2    0    0 -0.64638609573E+00  0.91282073141E+00 -0.37676372380E+00  0.11802574194E+01  0.00000000000E+00 0.  1.
         11    1    3    3    0    0  0.81582051111E+01 -0.32047666198E+02  0.25187949843E+02  0.41569725004E+02  0.51100000000E-03 0. -1.
        -11    1    3    3    0    0  0.58974001682E+01  0.73807849600E+01  0.25675179000E+01  0.97901717962E+01  0.51100000000E-03 0.  1.
        -12    1    3    3    0    0 -0.13409219184E+02  0.23754060507E+02 -0.27378704019E+02  0.38647845780E+02  0.00000000000E+00 0.  1.
</event>
<event>
 7    1  0.1910099E-015  0.9000766E+02  0.7816164E-02  0.1186339E+00
        -11   -1    0    0    0    0  0.00000000000E+00  0.00000000000E+00  0.45593999997E+02  0.45594000000E+02  0.51100000000E-03 0.  1.
         11   -1    0    0    0    0 -0.00000000000E+00 -0.00000000000E+00 -0.45593999997E+02  0.45594000000E+02  0.51100000000E-03 0. -1.
    9900012    2    1    2    0    0 -0.97897228830E+00 -0.14880652468E+00 -0.64240072727E+00  0.90007657331E+02  0.89999917607E+02 0.  0.
        -12    1    1    2    0    0  0.97897228830E+00  0.14880652468E+00  0.64240072727E+00  0.11803426695E+01  0.00000000000E+00 0.  1.
         11    1    3    3    0    0 -0.73811825871E+01  0.72870097712E+01  0.18056148110E+01  0.10528181842E+02  0.51100000000E-03 0. -1.
        -11    1    3    3    0    0 -0.19416553836E+02 -0.35217801765E+02  0.58961999669E+01  0.40645556932E+02  0.51100000000E-03 0.  1.
         12    1    3    3    0    0  0.25818764135E+02  0.27781985469E+02 -0.83442155051E+01  0.38833918556E+02  0.00000000000E+00 0. -1.
</event>
<event>
 7    1  0.1910099E-015  0.9000747E+02  0.7816164E-02  0.1186340E+00
        -11   -1    0    0    0    0  0.00000000000E+00  0.00000000000E+00  0.45593999997E+02  0.45594000000E+02  0.51100000000E-03 0. -1.
         11   -1    0    0    0    0 -0.00000000000E+00 -0.00000000000E+00 -0.45593999997E+02  0.45594000000E+02  0.51100000000E-03 0.  1.
    9900012    2    1    2    0    0 -0.47328723504E+00 -0.10783836507E+01  0.82114933506E-01  0.90007468354E+02  0.89999726136E+02 0.  0.
        -12    1    1    2    0    0  0.47328723504E+00  0.10783836507E+01 -0.82114933506E-01  0.11805316460E+01  0.00000000000E+00 0.  1.
         11    1    3    3    0    0  0.45945232145E+01 -0.81691931880E+01  0.28733452854E+01  0.98031359422E+01  0.51100000000E-03 0. -1.
        -11    1    3    3    0    0  0.15349220193E+01 -0.31315225983E+02 -0.20437403183E+02  0.37425750668E+02  0.51100000000E-03 0.  1.
         12    1    3    3    0    0 -0.66027324689E+01  0.38406035520E+02  0.17646172831E+02  0.42778581744E+02  0.00000000000E+00 0. -1.
</event>
<event>
 7    1  0.1910099E-015  0.9000771E+02  0.7816164E-02  0.1186339E+00
        -11   -1    0    0    0    0  0.00000000000E+00  0.00000000000E+00  0.45593999997E+02  0.45594000000E+02  0.51100000000E-03 0.  1.
         11   -1    0    0    0    0 -0.00000000000E+00 -0.00000000000E+00 -0.45593999997E+02  0.45594000000E+02  0.51100000000E-03 0. -1.
    9900012    2    1    2    0    0 -0.21722825422E+00 -0.94046173352E+00  0.67928606947E+00  0.90007709379E+02  0.89999970342E+02 0.  0.
        -12    1    1    2    0    0  0.21722825422E+00  0.94046173352E+00 -0.67928606947E+00  0.11802906213E+01  0.00000000000E+00 0.  1.
         11    1    3    3    0    0  0.16999768746E+02  0.28801223453E+02 -0.83017908498E+01  0.34458995072E+02  0.51100000000E-03 0. -1.
        -11    1    3    3    0    0  0.66464495952E+01  0.74080780938E+01 -0.17601309163E+01  0.10107075461E+02  0.51100000000E-03 0.  1.
        -12    1    3    3    0    0 -0.23863446595E+02 -0.37149763281E+02  0.10741207836E+02  0.45441638846E+02  0.00000000000E+00 0.  1.
</event>
<event>
 7    1  0.1910099E-015  0.9000756E+02  0.7816164E-02  0.1186339E+00
        -11   -1    0    0    0    0  0.00000000000E+00  0.00000000000E+00  0.45593999997E+02  0.45594000000E+02  0.51100000000E-03 0. -1.
         11   -1    0    0    0    0 -0.00000000000E+00 -0.00000000000E+00 -0.45593999997E+02  0.45594000000E+02  0.51100000000E-03 0.  1.
    9900012    2    1    2    0    0 -0.11098850326E+01 -0.17254150610E+00 -0.36308347194E+00  0.90007557301E+02  0.89999816258E+02 0.  0.
        -12    1    1    2    0    0  0.11098850326E+01  0.17254150610E+00  0.36308347194E+00  0.11804426985E+01  0.00000000000E+00 0.  1.
         11    1    3    3    0    0  0.88679362485E+01  0.32562695459E+01 -0.74663087117E+00  0.94763412023E+01  0.51100000000E-03 0. -1.
        -11    1    3    3    0    0  0.33093813647E+02  0.85441827863E+01 -0.78639685830E+01  0.35072005408E+02  0.51100000000E-03 0.  1.
         12    1    3    3    0    0 -0.43071634928E+02 -0.11972993838E+02  0.82475159822E+01  0.45459210692E+02  0.00000000000E+00 0. -1.
</event>
<event>
 7    1  0.1910099E-015  0.9000778E+02  0.7816164E-02  0.1186339E+00
        -11   -1    0    0    0    0  0.00000000000E+00  0.00000000000E+00  0.45593999997E+02  0.45594000000E+02  0.51100000000E-03 0.  1.
         11   -1    0    0    0    0 -0.00000000000E+00 -0.00000000000E+00 -0.45593999997E+02  0.45594000000E+02  0.51100000000E-03 0. -1.
    9900012    2    1    2    0    0  0.30706632719E+00 -0.31665099477E+00 -0.10946984341E+01  0.90007778731E+02  0.90000040610E+02 0.  0.
        -12    1    1    2    0    0 -0.30706632719E+00  0.31665099477E+00  0.10946984341E+01  0.11802212689E+01  0.00000000000E+00 0.  1.
         11    1    3    3    0    0  0.20039080906E+01  0.59752133992E+01 -0.74671004313E+01  0.97712031968E+01  0.51100000000E-03 0. -1.
        -11    1    3    3    0    0 -0.24208304720E+02  0.28899372531E+02  0.75362479156E+01  0.38444905813E+02  0.51100000000E-03 0.  1.
         12    1    3    3    0    0  0.22511462956E+02 -0.35191236925E+02 -0.11638459185E+01  0.41791669721E+02  0.00000000000E+00 0. -1.
</event>
<event>
 7    1  0.1910099E-015  0.9000777E+02  0.7816164E-02  0.1186339E+00
        -11   -1    0    0    0    0  0.00000000000E+00  0.00000000000E+00  0.45593999997E+02  0.45594000000E+02  0.51100000000E-03 0. -1.
         11   -1    0    0    0    0 -0.00000000000E+00 -0.00000000000E+00 -0.45593999997E+02  0.45594000000E+02  0.51100000000E-03 0.  1.
    9900012    2    1    2    0    0  0.88871927197E+00  0.38554270122E+00 -0.67414961447E+00  0.90007770013E+02  0.90000031777E+02 0.  0.
        -12    1    1    2    0    0 -0.88871927197E+00 -0.38554270122E+00  0.67414961447E+00  0.11802299867E+01  0.00000000000E+00 0.  1.
         11    1    3    3    0    0 -0.42483447991E+01 -0.65168961205E+01  0.53947816316E+01  0.94668916594E+01  0.51100000000E-03 0. -1.
        -11    1    3    3    0    0 -0.29572855837E+02 -0.11461574530E+02 -0.21535066587E+02  0.38336413320E+02  0.51100000000E-03 0.  1.
         12    1    3    3    0    0  0.34709919908E+02  0.18364013352E+02  0.15466135341E+02  0.42204465034E+02  0.00000000000E+00 0. -1.
</event>
<event>
 7    1  0.1910099E-015  0.9000779E+02  0.7816164E-02  0.1186339E+00
        -11   -1    0    0    0    0  0.00000000000E+00  0.00000000000E+00  0.45593999997E+02  0.45594000000E+02  0.51100000000E-03 0. -1.
         11   -1    0    0    0    0 -0.00000000000E+00 -0.00000000000E+00 -0.45593999997E+02  0.45594000000E+02  0.51100000000E-03 0.  1.
    9900012    2    1    2    0    0 -0.10015496990E+01  0.15544838227E+00  0.60467834530E+00  0.90007787349E+02  0.90000049342E+02 0.  0.
        -12    1    1    2    0    0  0.10015496990E+01 -0.15544838227E+00 -0.60467834530E+00  0.11802126505E+01  0.00000000000E+00 0.  1.
         11    1    3    3    0    0 -0.31796402331E+02  0.15059095952E+02 -0.12443502132E+02  0.37317935603E+02  0.51100000000E-03 0. -1.
        -11    1    3    3    0    0 -0.71374742490E+01 -0.27551851024E-01 -0.43796069120E+01  0.83740823213E+01  0.51100000000E-03 0.  1.
        -12    1    3    3    0    0  0.37932326881E+02 -0.14876095719E+02  0.17427787389E+02  0.44315769425E+02  0.00000000000E+00 0.  1.
</event>
<event>
 7    1  0.1910099E-015  0.9000767E+02  0.7816164E-02  0.1186339E+00
        -11   -1    0    0    0    0  0.00000000000E+00  0.00000000000E+00  0.45593999997E+02  0.45594000000E+02  0.51100000000E-03 0.  1.
         11   -1    0    0    0    0 -0.00000000000E+00 -0.00000000000E+00 -0.45593999997E+02  0.45594000000E+02  0.51100000000E-03 0. -1.
    9900012    2    1    2    0    0 -0.10395258226E+01 -0.11327396303E+00  0.54748621049E+00  0.90007666963E+02  0.89999927367E+02 0.  0.
        -12    1    1    2    0    0  0.10395258226E+01  0.11327396303E+00 -0.54748621049E+00  0.11803330366E+01  0.00000000000E+00 0.  1.
         11    1    3    3    0    0  0.56087476757E+01 -0.40668315411E+00  0.72920147941E+01  0.92085244039E+01  0.51100000000E-03 0. -1.
        -11    1    3    3    0    0 -0.24493336544E+02  0.19415815449E+02  0.24744181431E+02  0.39864419468E+02  0.51100000000E-03 0.  1.
         12    1    3    3    0    0  0.17845063045E+02 -0.19122406258E+02 -0.31488710015E+02  0.40934723091E+02  0.00000000000E+00 0. -1.
</event>
<event>
 7    1  0.2068209E-015  0.9000763E+02  0.7816164E-02  0.1186339E+00
        -11   -1    0    0    0    0  0.00000000000E+00  0.00000000000E+00  0.45593999997E+02  0.45594000000E+02  0.51100000000E-03 0.  1.
         11   -1    0    0    0    0 -0.00000000000E+00 -0.00000000000E+00 -0.45593999997E+02  0.45594000000E+02  0.51100000000E-03 0. -1.
    9900012    2    1    2    0    0 -0.20972872312E+00  0.10129314158E+01 -0.56856135083E+00  0.90007627940E+02  0.89999887829E+02 0.  0.
        -12    1    1    2    0    0  0.20972872312E+00 -0.10129314158E+01  0.56856135083E+00  0.11803720601E+01  0.00000000000E+00 0.  1.
         11    1    3    3    0    0  0.82089834707E+01 -0.99516550604E+00 -0.43500985160E+01  0.93435069094E+01  0.51100000000E-03 0. -1.
        -11    1    3    3    0    0 -0.12415468230E+01 -0.22964974366E+02  0.33850142892E+02  0.40923876408E+02  0.51100000000E-03 0.  1.
         12    1    3    3    0    0 -0.71771653708E+01  0.24973071288E+02 -0.30068605727E+02  0.39740244623E+02  0.00000000000E+00 0. -1.
</event>
<event>
 7    1  0.1910099E-015  0.9000776E+02  0.7816164E-02  0.1186339E+00
        -11   -1    0    0    0    0  0.00000000000E+00  0.00000000000E+00  0.45593999997E+02  0.45594000000E+02  0.51100000000E-03 0. -1.
         11   -1    0    0    0    0 -0.00000000000E+00 -0.00000000000E+00 -0.45593999997E+02  0.45594000000E+02  0.51100000000E-03 0.  1.
    9900012    2    1    2    0    0  0.28604956343E+00 -0.85885475484E+00  0.75730525930E+00  0.90007759729E+02  0.90000021357E+02 0.  0.
        -12    1    1    2    0    0 -0.28604956343E+00  0.85885475484E+00 -0.75730525930E+00  0.11802402715E+01  0.00000000000E+00 0.  1.
         11    1    3    3    0    0 -0.24034388194E+02  0.12972937654E+02  0.28108619050E+02  0.39192389470E+02  0.51100000000E-03 0. -1.
        -11    1    3    3    0    0 -0.11249024988E+01  0.77233554442E+01 -0.19230656148E+00  0.78072150620E+01  0.51100000000E-03 0.  1.
        -12    1    3    3    0    0  0.25445340256E+02 -0.21555147853E+02 -0.27159007229E+02  0.43008155196E+02  0.00000000000E+00 0.  1.
</event>
<event>
 7    1  0.1910099E-015  0.9000770E+02  0.7816164E-02  0.1186339E+00
        -11   -1    0    0    0    0  0.00000000000E+00  0.00000000000E+00  0.45593999997E+02  0.45594000000E+02  0.51100000000E-03 0. -1.
         11   -1    0    0    0    0 -0.00000000000E+00 -0.00000000000E+00 -0.45593999997E+02  0.45594000000E+02  0.51100000000E-03 0.  1.
    9900012    2    1    2    0    0  0.16800993221E+00 -0.21533332820E+00  0.11482655749E+01  0.90007699356E+02  0.89999960188E+02 0.  0.
        -12    1    1    2    0    0 -0.16800993221E+00  0.21533332820E+00 -0.11482655749E+01  0.11803006440E+01  0.00000000000E+00 0.  1.
         11    1    3    3    0    0 -0.21499632735E+01 -0.73465596727E+01 -0.55612757964E+01  0.94616103200E+01  0.51100000000E-03 0. -1.
        -11    1    3    3    0    0 -0.34681545639E+02  0.86733884289E+01 -0.13673569626E+02  0.38275367815E+02  0.51100000000E-03 0.  1.
         12    1    3    3    0    0  0.36999518845E+02 -0.15421620844E+01  0.20383110998E+02  0.42270721221E+02  0.00000000000E+00 0. -1.
</event>
<event>
 7    1  0.1910099E-015  0.9000794E+02  0.7816164E-02  0.1186339E+00
        -11   -1    0    0    0    0  0.00000000000E+00  0.00000000000E+00  0.45593999997E+02  0.45594000000E+02  0.51100000000E-03 0. -1.
         11   -1    0    0    0    0 -0.00000000000E+00 -0.00000000000E+00 -0.45593999997E+02  0.45594000000E+02  0.51100000000E-03 0.  1.
    9900012    2    1    2    0    0 -0.82776230826E+00  0.39374492562E+00  0.74317376965E+00  0.90007943748E+02  0.90000207805E+02 0.  0.
        -12    1    1    2    0    0  0.82776230826E+00 -0.39374492562E+00 -0.74317376965E+00  0.11800562518E+01  0.00000000000E+00 0.  1.
         11    1    3    3    0    0  0.33495748014E+01 -0.54218542104E+01 -0.55531983499E+01  0.84530566426E+01  0.51100000000E-03 0. -1.
        -11    1    3    3    0    0  0.13720641728E+02 -0.34536175650E+02  0.33966574783E+01  0.37316761921E+02  0.51100000000E-03 0.  1.
         12    1    3    3    0    0 -0.17897978838E+02  0.40351774786E+02  0.28997146413E+01  0.44238125185E+02  0.00000000000E+00 0. -1.
</event>
<event>
 7    1  0.1910099E-015  0.9000767E+02  0.7816164E-02  0.1186339E+00
        -11   -1    0    0    0    0  0.00000000000E+00  0.00000000000E+00  0.45593999997E+02  0.45594000000E+02  0.51100000000E-03 0.  1.
         11   -1    0    0    0    0 -0.00000000000E+00 -0.00000000000E+00 -0.45593999997E+02  0.45594000000E+02  0.51100000000E-03 0. -1.
    9900012    2    1    2    0    0  0.42526745816E-01  0.90459557278E+00  0.75701105210E+00  0.90007674872E+02  0.89999935380E+02 0.  0.
        -12    1    1    2    0    0 -0.42526745816E-01 -0.90459557278E+00 -0.75701105210E+00  0.11803251278E+01  0.00000000000E+00 0.  1.
         11    1    3    3    0    0  0.22577918409E+01  0.68793312177E+01  0.66760248269E+01  0.98484582423E+01  0.51100000000E-03 0. -1.
        -11    1    3    3    0    0  0.20032605836E+01 -0.25603568561E+02  0.29704764021E+02  0.39267401007E+02  0.51100000000E-03 0.  1.
         12    1    3    3    0    0 -0.42185256787E+01  0.19628832916E+02 -0.35623777795E+02  0.40891815623E+02  0.00000000000E+00 0. -1.
</event>
<event>
 7    1  0.1910099E-015  0.9000774E+02  0.7816164E-02  0.1186339E+00
        -11   -1    0    0    0    0  0.00000000000E+00  0.00000000000E+00  0.45593999997E+02  0.45594000000E+02  0.51100000000E-03 0. -1.
         11   -1    0    0    0    0 -0.00000000000E+00 -0.00000000000E+00 -0.45593999997E+02  0.45594000000E+02  0.51100000000E-03 0.  1.
    9900012    2    1    2    0    0 -0.20061218438E+00 -0.11382262504E+01 -0.23916152737E+00  0.90007744739E+02  0.90000006169E+02 0.  0.
        -12    1    1    2    0    0  0.20061218438E+00  0.11382262504E+01  0.23916152737E+00  0.11802552613E+01  0.00000000000E+00 0.  1.
         11    1    3    3    0    0  0.66689140373E+01  0.33661704133E+02 -0.73401927871E+01  0.35092209534E+02  0.51100000000E-03 0. -1.
        -11    1    3    3    0    0  0.12181698959E+02  0.24788269080E+01  0.33978487097E+01  0.12887348389E+02  0.51100000000E-03 0.  1.
        -12    1    3    3    0    0 -0.19051225181E+02 -0.37278757291E+02  0.37031825500E+01  0.42028186816E+02  0.00000000000E+00 0.  1.
</event>
<event>
 7    1  0.1910099E-015  0.9000752E+02  0.7816164E-02  0.1186339E+00
        -11   -1    0    0    0    0  0.00000000000E+00  0.00000000000E+00  0.45593999997E+02  0.45594000000E+02  0.51100000000E-03 0.  1.
         11   -1    0    0    0    0 -0.00000000000E+00 -0.00000000000E+00 -0.45593999997E+02  0.45594000000E+02  0.51100000000E-03 0. -1.
    9900012    2    1    2    0    0  0.44387655235E+00  0.28590221669E+00 -0.10558246408E+01  0.90007520376E+02  0.89999778844E+02 0.  0.
        -12    1    1    2    0    0 -0.44387655235E+00 -0.28590221669E+00  0.10558246408E+01  0.11804796243E+01  0.00000000000E+00 0.  1.
         11    1    3    3    0    0 -0.14696426091E+02  0.31821487629E+02 -0.49854056181E+01  0.35404043331E+02  0.51100000000E-03 0. -1.
        -11    1    3    3    0    0 -0.14681825664E+00  0.70581045509E+01 -0.87091073930E+01  0.11211019012E+02  0.51100000000E-03 0.  1.
        -12    1    3    3    0    0  0.15287120900E+02 -0.38593689963E+02  0.12638688370E+02  0.43392458032E+02  0.00000000000E+00 0.  1.
</event>
<event>
 7    1  0.1910099E-015  0.9000773E+02  0.7816164E-02  0.1186339E+00
        -11   -1    0    0    0    0  0.00000000000E+00  0.00000000000E+00  0.45593999997E+02  0.45594000000E+02  0.51100000000E-03 0.  1.
         11   -1    0    0    0    0 -0.00000000000E+00 -0.00000000000E+00 -0.45593999997E+02  0.45594000000E+02  0.51100000000E-03 0. -1.
    9900012    2    1    2    0    0  0.30912666955E+00 -0.91382334835E+00 -0.68000557306E+00  0.90007728849E+02  0.89999990070E+02 0.  0.
        -12    1    1    2    0    0 -0.30912666955E+00  0.91382334835E+00  0.68000557306E+00  0.11802711507E+01  0.00000000000E+00 0.  1.
         11    1    3    3    0    0  0.13758494192E+02  0.36055751208E+02 -0.71682088881E+01  0.39251707944E+02  0.51100000000E-03 0. -1.
        -11    1    3    3    0    0  0.85575594128E+01 -0.35554175127E+01 -0.28026881824E+01  0.96813159282E+01  0.51100000000E-03 0.  1.
        -12    1    3    3    0    0 -0.22006926936E+02 -0.33414157044E+02  0.92908914974E+01  0.41074704977E+02  0.00000000000E+00 0.  1.
</event>
<event>
 7    1  0.1910099E-015  0.9000778E+02  0.7816164E-02  0.1186339E+00
        -11   -1    0    0    0    0  0.00000000000E+00  0.00000000000E+00  0.45593999997E+02  0.45594000000E+02  0.51100000000E-03 0.  1.
         11   -1    0    0    0    0 -0.00000000000E+00 -0.00000000000E+00 -0.45593999997E+02  0.45594000000E+02  0.51100000000E-03 0. -1.
    9900012    2    1    2    0    0  0.12081399102E-01 -0.11658294057E+01  0.18336345461E+00  0.90007777004E+02  0.90000038861E+02 0.  0.
        -12    1    1    2    0    0 -0.12081399102E-01  0.11658294057E+01 -0.18336345461E+00  0.11802229958E+01  0.00000000000E+00 0.  1.
         11    1    3    3    0    0 -0.83407898184E+01 -0.32946966838E+02 -0.16089268981E+01  0.34024403663E+02  0.51100000000E-03 0. -1.
        -11    1    3    3    0    0  0.70042951153E+01 -0.11027716460E+02  0.15217417600E+01  0.13152428621E+02  0.51100000000E-03 0.  1.
        -12    1    3    3    0    0  0.13485761022E+01  0.42808853892E+02  0.27054859277E+00  0.42830944720E+02  0.00000000000E+00 0.  1.
</event>
<event>
 7    1  0.1910099E-015  0.9000753E+02  0.7816164E-02  0.1186339E+00
        -11   -1    0    0    0    0  0.00000000000E+00  0.00000000000E+00  0.45593999997E+02  0.45594000000E+02  0.51100000000E-03 0. -1.
         11   -1    0    0    0    0 -0.00000000000E+00 -0.00000000000E+00 -0.45593999997E+02  0.45594000000E+02  0.51100000000E-03 0.  1.
    9900012    2    1    2    0    0  0.10929230450E+01 -0.27922366041E+00  0.34793834059E+00  0.90007530719E+02  0.89999789324E+02 0.  0.
        -12    1    1    2    0    0 -0.10929230450E+01  0.27922366041E+00 -0.34793834059E+00  0.11804692812E+01  0.00000000000E+00 0.  1.
         11    1    3    3    0    0 -0.34553777254E+01 -0.83347384238E+01  0.40954354642E+01  0.99085867671E+01  0.51100000000E-03 0. -1.
        -11    1    3    3    0    0  0.37918520793E+02 -0.79540188438E+01 -0.14796490233E+02  0.41473084746E+02  0.51100000000E-03 0.  1.
         12    1    3    3    0    0 -0.33370220022E+02  0.16009533607E+02  0.11048993109E+02  0.38625859206E+02  0.00000000000E+00 0. -1.
</event>
<event>
 7    1  0.2558101E-015  0.9000772E+02  0.7816164E-02  0.1186339E+00
        -11   -1    0    0    0    0  0.00000000000E+00  0.00000000000E+00  0.45593999997E+02  0.45594000000E+02  0.51100000000E-03 0. -1.
         11   -1    0    0    0    0 -0.00000000000E+00 -0.00000000000E+00 -0.45593999997E+02  0.45594000000E+02  0.51100000000E-03 0.  1.
    9900012    2    1    2    0    0 -0.47957926810E+00 -0.52366833221E-01  0.10771816434E+01  0.90007720858E+02  0.89999981974E+02 0.  0.
        -12    1    1    2    0    0  0.47957926810E+00  0.52366833221E-01 -0.10771816434E+01  0.11802791418E+01  0.00000000000E+00 0.  1.
         11    1    3    3    0    0 -0.37806630964E+01 -0.38454432575E+00 -0.83875407657E+01  0.92082641222E+01  0.51100000000E-03 0. -1.
        -11    1    3    3    0    0 -0.75444908438E+01  0.39184998356E+02  0.45877410485E+01  0.40167534234E+02  0.51100000000E-03 0.  1.
         12    1    3    3    0    0  0.10845574672E+02 -0.38852820863E+02  0.48769813607E+01  0.40631922502E+02  0.00000000000E+00 0. -1.
</event>
<event>
 7    1  0.1910099E-015  0.9000772E+02  0.7816164E-02  0.1186339E+00
        -11   -1    0    0    0    0  0.00000000000E+00  0.00000000000E+00  0.45593999997E+02  0.45594000000E+02  0.51100000000E-03 0.  1.
         11   -1    0    0    0    0 -0.00000000000E+00 -0.00000000000E+00 -0.45593999997E+02  0.45594000000E+02  0.51100000000E-03 0. -1.
    9900012    2    1    2    0    0  0.10096386469E+00 -0.73006889847E+00 -0.92188822496E+00  0.90007715205E+02  0.89999976245E+02 0.  0.
        -12    1    1    2    0    0 -0.10096386469E+00  0.73006889847E+00  0.92188822496E+00  0.11802847952E+01  0.00000000000E+00 0.  1.
         11    1    3    3    0    0  0.15628324496E+02 -0.20570765623E+02  0.27102725415E+02  0.37442738282E+02  0.51100000000E-03 0. -1.
        -11    1    3    3    0    0  0.96107694175E+01 -0.21167734206E+01 -0.15496145386E+01  0.99623754191E+01  0.51100000000E-03 0.  1.
        -12    1    3    3    0    0 -0.25138130049E+02  0.21957470145E+02 -0.26474999101E+02  0.42602601504E+02  0.00000000000E+00 0.  1.
</event>
<event>
 7    1  0.1910099E-015  0.9000774E+02  0.7816164E-02  0.1186339E+00
        -11   -1    0    0    0    0  0.00000000000E+00  0.00000000000E+00  0.45593999997E+02  0.45594000000E+02  0.51100000000E-03 0.  1.
         11   -1    0    0    0    0 -0.00000000000E+00 -0.00000000000E+00 -0.45593999997E+02  0.45594000000E+02  0.51100000000E-03 0. -1.
    9900012    2    1    2    0    0 -0.63005466479E+00  0.67569290499E+00 -0.73449693479E+00  0.90007739211E+02  0.90000000569E+02 0.  0.
        -12    1    1    2    0    0  0.63005466479E+00 -0.67569290499E+00  0.73449693479E+00  0.11802607889E+01  0.00000000000E+00 0.  1.
         11    1    3    3    0    0  0.22795857008E+01  0.15881561908E+01  0.95048207815E+01  0.99025435825E+01  0.51100000000E-03 0. -1.
        -11    1    3    3    0    0 -0.67739630527E+01  0.83902451819E+01  0.33514581993E+02  0.35206675448E+02  0.51100000000E-03 0.  1.
         12    1    3    3    0    0  0.38643226870E+01 -0.93027084678E+01 -0.43753899709E+02  0.44898520181E+02  0.00000000000E+00 0. -1.
</event>
<event>
 7    1  0.1910099E-015  0.9000727E+02  0.7816164E-02  0.1186340E+00
        -11   -1    0    0    0    0  0.00000000000E+00  0.00000000000E+00  0.45593999997E+02  0.45594000000E+02  0.51100000000E-03 0.  1.
         11   -1    0    0    0    0 -0.00000000000E+00 -0.00000000000E+00 -0.45593999997E+02  0.45594000000E+02  0.51100000000E-03 0. -1.
    9900012    2    1    2    0    0 -0.86587732035E+00  0.34277146765E+00 -0.72587104983E+00  0.90007269466E+02  0.89999524622E+02 0.  0.
        -12    1    1    2    0    0  0.86587732035E+00 -0.34277146765E+00  0.72587104983E+00  0.11807305340E+01  0.00000000000E+00 0.  1.
         11    1    3    3    0    0  0.11648397616E+02  0.18668428489E+02  0.32944072860E+01  0.22249685591E+02  0.51100000000E-03 0. -1.
        -11    1    3    3    0    0  0.20250698959E+02 -0.83884283024E+01  0.16860654964E+02  0.27653900698E+02  0.51100000000E-03 0.  1.
         12    1    3    3    0    0 -0.32764973895E+02 -0.99372287186E+01 -0.20880933300E+02  0.40103683178E+02  0.00000000000E+00 0. -1.
</event>
<event>
 7    1  0.1910099E-015  0.9000752E+02  0.7816164E-02  0.1186339E+00
        -11   -1    0    0    0    0  0.00000000000E+00  0.00000000000E+00  0.45593999997E+02  0.45594000000E+02  0.51100000000E-03 0. -1.
         11   -1    0    0    0    0 -0.00000000000E+00 -0.00000000000E+00 -0.45593999997E+02  0.45594000000E+02  0.51100000000E-03 0.  1.
    9900012    2    1    2    0    0  0.11265293450E-01  0.11803568973E+01  0.12463324790E-01  0.90007523551E+02  0.89999782062E+02 0.  0.
        -12    1    1    2    0    0 -0.11265293450E-01 -0.11803568973E+01 -0.12463324790E-01  0.11804764488E+01  0.00000000000E+00 0.  1.
         11    1    3    3    0    0 -0.26625529861E+01  0.33524535206E+02 -0.59288823576E+01  0.34148723189E+02  0.51100000000E-03 0. -1.
        -11    1    3    3    0    0 -0.40667363996E+01  0.10786820689E+02 -0.13242767256E+01  0.11603773293E+02  0.51100000000E-03 0.  1.
        -12    1    3    3    0    0  0.67405546792E+01 -0.43130998998E+02  0.72656224080E+01  0.44255027069E+02  0.00000000000E+00 0.  1.
</event>
<event>
 7    1  0.1910099E-015  0.9000782E+02  0.7816164E-02  0.1186339E+00
        -11   -1    0    0    0    0  0.00000000000E+00  0.00000000000E+00  0.45593999997E+02  0.45594000000E+02  0.51100000000E-03 0. -1.
         11   -1    0    0    0    0 -0.00000000000E+00 -0.00000000000E+00 -0.45593999997E+02  0.45594000000E+02  0.51100000000E-03 0.  1.
    9900012    2    1    2    0    0  0.36646980203E-01 -0.60896245510E+00  0.10102701489E+01  0.90007820333E+02  0.90000082761E+02 0.  0.
        -12    1    1    2    0    0 -0.36646980203E-01  0.60896245510E+00 -0.10102701489E+01  0.11801796671E+01  0.00000000000E+00 0.  1.
         11    1    3    3    0    0 -0.59631618182E+01 -0.89873175194E+01 -0.39181623674E+00  0.10792807572E+02  0.51100000000E-03 0. -1.
        -11    1    3    3    0    0  0.27279326510E+02 -0.20005965026E+02 -0.18480771313E+02  0.38547881914E+02  0.51100000000E-03 0.  1.
         12    1    3    3    0    0 -0.21279517711E+02  0.28384320090E+02  0.19882857699E+02  0.40667130847E+02  0.00000000000E+00 0. -1.
</event>
<event>
 7    1  0.2395124E-015  0.9000775E+02  0.7816164E-02  0.1186339E+00
        -11   -1    0    0    0    0  0.00000000000E+00  0.00000000000E+00  0.45593999997E+02  0.45594000000E+02  0.51100000000E-03 0. -1.
         11   -1    0    0    0    0 -0.00000000000E+00 -0.00000000000E+00 -0.45593999997E+02  0.45594000000E+02  0.51100000000E-03 0.  1.
    9900012    2    1    2    0    0 -0.52030422374E+00 -0.45891159828E+00  0.95481727349E+00  0.90007749024E+02  0.90000010511E+02 0.  0.
        -12    1    1    2    0    0  0.52030422374E+00  0.45891159828E+00 -0.95481727349E+00  0.11802509759E+01  0.00000000000E+00 0.  1.
         11    1    3    3    0    0  0.84933007462E+01  0.41995247139E+01  0.10699619158E+01  0.95350398086E+01  0.51100000000E-03 0. -1.
        -11    1    3    3    0    0  0.27138876650E+02  0.22055932467E+02 -0.47092103668E+01  0.35286816877E+02  0.51100000000E-03 0.  1.
         12    1    3    3    0    0 -0.36152481620E+02 -0.26714368779E+02  0.45940657246E+01  0.45185892338E+02  0.00000000000E+00 0. -1.
</event>
<event>
 7    1  0.1910099E-015  0.9000762E+02  0.7816164E-02  0.1186339E+00
        -11   -1    0    0    0    0  0.00000000000E+00  0.00000000000E+00  0.45593999997E+02  0.45594000000E+02  0.51100000000E-03 0. -1.
         11   -1    0    0    0    0 -0.00000000000E+00 -0.00000000000E+00 -0.45593999997E+02  0.45594000000E+02  0.51100000000E-03 0.  1.
    9900012    2    1    2    0    0 -0.11447793097E+01  0.12470727400E+00  0.25928502830E+00  0.90007618579E+02  0.89999878345E+02 0.  0.
        -12    1    1    2    0    0  0.11447793097E+01 -0.12470727400E+00 -0.25928502830E+00  0.11803814206E+01  0.00000000000E+00 0.  1.
         11    1    3    3    0    0  0.15640897170E+02  0.27647306984E+02  0.17940294057E+02  0.36481027930E+02  0.51100000000E-03 0. -1.
        -11    1    3    3    0    0  0.91424322922E+01  0.23281247627E+01  0.15468958908E+01  0.95601841136E+01  0.51100000000E-03 0.  1.
        -12    1    3    3    0    0 -0.25928108772E+02 -0.29850724473E+02 -0.19227904919E+02  0.43966406535E+02  0.00000000000E+00 0.  1.
</event>
<event>
 7    1  0.1910099E-015  0.9000773E+02  0.7816164E-02  0.1186339E+00
        -11   -1    0    0    0    0  0.00000000000E+00  0.00000000000E+00  0.45593999997E+02  0.45594000000E+02  0.51100000000E-03 0. -1.
         11   -1    0    0    0    0 -0.00000000000E+00 -0.00000000000E+00 -0.45593999997E+02  0.45594000000E+02  0.51100000000E-03 0.  1.
    9900012    2    1    2    0    0  0.43699972835E+00 -0.10652785660E+01  0.25934887626E+00  0.90007725021E+02  0.89999986192E+02 0.  0.
        -12    1    1    2    0    0 -0.43699972835E+00  0.10652785660E+01 -0.25934887626E+00  0.11802749787E+01  0.00000000000E+00 0.  1.
         11    1    3    3    0    0 -0.29357067428E+01 -0.63109419174E+01 -0.10571736396E+02  0.12657328812E+02  0.51100000000E-03 0. -1.
        -11    1    3    3    0    0  0.22531696482E+02 -0.24427802196E+00 -0.26650425153E+02  0.34899601419E+02  0.51100000000E-03 0.  1.
         12    1    3    3    0    0 -0.19158990011E+02  0.54899413734E+01  0.37481510426E+02  0.42450794790E+02  0.00000000000E+00 0. -1.
</event>
<event>
 7    1  0.1910099E-015  0.9000785E+02  0.7816164E-02  0.1186339E+00
        -11   -1    0    0    0    0  0.00000000000E+00  0.00000000000E+00  0.45593999997E+02  0.45594000000E+02  0.51100000000E-03 0. -1.
         11   -1    0    0    0    0 -0.00000000000E+00 -0.00000000000E+00 -0.45593999997E+02  0.45594000000E+02  0.51100000000E-03 0.  1.
    9900012    2    1    2    0    0 -0.90228713651E+00  0.76064348054E+00  0.80716949058E-02  0.90007845038E+02  0.90000107793E+02 0.  0.
        -12    1    1    2    0    0  0.90228713651E+00 -0.76064348054E+00 -0.80716949058E-02  0.11801549616E+01  0.00000000000E+00 0.  1.
         11    1    3    3    0    0  0.25158134820E+02  0.43825489875E+01  0.21567439120E+02  0.33425931755E+02  0.51100000000E-03 0. -1.
        -11    1    3    3    0    0  0.19434946234E+01  0.62370870666E+01  0.10827960481E+02  0.12646072705E+02  0.51100000000E-03 0.  1.
        -12    1    3    3    0    0 -0.28003916580E+02 -0.98589925736E+01 -0.32387327906E+02  0.43935840578E+02  0.00000000000E+00 0.  1.
</event>
<event>
 7    1  0.1910099E-015  0.9000772E+02  0.7816164E-02  0.1186339E+00
        -11   -1    0    0    0    0  0.00000000000E+00  0.00000000000E+00  0.45593999997E+02  0.45594000000E+02  0.51100000000E-03 0. -1.
         11   -1    0    0    0    0 -0.00000000000E+00 -0.00000000000E+00 -0.45593999997E+02  0.45594000000E+02  0.51100000000E-03 0.  1.
    9900012    2    1    2    0    0 -0.93883951549E+00 -0.12210422891E+00  0.70479440522E+00  0.90007718579E+02  0.89999979664E+02 0.  0.
        -12    1    1    2    0    0  0.93883951549E+00  0.12210422891E+00 -0.70479440522E+00  0.11802814208E+01  0.00000000000E+00 0.  1.
         11    1    3    3    0    0  0.34749813659E+01 -0.73320218100E+01 -0.50854419231E+01  0.95757902614E+01  0.51100000000E-03 0. -1.
        -11    1    3    3    0    0  0.16542104883E+02 -0.27522149900E+02  0.19553961315E+02  0.37596108475E+02  0.51100000000E-03 0.  1.
         12    1    3    3    0    0 -0.20955925764E+02  0.34732067481E+02 -0.13763724987E+02  0.42835819843E+02  0.00000000000E+00 0. -1.
</event>
<event>
 7    1  0.1910099E-015  0.9000774E+02  0.7816164E-02  0.1186339E+00
        -11   -1    0    0    0    0  0.00000000000E+00  0.00000000000E+00  0.45593999997E+02  0.45594000000E+02  0.51100000000E-03 0.  1.
         11   -1    0    0    0    0 -0.00000000000E+00 -0.00000000000E+00 -0.45593999997E+02  0.45594000000E+02  0.51100000000E-03 0. -1.
    9900012    2    1    2    0    0 -0.35956336913E+00 -0.10502538693E+01 -0.40087381208E+00  0.90007737817E+02  0.89999999157E+02 0.  0.
        -12    1    1    2    0    0  0.35956336913E+00  0.10502538693E+01  0.40087381208E+00  0.11802621825E+01  0.00000000000E+00 0.  1.
         11    1    3    3    0    0  0.82671772123E+01 -0.44246861078E+01  0.14211842625E+01  0.94838721618E+01  0.51100000000E-03 0. -1.
        -11    1    3    3    0    0 -0.16279156773E+02 -0.20932308173E+02 -0.31651532993E+02  0.41291548914E+02  0.51100000000E-03 0.  1.
         12    1    3    3    0    0  0.76524161912E+01  0.24306740412E+02  0.29829474918E+02  0.39232316741E+02  0.00000000000E+00 0. -1.
</event>
<event>
 7    1  0.1910099E-015  0.9000765E+02  0.7816164E-02  0.1186339E+00
        -11   -1    0    0    0    0  0.00000000000E+00  0.00000000000E+00  0.45593999997E+02  0.45594000000E+02  0.51100000000E-03 0. -1.
         11   -1    0    0    0    0 -0.00000000000E+00 -0.00000000000E+00 -0.45593999997E+02  0.45594000000E+02  0.51100000000E-03 0.  1.
    9900012    2    1    2    0    0 -0.10536438670E+01 -0.41574849725E+00  0.33199977628E+00  0.90007645789E+02  0.89999905914E+02 0.  0.
        -12    1    1    2    0    0  0.10536438670E+01  0.41574849725E+00 -0.33199977628E+00  0.11803542107E+01  0.00000000000E+00 0.  1.
         11    1    3    3    0    0  0.38955372628E+01 -0.70789800994E+01  0.70237318394E+01  0.10706072063E+02  0.51100000000E-03 0. -1.
        -11    1    3    3    0    0  0.26297519746E+02 -0.20241126515E+02  0.10236812142E+02  0.34728303594E+02  0.51100000000E-03 0.  1.
         12    1    3    3    0    0 -0.31246700876E+02  0.26904358117E+02 -0.16928544205E+02  0.44573270132E+02  0.00000000000E+00 0. -1.
</event>
<event>
 7    1  0.1910099E-015  0.9000718E+02  0.7816164E-02  0.1186340E+00
        -11   -1    0    0    0    0  0.00000000000E+00  0.00000000000E+00  0.45593999997E+02  0.45594000000E+02  0.51100000000E-03 0. -1.
         11   -1    0    0    0    0 -0.00000000000E+00 -0.00000000000E+00 -0.45593999997E+02  0.45594000000E+02  0.51100000000E-03 0.  1.
    9900012    2    1    2    0    0  0.87492285438E+00 -0.46823251948E+00  0.64000098163E+00  0.90007181237E+02  0.89999435228E+02 0.  0.
        -12    1    1    2    0    0 -0.87492285438E+00  0.46823251948E+00 -0.64000098163E+00  0.11808187625E+01  0.00000000000E+00 0.  1.
         11    1    3    3    0    0 -0.66922508085E+00 -0.83576622845E+01  0.64622578892E+01  0.10585799845E+02  0.51100000000E-03 0. -1.
        -11    1    3    3    0    0 -0.12872115532E+02 -0.23883752513E+01  0.33678877492E+02  0.36133951957E+02  0.51100000000E-03 0.  1.
         12    1    3    3    0    0  0.14416263467E+02  0.10277805016E+02 -0.39501134400E+02  0.43287429436E+02  0.00000000000E+00 0. -1.
</event>
<event>
 7    1  0.1910099E-015  0.9000778E+02  0.7816164E-02  0.1186339E+00
        -11   -1    0    0    0    0  0.00000000000E+00  0.00000000000E+00  0.45593999997E+02  0.45594000000E+02  0.51100000000E-03 0.  1.
         11   -1    0    0    0    0 -0.00000000000E+00 -0.00000000000E+00 -0.45593999997E+02  0.45594000000E+02  0.51100000000E-03 0. -1.
    9900012    2    1    2    0    0  0.45496527349E-01 -0.11486386173E+01 -0.26737458046E+00  0.90007775541E+02  0.90000037378E+02 0.  0.
        -12    1    1    2    0    0 -0.45496527349E-01  0.11486386173E+01  0.26737458046E+00  0.11802244589E+01  0.00000000000E+00 0.  1.
         11    1    3    3    0    0 -0.20697468872E+02 -0.22336727855E+02 -0.26202123865E+02  0.40172950156E+02  0.51100000000E-03 0. -1.
        -11    1    3    3    0    0  0.61670939132E+01  0.22420070174E+01 -0.67024852880E+01  0.93799228194E+01  0.51100000000E-03 0.  1.
        -12    1    3    3    0    0  0.14575871486E+02  0.18946082220E+02  0.32637234572E+02  0.40454902566E+02  0.00000000000E+00 0.  1.
</event>
<event>
 7    1  0.1910099E-015  0.9000773E+02  0.7816164E-02  0.1186339E+00
        -11   -1    0    0    0    0  0.00000000000E+00  0.00000000000E+00  0.45593999997E+02  0.45594000000E+02  0.51100000000E-03 0. -1.
         11   -1    0    0    0    0 -0.00000000000E+00 -0.00000000000E+00 -0.45593999997E+02  0.45594000000E+02  0.51100000000E-03 0.  1.
    9900012    2    1    2    0    0  0.13085315807E+00 -0.55036892148E+00  0.10358585943E+01  0.90007732435E+02  0.89999993703E+02 0.  0.
        -12    1    1    2    0    0 -0.13085315807E+00  0.55036892148E+00 -0.10358585943E+01  0.11802675655E+01  0.00000000000E+00 0.  1.
         11    1    3    3    0    0  0.31210289354E+02 -0.13323959110E+02  0.59181813129E+01  0.34447567668E+02  0.51100000000E-03 0. -1.
        -11    1    3    3    0    0  0.98681824912E+01  0.98865111783E-01  0.57165945200E+01  0.11404834640E+02  0.51100000000E-03 0.  1.
        -12    1    3    3    0    0 -0.40947618687E+02  0.12674725077E+02 -0.10598917239E+02  0.44155330127E+02  0.00000000000E+00 0.  1.
</event>
<event>
 7    1  0.1910099E-015  0.9000773E+02  0.7816164E-02  0.1186339E+00
        -11   -1    0    0    0    0  0.00000000000E+00  0.00000000000E+00  0.45593999997E+02  0.45594000000E+02  0.51100000000E-03 0.  1.
         11   -1    0    0    0    0 -0.00000000000E+00 -0.00000000000E+00 -0.45593999997E+02  0.45594000000E+02  0.51100000000E-03 0. -1.
    9900012    2    1    2    0    0 -0.84392273572E+00  0.53086925454E+00 -0.63167778287E+00  0.90007726908E+02  0.89999988104E+02 0.  0.
        -12    1    1    2    0    0  0.84392273572E+00 -0.53086925454E+00  0.63167778287E+00  0.11802730916E+01  0.00000000000E+00 0.  1.
         11    1    3    3    0    0  0.34826750339E+02  0.74628457552E+01  0.63931018443E+00  0.35623100984E+02  0.51100000000E-03 0. -1.
        -11    1    3    3    0    0  0.81416065683E+01  0.49767053322E+00  0.49076474507E+01  0.95193716827E+01  0.51100000000E-03 0.  1.
        -12    1    3    3    0    0 -0.43812279643E+02 -0.74296470338E+01 -0.61786354180E+01  0.44865254242E+02  0.00000000000E+00 0.  1.
</event>
<event>
 7    1  0.1910099E-015  0.9000814E+02  0.7816164E-02  0.1186338E+00
        -11   -1    0    0    0    0  0.00000000000E+00  0.00000000000E+00  0.45593999997E+02  0.45594000000E+02  0.51100000000E-03 0.  1.
         11   -1    0    0    0    0 -0.00000000000E+00 -0.00000000000E+00 -0.45593999997E+02  0.45594000000E+02  0.51100000000E-03 0. -1.
    9900012    2    1    2    0    0 -0.49517836353E+00  0.31319309617E+00 -0.10240968691E+01  0.90008141566E+02  0.90000408234E+02 0.  0.
        -12    1    1    2    0    0  0.49517836353E+00 -0.31319309617E+00  0.10240968691E+01  0.11798584340E+01  0.00000000000E+00 0.  1.
         11    1    3    3    0    0 -0.21199101776E+02 -0.27437404667E+02 -0.19861045269E+02  0.39958406004E+02  0.51100000000E-03 0. -1.
        -11    1    3    3    0    0 -0.69976182925E+01 -0.16457439489E+00  0.20870416462E+01  0.73040734931E+01  0.51100000000E-03 0.  1.
        -12    1    3    3    0    0  0.27701541705E+02  0.27915172158E+02  0.16749906754E+02  0.42745662069E+02  0.00000000000E+00 0.  1.
</event>
<event>
 7    1  0.1910099E-015  0.9000772E+02  0.7816164E-02  0.1186339E+00
        -11   -1    0    0    0    0  0.00000000000E+00  0.00000000000E+00  0.45593999997E+02  0.45594000000E+02  0.51100000000E-03 0. -1.
         11   -1    0    0    0    0 -0.00000000000E+00 -0.00000000000E+00 -0.45593999997E+02  0.45594000000E+02  0.51100000000E-03 0.  1.
    9900012    2    1    2    0    0 -0.56327993510E+00  0.53635268570E+00  0.88775573332E+00  0.90007716674E+02  0.89999977734E+02 0.  0.
        -12    1    1    2    0    0  0.56327993510E+00 -0.53635268570E+00 -0.88775573332E+00  0.11802833265E+01  0.00000000000E+00 0.  1.
         11    1    3    3    0    0 -0.68931045337E+01 -0.23388382886E+02  0.28515715214E+02  0.37519026621E+02  0.51100000000E-03 0. -1.
        -11    1    3    3    0    0 -0.23992247236E+01  0.42018414408E+01  0.88644448377E+01  0.10099016453E+02  0.51100000000E-03 0.  1.
        -12    1    3    3    0    0  0.87290493222E+01  0.19722894131E+02 -0.36492404319E+02  0.42389673600E+02  0.00000000000E+00 0.  1.
</event>
<event>
 7    1  0.1910099E-015  0.9000765E+02  0.7816164E-02  0.1186339E+00
        -11   -1    0    0    0    0  0.00000000000E+00  0.00000000000E+00  0.45593999997E+02  0.45594000000E+02  0.51100000000E-03 0. -1.
         11   -1    0    0    0    0 -0.00000000000E+00 -0.00000000000E+00 -0.45593999997E+02  0.45594000000E+02  0.51100000000E-03 0.  1.
    9900012    2    1    2    0    0  0.11318432790E+01  0.27164615757E+00 -0.19587196142E+00  0.90007649769E+02  0.89999909946E+02 0.  0.
        -12    1    1    2    0    0 -0.11318432790E+01 -0.27164615757E+00  0.19587196142E+00  0.11803502313E+01  0.00000000000E+00 0.  1.
         11    1    3    3    0    0 -0.29219620633E+02  0.11776388640E+02  0.19912849953E+02  0.37269171614E+02  0.51100000000E-03 0. -1.
        -11    1    3    3    0    0 -0.80702949671E+01 -0.51019139801E+01 -0.18737759205E+01  0.97298624645E+01  0.51100000000E-03 0.  1.
        -12    1    3    3    0    0  0.38421758879E+02 -0.64028285020E+01 -0.18234945993E+02  0.43008615690E+02  0.00000000000E+00 0.  1.
</event>
<event>
 7    1  0.1910099E-015  0.9000771E+02  0.7816164E-02  0.1186339E+00
        -11   -1    0    0    0    0  0.00000000000E+00  0.00000000000E+00  0.45593999997E+02  0.45594000000E+02  0.51100000000E-03 0. -1.
         11   -1    0    0    0    0 -0.00000000000E+00 -0.00000000000E+00 -0.45593999997E+02  0.45594000000E+02  0.51100000000E-03 0.  1.
    9900012    2    1    2    0    0  0.10549726988E+01 -0.12176305077E+00 -0.51506208466E+00  0.90007710804E+02  0.89999971786E+02 0.  0.
        -12    1    1    2    0    0 -0.10549726988E+01  0.12176305077E+00  0.51506208466E+00  0.11802891963E+01  0.00000000000E+00 0.  1.
         11    1    3    3    0    0 -0.91943311641E+01 -0.68456269882E+01  0.39661374952E+01  0.12129657098E+02  0.51100000000E-03 0. -1.
        -11    1    3    3    0    0 -0.55615544368E+01  0.41606496459E+01 -0.39111249835E+02  0.39723189162E+02  0.51100000000E-03 0.  1.
         12    1    3    3    0    0  0.15810858300E+02  0.25632142915E+01  0.34630050256E+02  0.38154864544E+02  0.00000000000E+00 0. -1.
</event>
<event>
 7    1  0.1910099E-015  0.9000776E+02  0.7816164E-02  0.1186339E+00
        -11   -1    0    0    0    0  0.00000000000E+00  0.00000000000E+00  0.45593999997E+02  0.45594000000E+02  0.51100000000E-03 0.  1.
         11   -1    0    0    0    0 -0.00000000000E+00 -0.00000000000E+00 -0.45593999997E+02  0.45594000000E+02  0.51100000000E-03 0. -1.
    9900012    2    1    2    0    0  0.11128207776E+01  0.38980666198E+00  0.51479970436E-01  0.90007758709E+02  0.90000020324E+02 0.  0.
        -12    1    1    2    0    0 -0.11128207776E+01 -0.38980666198E+00 -0.51479970436E-01  0.11802412907E+01  0.00000000000E+00 0.  1.
         11    1    3    3    0    0 -0.37697996144E+02  0.83221436412E+01 -0.14261951338E+02  0.41155804503E+02  0.51100000000E-03 0. -1.
        -11    1    3    3    0    0  0.41801194985E+01  0.69777580862E+01 -0.92188427921E+00  0.81861088324E+01  0.51100000000E-03 0.  1.
        -12    1    3    3    0    0  0.34630697424E+02 -0.14910095065E+02  0.15235315588E+02  0.40665845374E+02  0.00000000000E+00 0.  1.
</event>
<event>
 7    1  0.1910099E-015  0.9000774E+02  0.7816164E-02  0.1186339E+00
        -11   -1    0    0    0    0  0.00000000000E+00  0.00000000000E+00  0.45593999997E+02  0.45594000000E+02  0.51100000000E-03 0. -1.
         11   -1    0    0    0    0 -0.00000000000E+00 -0.00000000000E+00 -0.45593999997E+02  0.45594000000E+02  0.51100000000E-03 0.  1.
    9900012    2    1    2    0    0 -0.89308220047E+00 -0.69475372559E+00  0.33576776181E+00  0.90007737933E+02  0.89999999274E+02 0.  0.
        -12    1    1    2    0    0  0.89308220047E+00  0.69475372559E+00 -0.33576776181E+00  0.11802620666E+01  0.00000000000E+00 0.  1.
         11    1    3    3    0    0  0.22434710495E+02  0.27196193707E+02  0.24245781378E+01  0.35338757287E+02  0.51100000000E-03 0. -1.
        -11    1    3    3    0    0  0.70144086863E+01  0.56959296919E+01 -0.26027804926E+01  0.94031915235E+01  0.51100000000E-03 0.  1.
        -12    1    3    3    0    0 -0.30342201381E+02 -0.33586877125E+02  0.51397011656E+00  0.45265789123E+02  0.00000000000E+00 0.  1.
</event>
<event>
 7    1  0.1910099E-015  0.9000771E+02  0.7816164E-02  0.1186339E+00
        -11   -1    0    0    0    0  0.00000000000E+00  0.00000000000E+00  0.45593999997E+02  0.45594000000E+02  0.51100000000E-03 0. -1.
         11   -1    0    0    0    0 -0.00000000000E+00 -0.00000000000E+00 -0.45593999997E+02  0.45594000000E+02  0.51100000000E-03 0.  1.
    9900012    2    1    2    0    0 -0.82002290378E+00 -0.13298467640E+00  0.83843087389E+00  0.90007708164E+02  0.89999969112E+02 0.  0.
        -12    1    1    2    0    0  0.82002290378E+00  0.13298467640E+00 -0.83843087389E+00  0.11802918356E+01  0.00000000000E+00 0.  1.
         11    1    3    3    0    0 -0.35225685465E+02 -0.12796837737E+01  0.12298984821E+02  0.37332981865E+02  0.51100000000E-03 0. -1.
        -11    1    3    3    0    0 -0.80388981605E+01  0.26554292774E+01 -0.46552411062E+01  0.96615970885E+01  0.51100000000E-03 0.  1.
        -12    1    3    3    0    0  0.42444560722E+02 -0.15087301801E+01 -0.68053128410E+01  0.43013129211E+02  0.00000000000E+00 0.  1.
</event>
<event>
 7    1  0.1910099E-015  0.9000764E+02  0.7816164E-02  0.1186339E+00
        -11   -1    0    0    0    0  0.00000000000E+00  0.00000000000E+00  0.45593999997E+02  0.45594000000E+02  0.51100000000E-03 0. -1.
         11   -1    0    0    0    0 -0.00000000000E+00 -0.00000000000E+00 -0.45593999997E+02  0.45594000000E+02  0.51100000000E-03 0.  1.
    9900012    2    1    2    0    0  0.44598743858E+00  0.64298515271E+00  0.88369890761E+00  0.90007636301E+02  0.89999896300E+02 0.  0.
        -12    1    1    2    0    0 -0.44598743858E+00 -0.64298515271E+00 -0.88369890761E+00  0.11803636987E+01  0.00000000000E+00 0.  1.
         11    1    3    3    0    0  0.23704946279E+02 -0.35712079597E+01 -0.10657152652E+01  0.23996119555E+02  0.51100000000E-03 0. -1.
        -11    1    3    3    0    0 -0.21989948735E+01 -0.79416562752E+01 -0.26985590744E+02  0.28215733038E+02  0.51100000000E-03 0.  1.
         12    1    3    3    0    0 -0.21059963967E+02  0.12155849388E+02  0.28935004916E+02  0.37795783708E+02  0.00000000000E+00 0. -1.
</event>
<event>
 7    1  0.1910099E-015  0.9000767E+02  0.7816164E-02  0.1186339E+00
        -11   -1    0    0    0    0  0.00000000000E+00  0.00000000000E+00  0.45593999997E+02  0.45594000000E+02  0.51100000000E-03 0. -1.
         11   -1    0    0    0    0 -0.00000000000E+00 -0.00000000000E+00 -0.45593999997E+02  0.45594000000E+02  0.51100000000E-03 0.  1.
    9900012    2    1    2    0    0 -0.43129738285E+00 -0.10263677319E+01  0.39209211110E+00  0.90007667684E+02  0.89999928097E+02 0.  0.
        -12    1    1    2    0    0  0.43129738285E+00  0.10263677319E+01 -0.39209211110E+00  0.11803323164E+01  0.00000000000E+00 0.  1.
         11    1    3    3    0    0 -0.25543114316E+02 -0.33659865055E+02 -0.63101563579E+01  0.42723006425E+02  0.51100000000E-03 0. -1.
        -11    1    3    3    0    0  0.29163847898E+01 -0.22134222842E+01  0.46502260657E+01  0.59185421493E+01  0.51100000000E-03 0.  1.
        -12    1    3    3    0    0  0.22195432143E+02  0.34846919608E+02  0.20520224033E+01  0.41366119109E+02  0.00000000000E+00 0.  1.
</event>
<event>
 7    1  0.1910099E-015  0.9000797E+02  0.7816164E-02  0.1186339E+00
        -11   -1    0    0    0    0  0.00000000000E+00  0.00000000000E+00  0.45593999997E+02  0.45594000000E+02  0.51100000000E-03 0. -1.
         11   -1    0    0    0    0 -0.00000000000E+00 -0.00000000000E+00 -0.45593999997E+02  0.45594000000E+02  0.51100000000E-03 0.  1.
    9900012    2    1    2    0    0 -0.89202435751E+00  0.76471825504E+00  0.10935574926E+00  0.90007974516E+02  0.90000238979E+02 0.  0.
        -12    1    1    2    0    0  0.89202435751E+00 -0.76471825504E+00 -0.10935574926E+00  0.11800254844E+01  0.00000000000E+00 0.  1.
         11    1    3    3    0    0  0.18727127783E+02  0.29203622390E+02  0.38303722338E+01  0.34903132058E+02  0.51100000000E-03 0. -1.
        -11    1    3    3    0    0 -0.91822353087E+01  0.10804522919E+02 -0.29879009076E+01  0.14490642252E+02  0.51100000000E-03 0.  1.
        -12    1    3    3    0    0 -0.10436916832E+02 -0.39243427054E+02 -0.73311557693E+00  0.40614200206E+02  0.00000000000E+00 0.  1.
</event>
<event>
 7    1  0.1910099E-015  0.9000756E+02  0.7816164E-02  0.1186339E+00
        -11   -1    0    0    0    0  0.00000000000E+00  0.00000000000E+00  0.45593999997E+02  0.45594000000E+02  0.51100000000E-03 0.  1.
         11   -1    0    0    0    0 -0.00000000000E+00 -0.00000000000E+00 -0.45593999997E+02  0.45594000000E+02  0.51100000000E-03 0. -1.
    9900012    2    1    2    0    0 -0.50740658190E+00  0.40985304988E+00 -0.98387375615E+00  0.90007555791E+02  0.89999814728E+02 0.  0.
        -12    1    1    2    0    0  0.50740658190E+00 -0.40985304988E+00  0.98387375615E+00  0.11804442087E+01  0.00000000000E+00 0.  1.
         11    1    3    3    0    0 -0.32703938361E+02  0.18016953622E+02 -0.17329134642E+01  0.37378619443E+02  0.51100000000E-03 0. -1.
        -11    1    3    3    0    0 -0.77988304005E+01 -0.13122651557E+01 -0.45398815318E+01  0.91188990584E+01  0.51100000000E-03 0.  1.
        -12    1    3    3    0    0  0.39995362179E+02 -0.16294835417E+02  0.52889212398E+01  0.43510037290E+02  0.00000000000E+00 0.  1.
</event>
<event>
 7    1  0.1910099E-015  0.9000772E+02  0.7816164E-02  0.1186339E+00
        -11   -1    0    0    0    0  0.00000000000E+00  0.00000000000E+00  0.45593999997E+02  0.45594000000E+02  0.51100000000E-03 0. -1.
         11   -1    0    0    0    0 -0.00000000000E+00 -0.00000000000E+00 -0.45593999997E+02  0.45594000000E+02  0.51100000000E-03 0.  1.
    9900012    2    1    2    0    0  0.29340602843E+00  0.70646063385E+00  0.89882307164E+00  0.90007721796E+02  0.89999982924E+02 0.  0.
        -12    1    1    2    0    0 -0.29340602843E+00 -0.70646063385E+00 -0.89882307164E+00  0.11802782040E+01  0.00000000000E+00 0.  1.
         11    1    3    3    0    0  0.32878094299E+02  0.15274488301E+02  0.15732177399E+02  0.39519368461E+02  0.51100000000E-03 0. -1.
        -11    1    3    3    0    0  0.39039055083E+01 -0.75963858530E+01  0.32925646991E+01  0.91534987193E+01  0.51100000000E-03 0.  1.
        -12    1    3    3    0    0 -0.36488593779E+02 -0.69716418139E+01 -0.18125919026E+02  0.41334854616E+02  0.00000000000E+00 0.  1.
</event>
<event>
 7    1  0.1910099E-015  0.9000765E+02  0.7816164E-02  0.1186339E+00
        -11   -1    0    0    0    0  0.00000000000E+00  0.00000000000E+00  0.45593999997E+02  0.45594000000E+02  0.51100000000E-03 0. -1.
         11   -1    0    0    0    0 -0.00000000000E+00 -0.00000000000E+00 -0.45593999997E+02  0.45594000000E+02  0.51100000000E-03 0.  1.
    9900012    2    1    2    0    0 -0.36625751606E+00  0.10117236232E+01 -0.48529203175E+00  0.90007645132E+02  0.89999905248E+02 0.  0.
        -12    1    1    2    0    0  0.36625751606E+00 -0.10117236232E+01  0.48529203175E+00  0.11803548678E+01  0.00000000000E+00 0.  1.
         11    1    3    3    0    0  0.19394244280E+01 -0.50433314434E+01 -0.53484174480E+01  0.76027711145E+01  0.51100000000E-03 0. -1.
        -11    1    3    3    0    0  0.18296533225E+02  0.32720157795E+02 -0.18098522453E+02  0.41628456246E+02  0.51100000000E-03 0.  1.
         12    1    3    3    0    0 -0.20602215170E+02 -0.26665102729E+02  0.22961647869E+02  0.40776417772E+02  0.00000000000E+00 0. -1.
</event>
<event>
 7    1  0.1910099E-015  0.9000778E+02  0.7816164E-02  0.1186339E+00
        -11   -1    0    0    0    0  0.00000000000E+00  0.00000000000E+00  0.45593999997E+02  0.45594000000E+02  0.51100000000E-03 0. -1.
         11   -1    0    0    0    0 -0.00000000000E+00 -0.00000000000E+00 -0.45593999997E+02  0.45594000000E+02  0.51100000000E-03 0.  1.
    9900012    2    1    2    0    0  0.50248587778E-01  0.10720769570E+01 -0.49096173671E+00  0.90007780805E+02  0.90000042711E+02 0.  0.
        -12    1    1    2    0    0 -0.50248587778E-01 -0.10720769570E+01  0.49096173671E+00  0.11802191954E+01  0.00000000000E+00 0.  1.
         11    1    3    3    0    0 -0.97270307343E+01 -0.23264980068E+00  0.45893495129E+01  0.10757852111E+02  0.51100000000E-03 0. -1.
        -11    1    3    3    0    0 -0.22535362169E+02 -0.26787125219E+02 -0.93169081990E+01  0.36224265406E+02  0.51100000000E-03 0.  1.
         12    1    3    3    0    0  0.32312641491E+02  0.28091851976E+02  0.42365969493E+01  0.43025663287E+02  0.00000000000E+00 0. -1.
</event>
<event>
 7    1  0.1910099E-015  0.9000789E+02  0.7816164E-02  0.1186339E+00
        -11   -1    0    0    0    0  0.00000000000E+00  0.00000000000E+00  0.45593999997E+02  0.45594000000E+02  0.51100000000E-03 0. -1.
         11   -1    0    0    0    0 -0.00000000000E+00 -0.00000000000E+00 -0.45593999997E+02  0.45594000000E+02  0.51100000000E-03 0.  1.
    9900012    2    1    2    0    0 -0.27977427934E+00  0.63042508572E+00  0.95757863145E+00  0.90007887178E+02  0.90000150489E+02 0.  0.
        -12    1    1    2    0    0  0.27977427934E+00 -0.63042508572E+00 -0.95757863145E+00  0.11801128215E+01  0.00000000000E+00 0.  1.
         11    1    3    3    0    0 -0.29107247192E+01 -0.18361901126E+01  0.37462622899E+02  0.37620367187E+02  0.51100000000E-03 0. -1.
        -11    1    3    3    0    0 -0.11222083527E+02 -0.88910638281E+00  0.19056649008E+01  0.11417408980E+02  0.51100000000E-03 0.  1.
        -12    1    3    3    0    0  0.13853033967E+02  0.33557215812E+01 -0.38410709169E+02  0.40970111011E+02  0.00000000000E+00 0.  1.
</event>
<event>
 7    1  0.1910099E-015  0.9000772E+02  0.7816164E-02  0.1186339E+00
        -11   -1    0    0    0    0  0.00000000000E+00  0.00000000000E+00  0.45593999997E+02  0.45594000000E+02  0.51100000000E-03 0. -1.
         11   -1    0    0    0    0 -0.00000000000E+00 -0.00000000000E+00 -0.45593999997E+02  0.45594000000E+02  0.51100000000E-03 0.  1.
    9900012    2    1    2    0    0 -0.10152469117E+01  0.49998768540E+00  0.33518088677E+00  0.90007720286E+02  0.89999981393E+02 0.  0.
        -12    1    1    2    0    0  0.10152469117E+01 -0.49998768540E+00 -0.33518088677E+00  0.11802797144E+01  0.00000000000E+00 0.  1.
         11    1    3    3    0    0 -0.11747059784E+01  0.54482181542E+01 -0.73860525059E+00  0.56221484478E+01  0.51100000000E-03 0. -1.
        -11    1    3    3    0    0 -0.38528836240E+00  0.16182699311E+02 -0.37252064429E+02  0.40617047020E+02  0.51100000000E-03 0.  1.
         12    1    3    3    0    0  0.54474742911E+00 -0.21130929780E+02  0.38325850566E+02  0.43768524818E+02  0.00000000000E+00 0. -1.
</event>
<event>
 7    1  0.1910099E-015  0.9000774E+02  0.7816164E-02  0.1186339E+00
        -11   -1    0    0    0    0  0.00000000000E+00  0.00000000000E+00  0.45593999997E+02  0.45594000000E+02  0.51100000000E-03 0. -1.
         11   -1    0    0    0    0 -0.00000000000E+00 -0.00000000000E+00 -0.45593999997E+02  0.45594000000E+02  0.51100000000E-03 0.  1.
    9900012    2    1    2    0    0  0.10349833780E+01 -0.46717469305E+00  0.32181460153E+00  0.90007742645E+02  0.90000004048E+02 0.  0.
        -12    1    1    2    0    0 -0.10349833780E+01  0.46717469305E+00 -0.32181460153E+00  0.11802573551E+01  0.00000000000E+00 0.  1.
         11    1    3    3    0    0  0.82810052918E+00 -0.69344685155E+01 -0.63507909026E+01  0.94395523955E+01  0.51100000000E-03 0. -1.
        -11    1    3    3    0    0 -0.14523302864E+02  0.17374913228E+02 -0.31165730200E+02  0.38524234904E+02  0.51100000000E-03 0.  1.
         12    1    3    3    0    0  0.14730185713E+02 -0.10907619406E+02  0.37838335704E+02  0.42043955345E+02  0.00000000000E+00 0. -1.
</event>
<event>
 7    1  0.1910099E-015  0.9000811E+02  0.7816164E-02  0.1186338E+00
        -11   -1    0    0    0    0  0.00000000000E+00  0.00000000000E+00  0.45593999997E+02  0.45594000000E+02  0.51100000000E-03 0.  1.
         11   -1    0    0    0    0 -0.00000000000E+00 -0.00000000000E+00 -0.45593999997E+02  0.45594000000E+02  0.51100000000E-03 0. -1.
    9900012    2    1    2    0    0  0.97979958878E+00  0.65148741740E+00  0.87750876071E-01  0.90008108774E+02  0.90000375009E+02 0.  0.
        -12    1    1    2    0    0 -0.97979958878E+00 -0.65148741740E+00 -0.87750876071E-01  0.11798912261E+01  0.00000000000E+00 0.  1.
         11    1    3    3    0    0 -0.22843543651E+01 -0.25658623105E+01  0.89303943766E+01  0.95683785588E+01  0.51100000000E-03 0. -1.
        -11    1    3    3    0    0 -0.33494659093E+02  0.10948135648E+02  0.12314453395E+02  0.37328268438E+02  0.51100000000E-03 0.  1.
         12    1    3    3    0    0  0.36758813047E+02 -0.77307859205E+01 -0.21157096895E+02  0.43111461777E+02  0.00000000000E+00 0. -1.
</event>
<event>
 7    1  0.1910099E-015  0.9000773E+02  0.7816164E-02  0.1186339E+00
        -11   -1    0    0    0    0  0.00000000000E+00  0.00000000000E+00  0.45593999997E+02  0.45594000000E+02  0.51100000000E-03 0.  1.
         11   -1    0    0    0    0 -0.00000000000E+00 -0.00000000000E+00 -0.45593999997E+02  0.45594000000E+02  0.51100000000E-03 0. -1.
    9900012    2    1    2    0    0  0.27834281384E+00 -0.55248933487E+00 -0.10051422956E+01  0.90007732987E+02  0.89999994263E+02 0.  0.
        -12    1    1    2    0    0 -0.27834281384E+00  0.55248933487E+00  0.10051422956E+01  0.11802670128E+01  0.00000000000E+00 0.  1.
         11    1    3    3    0    0 -0.22455703164E+01  0.10547821073E+01 -0.82844862731E+01  0.86479977110E+01  0.51100000000E-03 0. -1.
        -11    1    3    3    0    0 -0.21355537318E+02  0.32513864129E+02  0.79646789251E+01  0.39707007510E+02  0.51100000000E-03 0.  1.
         12    1    3    3    0    0  0.23879450448E+02 -0.34121135571E+02 -0.68533494766E+00  0.41652727766E+02  0.00000000000E+00 0. -1.
</event>
<event>
 7    1  0.1910099E-015  0.9000766E+02  0.7816164E-02  0.1186339E+00
        -11   -1    0    0    0    0  0.00000000000E+00  0.00000000000E+00  0.45593999997E+02  0.45594000000E+02  0.51100000000E-03 0.  1.
         11   -1    0    0    0    0 -0.00000000000E+00 -0.00000000000E+00 -0.45593999997E+02  0.45594000000E+02  0.51100000000E-03 0. -1.
    9900012    2    1    2    0    0 -0.76461783226E+00 -0.56799977992E+00  0.69710009566E+00  0.90007655676E+02  0.89999915931E+02 0.  0.
        -12    1    1    2    0    0  0.76461783226E+00  0.56799977992E+00 -0.69710009566E+00  0.11803443238E+01  0.00000000000E+00 0.  1.
         11    1    3    3    0    0  0.48053681150E+01  0.30073507172E+01  0.30340938667E+01  0.64297314804E+01  0.51100000000E-03 0. -1.
        -11    1    3    3    0    0  0.73610717552E+01  0.24559556079E+02  0.29555582053E+02  0.39126584350E+02  0.51100000000E-03 0.  1.
         12    1    3    3    0    0 -0.12931057702E+02 -0.28134906577E+02 -0.31892575824E+02  0.44451339845E+02  0.00000000000E+00 0. -1.
</event>
