<event>
 7    1  0.2385752E-015  0.9000768E+02  0.7816164E-02  0.1186339E+00
        -11   -1    0    0    0    0  0.00000000000E+00  0.00000000000E+00  0.45593999997E+02  0.45594000000E+02  0.51100000000E-03 0. -1.
         11   -1    0    0    0    0 -0.00000000000E+00 -0.00000000000E+00 -0.45593999997E+02  0.45594000000E+02  0.51100000000E-03 0.  1.
    9900012    2    1    2    0    0 -0.10683148868E+01 -0.48573360617E+00  0.12620531640E+00  0.90007677326E+02  0.89999937866E+02 0.  0.
        -12    1    1    2    0    0  0.10683148868E+01  0.48573360617E+00 -0.12620531640E+00  0.11803226743E+01  0.00000000000E+00 0.  1.
         11    1    3    3    0    0  0.93584800335E+01 -0.26676663681E+01  0.18728781368E+01  0.99098569700E+01  0.51100000000E-03 0. -1.
        -11    1    3    3    0    0  0.12720614660E+02 -0.11961744475E+02 -0.33837964416E+02  0.38077620780E+02  0.51100000000E-03 0.  1.
         12    1    3    3    0    0 -0.23147409581E+02  0.14143677237E+02  0.32091291595E+02  0.42020199575E+02  0.00000000000E+00 0. -1.
</event>
<event>
 7    1  0.2385752E-015  0.9000780E+02  0.7816164E-02  0.1186339E+00
        -11   -1    0    0    0    0  0.00000000000E+00  0.00000000000E+00  0.45593999997E+02  0.45594000000E+02  0.51100000000E-03 0.  1.
         11   -1    0    0    0    0 -0.00000000000E+00 -0.00000000000E+00 -0.45593999997E+02  0.45594000000E+02  0.51100000000E-03 0. -1.
    9900012    2    1    2    0    0 -0.53601050507E+00 -0.24803964670E-01 -0.10511676585E+01  0.90007798346E+02  0.90000060484E+02 0.  0.
        -12    1    1    2    0    0  0.53601050507E+00  0.24803964670E-01  0.10511676585E+01  0.11802016541E+01  0.00000000000E+00 0.  1.
         11    1    3    3    0    0 -0.93936528933E+01  0.35216085907E+02 -0.13904044714E+01  0.36473917340E+02  0.51100000000E-03 0. -1.
        -11    1    3    3    0    0 -0.60151186456E+00  0.86294419041E+01 -0.18318021030E+00  0.86523198826E+01  0.51100000000E-03 0.  1.
        -12    1    3    3    0    0  0.94591542528E+01 -0.43870331776E+02  0.52241702320E+00  0.44881561123E+02  0.00000000000E+00 0.  1.
</event>
<event>
 7    1  0.2385752E-015  0.9000760E+02  0.7816164E-02  0.1186339E+00
        -11   -1    0    0    0    0  0.00000000000E+00  0.00000000000E+00  0.45593999997E+02  0.45594000000E+02  0.51100000000E-03 0.  1.
         11   -1    0    0    0    0 -0.00000000000E+00 -0.00000000000E+00 -0.45593999997E+02  0.45594000000E+02  0.51100000000E-03 0. -1.
    9900012    2    1    2    0    0  0.52175382648E+00 -0.89189426254E-01 -0.10550639428E+01  0.90007601028E+02  0.89999860562E+02 0.  0.
        -12    1    1    2    0    0 -0.52175382648E+00  0.89189426254E-01  0.10550639428E+01  0.11803989717E+01  0.00000000000E+00 0.  1.
         11    1    3    3    0    0  0.28633672129E+01  0.20517300078E+02 -0.34776307867E+02  0.40479007688E+02  0.51100000000E-03 0. -1.
        -11    1    3    3    0    0  0.68759339727E+01  0.53599747683E+01  0.84194347563E+01  0.12120011526E+02  0.51100000000E-03 0.  1.
        -12    1    3    3    0    0 -0.92175473591E+01 -0.25966464273E+02  0.25301809168E+02  0.37408581814E+02  0.00000000000E+00 0.  1.
</event>
<event>
 7    1  0.2385752E-015  0.9000789E+02  0.7816164E-02  0.1186339E+00
        -11   -1    0    0    0    0  0.00000000000E+00  0.00000000000E+00  0.45593999997E+02  0.45594000000E+02  0.51100000000E-03 0.  1.
         11   -1    0    0    0    0 -0.00000000000E+00 -0.00000000000E+00 -0.45593999997E+02  0.45594000000E+02  0.51100000000E-03 0. -1.
    9900012    2    1    2    0    0 -0.13452790194E+00  0.95061051426E+00 -0.68622062189E+00  0.90007891171E+02  0.90000154534E+02 0.  0.
        -12    1    1    2    0    0  0.13452790194E+00 -0.95061051426E+00  0.68622062189E+00  0.11801088289E+01  0.00000000000E+00 0.  1.
         11    1    3    3    0    0  0.78375202840E+01  0.14636539312E+01  0.28299021862E+01  0.84603400450E+01  0.51100000000E-03 0. -1.
        -11    1    3    3    0    0  0.20691879232E+02  0.11703612404E+02  0.28337473847E+02  0.36988387823E+02  0.51100000000E-03 0.  1.
         12    1    3    3    0    0 -0.28663927418E+02 -0.12216655821E+02 -0.31853596655E+02  0.44559163303E+02  0.00000000000E+00 0. -1.
</event>
<event>
 7    1  0.2385752E-015  0.9000788E+02  0.7816164E-02  0.1186339E+00
        -11   -1    0    0    0    0  0.00000000000E+00  0.00000000000E+00  0.45593999997E+02  0.45594000000E+02  0.51100000000E-03 0.  1.
         11   -1    0    0    0    0 -0.00000000000E+00 -0.00000000000E+00 -0.45593999997E+02  0.45594000000E+02  0.51100000000E-03 0. -1.
    9900012    2    1    2    0    0  0.42692926324E+00 -0.10491278128E+01 -0.33128018741E+00  0.90007879529E+02  0.90000142739E+02 0.  0.
        -12    1    1    2    0    0 -0.42692926324E+00  0.10491278128E+01  0.33128018741E+00  0.11801204710E+01  0.00000000000E+00 0.  1.
         11    1    3    3    0    0 -0.20108529328E+02 -0.24150028990E+02  0.28129473494E+02  0.42176345637E+02  0.51100000000E-03 0. -1.
        -11    1    3    3    0    0 -0.17053367711E+00  0.20821664516E+01  0.36614090944E+01  0.42154970863E+01  0.51100000000E-03 0.  1.
        -12    1    3    3    0    0  0.20705992268E+02  0.21018734725E+02 -0.32122162776E+02  0.43616036806E+02  0.00000000000E+00 0.  1.
</event>
<event>
 7    1  0.2385752E-015  0.9000780E+02  0.7816164E-02  0.1186339E+00
        -11   -1    0    0    0    0  0.00000000000E+00  0.00000000000E+00  0.45593999997E+02  0.45594000000E+02  0.51100000000E-03 0. -1.
         11   -1    0    0    0    0 -0.00000000000E+00 -0.00000000000E+00 -0.45593999997E+02  0.45594000000E+02  0.51100000000E-03 0.  1.
    9900012    2    1    2    0    0  0.17444804101E+00  0.18384054457E+00  0.11526658720E+01  0.90007801679E+02  0.90000063861E+02 0.  0.
        -12    1    1    2    0    0 -0.17444804101E+00 -0.18384054457E+00 -0.11526658720E+01  0.11801983212E+01  0.00000000000E+00 0.  1.
         11    1    3    3    0    0  0.13134290835E+02  0.27805303151E+02  0.24336546436E+02  0.39216220773E+02  0.51100000000E-03 0. -1.
        -11    1    3    3    0    0  0.20751458130E+01 -0.39151463154E+01  0.78069752223E+01  0.89768292397E+01  0.51100000000E-03 0.  1.
        -12    1    3    3    0    0 -0.15034988607E+02 -0.23706316291E+02 -0.30990855786E+02  0.41814751666E+02  0.00000000000E+00 0.  1.
</event>
<event>
 7    1  0.2385752E-015  0.9000778E+02  0.7816164E-02  0.1186339E+00
        -11   -1    0    0    0    0  0.00000000000E+00  0.00000000000E+00  0.45593999997E+02  0.45594000000E+02  0.51100000000E-03 0.  1.
         11   -1    0    0    0    0 -0.00000000000E+00 -0.00000000000E+00 -0.45593999997E+02  0.45594000000E+02  0.51100000000E-03 0. -1.
    9900012    2    1    2    0    0 -0.76675359358E+00 -0.88430111468E+00 -0.15172960828E+00  0.90007779085E+02  0.90000040969E+02 0.  0.
        -12    1    1    2    0    0  0.76675359358E+00  0.88430111468E+00  0.15172960828E+00  0.11802209152E+01  0.00000000000E+00 0.  1.
         11    1    3    3    0    0  0.45620032362E+01 -0.33974745299E+02 -0.94096188267E+01  0.35547659816E+02  0.51100000000E-03 0. -1.
        -11    1    3    3    0    0  0.28870770078E+01 -0.84052873776E+01 -0.45212410741E+01  0.99712431853E+01  0.51100000000E-03 0.  1.
        -12    1    3    3    0    0 -0.82158338376E+01  0.41495731562E+02  0.13779130293E+02  0.44488876083E+02  0.00000000000E+00 0.  1.
</event>
<event>
 7    1  0.2385752E-015  0.9000795E+02  0.7816164E-02  0.1186339E+00
        -11   -1    0    0    0    0  0.00000000000E+00  0.00000000000E+00  0.45593999997E+02  0.45594000000E+02  0.51100000000E-03 0. -1.
         11   -1    0    0    0    0 -0.00000000000E+00 -0.00000000000E+00 -0.45593999997E+02  0.45594000000E+02  0.51100000000E-03 0.  1.
    9900012    2    1    2    0    0  0.77640701590E+00  0.22483030571E+00  0.85974498856E+00  0.90007950015E+02  0.90000214155E+02 0.  0.
        -12    1    1    2    0    0 -0.77640701590E+00 -0.22483030571E+00 -0.85974498856E+00  0.11800499846E+01  0.00000000000E+00 0.  1.
         11    1    3    3    0    0  0.16366562854E+02  0.30514272693E+02  0.19464917351E+01  0.34681032971E+02  0.51100000000E-03 0. -1.
        -11    1    3    3    0    0  0.56856641335E+01  0.87513089613E+01 -0.28894246989E+01  0.10828710012E+02  0.51100000000E-03 0.  1.
        -12    1    3    3    0    0 -0.21275819972E+02 -0.39040751348E+02  0.18026779523E+01  0.44498207032E+02  0.00000000000E+00 0.  1.
</event>
<event>
 7    1  0.2385752E-015  0.9000776E+02  0.7816164E-02  0.1186339E+00
        -11   -1    0    0    0    0  0.00000000000E+00  0.00000000000E+00  0.45593999997E+02  0.45594000000E+02  0.51100000000E-03 0. -1.
         11   -1    0    0    0    0 -0.00000000000E+00 -0.00000000000E+00 -0.45593999997E+02  0.45594000000E+02  0.51100000000E-03 0.  1.
    9900012    2    1    2    0    0 -0.82363364664E+00 -0.74044799542E+00  0.40782391237E+00  0.90007764447E+02  0.90000026137E+02 0.  0.
        -12    1    1    2    0    0  0.82363364664E+00  0.74044799542E+00 -0.40782391237E+00  0.11802355533E+01  0.00000000000E+00 0.  1.
         11    1    3    3    0    0  0.10623083720E+00 -0.62565180358E+01 -0.32780352712E+01  0.70640511340E+01  0.51100000000E-03 0. -1.
        -11    1    3    3    0    0  0.29421409031E+02 -0.25150612331E+02 -0.46968257019E+01  0.38990162631E+02  0.51100000000E-03 0.  1.
         12    1    3    3    0    0 -0.30351273515E+02  0.30666682372E+02  0.83826848855E+01  0.43953550682E+02  0.00000000000E+00 0. -1.
</event>
<event>
 7    1  0.2385752E-015  0.9000782E+02  0.7816164E-02  0.1186339E+00
        -11   -1    0    0    0    0  0.00000000000E+00  0.00000000000E+00  0.45593999997E+02  0.45594000000E+02  0.51100000000E-03 0. -1.
         11   -1    0    0    0    0 -0.00000000000E+00 -0.00000000000E+00 -0.45593999997E+02  0.45594000000E+02  0.51100000000E-03 0.  1.
    9900012    2    1    2    0    0  0.19811654517E+00 -0.25743999362E+00  0.11345890772E+01  0.90007822941E+02  0.90000085404E+02 0.  0.
        -12    1    1    2    0    0 -0.19811654517E+00  0.25743999362E+00 -0.11345890772E+01  0.11801770587E+01  0.00000000000E+00 0.  1.
         11    1    3    3    0    0  0.13088860535E+01 -0.58825490915E+01 -0.85746475838E+01  0.10480560479E+02  0.51100000000E-03 0. -1.
        -11    1    3    3    0    0  0.15132837123E+02 -0.41547445698E+01 -0.30929599185E+02  0.34682917522E+02  0.51100000000E-03 0.  1.
         12    1    3    3    0    0 -0.16243606631E+02  0.97798536676E+01  0.40638835846E+02  0.44844344940E+02  0.00000000000E+00 0. -1.
</event>
<event>
 7    1  0.2385752E-015  0.9000777E+02  0.7816164E-02  0.1186339E+00
        -11   -1    0    0    0    0  0.00000000000E+00  0.00000000000E+00  0.45593999997E+02  0.45594000000E+02  0.51100000000E-03 0.  1.
         11   -1    0    0    0    0 -0.00000000000E+00 -0.00000000000E+00 -0.45593999997E+02  0.45594000000E+02  0.51100000000E-03 0. -1.
    9900012    2    1    2    0    0 -0.10665689371E+01 -0.20865073093E-01 -0.50491373632E+00  0.90007770137E+02  0.90000031903E+02 0.  0.
        -12    1    1    2    0    0  0.10665689371E+01  0.20865073093E-01  0.50491373632E+00  0.11802298632E+01  0.00000000000E+00 0.  1.
         11    1    3    3    0    0  0.36918223363E+02 -0.19116901624E+02  0.11408696459E+02  0.43111129644E+02  0.51100000000E-03 0. -1.
        -11    1    3    3    0    0 -0.11037197127E+02 -0.17156001812E+01 -0.45507254843E+01  0.12061181828E+02  0.51100000000E-03 0.  1.
        -12    1    3    3    0    0 -0.26947595174E+02  0.20811636732E+02 -0.73628847115E+01  0.34835458665E+02  0.00000000000E+00 0.  1.
</event>
<event>
 7    1  0.2385752E-015  0.9000765E+02  0.7816164E-02  0.1186339E+00
        -11   -1    0    0    0    0  0.00000000000E+00  0.00000000000E+00  0.45593999997E+02  0.45594000000E+02  0.51100000000E-03 0.  1.
         11   -1    0    0    0    0 -0.00000000000E+00 -0.00000000000E+00 -0.45593999997E+02  0.45594000000E+02  0.51100000000E-03 0. -1.
    9900012    2    1    2    0    0 -0.58080526549E+00  0.68668160356E+00  0.76443522962E+00  0.90007649374E+02  0.89999909545E+02 0.  0.
        -12    1    1    2    0    0  0.58080526549E+00 -0.68668160356E+00 -0.76443522962E+00  0.11803506264E+01  0.00000000000E+00 0.  1.
         11    1    3    3    0    0 -0.38360154085E+01 -0.77872440193E+01  0.34077517650E+01  0.93257147706E+01  0.51100000000E-03 0. -1.
        -11    1    3    3    0    0 -0.24395278319E+02  0.18647603270E+02  0.25517896695E+02  0.39925252210E+02  0.51100000000E-03 0.  1.
         12    1    3    3    0    0  0.27650488462E+02 -0.10173677648E+02 -0.28161213231E+02  0.40756682393E+02  0.00000000000E+00 0. -1.
</event>
<event>
 7    1  0.2385752E-015  0.9000780E+02  0.7816164E-02  0.1186339E+00
        -11   -1    0    0    0    0  0.00000000000E+00  0.00000000000E+00  0.45593999997E+02  0.45594000000E+02  0.51100000000E-03 0.  1.
         11   -1    0    0    0    0 -0.00000000000E+00 -0.00000000000E+00 -0.45593999997E+02  0.45594000000E+02  0.51100000000E-03 0. -1.
    9900012    2    1    2    0    0  0.86256110794E-01  0.69249567438E+00 -0.95178169463E+00  0.90007797149E+02  0.90000059271E+02 0.  0.
        -12    1    1    2    0    0 -0.86256110794E-01 -0.69249567438E+00  0.95178169463E+00  0.11802028512E+01  0.00000000000E+00 0.  1.
         11    1    3    3    0    0 -0.31080855297E+02 -0.16774435998E+02 -0.83844811298E+01  0.36300148665E+02  0.51100000000E-03 0. -1.
        -11    1    3    3    0    0 -0.91311409668E+01 -0.28620810869E+00  0.72668880631E+00  0.91644818358E+01  0.51100000000E-03 0.  1.
        -12    1    3    3    0    0  0.40298252374E+02  0.17753139781E+02  0.67060106289E+01  0.44543166648E+02  0.00000000000E+00 0.  1.
</event>
<event>
 7    1  0.2385752E-015  0.9000763E+02  0.7816164E-02  0.1186339E+00
        -11   -1    0    0    0    0  0.00000000000E+00  0.00000000000E+00  0.45593999997E+02  0.45594000000E+02  0.51100000000E-03 0.  1.
         11   -1    0    0    0    0 -0.00000000000E+00 -0.00000000000E+00 -0.45593999997E+02  0.45594000000E+02  0.51100000000E-03 0. -1.
    9900012    2    1    2    0    0  0.10265280475E+01  0.46240101241E+00 -0.35454947768E+00  0.90007627237E+02  0.89999887116E+02 0.  0.
        -12    1    1    2    0    0 -0.10265280475E+01 -0.46240101241E+00  0.35454947768E+00  0.11803727634E+01  0.00000000000E+00 0.  1.
         11    1    3    3    0    0  0.58453811545E+01  0.40391003720E+00  0.75825185161E+01  0.95825994108E+01  0.51100000000E-03 0. -1.
        -11    1    3    3    0    0  0.26437454900E+02  0.25456228145E+02  0.71994870503E+01  0.37400416936E+02  0.51100000000E-03 0.  1.
         12    1    3    3    0    0 -0.31256308007E+02 -0.25397737170E+02 -0.15136555044E+02  0.43024610889E+02  0.00000000000E+00 0. -1.
</event>
<event>
 7    1  0.2385752E-015  0.9000776E+02  0.7816164E-02  0.1186339E+00
        -11   -1    0    0    0    0  0.00000000000E+00  0.00000000000E+00  0.45593999997E+02  0.45594000000E+02  0.51100000000E-03 0. -1.
         11   -1    0    0    0    0 -0.00000000000E+00 -0.00000000000E+00 -0.45593999997E+02  0.45594000000E+02  0.51100000000E-03 0.  1.
    9900012    2    1    2    0    0  0.94706471155E+00  0.27891253912E+00  0.64672526457E+00  0.90007755390E+02  0.90000016961E+02 0.  0.
        -12    1    1    2    0    0 -0.94706471155E+00 -0.27891253912E+00 -0.64672526457E+00  0.11802446103E+01  0.00000000000E+00 0.  1.
         11    1    3    3    0    0 -0.26077908424E+01 -0.20278018943E+01  0.91854907308E+01  0.97614442490E+01  0.51100000000E-03 0. -1.
        -11    1    3    3    0    0 -0.36423391564E+02  0.10286261448E+01 -0.15586363984E+02  0.39631505993E+02  0.51100000000E-03 0.  1.
         12    1    3    3    0    0  0.39978247118E+02  0.12780882887E+01  0.70475985175E+01  0.40614805148E+02  0.00000000000E+00 0. -1.
</event>
<event>
 7    1  0.2385752E-015  0.9000780E+02  0.7816164E-02  0.1186339E+00
        -11   -1    0    0    0    0  0.00000000000E+00  0.00000000000E+00  0.45593999997E+02  0.45594000000E+02  0.51100000000E-03 0. -1.
         11   -1    0    0    0    0 -0.00000000000E+00 -0.00000000000E+00 -0.45593999997E+02  0.45594000000E+02  0.51100000000E-03 0.  1.
    9900012    2    1    2    0    0 -0.95880926957E+00 -0.21084509314E+00  0.65505674923E+00  0.90007800774E+02  0.90000062944E+02 0.  0.
        -12    1    1    2    0    0  0.95880926957E+00  0.21084509314E+00 -0.65505674923E+00  0.11801992262E+01  0.00000000000E+00 0.  1.
         11    1    3    3    0    0 -0.35520531447E+01 -0.26479306628E+01  0.92411082578E+01  0.10248253531E+02  0.51100000000E-03 0. -1.
        -11    1    3    3    0    0  0.38438800757E+02 -0.11164438273E+02 -0.10469844885E+02  0.41373949990E+02  0.51100000000E-03 0.  1.
         12    1    3    3    0    0 -0.35845556882E+02  0.13601523843E+02  0.18837933766E+01  0.38385597253E+02  0.00000000000E+00 0. -1.
</event>
<event>
 7    1  0.2385752E-015  0.9000788E+02  0.7816164E-02  0.1186339E+00
        -11   -1    0    0    0    0  0.00000000000E+00  0.00000000000E+00  0.45593999997E+02  0.45594000000E+02  0.51100000000E-03 0. -1.
         11   -1    0    0    0    0 -0.00000000000E+00 -0.00000000000E+00 -0.45593999997E+02  0.45594000000E+02  0.51100000000E-03 0.  1.
    9900012    2    1    2    0    0  0.11457388809E+01  0.19312861867E+00  0.20657861184E+00  0.90007876714E+02  0.90000139887E+02 0.  0.
        -12    1    1    2    0    0 -0.11457388809E+01 -0.19312861867E+00 -0.20657861184E+00  0.11801232857E+01  0.00000000000E+00 0.  1.
         11    1    3    3    0    0 -0.12889220544E+02  0.42371417490E+01  0.33238041967E+02  0.35900596241E+02  0.51100000000E-03 0. -1.
        -11    1    3    3    0    0  0.66654921132E+01  0.14676686656E+01  0.88785964625E+01  0.11198763853E+02  0.51100000000E-03 0.  1.
        -12    1    3    3    0    0  0.73694673122E+01 -0.55116817959E+01 -0.41910059817E+02  0.42908516620E+02  0.00000000000E+00 0.  1.
</event>
<event>
 7    1  0.2385752E-015  0.9000782E+02  0.7816164E-02  0.1186339E+00
        -11   -1    0    0    0    0  0.00000000000E+00  0.00000000000E+00  0.45593999997E+02  0.45594000000E+02  0.51100000000E-03 0.  1.
         11   -1    0    0    0    0 -0.00000000000E+00 -0.00000000000E+00 -0.45593999997E+02  0.45594000000E+02  0.51100000000E-03 0. -1.
    9900012    2    1    2    0    0  0.10928569471E+01 -0.16989459860E+00 -0.41186879506E+00  0.90007815105E+02  0.90000077465E+02 0.  0.
        -12    1    1    2    0    0 -0.10928569471E+01  0.16989459860E+00  0.41186879506E+00  0.11801848948E+01  0.00000000000E+00 0.  1.
         11    1    3    3    0    0 -0.11255690538E+02  0.11015565782E+01  0.47473402934E+00  0.11319424413E+02  0.51100000000E-03 0. -1.
        -11    1    3    3    0    0 -0.22573913148E+02  0.13639312301E+02  0.22005726764E+02  0.34349154364E+02  0.51100000000E-03 0.  1.
         12    1    3    3    0    0  0.34922460633E+02 -0.14910763478E+02 -0.22892329589E+02  0.44339236328E+02  0.00000000000E+00 0. -1.
</event>
<event>
 7    1  0.2385752E-015  0.9000656E+02  0.7816164E-02  0.1186341E+00
        -11   -1    0    0    0    0  0.00000000000E+00  0.00000000000E+00  0.45593999997E+02  0.45594000000E+02  0.51100000000E-03 0.  1.
         11   -1    0    0    0    0 -0.00000000000E+00 -0.00000000000E+00 -0.45593999997E+02  0.45594000000E+02  0.51100000000E-03 0. -1.
    9900012    2    1    2    0    0  0.51741059352E+00 -0.64304430646E+00 -0.84532318407E+00  0.90006564014E+02  0.89998809852E+02 0.  0.
        -12    1    1    2    0    0 -0.51741059352E+00  0.64304430646E+00  0.84532318407E+00  0.11814359855E+01  0.00000000000E+00 0.  1.
         11    1    3    3    0    0  0.37884915237E+01  0.17878971026E+02  0.30157446889E+02  0.35263038385E+02  0.51100000000E-03 0. -1.
        -11    1    3    3    0    0 -0.14572141216E+02 -0.12771031698E+00  0.26006036394E+01  0.14802930423E+02  0.51100000000E-03 0.  1.
        -12    1    3    3    0    0  0.11301060286E+02 -0.18394305016E+02 -0.33603373713E+02  0.39940595207E+02  0.00000000000E+00 0.  1.
</event>
<event>
 7    1  0.2385752E-015  0.9000784E+02  0.7816164E-02  0.1186339E+00
        -11   -1    0    0    0    0  0.00000000000E+00  0.00000000000E+00  0.45593999997E+02  0.45594000000E+02  0.51100000000E-03 0. -1.
         11   -1    0    0    0    0 -0.00000000000E+00 -0.00000000000E+00 -0.45593999997E+02  0.45594000000E+02  0.51100000000E-03 0.  1.
    9900012    2    1    2    0    0  0.92768495806E+00 -0.26227887905E+00  0.68072769713E+00  0.90007839083E+02  0.90000101759E+02 0.  0.
        -12    1    1    2    0    0 -0.92768495806E+00  0.26227887905E+00 -0.68072769713E+00  0.11801609168E+01  0.00000000000E+00 0.  1.
         11    1    3    3    0    0  0.14181528017E+02  0.99783747162E+01  0.15890901914E+02  0.23520298952E+02  0.51100000000E-03 0. -1.
        -11    1    3    3    0    0 -0.23835834954E+02  0.17165476964E+02  0.63437169920E+01  0.30050680073E+02  0.51100000000E-03 0.  1.
        -12    1    3    3    0    0  0.10581991894E+02 -0.27406130559E+02 -0.21553891209E+02  0.36436860058E+02  0.00000000000E+00 0.  1.
</event>
<event>
 7    1  0.2385752E-015  0.9000777E+02  0.7816164E-02  0.1186339E+00
        -11   -1    0    0    0    0  0.00000000000E+00  0.00000000000E+00  0.45593999997E+02  0.45594000000E+02  0.51100000000E-03 0. -1.
         11   -1    0    0    0    0 -0.00000000000E+00 -0.00000000000E+00 -0.45593999997E+02  0.45594000000E+02  0.51100000000E-03 0.  1.
    9900012    2    1    2    0    0 -0.98791202611E+00 -0.62680405935E-01  0.64268226544E+00  0.90007771421E+02  0.90000033204E+02 0.  0.
        -12    1    1    2    0    0  0.98791202611E+00  0.62680405935E-01 -0.64268226544E+00  0.11802285791E+01  0.00000000000E+00 0.  1.
         11    1    3    3    0    0  0.18035721306E+02 -0.31908945300E+02  0.15221606790E+01  0.36684942505E+02  0.51100000000E-03 0. -1.
        -11    1    3    3    0    0  0.24059560488E+01 -0.57421929083E+01 -0.72853557502E+01  0.95832047131E+01  0.51100000000E-03 0.  1.
        -12    1    3    3    0    0 -0.21429589381E+02  0.37588457802E+02  0.64058773366E+01  0.43739624203E+02  0.00000000000E+00 0.  1.
</event>
<event>
 7    1  0.2385752E-015  0.9000739E+02  0.7816164E-02  0.1186340E+00
        -11   -1    0    0    0    0  0.00000000000E+00  0.00000000000E+00  0.45593999997E+02  0.45594000000E+02  0.51100000000E-03 0.  1.
         11   -1    0    0    0    0 -0.00000000000E+00 -0.00000000000E+00 -0.45593999997E+02  0.45594000000E+02  0.51100000000E-03 0. -1.
    9900012    2    1    2    0    0 -0.77995990753E+00  0.62830233321E+00  0.62508801123E+00  0.90007391555E+02  0.89999648323E+02 0.  0.
        -12    1    1    2    0    0  0.77995990753E+00 -0.62830233321E+00 -0.62508801123E+00  0.11806084453E+01  0.00000000000E+00 0.  1.
         11    1    3    3    0    0 -0.47844062010E+01 -0.57930103704E+01  0.17679185437E+01  0.77184874222E+01  0.51100000000E-03 0. -1.
        -11    1    3    3    0    0 -0.17537477003E+02 -0.20020181233E+02  0.27117240341E+02  0.37996256134E+02  0.51100000000E-03 0.  1.
         12    1    3    3    0    0  0.21541923296E+02  0.26441493937E+02 -0.28260070874E+02  0.44292647998E+02  0.00000000000E+00 0. -1.
</event>
<event>
 7    1  0.2385752E-015  0.9000813E+02  0.7816164E-02  0.1186338E+00
        -11   -1    0    0    0    0  0.00000000000E+00  0.00000000000E+00  0.45593999997E+02  0.45594000000E+02  0.51100000000E-03 0.  1.
         11   -1    0    0    0    0 -0.00000000000E+00 -0.00000000000E+00 -0.45593999997E+02  0.45594000000E+02  0.51100000000E-03 0. -1.
    9900012    2    1    2    0    0  0.90495715991E+00  0.72457793900E+00  0.21941436288E+00  0.90008125721E+02  0.90000392180E+02 0.  0.
        -12    1    1    2    0    0 -0.90495715991E+00 -0.72457793900E+00 -0.21941436288E+00  0.11798742787E+01  0.00000000000E+00 0.  1.
         11    1    3    3    0    0 -0.19338130395E+01 -0.84511454047E+01 -0.58309140952E+01  0.10448016605E+02  0.51100000000E-03 0. -1.
        -11    1    3    3    0    0 -0.13004857480E+02 -0.20236140210E+02  0.30001207569E+02  0.38453870345E+02  0.51100000000E-03 0.  1.
         12    1    3    3    0    0  0.15843627679E+02  0.29411863553E+02 -0.23950879111E+02  0.41106238771E+02  0.00000000000E+00 0. -1.
</event>
<event>
 7    1  0.2385752E-015  0.9000766E+02  0.7816164E-02  0.1186339E+00
        -11   -1    0    0    0    0  0.00000000000E+00  0.00000000000E+00  0.45593999997E+02  0.45594000000E+02  0.51100000000E-03 0. -1.
         11   -1    0    0    0    0 -0.00000000000E+00 -0.00000000000E+00 -0.45593999997E+02  0.45594000000E+02  0.51100000000E-03 0.  1.
    9900012    2    1    2    0    0 -0.11721438815E-02 -0.73455782442E+00  0.92391665269E+00  0.90007661679E+02  0.89999922013E+02 0.  0.
        -12    1    1    2    0    0  0.11721438815E-02  0.73455782442E+00 -0.92391665269E+00  0.11803383212E+01  0.00000000000E+00 0.  1.
         11    1    3    3    0    0 -0.42132593400E+00 -0.10207240272E+02  0.51939440118E+01  0.11460467886E+02  0.51100000000E-03 0. -1.
        -11    1    3    3    0    0 -0.32836239617E+02  0.52946640611E+01 -0.22726988023E+02  0.40283595725E+02  0.51100000000E-03 0.  1.
         12    1    3    3    0    0  0.33256393407E+02  0.41780183867E+01  0.18456960664E+02  0.38263598067E+02  0.00000000000E+00 0. -1.
</event>
<event>
 7    1  0.2385752E-015  0.9000774E+02  0.7816164E-02  0.1186339E+00
        -11   -1    0    0    0    0  0.00000000000E+00  0.00000000000E+00  0.45593999997E+02  0.45594000000E+02  0.51100000000E-03 0.  1.
         11   -1    0    0    0    0 -0.00000000000E+00 -0.00000000000E+00 -0.45593999997E+02  0.45594000000E+02  0.51100000000E-03 0. -1.
    9900012    2    1    2    0    0  0.97940098639E+00 -0.48702233457E+00 -0.44338586791E+00  0.90007742369E+02  0.90000003769E+02 0.  0.
        -12    1    1    2    0    0 -0.97940098639E+00  0.48702233457E+00  0.44338586791E+00  0.11802576305E+01  0.00000000000E+00 0.  1.
         11    1    3    3    0    0 -0.97604558163E+01  0.16654855003E+01 -0.19176470426E+01  0.10085519825E+02  0.51100000000E-03 0. -1.
        -11    1    3    3    0    0 -0.21490140287E+02 -0.26322151488E+02  0.15386555332E+02  0.37301848128E+02  0.51100000000E-03 0.  1.
         12    1    3    3    0    0  0.32229997090E+02  0.24169643653E+02 -0.13912294157E+02  0.42620374417E+02  0.00000000000E+00 0. -1.
</event>
<event>
 7    1  0.2385752E-015  0.9000801E+02  0.7816164E-02  0.1186338E+00
        -11   -1    0    0    0    0  0.00000000000E+00  0.00000000000E+00  0.45593999997E+02  0.45594000000E+02  0.51100000000E-03 0.  1.
         11   -1    0    0    0    0 -0.00000000000E+00 -0.00000000000E+00 -0.45593999997E+02  0.45594000000E+02  0.51100000000E-03 0. -1.
    9900012    2    1    2    0    0  0.99913263037E+00 -0.10208294414E+00 -0.61941746009E+00  0.90008014860E+02  0.90000279856E+02 0.  0.
        -12    1    1    2    0    0 -0.99913263037E+00  0.10208294414E+00  0.61941746009E+00  0.11799851399E+01  0.00000000000E+00 0.  1.
         11    1    3    3    0    0 -0.85127661630E+01 -0.18876248890E+02  0.41043306438E+01  0.21109843443E+02  0.51100000000E-03 0. -1.
        -11    1    3    3    0    0 -0.12164653612E+02 -0.99605785507E+01 -0.23520784531E+02  0.28291681247E+02  0.51100000000E-03 0.  1.
        -12    1    3    3    0    0  0.21676552406E+02  0.28734744497E+02  0.18797036427E+02  0.40606490170E+02  0.00000000000E+00 0.  1.
</event>
<event>
 7    1  0.2385752E-015  0.9000720E+02  0.7816164E-02  0.1186340E+00
        -11   -1    0    0    0    0  0.00000000000E+00  0.00000000000E+00  0.45593999997E+02  0.45594000000E+02  0.51100000000E-03 0.  1.
         11   -1    0    0    0    0 -0.00000000000E+00 -0.00000000000E+00 -0.45593999997E+02  0.45594000000E+02  0.51100000000E-03 0. -1.
    9900012    2    1    2    0    0 -0.99004046459E+00  0.64308655300E+00 -0.23398124996E-01  0.90007200310E+02  0.89999454552E+02 0.  0.
        -12    1    1    2    0    0  0.99004046459E+00 -0.64308655300E+00  0.23398124996E-01  0.11807996902E+01  0.00000000000E+00 0.  1.
         11    1    3    3    0    0  0.73581387224E+00 -0.59587644553E+01 -0.75300337793E+01  0.96306648196E+01  0.51100000000E-03 0. -1.
        -11    1    3    3    0    0 -0.38542828923E+02 -0.97245021966E+01  0.37048258879E+01  0.39922942520E+02  0.51100000000E-03 0.  1.
         12    1    3    3    0    0  0.36816974586E+02  0.16326353205E+02  0.38018097664E+01  0.40453592970E+02  0.00000000000E+00 0. -1.
</event>
<event>
 7    1  0.2385752E-015  0.9000774E+02  0.7816164E-02  0.1186339E+00
        -11   -1    0    0    0    0  0.00000000000E+00  0.00000000000E+00  0.45593999997E+02  0.45594000000E+02  0.51100000000E-03 0. -1.
         11   -1    0    0    0    0 -0.00000000000E+00 -0.00000000000E+00 -0.45593999997E+02  0.45594000000E+02  0.51100000000E-03 0.  1.
    9900012    2    1    2    0    0  0.12043485414E+00 -0.71295734925E+00  0.93284257884E+00  0.90007742396E+02  0.90000003795E+02 0.  0.
        -12    1    1    2    0    0 -0.12043485414E+00  0.71295734925E+00 -0.93284257884E+00  0.11802576044E+01  0.00000000000E+00 0.  1.
         11    1    3    3    0    0  0.21622980718E+01  0.73313399136E+01  0.55460262290E+01  0.94436478690E+01  0.51100000000E-03 0. -1.
        -11    1    3    3    0    0  0.19864239639E+02  0.22991451745E+02  0.18999523818E+02  0.35835412310E+02  0.51100000000E-03 0.  1.
         12    1    3    3    0    0 -0.21906102857E+02 -0.31035749008E+02 -0.23612707469E+02  0.44728682217E+02  0.00000000000E+00 0. -1.
</event>
<event>
 7    1  0.2909199E-015  0.9000770E+02  0.7816164E-02  0.1186339E+00
        -11   -1    0    0    0    0  0.00000000000E+00  0.00000000000E+00  0.45593999997E+02  0.45594000000E+02  0.51100000000E-03 0.  1.
         11   -1    0    0    0    0 -0.00000000000E+00 -0.00000000000E+00 -0.45593999997E+02  0.45594000000E+02  0.51100000000E-03 0. -1.
    9900012    2    1    2    0    0 -0.56644065422E+00  0.42823709919E+00 -0.94280062590E+00  0.90007697052E+02  0.89999957853E+02 0.  0.
        -12    1    1    2    0    0  0.56644065422E+00 -0.42823709919E+00  0.94280062590E+00  0.11803029476E+01  0.00000000000E+00 0.  1.
         11    1    3    3    0    0  0.32057166867E+02 -0.59351997883E+01 -0.15159352156E+02  0.35954060996E+02  0.51100000000E-03 0. -1.
        -11    1    3    3    0    0  0.59186589221E+01 -0.58178258891E+01 -0.45761094668E+01  0.94772569674E+01  0.51100000000E-03 0.  1.
        -12    1    3    3    0    0 -0.38542266443E+02  0.12181262777E+02  0.18792660997E+02  0.44576379089E+02  0.00000000000E+00 0.  1.
</event>
<event>
 7    1  0.2385752E-015  0.9000769E+02  0.7816164E-02  0.1186339E+00
        -11   -1    0    0    0    0  0.00000000000E+00  0.00000000000E+00  0.45593999997E+02  0.45594000000E+02  0.51100000000E-03 0. -1.
         11   -1    0    0    0    0 -0.00000000000E+00 -0.00000000000E+00 -0.45593999997E+02  0.45594000000E+02  0.51100000000E-03 0.  1.
    9900012    2    1    2    0    0 -0.80168211942E+00 -0.78853908110E+00  0.35866397932E+00  0.90007691586E+02  0.89999952315E+02 0.  0.
        -12    1    1    2    0    0  0.80168211942E+00  0.78853908110E+00 -0.35866397932E+00  0.11803084144E+01  0.00000000000E+00 0.  1.
         11    1    3    3    0    0 -0.18462346442E+02  0.38079166583E+02 -0.73069212908E+01  0.42944991126E+02  0.51100000000E-03 0. -1.
        -11    1    3    3    0    0 -0.37642509033E+01 -0.80552842011E+01  0.19199307604E+01  0.90963356803E+01  0.51100000000E-03 0.  1.
        -12    1    3    3    0    0  0.21424915225E+02 -0.30812421463E+02  0.57456545097E+01  0.37966364780E+02  0.00000000000E+00 0.  1.
</event>
<event>
 7    1  0.2385752E-015  0.9000771E+02  0.7816164E-02  0.1186339E+00
        -11   -1    0    0    0    0  0.00000000000E+00  0.00000000000E+00  0.45593999997E+02  0.45594000000E+02  0.51100000000E-03 0. -1.
         11   -1    0    0    0    0 -0.00000000000E+00 -0.00000000000E+00 -0.45593999997E+02  0.45594000000E+02  0.51100000000E-03 0.  1.
    9900012    2    1    2    0    0 -0.18454963089E+00  0.57994645782E+00  0.10112778134E+01  0.90007712206E+02  0.89999973207E+02 0.  0.
        -12    1    1    2    0    0  0.18454963089E+00 -0.57994645782E+00 -0.10112778134E+01  0.11802877937E+01  0.00000000000E+00 0.  1.
         11    1    3    3    0    0 -0.18396092100E+02  0.42913759436E+01 -0.11640355831E+01  0.18925831320E+02  0.51100000000E-03 0. -1.
        -11    1    3    3    0    0 -0.16241256455E+01  0.30598805290E+02 -0.42426525936E+01  0.30934200662E+02  0.51100000000E-03 0.  1.
         12    1    3    3    0    0  0.19835668115E+02 -0.34310234776E+02  0.64179659901E+01  0.40147680224E+02  0.00000000000E+00 0. -1.
</event>
<event>
 7    1  0.2385752E-015  0.9000780E+02  0.7816164E-02  0.1186339E+00
        -11   -1    0    0    0    0  0.00000000000E+00  0.00000000000E+00  0.45593999997E+02  0.45594000000E+02  0.51100000000E-03 0. -1.
         11   -1    0    0    0    0 -0.00000000000E+00 -0.00000000000E+00 -0.45593999997E+02  0.45594000000E+02  0.51100000000E-03 0.  1.
    9900012    2    1    2    0    0 -0.29329497012E-01  0.86152621905E+00 -0.80608622218E+00  0.90007803981E+02  0.90000066194E+02 0.  0.
        -12    1    1    2    0    0  0.29329497012E-01 -0.86152621905E+00  0.80608622218E+00  0.11801960189E+01  0.00000000000E+00 0.  1.
         11    1    3    3    0    0 -0.62244738232E+01  0.12688017544E+01 -0.72954349257E+01  0.96735362347E+01  0.51100000000E-03 0. -1.
        -11    1    3    3    0    0  0.28292538686E+02 -0.29246836882E+02 -0.75453914039E+01  0.41385723922E+02  0.51100000000E-03 0.  1.
         12    1    3    3    0    0 -0.22097394360E+02  0.28839561346E+02  0.14034740107E+02  0.38948543824E+02  0.00000000000E+00 0. -1.
</event>
<event>
 7    1  0.2385752E-015  0.9000789E+02  0.7816164E-02  0.1186339E+00
        -11   -1    0    0    0    0  0.00000000000E+00  0.00000000000E+00  0.45593999997E+02  0.45594000000E+02  0.51100000000E-03 0.  1.
         11   -1    0    0    0    0 -0.00000000000E+00 -0.00000000000E+00 -0.45593999997E+02  0.45594000000E+02  0.51100000000E-03 0. -1.
    9900012    2    1    2    0    0  0.11705502020E+01 -0.13312791359E+00 -0.68863210840E-01  0.90007892819E+02  0.90000156204E+02 0.  0.
        -12    1    1    2    0    0 -0.11705502020E+01  0.13312791359E+00  0.68863210840E-01  0.11801071810E+01  0.00000000000E+00 0.  1.
         11    1    3    3    0    0  0.35343488739E+01 -0.69320348221E+01 -0.53635070761E+01  0.94504993071E+01  0.51100000000E-03 0. -1.
        -11    1    3    3    0    0  0.20964379527E+01 -0.83097903461E+01  0.40812564726E+02  0.41702675063E+02  0.51100000000E-03 0.  1.
         12    1    3    3    0    0 -0.44602366246E+01  0.15108697255E+02 -0.35517920860E+02  0.38854718449E+02  0.00000000000E+00 0. -1.
</event>
<event>
 7    1  0.2385752E-015  0.9000776E+02  0.7816164E-02  0.1186339E+00
        -11   -1    0    0    0    0  0.00000000000E+00  0.00000000000E+00  0.45593999997E+02  0.45594000000E+02  0.51100000000E-03 0.  1.
         11   -1    0    0    0    0 -0.00000000000E+00 -0.00000000000E+00 -0.45593999997E+02  0.45594000000E+02  0.51100000000E-03 0. -1.
    9900012    2    1    2    0    0  0.78197764484E+00 -0.82754448201E+00 -0.31088020894E+00  0.90007760443E+02  0.90000022081E+02 0.  0.
        -12    1    1    2    0    0 -0.78197764484E+00  0.82754448201E+00  0.31088020894E+00  0.11802395566E+01  0.00000000000E+00 0.  1.
         11    1    3    3    0    0 -0.42746580654E+01 -0.32545427211E+01 -0.72983491670E+00  0.54219377686E+01  0.51100000000E-03 0. -1.
        -11    1    3    3    0    0 -0.34546573716E+02  0.76932908398E+01 -0.18993758261E+02  0.40167341617E+02  0.51100000000E-03 0.  1.
         12    1    3    3    0    0  0.39603209426E+02 -0.52662926007E+01  0.19412712969E+02  0.44418481057E+02  0.00000000000E+00 0. -1.
</event>
<event>
 7    1  0.2385752E-015  0.9000769E+02  0.7816164E-02  0.1186339E+00
        -11   -1    0    0    0    0  0.00000000000E+00  0.00000000000E+00  0.45593999997E+02  0.45594000000E+02  0.51100000000E-03 0. -1.
         11   -1    0    0    0    0 -0.00000000000E+00 -0.00000000000E+00 -0.45593999997E+02  0.45594000000E+02  0.51100000000E-03 0.  1.
    9900012    2    1    2    0    0 -0.11301078476E+01  0.26079803351E+00 -0.21901213574E+00  0.90007692550E+02  0.89999953291E+02 0.  0.
        -12    1    1    2    0    0  0.11301078476E+01 -0.26079803351E+00  0.21901213574E+00  0.11803074503E+01  0.00000000000E+00 0.  1.
         11    1    3    3    0    0  0.56424227434E+01  0.63088190361E+01  0.11484449826E+01  0.85414903960E+01  0.51100000000E-03 0. -1.
        -11    1    3    3    0    0  0.27502569931E+02  0.23493692505E+02  0.56901930957E+00  0.36175526583E+02  0.51100000000E-03 0.  1.
         12    1    3    3    0    0 -0.34275100522E+02 -0.29541713507E+02 -0.19364764279E+01  0.45290675571E+02  0.00000000000E+00 0. -1.
</event>
<event>
 7    1  0.2385752E-015  0.9000775E+02  0.7816164E-02  0.1186339E+00
        -11   -1    0    0    0    0  0.00000000000E+00  0.00000000000E+00  0.45593999997E+02  0.45594000000E+02  0.51100000000E-03 0.  1.
         11   -1    0    0    0    0 -0.00000000000E+00 -0.00000000000E+00 -0.45593999997E+02  0.45594000000E+02  0.51100000000E-03 0. -1.
    9900012    2    1    2    0    0  0.31317807706E+00  0.11247839623E+01  0.17251474858E+00  0.90007753920E+02  0.90000015472E+02 0.  0.
        -12    1    1    2    0    0 -0.31317807706E+00 -0.11247839623E+01 -0.17251474858E+00  0.11802460795E+01  0.00000000000E+00 0.  1.
         11    1    3    3    0    0  0.73001300639E+01 -0.40846492053E+01 -0.54418867987E+01  0.99794984980E+01  0.51100000000E-03 0. -1.
        -11    1    3    3    0    0 -0.35437185814E+02  0.26224665260E+02  0.69647636357E+01  0.44632220863E+02  0.51100000000E-03 0.  1.
         12    1    3    3    0    0  0.28450233827E+02 -0.21015232092E+02 -0.13503620884E+01  0.35396034559E+02  0.00000000000E+00 0. -1.
</event>
<event>
 7    1  0.2385752E-015  0.9000766E+02  0.7816164E-02  0.1186339E+00
        -11   -1    0    0    0    0  0.00000000000E+00  0.00000000000E+00  0.45593999997E+02  0.45594000000E+02  0.51100000000E-03 0. -1.
         11   -1    0    0    0    0 -0.00000000000E+00 -0.00000000000E+00 -0.45593999997E+02  0.45594000000E+02  0.51100000000E-03 0.  1.
    9900012    2    1    2    0    0  0.11775615337E+01  0.21901048074E-01 -0.77899245431E-01  0.90007661441E+02  0.89999921772E+02 0.  0.
        -12    1    1    2    0    0 -0.11775615337E+01 -0.21901048074E-01  0.77899245431E-01  0.11803385590E+01  0.00000000000E+00 0.  1.
         11    1    3    3    0    0  0.80734588723E+01 -0.41597307504E+00  0.38084122800E+02  0.38932687827E+02  0.51100000000E-03 0. -1.
        -11    1    3    3    0    0 -0.48717036329E+01 -0.94837676359E-01  0.55084978733E+01  0.73543211483E+01  0.51100000000E-03 0.  1.
        -12    1    3    3    0    0 -0.20241937058E+01  0.53271179947E+00 -0.43670519919E+02  0.43720652465E+02  0.00000000000E+00 0.  1.
</event>
<event>
 7    1  0.2385752E-015  0.9000780E+02  0.7816164E-02  0.1186339E+00
        -11   -1    0    0    0    0  0.00000000000E+00  0.00000000000E+00  0.45593999997E+02  0.45594000000E+02  0.51100000000E-03 0. -1.
         11   -1    0    0    0    0 -0.00000000000E+00 -0.00000000000E+00 -0.45593999997E+02  0.45594000000E+02  0.51100000000E-03 0.  1.
    9900012    2    1    2    0    0 -0.99799873980E+00 -0.62713091627E+00  0.59857317799E-01  0.90007797657E+02  0.90000059787E+02 0.  0.
        -12    1    1    2    0    0  0.99799873980E+00  0.62713091627E+00 -0.59857317799E-01  0.11802023425E+01  0.00000000000E+00 0.  1.
         11    1    3    3    0    0  0.36020905759E+01  0.32922897092E+02 -0.19961355854E+02  0.38669728952E+02  0.51100000000E-03 0. -1.
        -11    1    3    3    0    0 -0.27936878975E+01  0.61757880036E+01  0.63466801084E+01  0.92857631993E+01  0.51100000000E-03 0.  1.
        -12    1    3    3    0    0 -0.18064014182E+01 -0.39725816012E+02  0.13674533063E+02  0.42052305506E+02  0.00000000000E+00 0.  1.
</event>
<event>
 7    1  0.2385752E-015  0.9000768E+02  0.7816164E-02  0.1186339E+00
        -11   -1    0    0    0    0  0.00000000000E+00  0.00000000000E+00  0.45593999997E+02  0.45594000000E+02  0.51100000000E-03 0.  1.
         11   -1    0    0    0    0 -0.00000000000E+00 -0.00000000000E+00 -0.45593999997E+02  0.45594000000E+02  0.51100000000E-03 0. -1.
    9900012    2    1    2    0    0 -0.98931500215E+00  0.23353238087E+00 -0.59989648302E+00  0.90007679138E+02  0.89999939703E+02 0.  0.
        -12    1    1    2    0    0  0.98931500215E+00 -0.23353238087E+00  0.59989648302E+00  0.11803208618E+01  0.00000000000E+00 0.  1.
         11    1    3    3    0    0 -0.24323455808E+01  0.34864461629E+02 -0.12925950109E+02  0.37262946424E+02  0.51100000000E-03 0. -1.
        -11    1    3    3    0    0  0.71368638299E+01  0.60211498445E+01 -0.14424758653E+01  0.94482700882E+01  0.51100000000E-03 0.  1.
        -12    1    3    3    0    0 -0.56938332512E+01 -0.40652079092E+02  0.13768529491E+02  0.43296462627E+02  0.00000000000E+00 0.  1.
</event>
<event>
 7    1  0.2385752E-015  0.9000779E+02  0.7816164E-02  0.1186339E+00
        -11   -1    0    0    0    0  0.00000000000E+00  0.00000000000E+00  0.45593999997E+02  0.45594000000E+02  0.51100000000E-03 0.  1.
         11   -1    0    0    0    0 -0.00000000000E+00 -0.00000000000E+00 -0.45593999997E+02  0.45594000000E+02  0.51100000000E-03 0. -1.
    9900012    2    1    2    0    0 -0.20287087533E+00 -0.31654342784E+00 -0.11187244869E+01  0.90007787811E+02  0.90000049810E+02 0.  0.
        -12    1    1    2    0    0  0.20287087533E+00  0.31654342784E+00  0.11187244869E+01  0.11802121892E+01  0.00000000000E+00 0.  1.
         11    1    3    3    0    0  0.12418866703E+01  0.65125519471E+00  0.77431572432E+01  0.78691105079E+01  0.51100000000E-03 0. -1.
        -11    1    3    3    0    0  0.35068079203E+02 -0.16018633163E+02 -0.16461800525E+02  0.41920849994E+02  0.51100000000E-03 0.  1.
         12    1    3    3    0    0 -0.36512836749E+02  0.15050834540E+02  0.75999187950E+01  0.40217827309E+02  0.00000000000E+00 0. -1.
</event>
<event>
 7    1  0.2385752E-015  0.9000777E+02  0.7816164E-02  0.1186339E+00
        -11   -1    0    0    0    0  0.00000000000E+00  0.00000000000E+00  0.45593999997E+02  0.45594000000E+02  0.51100000000E-03 0.  1.
         11   -1    0    0    0    0 -0.00000000000E+00 -0.00000000000E+00 -0.45593999997E+02  0.45594000000E+02  0.51100000000E-03 0. -1.
    9900012    2    1    2    0    0  0.69487680094E+00 -0.28469925470E+00 -0.91051189778E+00  0.90007771484E+02  0.90000033268E+02 0.  0.
        -12    1    1    2    0    0 -0.69487680094E+00  0.28469925470E+00  0.91051189778E+00  0.11802285161E+01  0.00000000000E+00 0.  1.
         11    1    3    3    0    0 -0.31245186176E+02 -0.20901498990E+02  0.94773211617E+01  0.38767949854E+02  0.51100000000E-03 0. -1.
        -11    1    3    3    0    0 -0.38122224261E+01 -0.34926140089E+01 -0.59618834901E+01  0.78914794210E+01  0.51100000000E-03 0.  1.
        -12    1    3    3    0    0  0.35752285403E+02  0.24109413744E+02 -0.44259495694E+01  0.43348342209E+02  0.00000000000E+00 0.  1.
</event>
<event>
 7    1  0.2385752E-015  0.9000693E+02  0.7816164E-02  0.1186341E+00
        -11   -1    0    0    0    0  0.00000000000E+00  0.00000000000E+00  0.45593999997E+02  0.45594000000E+02  0.51100000000E-03 0. -1.
         11   -1    0    0    0    0 -0.00000000000E+00 -0.00000000000E+00 -0.45593999997E+02  0.45594000000E+02  0.51100000000E-03 0.  1.
    9900012    2    1    2    0    0  0.11040102695E+01 -0.34930506629E+00  0.23252527380E+00  0.90006932387E+02  0.89999183090E+02 0.  0.
        -12    1    1    2    0    0 -0.11040102695E+01  0.34930506629E+00 -0.23252527380E+00  0.11810676134E+01  0.00000000000E+00 0.  1.
         11    1    3    3    0    0  0.12359002247E+01 -0.10084985313E+01  0.11130753905E+02  0.11244474261E+02  0.51100000000E-03 0. -1.
        -11    1    3    3    0    0 -0.34434424923E+01  0.21206308327E+02  0.27613583343E+02  0.34986780280E+02  0.51100000000E-03 0.  1.
         12    1    3    3    0    0  0.33115525370E+01 -0.20547114862E+02 -0.38511811974E+02  0.43775677846E+02  0.00000000000E+00 0. -1.
</event>
<event>
 7    1  0.2385752E-015  0.9000772E+02  0.7816164E-02  0.1186339E+00
        -11   -1    0    0    0    0  0.00000000000E+00  0.00000000000E+00  0.45593999997E+02  0.45594000000E+02  0.51100000000E-03 0. -1.
         11   -1    0    0    0    0 -0.00000000000E+00 -0.00000000000E+00 -0.45593999997E+02  0.45594000000E+02  0.51100000000E-03 0.  1.
    9900012    2    1    2    0    0  0.62044818750E+00  0.56432051440E+00  0.83045139131E+00  0.90007719055E+02  0.89999980146E+02 0.  0.
        -12    1    1    2    0    0 -0.62044818750E+00 -0.56432051440E+00 -0.83045139131E+00  0.11802809452E+01  0.00000000000E+00 0.  1.
         11    1    3    3    0    0  0.38485056400E+00  0.82885958383E+00  0.45931818106E+01  0.46832080429E+01  0.51100000000E-03 0. -1.
        -11    1    3    3    0    0 -0.33578846386E+02 -0.26164403416E+02 -0.45623260907E-01  0.42568967717E+02  0.51100000000E-03 0.  1.
         12    1    3    3    0    0  0.33814444009E+02  0.25899864347E+02 -0.37171071584E+01  0.42755543295E+02  0.00000000000E+00 0. -1.
</event>
<event>
 7    1  0.2385752E-015  0.9000711E+02  0.7816164E-02  0.1186340E+00
        -11   -1    0    0    0    0  0.00000000000E+00  0.00000000000E+00  0.45593999997E+02  0.45594000000E+02  0.51100000000E-03 0.  1.
         11   -1    0    0    0    0 -0.00000000000E+00 -0.00000000000E+00 -0.45593999997E+02  0.45594000000E+02  0.51100000000E-03 0. -1.
    9900012    2    1    2    0    0 -0.91663213658E+00  0.47441090905E+00 -0.57378533546E+00  0.90007106357E+02  0.89999359359E+02 0.  0.
        -12    1    1    2    0    0  0.91663213658E+00 -0.47441090905E+00  0.57378533546E+00  0.11808936428E+01  0.00000000000E+00 0.  1.
         11    1    3    3    0    0 -0.22224117190E+02 -0.25748237313E+02  0.16016437589E+02  0.37595337249E+02  0.51100000000E-03 0. -1.
        -11    1    3    3    0    0  0.11389774983E+01 -0.89546473479E+01 -0.45764533591E+01  0.10120617791E+02  0.51100000000E-03 0.  1.
        -12    1    3    3    0    0  0.20168507555E+02  0.35177295569E+02 -0.12013769565E+02  0.42291151317E+02  0.00000000000E+00 0.  1.
</event>
<event>
 7    1  0.2385752E-015  0.9000777E+02  0.7816164E-02  0.1186339E+00
        -11   -1    0    0    0    0  0.00000000000E+00  0.00000000000E+00  0.45593999997E+02  0.45594000000E+02  0.51100000000E-03 0.  1.
         11   -1    0    0    0    0 -0.00000000000E+00 -0.00000000000E+00 -0.45593999997E+02  0.45594000000E+02  0.51100000000E-03 0. -1.
    9900012    2    1    2    0    0  0.15898228385E+00  0.31583723305E+00 -0.11260162054E+01  0.90007770777E+02  0.90000032551E+02 0.  0.
        -12    1    1    2    0    0 -0.15898228385E+00 -0.31583723305E+00  0.11260162054E+01  0.11802292231E+01  0.00000000000E+00 0.  1.
         11    1    3    3    0    0  0.46122182250E+01 -0.17893905032E+02 -0.31628065268E+02  0.36630573393E+02  0.51100000000E-03 0. -1.
        -11    1    3    3    0    0  0.19344310078E+01 -0.14086588664E+01 -0.87292855361E+01  0.90513407492E+01  0.51100000000E-03 0.  1.
        -12    1    3    3    0    0 -0.63876669490E+01  0.19618401132E+02  0.39231334598E+02  0.44325856635E+02  0.00000000000E+00 0.  1.
</event>
<event>
 7    1  0.4851910E-015  0.9000771E+02  0.7816164E-02  0.1186339E+00
        -11   -1    0    0    0    0  0.00000000000E+00  0.00000000000E+00  0.45593999997E+02  0.45594000000E+02  0.51100000000E-03 0. -1.
         11   -1    0    0    0    0 -0.00000000000E+00 -0.00000000000E+00 -0.45593999997E+02  0.45594000000E+02  0.51100000000E-03 0.  1.
    9900012    2    1    2    0    0 -0.35275428394E+00 -0.81299068751E+00  0.77954291844E+00  0.90007713338E+02  0.89999974354E+02 0.  0.
        -12    1    1    2    0    0  0.35275428394E+00  0.81299068751E+00 -0.77954291844E+00  0.11802866620E+01  0.00000000000E+00 0.  1.
         11    1    3    3    0    0 -0.11457538600E+02 -0.23882568680E+02  0.30155843128E+02  0.40137602726E+02  0.51100000000E-03 0. -1.
        -11    1    3    3    0    0 -0.54612933340E+01  0.66215060152E+01  0.37318599009E+01  0.93593186382E+01  0.51100000000E-03 0.  1.
        -12    1    3    3    0    0  0.16566077650E+02  0.16448071978E+02 -0.33108160110E+02  0.40510791974E+02  0.00000000000E+00 0.  1.
</event>
<event>
 7    1  0.2385752E-015  0.9000771E+02  0.7816164E-02  0.1186339E+00
        -11   -1    0    0    0    0  0.00000000000E+00  0.00000000000E+00  0.45593999997E+02  0.45594000000E+02  0.51100000000E-03 0.  1.
         11   -1    0    0    0    0 -0.00000000000E+00 -0.00000000000E+00 -0.45593999997E+02  0.45594000000E+02  0.51100000000E-03 0. -1.
    9900012    2    1    2    0    0 -0.18699257305E+00  0.11165453762E+01 -0.33383223462E+00  0.90007710307E+02  0.89999971283E+02 0.  0.
        -12    1    1    2    0    0  0.18699257305E+00 -0.11165453762E+01  0.33383223462E+00  0.11802896934E+01  0.00000000000E+00 0.  1.
         11    1    3    3    0    0 -0.15114573568E+01 -0.80462406168E+01  0.85790270353E+01  0.11858591676E+02  0.51100000000E-03 0. -1.
        -11    1    3    3    0    0 -0.48998612958E+01 -0.15753050268E+02  0.28404998702E+02  0.32848305664E+02  0.51100000000E-03 0.  1.
         12    1    3    3    0    0  0.62243260796E+01  0.24915836261E+02 -0.37317857972E+02  0.45300812966E+02  0.00000000000E+00 0. -1.
</event>
<event>
 7    1  0.2385752E-015  0.9000773E+02  0.7816164E-02  0.1186339E+00
        -11   -1    0    0    0    0  0.00000000000E+00  0.00000000000E+00  0.45593999997E+02  0.45594000000E+02  0.51100000000E-03 0. -1.
         11   -1    0    0    0    0 -0.00000000000E+00 -0.00000000000E+00 -0.45593999997E+02  0.45594000000E+02  0.51100000000E-03 0.  1.
    9900012    2    1    2    0    0  0.11535500317E+00 -0.23908620058E+00  0.11500258704E+01  0.90007733720E+02  0.89999995006E+02 0.  0.
        -12    1    1    2    0    0 -0.11535500317E+00  0.23908620058E+00 -0.11500258704E+01  0.11802662796E+01  0.00000000000E+00 0.  1.
         11    1    3    3    0    0 -0.18784591221E+01 -0.77127662765E+01  0.75851085050E+01  0.10979491956E+02  0.51100000000E-03 0. -1.
        -11    1    3    3    0    0 -0.28094578610E+02 -0.19759095544E+02  0.91678898284E+01  0.35549647089E+02  0.51100000000E-03 0.  1.
         12    1    3    3    0    0  0.30088392735E+02  0.27232775619E+02 -0.15602972463E+02  0.43478594676E+02  0.00000000000E+00 0. -1.
</event>
<event>
 7    1  0.2385752E-015  0.9000778E+02  0.7816164E-02  0.1186339E+00
        -11   -1    0    0    0    0  0.00000000000E+00  0.00000000000E+00  0.45593999997E+02  0.45594000000E+02  0.51100000000E-03 0.  1.
         11   -1    0    0    0    0 -0.00000000000E+00 -0.00000000000E+00 -0.45593999997E+02  0.45594000000E+02  0.51100000000E-03 0. -1.
    9900012    2    1    2    0    0 -0.59260704026E+00 -0.45308343630E+00 -0.91458096423E+00  0.90007777121E+02  0.90000038979E+02 0.  0.
        -12    1    1    2    0    0  0.59260704026E+00  0.45308343630E+00  0.91458096423E+00  0.11802228792E+01  0.00000000000E+00 0.  1.
         11    1    3    3    0    0 -0.76471617751E+01 -0.32672850868E+02 -0.17646738264E+02  0.37913080047E+02  0.51100000000E-03 0. -1.
        -11    1    3    3    0    0  0.69421066127E+01 -0.53181038981E+01 -0.35378182470E+01  0.94335163912E+01  0.51100000000E-03 0.  1.
        -12    1    3    3    0    0  0.11244812214E+00  0.37537871330E+02  0.20269975547E+02  0.42661180682E+02  0.00000000000E+00 0.  1.
</event>
<event>
 7    1  0.2385752E-015  0.9000787E+02  0.7816164E-02  0.1186339E+00
        -11   -1    0    0    0    0  0.00000000000E+00  0.00000000000E+00  0.45593999997E+02  0.45594000000E+02  0.51100000000E-03 0.  1.
         11   -1    0    0    0    0 -0.00000000000E+00 -0.00000000000E+00 -0.45593999997E+02  0.45594000000E+02  0.51100000000E-03 0. -1.
    9900012    2    1    2    0    0  0.64811217210E+00  0.49800203589E+00 -0.85126521732E+00  0.90007869547E+02  0.90000132625E+02 0.  0.
        -12    1    1    2    0    0 -0.64811217210E+00 -0.49800203589E+00  0.85126521732E+00  0.11801304528E+01  0.00000000000E+00 0.  1.
         11    1    3    3    0    0 -0.14113695035E+02  0.35451716000E+02 -0.20678848314E+02  0.43400867765E+02  0.51100000000E-03 0. -1.
        -11    1    3    3    0    0 -0.12823487970E+01 -0.37379707275E+01  0.90769110519E+01  0.98998564687E+01  0.51100000000E-03 0.  1.
        -12    1    3    3    0    0  0.16044156004E+02 -0.31215743236E+02  0.10750672045E+02  0.36707145314E+02  0.00000000000E+00 0.  1.
</event>
<event>
 7    1  0.2385752E-015  0.9000774E+02  0.7816164E-02  0.1186339E+00
        -11   -1    0    0    0    0  0.00000000000E+00  0.00000000000E+00  0.45593999997E+02  0.45594000000E+02  0.51100000000E-03 0. -1.
         11   -1    0    0    0    0 -0.00000000000E+00 -0.00000000000E+00 -0.45593999997E+02  0.45594000000E+02  0.51100000000E-03 0.  1.
    9900012    2    1    2    0    0  0.20154203350E-02 -0.11788569349E+01  0.57401446004E-01  0.90007744663E+02  0.90000006092E+02 0.  0.
        -12    1    1    2    0    0 -0.20154203350E-02  0.11788569349E+01 -0.57401446004E-01  0.11802553372E+01  0.00000000000E+00 0.  1.
         11    1    3    3    0    0  0.35054172470E+02 -0.14157039356E+02 -0.38092052382E+01  0.37996405299E+02  0.51100000000E-03 0. -1.
        -11    1    3    3    0    0  0.43460497433E+00  0.37903900135E+01 -0.11610333921E+02  0.12221120732E+02  0.51100000000E-03 0.  1.
        -12    1    3    3    0    0 -0.35486762024E+02  0.91877924075E+01  0.15476940605E+02  0.39790218631E+02  0.00000000000E+00 0.  1.
</event>
<event>
 7    1  0.2385752E-015  0.9000772E+02  0.7816164E-02  0.1186339E+00
        -11   -1    0    0    0    0  0.00000000000E+00  0.00000000000E+00  0.45593999997E+02  0.45594000000E+02  0.51100000000E-03 0. -1.
         11   -1    0    0    0    0 -0.00000000000E+00 -0.00000000000E+00 -0.45593999997E+02  0.45594000000E+02  0.51100000000E-03 0.  1.
    9900012    2    1    2    0    0 -0.20668328988E+00  0.87586851341E+00  0.76367227188E+00  0.90007720807E+02  0.89999981921E+02 0.  0.
        -12    1    1    2    0    0  0.20668328988E+00 -0.87586851341E+00 -0.76367227188E+00  0.11802791932E+01  0.00000000000E+00 0.  1.
         11    1    3    3    0    0  0.32787303649E+01  0.14455572380E+02  0.34870378973E+02  0.37890064339E+02  0.51100000000E-03 0. -1.
        -11    1    3    3    0    0  0.68904465462E+01  0.21972248853E+01  0.49306232672E+01  0.87531192650E+01  0.51100000000E-03 0.  1.
        -12    1    3    3    0    0 -0.10375860201E+02 -0.15776928751E+02 -0.39037329968E+02  0.43364537203E+02  0.00000000000E+00 0.  1.
</event>
<event>
 7    1  0.2385752E-015  0.9000774E+02  0.7816164E-02  0.1186339E+00
        -11   -1    0    0    0    0  0.00000000000E+00  0.00000000000E+00  0.45593999997E+02  0.45594000000E+02  0.51100000000E-03 0.  1.
         11   -1    0    0    0    0 -0.00000000000E+00 -0.00000000000E+00 -0.45593999997E+02  0.45594000000E+02  0.51100000000E-03 0. -1.
    9900012    2    1    2    0    0  0.10397519080E+01 -0.53994671718E+00 -0.14280479326E+00  0.90007737446E+02  0.89999998780E+02 0.  0.
        -12    1    1    2    0    0 -0.10397519080E+01  0.53994671718E+00  0.14280479326E+00  0.11802625541E+01  0.00000000000E+00 0.  1.
         11    1    3    3    0    0 -0.70022790799E+01  0.55818592523E+01 -0.32149699306E+01  0.95144677697E+01  0.51100000000E-03 0. -1.
        -11    1    3    3    0    0 -0.13527738811E+02 -0.17809262535E+02  0.34197982179E+02  0.40861614441E+02  0.51100000000E-03 0.  1.
         12    1    3    3    0    0  0.21569769799E+02  0.11687456566E+02 -0.31125817042E+02  0.39631655235E+02  0.00000000000E+00 0. -1.
</event>
<event>
 7    1  0.2385752E-015  0.9000770E+02  0.7816164E-02  0.1186339E+00
        -11   -1    0    0    0    0  0.00000000000E+00  0.00000000000E+00  0.45593999997E+02  0.45594000000E+02  0.51100000000E-03 0.  1.
         11   -1    0    0    0    0 -0.00000000000E+00 -0.00000000000E+00 -0.45593999997E+02  0.45594000000E+02  0.51100000000E-03 0. -1.
    9900012    2    1    2    0    0  0.28999345601E+00  0.53805959386E+00 -0.10097051545E+01  0.90007699686E+02  0.89999960522E+02 0.  0.
        -12    1    1    2    0    0 -0.28999345601E+00 -0.53805959386E+00  0.10097051545E+01  0.11803003136E+01  0.00000000000E+00 0.  1.
         11    1    3    3    0    0 -0.25725836893E+02 -0.24591801714E+02  0.91093744250E+00  0.35600634864E+02  0.51100000000E-03 0. -1.
        -11    1    3    3    0    0 -0.92010989581E+01 -0.17877358118E+01 -0.36216143722E+01  0.10048498012E+02  0.51100000000E-03 0.  1.
        -12    1    3    3    0    0  0.35216929307E+02  0.26917597120E+02  0.17009717751E+01  0.44358566811E+02  0.00000000000E+00 0.  1.
</event>
<event>
 7    1  0.2385752E-015  0.9000751E+02  0.7816164E-02  0.1186340E+00
        -11   -1    0    0    0    0  0.00000000000E+00  0.00000000000E+00  0.45593999997E+02  0.45594000000E+02  0.51100000000E-03 0. -1.
         11   -1    0    0    0    0 -0.00000000000E+00 -0.00000000000E+00 -0.45593999997E+02  0.45594000000E+02  0.51100000000E-03 0.  1.
    9900012    2    1    2    0    0 -0.30199795068E+00 -0.43615461580E+00  0.10545715963E+01  0.90007510753E+02  0.89999769094E+02 0.  0.
        -12    1    1    2    0    0  0.30199795068E+00  0.43615461580E+00 -0.10545715963E+01  0.11804892472E+01  0.00000000000E+00 0.  1.
         11    1    3    3    0    0 -0.62943575915E+01  0.57026368957E+01 -0.65261161995E+01  0.10711171643E+02  0.51100000000E-03 0. -1.
        -11    1    3    3    0    0  0.14990282367E+02 -0.44171274408E+01 -0.33627888425E+02  0.37081726773E+02  0.51100000000E-03 0.  1.
         12    1    3    3    0    0 -0.89979227263E+01 -0.17216640708E+01  0.41208576221E+02  0.42214612337E+02  0.00000000000E+00 0. -1.
</event>
<event>
 7    1  0.2385752E-015  0.9000771E+02  0.7816164E-02  0.1186339E+00
        -11   -1    0    0    0    0  0.00000000000E+00  0.00000000000E+00  0.45593999997E+02  0.45594000000E+02  0.51100000000E-03 0.  1.
         11   -1    0    0    0    0 -0.00000000000E+00 -0.00000000000E+00 -0.45593999997E+02  0.45594000000E+02  0.51100000000E-03 0. -1.
    9900012    2    1    2    0    0  0.11256025242E+01 -0.33886216271E+00 -0.10617125222E+00  0.90007711500E+02  0.89999972492E+02 0.  0.
        -12    1    1    2    0    0 -0.11256025242E+01  0.33886216271E+00  0.10617125222E+00  0.11802884997E+01  0.00000000000E+00 0.  1.
         11    1    3    3    0    0 -0.55422243640E+01  0.55170407484E+01  0.30560251365E+01  0.83960275974E+01  0.51100000000E-03 0. -1.
        -11    1    3    3    0    0 -0.21207557454E+02  0.12435217813E+02  0.27096679538E+02  0.36587226972E+02  0.51100000000E-03 0.  1.
         12    1    3    3    0    0  0.27875384343E+02 -0.18291120725E+02 -0.30258875926E+02  0.45024456931E+02  0.00000000000E+00 0. -1.
</event>
<event>
 7    1  0.2385752E-015  0.9000776E+02  0.7816164E-02  0.1186339E+00
        -11   -1    0    0    0    0  0.00000000000E+00  0.00000000000E+00  0.45593999997E+02  0.45594000000E+02  0.51100000000E-03 0.  1.
         11   -1    0    0    0    0 -0.00000000000E+00 -0.00000000000E+00 -0.45593999997E+02  0.45594000000E+02  0.51100000000E-03 0. -1.
    9900012    2    1    2    0    0  0.97303952120E+00  0.39639902190E+00  0.53761285144E+00  0.90007760333E+02  0.90000021969E+02 0.  0.
        -12    1    1    2    0    0 -0.97303952120E+00 -0.39639902190E+00 -0.53761285144E+00  0.11802396674E+01  0.00000000000E+00 0.  1.
         11    1    3    3    0    0 -0.34510602329E+02  0.58722272877E+01  0.11039817463E+02  0.36706161557E+02  0.51100000000E-03 0. -1.
        -11    1    3    3    0    0 -0.44263622688E+01  0.84051578415E+01 -0.48632050538E+01  0.10671931640E+02  0.51100000000E-03 0.  1.
        -12    1    3    3    0    0  0.39910004119E+02 -0.13880986107E+02 -0.56389995575E+01  0.42629667135E+02  0.00000000000E+00 0.  1.
</event>
<event>
 7    1  0.2385752E-015  0.9000772E+02  0.7816164E-02  0.1186339E+00
        -11   -1    0    0    0    0  0.00000000000E+00  0.00000000000E+00  0.45593999997E+02  0.45594000000E+02  0.51100000000E-03 0.  1.
         11   -1    0    0    0    0 -0.00000000000E+00 -0.00000000000E+00 -0.45593999997E+02  0.45594000000E+02  0.51100000000E-03 0. -1.
    9900012    2    1    2    0    0  0.63538305544E+00  0.61831147159E-01 -0.99273539215E+00  0.90007721102E+02  0.89999982221E+02 0.  0.
        -12    1    1    2    0    0 -0.63538305544E+00 -0.61831147159E-01  0.99273539215E+00  0.11802788979E+01  0.00000000000E+00 0.  1.
         11    1    3    3    0    0  0.54870722000E+00  0.92471092010E+01  0.27569383219E+01  0.96649271783E+01  0.51100000000E-03 0. -1.
        -11    1    3    3    0    0 -0.62587336970E+01  0.24506794428E+02  0.25026818554E+02  0.35582247931E+02  0.51100000000E-03 0.  1.
         12    1    3    3    0    0  0.63454095325E+01 -0.33692072482E+02 -0.28776492268E+02  0.44760545993E+02  0.00000000000E+00 0. -1.
</event>
<event>
 7    1  0.2385752E-015  0.9000783E+02  0.7816164E-02  0.1186339E+00
        -11   -1    0    0    0    0  0.00000000000E+00  0.00000000000E+00  0.45593999997E+02  0.45594000000E+02  0.51100000000E-03 0.  1.
         11   -1    0    0    0    0 -0.00000000000E+00 -0.00000000000E+00 -0.45593999997E+02  0.45594000000E+02  0.51100000000E-03 0. -1.
    9900012    2    1    2    0    0 -0.88122448092E+00  0.53602052930E+00 -0.57352433352E+00  0.90007828506E+02  0.90000091042E+02 0.  0.
        -12    1    1    2    0    0  0.88122448092E+00 -0.53602052930E+00  0.57352433352E+00  0.11801714938E+01  0.00000000000E+00 0.  1.
         11    1    3    3    0    0 -0.20709437060E+02  0.10130503192E+02 -0.29864903582E+02  0.37728243326E+02  0.51100000000E-03 0. -1.
        -11    1    3    3    0    0 -0.75142792813E+01  0.45207852487E+01 -0.13286594460E+01  0.88694548066E+01  0.51100000000E-03 0.  1.
        -12    1    3    3    0    0  0.27342491860E+02 -0.14115267911E+02  0.30620038695E+02  0.43410130373E+02  0.00000000000E+00 0.  1.
</event>
<event>
 7    1  0.2385752E-015  0.9000765E+02  0.7816164E-02  0.1186339E+00
        -11   -1    0    0    0    0  0.00000000000E+00  0.00000000000E+00  0.45593999997E+02  0.45594000000E+02  0.51100000000E-03 0.  1.
         11   -1    0    0    0    0 -0.00000000000E+00 -0.00000000000E+00 -0.45593999997E+02  0.45594000000E+02  0.51100000000E-03 0. -1.
    9900012    2    1    2    0    0  0.53988113699E+00 -0.12217431771E+00 -0.10425105238E+01  0.90007649883E+02  0.89999910062E+02 0.  0.
        -12    1    1    2    0    0 -0.53988113699E+00  0.12217431771E+00  0.10425105238E+01  0.11803501168E+01  0.00000000000E+00 0.  1.
         11    1    3    3    0    0  0.92705069998E+01 -0.27742152241E+02 -0.25584791308E+02  0.38860659510E+02  0.51100000000E-03 0. -1.
        -11    1    3    3    0    0 -0.11820770662E+01 -0.81337255524E+01  0.31379914934E+01  0.87978286199E+01  0.51100000000E-03 0.  1.
        -12    1    3    3    0    0 -0.75485487967E+01  0.35753703476E+02  0.21404289291E+02  0.42349161753E+02  0.00000000000E+00 0.  1.
</event>
<event>
 7    1  0.2385752E-015  0.9000773E+02  0.7816164E-02  0.1186339E+00
        -11   -1    0    0    0    0  0.00000000000E+00  0.00000000000E+00  0.45593999997E+02  0.45594000000E+02  0.51100000000E-03 0.  1.
         11   -1    0    0    0    0 -0.00000000000E+00 -0.00000000000E+00 -0.45593999997E+02  0.45594000000E+02  0.51100000000E-03 0. -1.
    9900012    2    1    2    0    0 -0.69636992594E+00 -0.56679321489E+00 -0.76606078239E+00  0.90007731071E+02  0.89999992321E+02 0.  0.
        -12    1    1    2    0    0  0.69636992594E+00  0.56679321489E+00  0.76606078239E+00  0.11802689289E+01  0.00000000000E+00 0.  1.
         11    1    3    3    0    0  0.16260682530E+02 -0.25409011165E+02 -0.11497127522E+02  0.32283301973E+02  0.51100000000E-03 0. -1.
        -11    1    3    3    0    0  0.69674883464E+00 -0.12180210680E+02 -0.57921708733E+01  0.13505266929E+02  0.51100000000E-03 0.  1.
        -12    1    3    3    0    0 -0.17653801291E+02  0.37022428630E+02  0.16523237613E+02  0.44219162169E+02  0.00000000000E+00 0.  1.
</event>
<event>
 7    1  0.2385752E-015  0.9000784E+02  0.7816164E-02  0.1186339E+00
        -11   -1    0    0    0    0  0.00000000000E+00  0.00000000000E+00  0.45593999997E+02  0.45594000000E+02  0.51100000000E-03 0.  1.
         11   -1    0    0    0    0 -0.00000000000E+00 -0.00000000000E+00 -0.45593999997E+02  0.45594000000E+02  0.51100000000E-03 0. -1.
    9900012    2    1    2    0    0 -0.82113522932E+00 -0.69074017012E+00 -0.49132776491E+00  0.90007835596E+02  0.90000098226E+02 0.  0.
        -12    1    1    2    0    0  0.82113522932E+00  0.69074017012E+00  0.49132776491E+00  0.11801644038E+01  0.00000000000E+00 0.  1.
         11    1    3    3    0    0  0.14125670648E+02 -0.35238533005E+02 -0.12122992110E+02  0.39852926085E+02  0.51100000000E-03 0. -1.
        -11    1    3    3    0    0 -0.80129815749E+01 -0.44233246938E+01  0.12913527410E+01  0.92434445543E+01  0.51100000000E-03 0.  1.
        -12    1    3    3    0    0 -0.69338243028E+01  0.38971117528E+02  0.10340311604E+02  0.40911464957E+02  0.00000000000E+00 0.  1.
</event>
<event>
 7    1  0.2385752E-015  0.9000778E+02  0.7816164E-02  0.1186339E+00
        -11   -1    0    0    0    0  0.00000000000E+00  0.00000000000E+00  0.45593999997E+02  0.45594000000E+02  0.51100000000E-03 0. -1.
         11   -1    0    0    0    0 -0.00000000000E+00 -0.00000000000E+00 -0.45593999997E+02  0.45594000000E+02  0.51100000000E-03 0.  1.
    9900012    2    1    2    0    0  0.59161989192E+00 -0.10052739768E+01  0.17981027398E+00  0.90007779004E+02  0.90000040887E+02 0.  0.
        -12    1    1    2    0    0 -0.59161989192E+00  0.10052739768E+01 -0.17981027398E+00  0.11802209960E+01  0.00000000000E+00 0.  1.
         11    1    3    3    0    0  0.10707637917E+02 -0.60860705712E+00 -0.26187828821E+01  0.11040015234E+02  0.51100000000E-03 0. -1.
        -11    1    3    3    0    0  0.23695130430E+02  0.21921073672E+02  0.16433371873E+02  0.36222208497E+02  0.51100000000E-03 0.  1.
         12    1    3    3    0    0 -0.33811148455E+02 -0.22317740592E+02 -0.13634778717E+02  0.42745555273E+02  0.00000000000E+00 0. -1.
</event>
<event>
 7    1  0.2385752E-015  0.9000766E+02  0.7816164E-02  0.1186339E+00
        -11   -1    0    0    0    0  0.00000000000E+00  0.00000000000E+00  0.45593999997E+02  0.45594000000E+02  0.51100000000E-03 0.  1.
         11   -1    0    0    0    0 -0.00000000000E+00 -0.00000000000E+00 -0.45593999997E+02  0.45594000000E+02  0.51100000000E-03 0. -1.
    9900012    2    1    2    0    0  0.31382782539E+00  0.11360323807E+01 -0.64372874358E-01  0.90007660498E+02  0.89999920816E+02 0.  0.
        -12    1    1    2    0    0 -0.31382782539E+00 -0.11360323807E+01  0.64372874358E-01  0.11803395024E+01  0.00000000000E+00 0.  1.
         11    1    3    3    0    0  0.65932763558E+01 -0.80441484523E+01  0.24809609224E+01  0.10692744493E+02  0.51100000000E-03 0. -1.
        -11    1    3    3    0    0 -0.12256870704E+02  0.17709852922E+02  0.34589623957E+02  0.40746924494E+02  0.51100000000E-03 0.  1.
         12    1    3    3    0    0  0.59774221737E+01 -0.85296720886E+01 -0.37134957754E+02  0.38567991511E+02  0.00000000000E+00 0. -1.
</event>
<event>
 7    1  0.2385752E-015  0.9000772E+02  0.7816164E-02  0.1186339E+00
        -11   -1    0    0    0    0  0.00000000000E+00  0.00000000000E+00  0.45593999997E+02  0.45594000000E+02  0.51100000000E-03 0.  1.
         11   -1    0    0    0    0 -0.00000000000E+00 -0.00000000000E+00 -0.45593999997E+02  0.45594000000E+02  0.51100000000E-03 0. -1.
    9900012    2    1    2    0    0  0.16835662741E+00  0.57441442790E+00 -0.10172333247E+01  0.90007720573E+02  0.89999981685E+02 0.  0.
        -12    1    1    2    0    0 -0.16835662741E+00 -0.57441442790E+00  0.10172333247E+01  0.11802794270E+01  0.00000000000E+00 0.  1.
         11    1    3    3    0    0 -0.66618588875E+01  0.29298758122E+01 -0.53566538355E+01  0.90364969256E+01  0.51100000000E-03 0. -1.
        -11    1    3    3    0    0 -0.92935773146E+01 -0.36292435440E+02 -0.12913778622E+02  0.39626722398E+02  0.51100000000E-03 0.  1.
         12    1    3    3    0    0  0.16123792829E+02  0.33936974055E+02  0.17253199133E+02  0.41344501249E+02  0.00000000000E+00 0. -1.
</event>
<event>
 7    1  0.2385752E-015  0.9000785E+02  0.7816164E-02  0.1186339E+00
        -11   -1    0    0    0    0  0.00000000000E+00  0.00000000000E+00  0.45593999997E+02  0.45594000000E+02  0.51100000000E-03 0.  1.
         11   -1    0    0    0    0 -0.00000000000E+00 -0.00000000000E+00 -0.45593999997E+02  0.45594000000E+02  0.51100000000E-03 0. -1.
    9900012    2    1    2    0    0  0.50925255991E+00 -0.10632033443E+01 -0.54922238656E-01  0.90007849173E+02  0.90000111982E+02 0.  0.
        -12    1    1    2    0    0 -0.50925255991E+00  0.10632033443E+01  0.54922238656E-01  0.11801508266E+01  0.00000000000E+00 0.  1.
         11    1    3    3    0    0 -0.88175220094E+01 -0.29699686885E+00  0.54109752686E+01  0.10349664494E+02  0.51100000000E-03 0. -1.
        -11    1    3    3    0    0  0.65712733008E+01  0.39026435963E+02 -0.32393622083E+01  0.39708157909E+02  0.51100000000E-03 0.  1.
         12    1    3    3    0    0  0.27555012686E+01 -0.39792642438E+02 -0.22265352990E+01  0.39950026770E+02  0.00000000000E+00 0. -1.
</event>
<event>
 7    1  0.2385752E-015  0.9000776E+02  0.7816164E-02  0.1186339E+00
        -11   -1    0    0    0    0  0.00000000000E+00  0.00000000000E+00  0.45593999997E+02  0.45594000000E+02  0.51100000000E-03 0. -1.
         11   -1    0    0    0    0 -0.00000000000E+00 -0.00000000000E+00 -0.45593999997E+02  0.45594000000E+02  0.51100000000E-03 0.  1.
    9900012    2    1    2    0    0 -0.34354334774E+00  0.81149246490E+00  0.78512465970E+00  0.90007761556E+02  0.90000023209E+02 0.  0.
        -12    1    1    2    0    0  0.34354334774E+00 -0.81149246490E+00 -0.78512465970E+00  0.11802384436E+01  0.00000000000E+00 0.  1.
         11    1    3    3    0    0  0.15652056068E+01  0.20967694774E+01 -0.93267007377E+01  0.96867774696E+01  0.51100000000E-03 0. -1.
        -11    1    3    3    0    0 -0.38096524622E+02 -0.73510174043E+00 -0.93417669964E+01  0.39232055436E+02  0.51100000000E-03 0.  1.
         12    1    3    3    0    0  0.36187775668E+02 -0.55017527210E+00  0.19453592394E+02  0.41088928651E+02  0.00000000000E+00 0. -1.
</event>
<event>
 7    1  0.2385752E-015  0.9000770E+02  0.7816164E-02  0.1186339E+00
        -11   -1    0    0    0    0  0.00000000000E+00  0.00000000000E+00  0.45593999997E+02  0.45594000000E+02  0.51100000000E-03 0.  1.
         11   -1    0    0    0    0 -0.00000000000E+00 -0.00000000000E+00 -0.45593999997E+02  0.45594000000E+02  0.51100000000E-03 0. -1.
    9900012    2    1    2    0    0  0.35976904957E+00 -0.11169284167E+01 -0.12709239452E+00  0.90007696931E+02  0.89999957731E+02 0.  0.
        -12    1    1    2    0    0 -0.35976904957E+00  0.11169284167E+01  0.12709239452E+00  0.11803030686E+01  0.00000000000E+00 0.  1.
         11    1    3    3    0    0  0.39787564561E+02 -0.83340809661E+01 -0.11559226621E+02  0.42262547481E+02  0.51100000000E-03 0. -1.
        -11    1    3    3    0    0  0.26328490368E+01  0.21770899603E+01 -0.10652401270E+01  0.35785963079E+01  0.51100000000E-03 0.  1.
        -12    1    3    3    0    0 -0.42060644549E+02  0.50400625891E+01  0.12497374353E+02  0.44166553142E+02  0.00000000000E+00 0.  1.
</event>
<event>
 7    1  0.2385752E-015  0.9000775E+02  0.7816164E-02  0.1186339E+00
        -11   -1    0    0    0    0  0.00000000000E+00  0.00000000000E+00  0.45593999997E+02  0.45594000000E+02  0.51100000000E-03 0.  1.
         11   -1    0    0    0    0 -0.00000000000E+00 -0.00000000000E+00 -0.45593999997E+02  0.45594000000E+02  0.51100000000E-03 0. -1.
    9900012    2    1    2    0    0 -0.77127186471E+00 -0.54364093043E+00 -0.70893784315E+00  0.90007746376E+02  0.90000007829E+02 0.  0.
        -12    1    1    2    0    0  0.77127186471E+00  0.54364093043E+00  0.70893784315E+00  0.11802536236E+01  0.00000000000E+00 0.  1.
         11    1    3    3    0    0 -0.25041263390E+01 -0.91212104375E+01  0.12669573879E+01  0.95431813276E+01  0.51100000000E-03 0. -1.
        -11    1    3    3    0    0  0.20229978666E+02 -0.28564836700E+02 -0.13314785877E+02  0.37449772439E+02  0.51100000000E-03 0.  1.
         12    1    3    3    0    0 -0.18497124192E+02  0.37142406207E+02  0.11338890646E+02  0.43014792610E+02  0.00000000000E+00 0. -1.
</event>
<event>
 7    1  0.2385752E-015  0.9000771E+02  0.7816164E-02  0.1186339E+00
        -11   -1    0    0    0    0  0.00000000000E+00  0.00000000000E+00  0.45593999997E+02  0.45594000000E+02  0.51100000000E-03 0. -1.
         11   -1    0    0    0    0 -0.00000000000E+00 -0.00000000000E+00 -0.45593999997E+02  0.45594000000E+02  0.51100000000E-03 0.  1.
    9900012    2    1    2    0    0  0.10843145512E+00 -0.53358624619E+00  0.10471950636E+01  0.90007708018E+02  0.89999968963E+02 0.  0.
        -12    1    1    2    0    0 -0.10843145512E+00  0.53358624619E+00 -0.10471950636E+01  0.11802919825E+01  0.00000000000E+00 0.  1.
         11    1    3    3    0    0 -0.18092852278E+02  0.18469237935E+02  0.32556576325E+02  0.41573966803E+02  0.51100000000E-03 0. -1.
        -11    1    3    3    0    0 -0.42275032076E+01 -0.95485510030E+01 -0.28323473693E+01  0.10819833710E+02  0.51100000000E-03 0.  1.
        -12    1    3    3    0    0  0.22428786941E+02 -0.94542731780E+01 -0.28677033892E+02  0.37613907505E+02  0.00000000000E+00 0.  1.
</event>
<event>
 7    1  0.2534934E-015  0.9000772E+02  0.7816164E-02  0.1186339E+00
        -11   -1    0    0    0    0  0.00000000000E+00  0.00000000000E+00  0.45593999997E+02  0.45594000000E+02  0.51100000000E-03 0.  1.
         11   -1    0    0    0    0 -0.00000000000E+00 -0.00000000000E+00 -0.45593999997E+02  0.45594000000E+02  0.51100000000E-03 0. -1.
    9900012    2    1    2    0    0 -0.91722769376E+00 -0.22932473500E+00 -0.70651363664E+00  0.90007721221E+02  0.89999982342E+02 0.  0.
        -12    1    1    2    0    0  0.91722769376E+00  0.22932473500E+00  0.70651363664E+00  0.11802787785E+01  0.00000000000E+00 0.  1.
         11    1    3    3    0    0 -0.40031640683E+01 -0.32131330238E+02 -0.25182988310E+02  0.41019880618E+02  0.51100000000E-03 0. -1.
        -11    1    3    3    0    0 -0.17196149276E+01 -0.39283391970E+01  0.83833388392E+01  0.94164374740E+01  0.51100000000E-03 0.  1.
        -12    1    3    3    0    0  0.48055513022E+01  0.35830344700E+02  0.16093135834E+02  0.39571403129E+02  0.00000000000E+00 0.  1.
</event>
<event>
 7    1  0.2385752E-015  0.9000772E+02  0.7816164E-02  0.1186339E+00
        -11   -1    0    0    0    0  0.00000000000E+00  0.00000000000E+00  0.45593999997E+02  0.45594000000E+02  0.51100000000E-03 0.  1.
         11   -1    0    0    0    0 -0.00000000000E+00 -0.00000000000E+00 -0.45593999997E+02  0.45594000000E+02  0.51100000000E-03 0. -1.
    9900012    2    1    2    0    0 -0.11163322200E+01  0.36765193544E+00 -0.10812169161E+00  0.90007722121E+02  0.89999983253E+02 0.  0.
        -12    1    1    2    0    0  0.11163322200E+01 -0.36765193544E+00  0.10812169161E+00  0.11802778789E+01  0.00000000000E+00 0.  1.
         11    1    3    3    0    0 -0.83719863602E+01  0.80604959051E+00 -0.72407541796E+01  0.11098125648E+02  0.51100000000E-03 0. -1.
        -11    1    3    3    0    0  0.12547378080E+02  0.37846464638E+02  0.52326594817E+01  0.40214080964E+02  0.51100000000E-03 0.  1.
         12    1    3    3    0    0 -0.52917239400E+01 -0.38284862293E+02  0.18999730062E+01  0.38695515509E+02  0.00000000000E+00 0. -1.
</event>
<event>
 7    1  0.2385752E-015  0.9000773E+02  0.7816164E-02  0.1186339E+00
        -11   -1    0    0    0    0  0.00000000000E+00  0.00000000000E+00  0.45593999997E+02  0.45594000000E+02  0.51100000000E-03 0.  1.
         11   -1    0    0    0    0 -0.00000000000E+00 -0.00000000000E+00 -0.45593999997E+02  0.45594000000E+02  0.51100000000E-03 0. -1.
    9900012    2    1    2    0    0 -0.82573848316E+00  0.58248425320E+00  0.60984066883E+00  0.90007729866E+02  0.89999991100E+02 0.  0.
        -12    1    1    2    0    0  0.82573848316E+00 -0.58248425320E+00 -0.60984066883E+00  0.11802701340E+01  0.00000000000E+00 0.  1.
         11    1    3    3    0    0  0.37511216792E+02 -0.11607262008E+02  0.89995125111E+01  0.40284130154E+02  0.51100000000E-03 0. -1.
        -11    1    3    3    0    0 -0.49966469812E+01  0.14414223961E+02 -0.53690584477E+01  0.16172913230E+02  0.51100000000E-03 0.  1.
        -12    1    3    3    0    0 -0.33340308294E+02 -0.22244777007E+01 -0.30206133946E+01  0.33550686483E+02  0.00000000000E+00 0.  1.
</event>
<event>
 7    1  0.2385752E-015  0.9000744E+02  0.7816164E-02  0.1186340E+00
        -11   -1    0    0    0    0  0.00000000000E+00  0.00000000000E+00  0.45593999997E+02  0.45594000000E+02  0.51100000000E-03 0.  1.
         11   -1    0    0    0    0 -0.00000000000E+00 -0.00000000000E+00 -0.45593999997E+02  0.45594000000E+02  0.51100000000E-03 0. -1.
    9900012    2    1    2    0    0 -0.12597404184E+00 -0.11647281069E+01  0.14580934671E+00  0.90007440223E+02  0.89999697633E+02 0.  0.
        -12    1    1    2    0    0  0.12597404184E+00  0.11647281069E+01 -0.14580934671E+00  0.11805597773E+01  0.00000000000E+00 0.  1.
         11    1    3    3    0    0 -0.21403931507E+02  0.11469125864E+02  0.29639106941E+02  0.38316390652E+02  0.51100000000E-03 0. -1.
        -11    1    3    3    0    0  0.69249353853E+01  0.69918678580E+01  0.37275226397E+01  0.10523087547E+02  0.51100000000E-03 0.  1.
        -12    1    3    3    0    0  0.14353022080E+02 -0.19625721829E+02 -0.33220820234E+02  0.41167962024E+02  0.00000000000E+00 0.  1.
</event>
<event>
 7    1  0.2385752E-015  0.9000760E+02  0.7816164E-02  0.1186339E+00
        -11   -1    0    0    0    0  0.00000000000E+00  0.00000000000E+00  0.45593999997E+02  0.45594000000E+02  0.51100000000E-03 0.  1.
         11   -1    0    0    0    0 -0.00000000000E+00 -0.00000000000E+00 -0.45593999997E+02  0.45594000000E+02  0.51100000000E-03 0. -1.
    9900012    2    1    2    0    0  0.90530358588E+00  0.49361840050E+00 -0.57456154106E+00  0.90007595547E+02  0.89999855008E+02 0.  0.
        -12    1    1    2    0    0 -0.90530358588E+00 -0.49361840050E+00  0.57456154106E+00  0.11804044529E+01  0.00000000000E+00 0.  1.
         11    1    3    3    0    0 -0.13639516415E+01 -0.13730932392E+02  0.25384985633E+02  0.28892842786E+02  0.51100000000E-03 0. -1.
        -11    1    3    3    0    0 -0.16794293252E+02  0.15813507585E+02  0.60291332694E+01  0.23842519922E+02  0.51100000000E-03 0.  1.
         12    1    3    3    0    0  0.19063548480E+02 -0.15889567927E+01 -0.31988680443E+02  0.37272232839E+02  0.00000000000E+00 0. -1.
</event>
<event>
 7    1  0.2385752E-015  0.9000776E+02  0.7816164E-02  0.1186339E+00
        -11   -1    0    0    0    0  0.00000000000E+00  0.00000000000E+00  0.45593999997E+02  0.45594000000E+02  0.51100000000E-03 0.  1.
         11   -1    0    0    0    0 -0.00000000000E+00 -0.00000000000E+00 -0.45593999997E+02  0.45594000000E+02  0.51100000000E-03 0. -1.
    9900012    2    1    2    0    0  0.53215635042E+00 -0.59074583991E+00 -0.87224087515E+00  0.90007756308E+02  0.90000017891E+02 0.  0.
        -12    1    1    2    0    0 -0.53215635042E+00  0.59074583991E+00  0.87224087515E+00  0.11802436922E+01  0.00000000000E+00 0.  1.
         11    1    3    3    0    0  0.41887406818E+01  0.73174920248E+01  0.39909023299E+01  0.93283728324E+01  0.51100000000E-03 0. -1.
        -11    1    3    3    0    0  0.19330902398E+02  0.23292185409E+02  0.18454468317E+02  0.35451052026E+02  0.51100000000E-03 0.  1.
         12    1    3    3    0    0 -0.22987486730E+02 -0.31200423273E+02 -0.23317611522E+02  0.45228331449E+02  0.00000000000E+00 0. -1.
</event>
<event>
 7    1  0.2385752E-015  0.9000769E+02  0.7816164E-02  0.1186339E+00
        -11   -1    0    0    0    0  0.00000000000E+00  0.00000000000E+00  0.45593999997E+02  0.45594000000E+02  0.51100000000E-03 0.  1.
         11   -1    0    0    0    0 -0.00000000000E+00 -0.00000000000E+00 -0.45593999997E+02  0.45594000000E+02  0.51100000000E-03 0. -1.
    9900012    2    1    2    0    0 -0.10901415358E+01 -0.24057415330E+00  0.38319324715E+00  0.90007694296E+02  0.89999955060E+02 0.  0.
        -12    1    1    2    0    0  0.10901415358E+01  0.24057415330E+00 -0.38319324715E+00  0.11803057045E+01  0.00000000000E+00 0.  1.
         11    1    3    3    0    0  0.11498137351E+02  0.26735166203E+02 -0.24115100528E+02  0.37795692191E+02  0.51100000000E-03 0. -1.
        -11    1    3    3    0    0  0.52838350661E+01  0.40414326989E+01 -0.27757407302E+01  0.72081084986E+01  0.51100000000E-03 0.  1.
        -12    1    3    3    0    0 -0.17872113953E+02 -0.31017173055E+02  0.27274034505E+02  0.45003893606E+02  0.00000000000E+00 0.  1.
</event>
<event>
 7    1  0.2385752E-015  0.9000761E+02  0.7816164E-02  0.1186339E+00
        -11   -1    0    0    0    0  0.00000000000E+00  0.00000000000E+00  0.45593999997E+02  0.45594000000E+02  0.51100000000E-03 0. -1.
         11   -1    0    0    0    0 -0.00000000000E+00 -0.00000000000E+00 -0.45593999997E+02  0.45594000000E+02  0.51100000000E-03 0.  1.
    9900012    2    1    2    0    0  0.14138824995E+00  0.92361868328E+00  0.72128221909E+00  0.90007614407E+02  0.89999874117E+02 0.  0.
        -12    1    1    2    0    0 -0.14138824995E+00 -0.92361868328E+00 -0.72128221909E+00  0.11803855933E+01  0.00000000000E+00 0.  1.
         11    1    3    3    0    0 -0.15882570964E+02  0.71244713279E+01 -0.12191941983E+02  0.21252237569E+02  0.51100000000E-03 0. -1.
        -11    1    3    3    0    0 -0.10177285780E+02 -0.25916042993E+02 -0.90645461750E+01  0.29281127504E+02  0.51100000000E-03 0.  1.
         12    1    3    3    0    0  0.26201244994E+02  0.19715190348E+02  0.21977770377E+02  0.39474249334E+02  0.00000000000E+00 0. -1.
</event>
<event>
 7    1  0.2385752E-015  0.9000742E+02  0.7816164E-02  0.1186340E+00
        -11   -1    0    0    0    0  0.00000000000E+00  0.00000000000E+00  0.45593999997E+02  0.45594000000E+02  0.51100000000E-03 0. -1.
         11   -1    0    0    0    0 -0.00000000000E+00 -0.00000000000E+00 -0.45593999997E+02  0.45594000000E+02  0.51100000000E-03 0.  1.
    9900012    2    1    2    0    0 -0.53276772445E+00  0.98083397590E+00  0.38457740065E+00  0.90007416876E+02  0.89999673978E+02 0.  0.
        -12    1    1    2    0    0  0.53276772445E+00 -0.98083397590E+00 -0.38457740065E+00  0.11805831244E+01  0.00000000000E+00 0.  1.
         11    1    3    3    0    0 -0.18575401171E+02 -0.28973506378E+02  0.19719676619E+02  0.39665794417E+02  0.51100000000E-03 0. -1.
        -11    1    3    3    0    0  0.16584760744E+01 -0.62018449034E+01 -0.50004730911E+01  0.81374538088E+01  0.51100000000E-03 0.  1.
        -12    1    3    3    0    0  0.16384157372E+02  0.36156185258E+02 -0.14334626127E+02  0.42204168650E+02  0.00000000000E+00 0.  1.
</event>
<event>
 7    1  0.2385752E-015  0.9000776E+02  0.7816164E-02  0.1186339E+00
        -11   -1    0    0    0    0  0.00000000000E+00  0.00000000000E+00  0.45593999997E+02  0.45594000000E+02  0.51100000000E-03 0. -1.
         11   -1    0    0    0    0 -0.00000000000E+00 -0.00000000000E+00 -0.45593999997E+02  0.45594000000E+02  0.51100000000E-03 0.  1.
    9900012    2    1    2    0    0 -0.79625307770E+00  0.48185322327E+00  0.72578539337E+00  0.90007760224E+02  0.90000021859E+02 0.  0.
        -12    1    1    2    0    0  0.79625307770E+00 -0.48185322327E+00 -0.72578539337E+00  0.11802397764E+01  0.00000000000E+00 0.  1.
         11    1    3    3    0    0  0.10940902017E+02 -0.26031879968E+02  0.74818316339E+01  0.29211982412E+02  0.51100000000E-03 0. -1.
        -11    1    3    3    0    0 -0.26346130172E+01 -0.14187519074E+02  0.80686595197E+01  0.16532699415E+02  0.51100000000E-03 0.  1.
        -12    1    3    3    0    0 -0.91025420778E+01  0.40701252265E+02 -0.14824705760E+02  0.44263078396E+02  0.00000000000E+00 0.  1.
</event>
<event>
 7    1  0.2385752E-015  0.9000774E+02  0.7816164E-02  0.1186339E+00
        -11   -1    0    0    0    0  0.00000000000E+00  0.00000000000E+00  0.45593999997E+02  0.45594000000E+02  0.51100000000E-03 0.  1.
         11   -1    0    0    0    0 -0.00000000000E+00 -0.00000000000E+00 -0.45593999997E+02  0.45594000000E+02  0.51100000000E-03 0. -1.
    9900012    2    1    2    0    0 -0.88548912188E+00  0.60339692736E+00 -0.49481008880E+00  0.90007739071E+02  0.90000000427E+02 0.  0.
        -12    1    1    2    0    0  0.88548912188E+00 -0.60339692736E+00  0.49481008880E+00  0.11802609292E+01  0.00000000000E+00 0.  1.
         11    1    3    3    0    0  0.30495678164E+02 -0.16073902784E+02 -0.25724959547E+02  0.43013140798E+02  0.51100000000E-03 0. -1.
        -11    1    3    3    0    0 -0.28589565996E+01 -0.14553900351E+01  0.88952816426E+01  0.94561000817E+01  0.51100000000E-03 0.  1.
        -12    1    3    3    0    0 -0.28522210686E+02  0.18132689746E+02  0.16334867816E+02  0.37538498191E+02  0.00000000000E+00 0.  1.
</event>
<event>
 7    1  0.2385752E-015  0.9000778E+02  0.7816164E-02  0.1186339E+00
        -11   -1    0    0    0    0  0.00000000000E+00  0.00000000000E+00  0.45593999997E+02  0.45594000000E+02  0.51100000000E-03 0. -1.
         11   -1    0    0    0    0 -0.00000000000E+00 -0.00000000000E+00 -0.45593999997E+02  0.45594000000E+02  0.51100000000E-03 0.  1.
    9900012    2    1    2    0    0 -0.10149522727E+01  0.54618171161E+00  0.25391518663E+00  0.90007781588E+02  0.90000043505E+02 0.  0.
        -12    1    1    2    0    0  0.10149522727E+01 -0.54618171161E+00 -0.25391518663E+00  0.11802184120E+01  0.00000000000E+00 0.  1.
         11    1    3    3    0    0 -0.38994691053E+01 -0.53089812643E+01 -0.10004279410E+02  0.11978177997E+02  0.51100000000E-03 0. -1.
        -11    1    3    3    0    0  0.21841019502E+02  0.19795434632E+02 -0.22930627865E+02  0.37345723446E+02  0.51100000000E-03 0.  1.
         12    1    3    3    0    0 -0.18956502669E+02 -0.13940271657E+02  0.33188822461E+02  0.40683880145E+02  0.00000000000E+00 0. -1.
</event>
<event>
 7    1  0.2385752E-015  0.9000776E+02  0.7816164E-02  0.1186339E+00
        -11   -1    0    0    0    0  0.00000000000E+00  0.00000000000E+00  0.45593999997E+02  0.45594000000E+02  0.51100000000E-03 0.  1.
         11   -1    0    0    0    0 -0.00000000000E+00 -0.00000000000E+00 -0.45593999997E+02  0.45594000000E+02  0.51100000000E-03 0. -1.
    9900012    2    1    2    0    0  0.10858949226E+01 -0.46122377591E+00 -0.32697925075E-01  0.90007760910E+02  0.90000022554E+02 0.  0.
        -12    1    1    2    0    0 -0.10858949226E+01  0.46122377591E+00  0.32697925075E-01  0.11802390897E+01  0.00000000000E+00 0.  1.
         11    1    3    3    0    0  0.16680263822E+02  0.24433117497E+02 -0.27315656632E+02  0.40266034437E+02  0.51100000000E-03 0. -1.
        -11    1    3    3    0    0  0.76457866314E+01 -0.27307944658E+00  0.38371198411E+01  0.85589785917E+01  0.51100000000E-03 0.  1.
        -12    1    3    3    0    0 -0.23240155530E+02 -0.24621261826E+02  0.23445838866E+02  0.41182747882E+02  0.00000000000E+00 0.  1.
</event>
<event>
 8    1  0.2385752E-015  0.9000779E+02  0.7816164E-02  0.1186339E+00
        -11   -1    0    0    0    0  0.00000000000E+00  0.00000000000E+00  0.45593999997E+02  0.45594000000E+02  0.51100000000E-03 0.  1.
         11   -1    0    0    0    0 -0.00000000000E+00 -0.00000000000E+00 -0.45593999997E+02  0.45594000000E+02  0.51100000000E-03 0. -1.
    9900012    2    1    2    0    0  0.17964212650E+00  0.11636084048E+01 -0.81517014902E-01  0.90007787800E+02  0.90000049799E+02 0.  0.
         23    2    3    3    0    0 -0.36349512745E+01  0.11409829274E+02  0.24055730072E+02  0.63509809352E+02  0.57544944694E+02 0.  0.
        -12    1    1    2    0    0 -0.17964212650E+00 -0.11636084048E+01  0.81517014902E-01  0.11802122000E+01  0.00000000000E+00 0.  1.
         11    1    4    4    0    0  0.99669298769E+01  0.15053791292E+02 -0.14055437956E+02  0.22880377178E+02  0.51100000000E-03 0. -1.
        -11    1    4    4    0    0 -0.13601881151E+02 -0.36439620179E+01  0.38111168028E+02  0.40629432174E+02  0.51100000000E-03 0.  1.
         12    1    3    3    0    0  0.38145934010E+01 -0.10246220869E+02 -0.24137247087E+02  0.26497978448E+02  0.00000000000E+00 0. -1.
</event>
<event>
 7    1  0.2385752E-015  0.9000777E+02  0.7816164E-02  0.1186339E+00
        -11   -1    0    0    0    0  0.00000000000E+00  0.00000000000E+00  0.45593999997E+02  0.45594000000E+02  0.51100000000E-03 0.  1.
         11   -1    0    0    0    0 -0.00000000000E+00 -0.00000000000E+00 -0.45593999997E+02  0.45594000000E+02  0.51100000000E-03 0. -1.
    9900012    2    1    2    0    0 -0.11687801058E+01  0.92915371748E-01  0.13512759333E+00  0.90007771349E+02  0.90000033131E+02 0.  0.
        -12    1    1    2    0    0  0.11687801058E+01 -0.92915371748E-01 -0.13512759333E+00  0.11802286510E+01  0.00000000000E+00 0.  1.
         11    1    3    3    0    0  0.64500501614E+01  0.25712542378E+01 -0.39970466765E+01  0.80119209829E+01  0.51100000000E-03 0. -1.
        -11    1    3    3    0    0 -0.74071592700E+01 -0.22312709595E+02  0.36864091644E+02  0.43722811791E+02  0.51100000000E-03 0.  1.
         12    1    3    3    0    0 -0.21167099727E+00  0.19834370729E+02 -0.32731917374E+02  0.38273038575E+02  0.00000000000E+00 0. -1.
</event>
<event>
 7    1  0.2385752E-015  0.9000773E+02  0.7816164E-02  0.1186339E+00
        -11   -1    0    0    0    0  0.00000000000E+00  0.00000000000E+00  0.45593999997E+02  0.45594000000E+02  0.51100000000E-03 0.  1.
         11   -1    0    0    0    0 -0.00000000000E+00 -0.00000000000E+00 -0.45593999997E+02  0.45594000000E+02  0.51100000000E-03 0. -1.
    9900012    2    1    2    0    0 -0.52392142882E+00 -0.10503022865E+01 -0.12408983521E+00  0.90007734418E+02  0.89999995712E+02 0.  0.
        -12    1    1    2    0    0  0.52392142882E+00  0.10503022865E+01  0.12408983521E+00  0.11802655819E+01  0.00000000000E+00 0.  1.
         11    1    3    3    0    0  0.17994945841E+02  0.31612216244E+02  0.54230213009E+01  0.36777159378E+02  0.51100000000E-03 0. -1.
        -11    1    3    3    0    0  0.28089519287E+00 -0.65569063407E+01 -0.17671859923E+02  0.18851168565E+02  0.51100000000E-03 0.  1.
        -12    1    3    3    0    0 -0.18799762463E+02 -0.26105612189E+02  0.12124748787E+02  0.34379406475E+02  0.00000000000E+00 0.  1.
</event>
<event>
 7    1  0.2385752E-015  0.9000776E+02  0.7816164E-02  0.1186339E+00
        -11   -1    0    0    0    0  0.00000000000E+00  0.00000000000E+00  0.45593999997E+02  0.45594000000E+02  0.51100000000E-03 0. -1.
         11   -1    0    0    0    0 -0.00000000000E+00 -0.00000000000E+00 -0.45593999997E+02  0.45594000000E+02  0.51100000000E-03 0.  1.
    9900012    2    1    2    0    0 -0.91494313389E-01 -0.51955174420E+00  0.10557775097E+01  0.90007757917E+02  0.90000019522E+02 0.  0.
        -12    1    1    2    0    0  0.91494313389E-01  0.51955174420E+00 -0.10557775097E+01  0.11802420829E+01  0.00000000000E+00 0.  1.
         11    1    3    3    0    0 -0.11430322901E+02  0.25264132121E+00  0.59621866196E+01  0.12894331267E+02  0.51100000000E-03 0. -1.
        -11    1    3    3    0    0  0.43260923765E+02 -0.85496319013E+01 -0.24404722062E+01  0.44165140501E+02  0.51100000000E-03 0.  1.
         12    1    3    3    0    0 -0.31922095177E+02  0.77774388359E+01 -0.24659369038E+01  0.32948286149E+02  0.00000000000E+00 0. -1.
</event>
<event>
 7    1  0.3360669E-015  0.9000758E+02  0.7816164E-02  0.1186339E+00
        -11   -1    0    0    0    0  0.00000000000E+00  0.00000000000E+00  0.45593999997E+02  0.45594000000E+02  0.51100000000E-03 0.  1.
         11   -1    0    0    0    0 -0.00000000000E+00 -0.00000000000E+00 -0.45593999997E+02  0.45594000000E+02  0.51100000000E-03 0. -1.
    9900012    2    1    2    0    0  0.10098803994E+01  0.39095584156E+00 -0.46976950620E+00  0.90007581312E+02  0.89999840585E+02 0.  0.
        -12    1    1    2    0    0 -0.10098803994E+01 -0.39095584156E+00  0.46976950620E+00  0.11804186885E+01  0.00000000000E+00 0.  1.
         11    1    3    3    0    0 -0.57958042746E+01  0.31014462906E+02 -0.25110756878E+02  0.40324166052E+02  0.51100000000E-03 0. -1.
        -11    1    3    3    0    0  0.88209035108E+01 -0.16265871526E+01 -0.31128206417E+01  0.94944076761E+01  0.51100000000E-03 0.  1.
        -12    1    3    3    0    0 -0.20152188368E+01 -0.28996919912E+02  0.27753808014E+02  0.40189007584E+02  0.00000000000E+00 0.  1.
</event>
<event>
 7    1  0.2385752E-015  0.9000770E+02  0.7816164E-02  0.1186339E+00
        -11   -1    0    0    0    0  0.00000000000E+00  0.00000000000E+00  0.45593999997E+02  0.45594000000E+02  0.51100000000E-03 0.  1.
         11   -1    0    0    0    0 -0.00000000000E+00 -0.00000000000E+00 -0.45593999997E+02  0.45594000000E+02  0.51100000000E-03 0. -1.
    9900012    2    1    2    0    0  0.38235348522E+00 -0.82346510758E+00 -0.75419745185E+00  0.90007702255E+02  0.89999963125E+02 0.  0.
        -12    1    1    2    0    0 -0.38235348522E+00  0.82346510758E+00  0.75419745185E+00  0.11802977452E+01  0.00000000000E+00 0.  1.
         11    1    3    3    0    0 -0.14456896340E+02  0.10079065679E+02 -0.52627476606E+01  0.18392550936E+02  0.51100000000E-03 0. -1.
        -11    1    3    3    0    0 -0.85727668215E+01  0.21090236014E+02  0.18747250835E+02  0.29491520819E+02  0.51100000000E-03 0.  1.
         12    1    3    3    0    0  0.23412016646E+02 -0.31992766800E+02 -0.14238700627E+02  0.42123630500E+02  0.00000000000E+00 0. -1.
</event>
<event>
 7    1  0.2385752E-015  0.9000772E+02  0.7816164E-02  0.1186339E+00
        -11   -1    0    0    0    0  0.00000000000E+00  0.00000000000E+00  0.45593999997E+02  0.45594000000E+02  0.51100000000E-03 0.  1.
         11   -1    0    0    0    0 -0.00000000000E+00 -0.00000000000E+00 -0.45593999997E+02  0.45594000000E+02  0.51100000000E-03 0. -1.
    9900012    2    1    2    0    0  0.14072220510E+00  0.11448786468E+01  0.25003241335E+00  0.90007717804E+02  0.89999978879E+02 0.  0.
        -12    1    1    2    0    0 -0.14072220510E+00 -0.11448786468E+01 -0.25003241335E+00  0.11802821961E+01  0.00000000000E+00 0.  1.
         11    1    3    3    0    0 -0.86372782649E+01  0.12213362554E+02 -0.36153436119E+02  0.39125947199E+02  0.51100000000E-03 0. -1.
        -11    1    3    3    0    0 -0.21065847494E+01  0.21494629230E+01 -0.51353301827E+01  0.59522690220E+01  0.51100000000E-03 0.  1.
        -12    1    3    3    0    0  0.10884585219E+02 -0.13217946830E+02  0.41538798715E+02  0.44929501583E+02  0.00000000000E+00 0.  1.
</event>
<event>
 7    1  0.2385752E-015  0.9000781E+02  0.7816164E-02  0.1186339E+00
        -11   -1    0    0    0    0  0.00000000000E+00  0.00000000000E+00  0.45593999997E+02  0.45594000000E+02  0.51100000000E-03 0. -1.
         11   -1    0    0    0    0 -0.00000000000E+00 -0.00000000000E+00 -0.45593999997E+02  0.45594000000E+02  0.51100000000E-03 0.  1.
    9900012    2    1    2    0    0  0.60267011584E+00  0.62865252302E+00 -0.79651925396E+00  0.90007805870E+02  0.90000068107E+02 0.  0.
        -12    1    1    2    0    0 -0.60267011584E+00 -0.62865252302E+00  0.79651925396E+00  0.11801941303E+01  0.00000000000E+00 0.  1.
         11    1    3    3    0    0 -0.24385216987E+01 -0.29901776865E+01 -0.85009824621E+01  0.93356442602E+01  0.51100000000E-03 0. -1.
        -11    1    3    3    0    0 -0.16840733892E+02 -0.19365942946E+02 -0.25139058375E+02  0.35925232365E+02  0.51100000000E-03 0.  1.
         12    1    3    3    0    0  0.19881925706E+02  0.22984773156E+02  0.32843521583E+02  0.44746929245E+02  0.00000000000E+00 0. -1.
</event>
<event>
 7    1  0.2385752E-015  0.9000777E+02  0.7816164E-02  0.1186339E+00
        -11   -1    0    0    0    0  0.00000000000E+00  0.00000000000E+00  0.45593999997E+02  0.45594000000E+02  0.51100000000E-03 0. -1.
         11   -1    0    0    0    0 -0.00000000000E+00 -0.00000000000E+00 -0.45593999997E+02  0.45594000000E+02  0.51100000000E-03 0.  1.
    9900012    2    1    2    0    0  0.11586139595E+01 -0.78608998120E-01  0.21063153396E+00  0.90007774884E+02  0.90000036712E+02 0.  0.
        -12    1    1    2    0    0 -0.11586139595E+01  0.78608998120E-01 -0.21063153396E+00  0.11802251162E+01  0.00000000000E+00 0.  1.
         11    1    3    3    0    0 -0.14271970074E+02  0.36198503781E+02  0.19281215673E+02  0.43425638555E+02  0.51100000000E-03 0. -1.
        -11    1    3    3    0    0  0.50665216277E+00 -0.58494774909E+01  0.25299265765E+01  0.63932473809E+01  0.51100000000E-03 0.  1.
        -12    1    3    3    0    0  0.14923931870E+02 -0.30427635288E+02 -0.21600510716E+02  0.40188888948E+02  0.00000000000E+00 0.  1.
</event>
<event>
 7    1  0.2385752E-015  0.9000768E+02  0.7816164E-02  0.1186339E+00
        -11   -1    0    0    0    0  0.00000000000E+00  0.00000000000E+00  0.45593999997E+02  0.45594000000E+02  0.51100000000E-03 0.  1.
         11   -1    0    0    0    0 -0.00000000000E+00 -0.00000000000E+00 -0.45593999997E+02  0.45594000000E+02  0.51100000000E-03 0. -1.
    9900012    2    1    2    0    0  0.58601568824E+00  0.96968275758E+00 -0.33084863869E+00  0.90007678070E+02  0.89999938620E+02 0.  0.
        -12    1    1    2    0    0 -0.58601568824E+00 -0.96968275758E+00  0.33084863869E+00  0.11803219302E+01  0.00000000000E+00 0.  1.
         11    1    3    3    0    0 -0.10416849315E+02 -0.24667617111E+02 -0.27959832568E+02  0.38713748476E+02  0.51100000000E-03 0. -1.
        -11    1    3    3    0    0 -0.83019545928E+01  0.36118734135E+01 -0.23802135228E+01  0.93612764242E+01  0.51100000000E-03 0.  1.
        -12    1    3    3    0    0  0.19304819596E+02  0.22025426455E+02  0.30009197452E+02  0.41932653170E+02  0.00000000000E+00 0.  1.
</event>
<event>
 7    1  0.2385752E-015  0.9000731E+02  0.7816164E-02  0.1186340E+00
        -11   -1    0    0    0    0  0.00000000000E+00  0.00000000000E+00  0.45593999997E+02  0.45594000000E+02  0.51100000000E-03 0.  1.
         11   -1    0    0    0    0 -0.00000000000E+00 -0.00000000000E+00 -0.45593999997E+02  0.45594000000E+02  0.51100000000E-03 0. -1.
    9900012    2    1    2    0    0 -0.60619199049E+00 -0.10081426827E+01 -0.10106221303E+00  0.90007307843E+02  0.89999563506E+02 0.  0.
        -12    1    1    2    0    0  0.60619199049E+00  0.10081426827E+01  0.10106221303E+00  0.11806921567E+01  0.00000000000E+00 0.  1.
         11    1    3    3    0    0 -0.46777649220E+01  0.39299326183E+01 -0.24306821116E+01  0.65752620358E+01  0.51100000000E-03 0. -1.
        -11    1    3    3    0    0 -0.33864969707E+02 -0.22539283406E+02 -0.49581369668E+01  0.40980954017E+02  0.51100000000E-03 0.  1.
         12    1    3    3    0    0  0.37936542638E+02  0.17601208105E+02  0.72877568654E+01  0.42451091791E+02  0.00000000000E+00 0. -1.
</event>
<event>
 8    1  0.2385752E-015  0.9000776E+02  0.7816164E-02  0.1186339E+00
        -11   -1    0    0    0    0  0.00000000000E+00  0.00000000000E+00  0.45593999997E+02  0.45594000000E+02  0.51100000000E-03 0.  1.
         11   -1    0    0    0    0 -0.00000000000E+00 -0.00000000000E+00 -0.45593999997E+02  0.45594000000E+02  0.51100000000E-03 0. -1.
    9900012    2    1    2    0    0  0.32857983469E+00 -0.41020162554E+00 -0.10567529213E+01  0.90007764084E+02  0.90000025770E+02 0.  0.
         23    2    3    3    0    0 -0.15170355554E+01  0.47084261995E+01  0.25709840639E+02  0.62693716822E+02  0.56965213501E+02 0.  0.
        -12    1    1    2    0    0 -0.32857983469E+00  0.41020162554E+00  0.10567529213E+01  0.11802359163E+01  0.00000000000E+00 0.  1.
         11    1    4    4    0    0  0.71755489956E+00  0.18397037804E+02 -0.12360604104E+02  0.22175446310E+02  0.51100000000E-03 0. -1.
        -11    1    4    4    0    0 -0.22345904550E+01 -0.13688611604E+02  0.38070444742E+02  0.40518270512E+02  0.51100000000E-03 0.  1.
         12    1    3    3    0    0  0.18456153901E+01 -0.51186278250E+01 -0.26766593560E+02  0.27314047261E+02  0.00000000000E+00 0. -1.
</event>
<event>
 7    1  0.2385752E-015  0.9000769E+02  0.7816164E-02  0.1186339E+00
        -11   -1    0    0    0    0  0.00000000000E+00  0.00000000000E+00  0.45593999997E+02  0.45594000000E+02  0.51100000000E-03 0.  1.
         11   -1    0    0    0    0 -0.00000000000E+00 -0.00000000000E+00 -0.45593999997E+02  0.45594000000E+02  0.51100000000E-03 0. -1.
    9900012    2    1    2    0    0  0.18111296522E+00  0.11555932496E+01 -0.15794237894E+00  0.90007685017E+02  0.89999945659E+02 0.  0.
        -12    1    1    2    0    0 -0.18111296522E+00 -0.11555932496E+01  0.15794237894E+00  0.11803149832E+01  0.00000000000E+00 0.  1.
         11    1    3    3    0    0 -0.31616438699E+02 -0.74594038612E+01 -0.22692063424E+02  0.39625391413E+02  0.51100000000E-03 0. -1.
        -11    1    3    3    0    0 -0.34731636146E+01  0.28007213056E+00 -0.41186833383E+01  0.53948918984E+01  0.51100000000E-03 0.  1.
        -12    1    3    3    0    0  0.35270715278E+02  0.83349249802E+01  0.26652804384E+02  0.44987401705E+02  0.00000000000E+00 0.  1.
</event>
<event>
 7    1  0.2385752E-015  0.9000776E+02  0.7816164E-02  0.1186339E+00
        -11   -1    0    0    0    0  0.00000000000E+00  0.00000000000E+00  0.45593999997E+02  0.45594000000E+02  0.51100000000E-03 0. -1.
         11   -1    0    0    0    0 -0.00000000000E+00 -0.00000000000E+00 -0.45593999997E+02  0.45594000000E+02  0.51100000000E-03 0.  1.
    9900012    2    1    2    0    0 -0.62768094073E+00  0.41135127653E+00  0.91091952218E+00  0.90007759511E+02  0.90000021137E+02 0.  0.
        -12    1    1    2    0    0  0.62768094073E+00 -0.41135127653E+00 -0.91091952218E+00  0.11802404890E+01  0.00000000000E+00 0.  1.
         11    1    3    3    0    0 -0.74055436277E+01  0.17113741305E+02  0.25587324751E+02  0.31661228752E+02  0.51100000000E-03 0. -1.
        -11    1    3    3    0    0  0.13790150986E+02 -0.83274242763E+01  0.11993867525E+02  0.20084001538E+02  0.51100000000E-03 0.  1.
        -12    1    3    3    0    0 -0.70122882987E+01 -0.83749657525E+01 -0.36670272754E+02  0.38262529222E+02  0.00000000000E+00 0.  1.
</event>
<event>
 7    1  0.2385752E-015  0.9000778E+02  0.7816164E-02  0.1186339E+00
        -11   -1    0    0    0    0  0.00000000000E+00  0.00000000000E+00  0.45593999997E+02  0.45594000000E+02  0.51100000000E-03 0.  1.
         11   -1    0    0    0    0 -0.00000000000E+00 -0.00000000000E+00 -0.45593999997E+02  0.45594000000E+02  0.51100000000E-03 0. -1.
    9900012    2    1    2    0    0  0.58211747641E+00  0.10219449351E+01 -0.98449107356E-01  0.90007777803E+02  0.90000039670E+02 0.  0.
        -12    1    1    2    0    0 -0.58211747641E+00 -0.10219449351E+01  0.98449107356E-01  0.11802221967E+01  0.00000000000E+00 0.  1.
         11    1    3    3    0    0  0.57349446587E+01 -0.43348580326E+02  0.32526236124E+01  0.43847104433E+02  0.51100000000E-03 0. -1.
        -11    1    3    3    0    0 -0.27823137218E+01  0.53994229859E+01 -0.37069228628E+01  0.71159198701E+01  0.51100000000E-03 0.  1.
        -12    1    3    3    0    0 -0.23705134605E+01  0.38971102275E+02  0.35585014305E+00  0.39044753501E+02  0.00000000000E+00 0.  1.
</event>
<event>
 7    1  0.2385752E-015  0.9000773E+02  0.7816164E-02  0.1186339E+00
        -11   -1    0    0    0    0  0.00000000000E+00  0.00000000000E+00  0.45593999997E+02  0.45594000000E+02  0.51100000000E-03 0. -1.
         11   -1    0    0    0    0 -0.00000000000E+00 -0.00000000000E+00 -0.45593999997E+02  0.45594000000E+02  0.51100000000E-03 0.  1.
    9900012    2    1    2    0    0 -0.79141878260E+00 -0.68034611351E+00 -0.55120847677E+00  0.90007726596E+02  0.89999987787E+02 0.  0.
        -12    1    1    2    0    0  0.79141878260E+00  0.68034611351E+00  0.55120847677E+00  0.11802734041E+01  0.00000000000E+00 0.  1.
         11    1    3    3    0    0 -0.17001610529E+02  0.24238267472E+02  0.22061510343E+02  0.36922332124E+02  0.51100000000E-03 0. -1.
        -11    1    3    3    0    0 -0.67809189919E+01 -0.37569760988E+01  0.66960776880E+01  0.10243690177E+02  0.51100000000E-03 0.  1.
        -12    1    3    3    0    0  0.22991110738E+02 -0.21161637486E+02 -0.29308796508E+02  0.42841704294E+02  0.00000000000E+00 0.  1.
</event>
<event>
 7    1  0.2385752E-015  0.9000773E+02  0.7816164E-02  0.1186339E+00
        -11   -1    0    0    0    0  0.00000000000E+00  0.00000000000E+00  0.45593999997E+02  0.45594000000E+02  0.51100000000E-03 0.  1.
         11   -1    0    0    0    0 -0.00000000000E+00 -0.00000000000E+00 -0.45593999997E+02  0.45594000000E+02  0.51100000000E-03 0. -1.
    9900012    2    1    2    0    0 -0.75593104020E+00  0.68050353023E+00 -0.59875717105E+00  0.90007734376E+02  0.89999995670E+02 0.  0.
        -12    1    1    2    0    0  0.75593104020E+00 -0.68050353023E+00  0.59875717105E+00  0.11802656235E+01  0.00000000000E+00 0.  1.
         11    1    3    3    0    0 -0.95948667426E+01 -0.12025715693E+02  0.30459641844E+01  0.15683022790E+02  0.51100000000E-03 0. -1.
        -11    1    3    3    0    0 -0.22049843612E+02 -0.15867790899E+02  0.11642324776E+02  0.29555475259E+02  0.51100000000E-03 0.  1.
         12    1    3    3    0    0  0.30888779314E+02  0.28574010123E+02 -0.15287046131E+02  0.44769236328E+02  0.00000000000E+00 0. -1.
</event>
<event>
 7    1  0.2385752E-015  0.9000771E+02  0.7816164E-02  0.1186339E+00
        -11   -1    0    0    0    0  0.00000000000E+00  0.00000000000E+00  0.45593999997E+02  0.45594000000E+02  0.51100000000E-03 0.  1.
         11   -1    0    0    0    0 -0.00000000000E+00 -0.00000000000E+00 -0.45593999997E+02  0.45594000000E+02  0.51100000000E-03 0. -1.
    9900012    2    1    2    0    0  0.16179294963E+00  0.41953569695E+00 -0.10912792541E+01  0.90007712929E+02  0.89999973940E+02 0.  0.
        -12    1    1    2    0    0 -0.16179294963E+00 -0.41953569695E+00  0.10912792541E+01  0.11802870710E+01  0.00000000000E+00 0.  1.
         11    1    3    3    0    0  0.38334578287E+01  0.78620433771E+01 -0.26922985079E+01  0.91518083734E+01  0.51100000000E-03 0. -1.
        -11    1    3    3    0    0 -0.18186160449E+02  0.10018138312E+02 -0.33285990891E+02  0.39230813361E+02  0.51100000000E-03 0.  1.
         12    1    3    3    0    0  0.14514495570E+02 -0.17460645992E+02  0.34887010145E+02  0.41625091194E+02  0.00000000000E+00 0. -1.
</event>
<event>
 7    1  0.2385752E-015  0.9000779E+02  0.7816164E-02  0.1186339E+00
        -11   -1    0    0    0    0  0.00000000000E+00  0.00000000000E+00  0.45593999997E+02  0.45594000000E+02  0.51100000000E-03 0.  1.
         11   -1    0    0    0    0 -0.00000000000E+00 -0.00000000000E+00 -0.45593999997E+02  0.45594000000E+02  0.51100000000E-03 0. -1.
    9900012    2    1    2    0    0  0.24803149661E-01  0.17731119842E+00 -0.11665535844E+01  0.90007787425E+02  0.90000049419E+02 0.  0.
        -12    1    1    2    0    0 -0.24803149661E-01 -0.17731119842E+00  0.11665535844E+01  0.11802125751E+01  0.00000000000E+00 0.  1.
         11    1    3    3    0    0  0.13203521225E+02 -0.52171635843E+01 -0.25789826855E+01  0.14429238391E+02  0.51100000000E-03 0. -1.
        -11    1    3    3    0    0  0.12434276065E+02  0.29652806083E+02 -0.16360297757E+02  0.36077132270E+02  0.51100000000E-03 0.  1.
         12    1    3    3    0    0 -0.25612994141E+02 -0.24258331301E+02  0.17772726858E+02  0.39501416763E+02  0.00000000000E+00 0. -1.
</event>
<event>
 7    1  0.2385752E-015  0.9000760E+02  0.7816164E-02  0.1186339E+00
        -11   -1    0    0    0    0  0.00000000000E+00  0.00000000000E+00  0.45593999997E+02  0.45594000000E+02  0.51100000000E-03 0. -1.
         11   -1    0    0    0    0 -0.00000000000E+00 -0.00000000000E+00 -0.45593999997E+02  0.45594000000E+02  0.51100000000E-03 0.  1.
    9900012    2    1    2    0    0  0.24400703007E+00 -0.89481360590E+00  0.73014885329E+00  0.90007598302E+02  0.89999857800E+02 0.  0.
        -12    1    1    2    0    0 -0.24400703007E+00  0.89481360590E+00 -0.73014885329E+00  0.11804016977E+01  0.00000000000E+00 0.  1.
         11    1    3    3    0    0 -0.33370432289E+02  0.57023543346E+01  0.19066200433E+02  0.38853862039E+02  0.51100000000E-03 0. -1.
        -11    1    3    3    0    0 -0.63848276205E+01  0.11689430690E+01 -0.52788951595E+01  0.83665516199E+01  0.51100000000E-03 0.  1.
        -12    1    3    3    0    0  0.39999266940E+02 -0.77661110095E+01 -0.13057156420E+02  0.42787184643E+02  0.00000000000E+00 0.  1.
</event>
<event>
 7    1  0.2385752E-015  0.9000773E+02  0.7816164E-02  0.1186339E+00
        -11   -1    0    0    0    0  0.00000000000E+00  0.00000000000E+00  0.45593999997E+02  0.45594000000E+02  0.51100000000E-03 0.  1.
         11   -1    0    0    0    0 -0.00000000000E+00 -0.00000000000E+00 -0.45593999997E+02  0.45594000000E+02  0.51100000000E-03 0. -1.
    9900012    2    1    2    0    0  0.77392849727E+00  0.43221631801E+00 -0.77926543085E+00  0.90007732710E+02  0.89999993982E+02 0.  0.
        -12    1    1    2    0    0 -0.77392849727E+00 -0.43221631801E+00  0.77926543085E+00  0.11802672901E+01  0.00000000000E+00 0.  1.
         11    1    3    3    0    0  0.32337966764E+01 -0.60738542803E+01 -0.72183352272E+01  0.99726380901E+01  0.51100000000E-03 0. -1.
        -11    1    3    3    0    0  0.22146803699E+02  0.23289064630E+02 -0.21925395980E+02  0.38904812486E+02  0.51100000000E-03 0.  1.
         12    1    3    3    0    0 -0.24606671878E+02 -0.16782994032E+02  0.28364465777E+02  0.41130282134E+02  0.00000000000E+00 0. -1.
</event>
<event>
 7    1  0.2385752E-015  0.9000770E+02  0.7816164E-02  0.1186339E+00
        -11   -1    0    0    0    0  0.00000000000E+00  0.00000000000E+00  0.45593999997E+02  0.45594000000E+02  0.51100000000E-03 0.  1.
         11   -1    0    0    0    0 -0.00000000000E+00 -0.00000000000E+00 -0.45593999997E+02  0.45594000000E+02  0.51100000000E-03 0. -1.
    9900012    2    1    2    0    0 -0.92760476245E+00  0.58985373825E+00 -0.42980724480E+00  0.90007698218E+02  0.89999959035E+02 0.  0.
        -12    1    1    2    0    0  0.92760476245E+00 -0.58985373825E+00  0.42980724480E+00  0.11803017816E+01  0.00000000000E+00 0.  1.
         11    1    3    3    0    0  0.16137630667E+02  0.35719007223E+02 -0.87945746859E+01  0.40169828786E+02  0.51100000000E-03 0. -1.
        -11    1    3    3    0    0  0.58836942997E+01 -0.23733339826E+01  0.75135895440E+01  0.98338497498E+01  0.51100000000E-03 0.  1.
        -12    1    3    3    0    0 -0.22948929729E+02 -0.32755819502E+02  0.85117789711E+00  0.40004019683E+02  0.00000000000E+00 0.  1.
</event>
<event>
 7    1  0.2385752E-015  0.9000886E+02  0.7816164E-02  0.1186337E+00
        -11   -1    0    0    0    0  0.00000000000E+00  0.00000000000E+00  0.45593999997E+02  0.45594000000E+02  0.51100000000E-03 0.  1.
         11   -1    0    0    0    0 -0.00000000000E+00 -0.00000000000E+00 -0.45593999997E+02  0.45594000000E+02  0.51100000000E-03 0. -1.
    9900012    2    1    2    0    0 -0.23519839794E+00 -0.72612101403E+00 -0.89877374428E+00  0.90008862919E+02  0.90001139102E+02 0.  0.
        -12    1    1    2    0    0  0.23519839794E+00  0.72612101403E+00  0.89877374428E+00  0.11791370814E+01  0.00000000000E+00 0.  1.
         11    1    3    3    0    0 -0.13322043600E+02  0.34248523257E+02 -0.12570395137E+02  0.38838808235E+02  0.51100000000E-03 0. -1.
        -11    1    3    3    0    0  0.11711183623E+02  0.75523879207E-01 -0.44978827435E+01  0.12545456354E+02  0.51100000000E-03 0.  1.
        -12    1    3    3    0    0  0.13756615793E+01 -0.35050168150E+02  0.16169504136E+02  0.38624598330E+02  0.00000000000E+00 0.  1.
</event>
<event>
 7    1  0.2385752E-015  0.9000780E+02  0.7816164E-02  0.1186339E+00
        -11   -1    0    0    0    0  0.00000000000E+00  0.00000000000E+00  0.45593999997E+02  0.45594000000E+02  0.51100000000E-03 0.  1.
         11   -1    0    0    0    0 -0.00000000000E+00 -0.00000000000E+00 -0.45593999997E+02  0.45594000000E+02  0.51100000000E-03 0. -1.
    9900012    2    1    2    0    0 -0.61509753946E+00  0.71712253526E+00 -0.70728835903E+00  0.90007802332E+02  0.90000064522E+02 0.  0.
        -12    1    1    2    0    0  0.61509753946E+00 -0.71712253526E+00  0.70728835903E+00  0.11801976684E+01  0.00000000000E+00 0.  1.
         11    1    3    3    0    0 -0.24075554671E+02  0.24792260248E+02 -0.10475415681E+02  0.36111256346E+02  0.51100000000E-03 0. -1.
        -11    1    3    3    0    0 -0.90258192801E+01  0.27582691298E+01 -0.29421841564E+01  0.98858439266E+01  0.51100000000E-03 0.  1.
        -12    1    3    3    0    0  0.32486276412E+02 -0.26833406842E+02  0.12710311478E+02  0.44010702059E+02  0.00000000000E+00 0.  1.
</event>
<event>
 7    1  0.2385752E-015  0.9000772E+02  0.7816164E-02  0.1186339E+00
        -11   -1    0    0    0    0  0.00000000000E+00  0.00000000000E+00  0.45593999997E+02  0.45594000000E+02  0.51100000000E-03 0.  1.
         11   -1    0    0    0    0 -0.00000000000E+00 -0.00000000000E+00 -0.45593999997E+02  0.45594000000E+02  0.51100000000E-03 0. -1.
    9900012    2    1    2    0    0  0.67842764196E+00 -0.90953080133E+00 -0.32488430682E+00  0.90007720306E+02  0.89999981414E+02 0.  0.
        -12    1    1    2    0    0 -0.67842764196E+00  0.90953080133E+00  0.32488430682E+00  0.11802796943E+01  0.00000000000E+00 0.  1.
         11    1    3    3    0    0 -0.47850446078E+01  0.88547575766E+01  0.24029782803E+01  0.10347834968E+02  0.51100000000E-03 0. -1.
        -11    1    3    3    0    0 -0.99738056285E+00  0.20009199488E-01  0.37624948578E+02  0.37638171105E+02  0.51100000000E-03 0.  1.
         12    1    3    3    0    0  0.64608528126E+01 -0.97842975774E+01 -0.40352811165E+02  0.42021714233E+02  0.00000000000E+00 0. -1.
</event>
<event>
 7    1  0.2385752E-015  0.9000785E+02  0.7816164E-02  0.1186339E+00
        -11   -1    0    0    0    0  0.00000000000E+00  0.00000000000E+00  0.45593999997E+02  0.45594000000E+02  0.51100000000E-03 0.  1.
         11   -1    0    0    0    0 -0.00000000000E+00 -0.00000000000E+00 -0.45593999997E+02  0.45594000000E+02  0.51100000000E-03 0. -1.
    9900012    2    1    2    0    0 -0.10597406585E+01 -0.36476881862E+00 -0.36964471979E+00  0.90007854342E+02  0.90000117220E+02 0.  0.
        -12    1    1    2    0    0  0.10597406585E+01  0.36476881862E+00  0.36964471979E+00  0.11801456576E+01  0.00000000000E+00 0.  1.
         11    1    3    3    0    0  0.23327353367E+02  0.23057436381E+02 -0.16359696170E+02  0.36653109645E+02  0.51100000000E-03 0. -1.
        -11    1    3    3    0    0  0.20502673502E+01 -0.65825597686E+01 -0.10333693828E+02  0.12422516561E+02  0.51100000000E-03 0.  1.
        -12    1    3    3    0    0 -0.26437361376E+02 -0.16839645431E+02  0.26323745278E+02  0.40932228137E+02  0.00000000000E+00 0.  1.
</event>
<event>
 7    1  0.3428976E-015  0.9000776E+02  0.7816164E-02  0.1186339E+00
        -11   -1    0    0    0    0  0.00000000000E+00  0.00000000000E+00  0.45593999997E+02  0.45594000000E+02  0.51100000000E-03 0. -1.
         11   -1    0    0    0    0 -0.00000000000E+00 -0.00000000000E+00 -0.45593999997E+02  0.45594000000E+02  0.51100000000E-03 0.  1.
    9900012    2    1    2    0    0  0.81625213510E+00 -0.84406190497E+00  0.11936429835E+00  0.90007764480E+02  0.90000026171E+02 0.  0.
        -12    1    1    2    0    0 -0.81625213510E+00  0.84406190497E+00 -0.11936429835E+00  0.11802355202E+01  0.00000000000E+00 0.  1.
         11    1    3    3    0    0  0.29030442790E+02 -0.96867291532E+01  0.20291389691E+02  0.36719747087E+02  0.51100000000E-03 0. -1.
        -11    1    3    3    0    0  0.14642074692E+01 -0.50402812931E+01  0.83401772329E+01  0.98542831076E+01  0.51100000000E-03 0.  1.
        -12    1    3    3    0    0 -0.29678398124E+02  0.13882948541E+02 -0.28512202625E+02  0.43433734285E+02  0.00000000000E+00 0.  1.
</event>
<event>
 7    1  0.2385752E-015  0.9000781E+02  0.7816164E-02  0.1186339E+00
        -11   -1    0    0    0    0  0.00000000000E+00  0.00000000000E+00  0.45593999997E+02  0.45594000000E+02  0.51100000000E-03 0.  1.
         11   -1    0    0    0    0 -0.00000000000E+00 -0.00000000000E+00 -0.45593999997E+02  0.45594000000E+02  0.51100000000E-03 0. -1.
    9900012    2    1    2    0    0  0.71396432543E+00 -0.79896299589E+00  0.49474060773E+00  0.90007807136E+02  0.90000069390E+02 0.  0.
        -12    1    1    2    0    0 -0.71396432543E+00  0.79896299589E+00 -0.49474060773E+00  0.11801928638E+01  0.00000000000E+00 0.  1.
         11    1    3    3    0    0  0.35919928807E+02  0.87206899400E+01 -0.20908268282E+02  0.42467015451E+02  0.51100000000E-03 0. -1.
        -11    1    3    3    0    0 -0.54484438154E+01  0.64687410420E+01  0.24447556914E+01  0.88038049348E+01  0.51100000000E-03 0.  1.
        -12    1    3    3    0    0 -0.29757520666E+02 -0.15988393978E+02  0.18958253198E+02  0.38736986750E+02  0.00000000000E+00 0.  1.
</event>
<event>
 7    1  0.2385752E-015  0.9000776E+02  0.7816164E-02  0.1186339E+00
        -11   -1    0    0    0    0  0.00000000000E+00  0.00000000000E+00  0.45593999997E+02  0.45594000000E+02  0.51100000000E-03 0. -1.
         11   -1    0    0    0    0 -0.00000000000E+00 -0.00000000000E+00 -0.45593999997E+02  0.45594000000E+02  0.51100000000E-03 0.  1.
    9900012    2    1    2    0    0  0.73385476535E+00 -0.90497926711E+00  0.18827537028E+00  0.90007755150E+02  0.90000016718E+02 0.  0.
        -12    1    1    2    0    0 -0.73385476535E+00  0.90497926711E+00 -0.18827537028E+00  0.11802448498E+01  0.00000000000E+00 0.  1.
         11    1    3    3    0    0  0.16037280748E+02  0.46004251954E+01 -0.41745642299E+01  0.17198409012E+02  0.51100000000E-03 0. -1.
        -11    1    3    3    0    0 -0.17095165712E+02  0.25705943988E+02 -0.16713823050E+02  0.35105443000E+02  0.51100000000E-03 0.  1.
         12    1    3    3    0    0  0.17917397293E+01 -0.31211348451E+02  0.21076662650E+02  0.37703903138E+02  0.00000000000E+00 0. -1.
</event>
<event>
 7    1  0.2385752E-015  0.9000774E+02  0.7816164E-02  0.1186339E+00
        -11   -1    0    0    0    0  0.00000000000E+00  0.00000000000E+00  0.45593999997E+02  0.45594000000E+02  0.51100000000E-03 0. -1.
         11   -1    0    0    0    0 -0.00000000000E+00 -0.00000000000E+00 -0.45593999997E+02  0.45594000000E+02  0.51100000000E-03 0.  1.
    9900012    2    1    2    0    0 -0.85036632722E+00 -0.26527011639E+00  0.77429459134E+00  0.90007735945E+02  0.89999997260E+02 0.  0.
        -12    1    1    2    0    0  0.85036632722E+00  0.26527011639E+00 -0.77429459134E+00  0.11802640549E+01  0.00000000000E+00 0.  1.
         11    1    3    3    0    0  0.24596734224E+01  0.63215239686E+01  0.10303257268E+02  0.12335670603E+02  0.51100000000E-03 0. -1.
        -11    1    3    3    0    0  0.23444542963E+02 -0.30645592208E+02 -0.14762167180E+02  0.41312473862E+02  0.51100000000E-03 0.  1.
         12    1    3    3    0    0 -0.26754582712E+02  0.24058798123E+02  0.52332045033E+01  0.36359591480E+02  0.00000000000E+00 0. -1.
</event>
<event>
 7    1  0.2385752E-015  0.9000769E+02  0.7816164E-02  0.1186339E+00
        -11   -1    0    0    0    0  0.00000000000E+00  0.00000000000E+00  0.45593999997E+02  0.45594000000E+02  0.51100000000E-03 0.  1.
         11   -1    0    0    0    0 -0.00000000000E+00 -0.00000000000E+00 -0.45593999997E+02  0.45594000000E+02  0.51100000000E-03 0. -1.
    9900012    2    1    2    0    0  0.17031641835E+00 -0.80347852882E+00 -0.84767176265E+00  0.90007689513E+02  0.89999950215E+02 0.  0.
        -12    1    1    2    0    0 -0.17031641835E+00  0.80347852882E+00  0.84767176265E+00  0.11803104870E+01  0.00000000000E+00 0.  1.
         11    1    3    3    0    0 -0.39560465038E+01  0.91724946151E+01  0.35849424983E+00  0.99956730535E+01  0.51100000000E-03 0. -1.
        -11    1    3    3    0    0 -0.30879095047E+02 -0.27014248250E+02 -0.19334411933E+01  0.41073425892E+02  0.51100000000E-03 0.  1.
         12    1    3    3    0    0  0.35005457969E+02  0.17038275106E+02  0.72727518087E+00  0.38938590567E+02  0.00000000000E+00 0. -1.
</event>
<event>
 7    1  0.2385752E-015  0.9000773E+02  0.7816164E-02  0.1186339E+00
        -11   -1    0    0    0    0  0.00000000000E+00  0.00000000000E+00  0.45593999997E+02  0.45594000000E+02  0.51100000000E-03 0. -1.
         11   -1    0    0    0    0 -0.00000000000E+00 -0.00000000000E+00 -0.45593999997E+02  0.45594000000E+02  0.51100000000E-03 0.  1.
    9900012    2    1    2    0    0  0.92997450287E+00  0.37841278979E+00  0.62047875412E+00  0.90007727701E+02  0.89999988907E+02 0.  0.
        -12    1    1    2    0    0 -0.92997450287E+00 -0.37841278979E+00 -0.62047875412E+00  0.11802722990E+01  0.00000000000E+00 0.  1.
         11    1    3    3    0    0 -0.64898663396E+01 -0.55366583029E+01 -0.54633836917E+01  0.10130227633E+02  0.51100000000E-03 0. -1.
        -11    1    3    3    0    0 -0.11857161978E+02 -0.30187814167E+02 -0.12719135849E+02  0.34837807499E+02  0.51100000000E-03 0.  1.
         12    1    3    3    0    0  0.19277002821E+02  0.36102885260E+02  0.18802998295E+02  0.45039692569E+02  0.00000000000E+00 0. -1.
</event>
<event>
 7    1  0.2385752E-015  0.9000777E+02  0.7816164E-02  0.1186339E+00
        -11   -1    0    0    0    0  0.00000000000E+00  0.00000000000E+00  0.45593999997E+02  0.45594000000E+02  0.51100000000E-03 0. -1.
         11   -1    0    0    0    0 -0.00000000000E+00 -0.00000000000E+00 -0.45593999997E+02  0.45594000000E+02  0.51100000000E-03 0.  1.
    9900012    2    1    2    0    0  0.19543438022E+00 -0.11639387512E+01  0.24497789894E-02  0.90007765271E+02  0.90000026973E+02 0.  0.
        -12    1    1    2    0    0 -0.19543438022E+00  0.11639387512E+01 -0.24497789894E-02  0.11802347287E+01  0.00000000000E+00 0.  1.
         11    1    3    3    0    0 -0.19114954043E+01 -0.95903003830E+01  0.15956300080E+01  0.99082648077E+01  0.51100000000E-03 0. -1.
        -11    1    3    3    0    0 -0.30632354233E+02 -0.81839437020E+01 -0.21527822811E+02  0.38324472802E+02  0.51100000000E-03 0.  1.
         12    1    3    3    0    0  0.32739284017E+02  0.16610305334E+02  0.19934642582E+02  0.41775027661E+02  0.00000000000E+00 0. -1.
</event>
<event>
 7    1  0.2385752E-015  0.9000779E+02  0.7816164E-02  0.1186339E+00
        -11   -1    0    0    0    0  0.00000000000E+00  0.00000000000E+00  0.45593999997E+02  0.45594000000E+02  0.51100000000E-03 0. -1.
         11   -1    0    0    0    0 -0.00000000000E+00 -0.00000000000E+00 -0.45593999997E+02  0.45594000000E+02  0.51100000000E-03 0.  1.
    9900012    2    1    2    0    0 -0.82646031742E+00  0.81230007441E+00  0.22365233502E+00  0.90007793055E+02  0.90000055123E+02 0.  0.
        -12    1    1    2    0    0  0.82646031742E+00 -0.81230007441E+00 -0.22365233502E+00  0.11802069455E+01  0.00000000000E+00 0.  1.
         11    1    3    3    0    0 -0.56117975552E+01  0.47192227717E+01  0.26661851292E+01  0.78020432435E+01  0.51100000000E-03 0. -1.
        -11    1    3    3    0    0  0.33402046205E+02  0.24143910066E+02 -0.72472914539E+01  0.41846724097E+02  0.51100000000E-03 0.  1.
         12    1    3    3    0    0 -0.28616708967E+02 -0.28050832763E+02  0.48047586597E+01  0.40359025714E+02  0.00000000000E+00 0. -1.
</event>
<event>
 7    1  0.2385752E-015  0.9000774E+02  0.7816164E-02  0.1186339E+00
        -11   -1    0    0    0    0  0.00000000000E+00  0.00000000000E+00  0.45593999997E+02  0.45594000000E+02  0.51100000000E-03 0. -1.
         11   -1    0    0    0    0 -0.00000000000E+00 -0.00000000000E+00 -0.45593999997E+02  0.45594000000E+02  0.51100000000E-03 0.  1.
    9900012    2    1    2    0    0 -0.16501963966E+00  0.26429267058E+00  0.11383877525E+01  0.90007742074E+02  0.90000003469E+02 0.  0.
        -12    1    1    2    0    0  0.16501963966E+00 -0.26429267058E+00 -0.11383877525E+01  0.11802579262E+01  0.00000000000E+00 0.  1.
         11    1    3    3    0    0 -0.12336523771E+02  0.33899940581E+02  0.12198310986E+02  0.38081420422E+02  0.51100000000E-03 0. -1.
        -11    1    3    3    0    0  0.89618194803E+01  0.53993442235E+01  0.19751217804E+01  0.10647451937E+02  0.51100000000E-03 0.  1.
        -12    1    3    3    0    0  0.32096846509E+01 -0.39034992134E+02 -0.13035045014E+02  0.41278869715E+02  0.00000000000E+00 0.  1.
</event>
<event>
 7    1  0.2385752E-015  0.9000776E+02  0.7816164E-02  0.1186339E+00
        -11   -1    0    0    0    0  0.00000000000E+00  0.00000000000E+00  0.45593999997E+02  0.45594000000E+02  0.51100000000E-03 0.  1.
         11   -1    0    0    0    0 -0.00000000000E+00 -0.00000000000E+00 -0.45593999997E+02  0.45594000000E+02  0.51100000000E-03 0. -1.
    9900012    2    1    2    0    0  0.10053299834E+01 -0.54024745910E+00 -0.30068732344E+00  0.90007759110E+02  0.90000020730E+02 0.  0.
        -12    1    1    2    0    0 -0.10053299834E+01  0.54024745910E+00  0.30068732344E+00  0.11802408903E+01  0.00000000000E+00 0.  1.
         11    1    3    3    0    0  0.60726076431E+01 -0.34408635175E+02  0.12518356615E+02  0.37115225862E+02  0.51100000000E-03 0. -1.
        -11    1    3    3    0    0 -0.11767149770E+00 -0.85719673817E+01 -0.16700859093E+01  0.87339371751E+01  0.51100000000E-03 0.  1.
        -12    1    3    3    0    0 -0.49496061620E+01  0.42440355098E+02 -0.11148958029E+02  0.44158596073E+02  0.00000000000E+00 0.  1.
</event>
<event>
 7    1  0.2385752E-015  0.9000770E+02  0.7816164E-02  0.1186339E+00
        -11   -1    0    0    0    0  0.00000000000E+00  0.00000000000E+00  0.45593999997E+02  0.45594000000E+02  0.51100000000E-03 0.  1.
         11   -1    0    0    0    0 -0.00000000000E+00 -0.00000000000E+00 -0.45593999997E+02  0.45594000000E+02  0.51100000000E-03 0. -1.
    9900012    2    1    2    0    0  0.62685929072E+00  0.44327113514E+00 -0.89647100897E+00  0.90007702521E+02  0.89999963394E+02 0.  0.
        -12    1    1    2    0    0 -0.62685929072E+00 -0.44327113514E+00  0.89647100897E+00  0.11802974793E+01  0.00000000000E+00 0.  1.
         11    1    3    3    0    0  0.12406252033E+02  0.27659417685E+02  0.30470506871E+02  0.42981510739E+02  0.51100000000E-03 0. -1.
        -11    1    3    3    0    0  0.28191004397E+01 -0.14031742579E+01 -0.99759559154E+01  0.10461162554E+02  0.51100000000E-03 0.  1.
        -12    1    3    3    0    0 -0.14598493182E+02 -0.25812972292E+02 -0.21391021964E+02  0.36565029228E+02  0.00000000000E+00 0.  1.
</event>
<event>
 7    1  0.2385752E-015  0.9000776E+02  0.7816164E-02  0.1186339E+00
        -11   -1    0    0    0    0  0.00000000000E+00  0.00000000000E+00  0.45593999997E+02  0.45594000000E+02  0.51100000000E-03 0.  1.
         11   -1    0    0    0    0 -0.00000000000E+00 -0.00000000000E+00 -0.45593999997E+02  0.45594000000E+02  0.51100000000E-03 0. -1.
    9900012    2    1    2    0    0 -0.51094697539E+00  0.10628290468E+01  0.47781486046E-01  0.90007764657E+02  0.90000026351E+02 0.  0.
        -12    1    1    2    0    0  0.51094697539E+00 -0.10628290468E+01 -0.47781486046E-01  0.11802353430E+01  0.00000000000E+00 0.  1.
         11    1    3    3    0    0  0.16495188899E+02  0.11985642531E+02 -0.29690983517E+02  0.36018070272E+02  0.51100000000E-03 0. -1.
        -11    1    3    3    0    0 -0.15627082505E+02  0.74565907926E+01 -0.18537456086E+01  0.17413868810E+02  0.51100000000E-03 0.  1.
        -12    1    3    3    0    0 -0.13790533690E+01 -0.18379404277E+02  0.31592510611E+02  0.36575825575E+02  0.00000000000E+00 0.  1.
</event>
<event>
 7    1  0.2385752E-015  0.9000769E+02  0.7816164E-02  0.1186339E+00
        -11   -1    0    0    0    0  0.00000000000E+00  0.00000000000E+00  0.45593999997E+02  0.45594000000E+02  0.51100000000E-03 0.  1.
         11   -1    0    0    0    0 -0.00000000000E+00 -0.00000000000E+00 -0.45593999997E+02  0.45594000000E+02  0.51100000000E-03 0. -1.
    9900012    2    1    2    0    0  0.23869951204E+00  0.10516922027E+01 -0.47969262411E+00  0.90007686923E+02  0.89999947590E+02 0.  0.
        -12    1    1    2    0    0 -0.23869951204E+00 -0.10516922027E+01  0.47969262411E+00  0.11803130771E+01  0.00000000000E+00 0.  1.
         11    1    3    3    0    0 -0.53580146596E+01 -0.26428495623E+01 -0.94700524858E+01  0.11197092000E+02  0.51100000000E-03 0. -1.
        -11    1    3    3    0    0 -0.10022836565E+02 -0.26128010618E+02  0.28465805917E+02  0.39917819310E+02  0.51100000000E-03 0.  1.
         12    1    3    3    0    0  0.15619550736E+02  0.29822552383E+02 -0.19475446056E+02  0.38892775613E+02  0.00000000000E+00 0. -1.
</event>
<event>
 7    1  0.2385752E-015  0.9000786E+02  0.7816164E-02  0.1186339E+00
        -11   -1    0    0    0    0  0.00000000000E+00  0.00000000000E+00  0.45593999997E+02  0.45594000000E+02  0.51100000000E-03 0. -1.
         11   -1    0    0    0    0 -0.00000000000E+00 -0.00000000000E+00 -0.45593999997E+02  0.45594000000E+02  0.51100000000E-03 0.  1.
    9900012    2    1    2    0    0 -0.23995027590E+00  0.63093135366E+00  0.96802567091E+00  0.90007862632E+02  0.90000125619E+02 0.  0.
        -12    1    1    2    0    0  0.23995027590E+00 -0.63093135366E+00 -0.96802567091E+00  0.11801373681E+01  0.00000000000E+00 0.  1.
         11    1    3    3    0    0 -0.10522827945E+02  0.65607051516E+01 -0.52001118294E+01  0.13446706784E+02  0.51100000000E-03 0. -1.
        -11    1    3    3    0    0 -0.22850739134E+02  0.78903081338E+01 -0.20614976652E+02  0.31770906566E+02  0.51100000000E-03 0.  1.
         12    1    3    3    0    0  0.33133616803E+02 -0.13820081932E+02  0.26783114152E+02  0.44790249282E+02  0.00000000000E+00 0. -1.
</event>
<event>
 7    1  0.2385752E-015  0.9000770E+02  0.7816164E-02  0.1186339E+00
        -11   -1    0    0    0    0  0.00000000000E+00  0.00000000000E+00  0.45593999997E+02  0.45594000000E+02  0.51100000000E-03 0.  1.
         11   -1    0    0    0    0 -0.00000000000E+00 -0.00000000000E+00 -0.45593999997E+02  0.45594000000E+02  0.51100000000E-03 0. -1.
    9900012    2    1    2    0    0  0.83013318346E+00 -0.63425491481E+00  0.54928604542E+00  0.90007696836E+02  0.89999957634E+02 0.  0.
        -12    1    1    2    0    0 -0.83013318346E+00  0.63425491481E+00 -0.54928604542E+00  0.11803031640E+01  0.00000000000E+00 0.  1.
         11    1    3    3    0    0  0.71827617146E+01  0.54195811813E+01 -0.30461137172E+01  0.94996176275E+01  0.51100000000E-03 0. -1.
        -11    1    3    3    0    0  0.24338646849E+02 -0.27171483060E+02  0.17860157700E+02  0.40615815337E+02  0.51100000000E-03 0.  1.
         12    1    3    3    0    0 -0.30691275380E+02  0.21117646964E+02 -0.14264757938E+02  0.39892263872E+02  0.00000000000E+00 0. -1.
</event>
<event>
 7    1  0.2385752E-015  0.9000773E+02  0.7816164E-02  0.1186339E+00
        -11   -1    0    0    0    0  0.00000000000E+00  0.00000000000E+00  0.45593999997E+02  0.45594000000E+02  0.51100000000E-03 0.  1.
         11   -1    0    0    0    0 -0.00000000000E+00 -0.00000000000E+00 -0.45593999997E+02  0.45594000000E+02  0.51100000000E-03 0. -1.
    9900012    2    1    2    0    0 -0.97378772102E-02  0.11061288572E+01 -0.41160476457E+00  0.90007731235E+02  0.89999992487E+02 0.  0.
        -12    1    1    2    0    0  0.97378772102E-02 -0.11061288572E+01  0.41160476457E+00  0.11802687648E+01  0.00000000000E+00 0.  1.
         11    1    3    3    0    0 -0.32170182568E+02 -0.95988089394E+01  0.14424434812E+02  0.36539322646E+02  0.51100000000E-03 0. -1.
        -11    1    3    3    0    0 -0.60519578304E+01 -0.56000267662E+01 -0.77634099987E+01  0.11325061961E+02  0.51100000000E-03 0.  1.
        -12    1    3    3    0    0  0.38212402521E+02  0.16304964563E+02 -0.70726295779E+01  0.42143346628E+02  0.00000000000E+00 0.  1.
</event>
<event>
 7    1  0.2385752E-015  0.9000724E+02  0.7816164E-02  0.1186340E+00
        -11   -1    0    0    0    0  0.00000000000E+00  0.00000000000E+00  0.45593999997E+02  0.45594000000E+02  0.51100000000E-03 0.  1.
         11   -1    0    0    0    0 -0.00000000000E+00 -0.00000000000E+00 -0.45593999997E+02  0.45594000000E+02  0.51100000000E-03 0. -1.
    9900012    2    1    2    0    0  0.82440630531E+00  0.43446454430E+00 -0.72510782697E+00  0.90007243227E+02  0.89999498036E+02 0.  0.
        -12    1    1    2    0    0 -0.82440630531E+00 -0.43446454430E+00  0.72510782697E+00  0.11807567731E+01  0.00000000000E+00 0.  1.
         11    1    3    3    0    0 -0.56467412275E+01  0.71379239605E+00 -0.25030384591E+01  0.62177478128E+01  0.51100000000E-03 0. -1.
        -11    1    3    3    0    0  0.10763956540E+02  0.21330669784E+02  0.35929089923E+02  0.43148113943E+02  0.51100000000E-03 0.  1.
         12    1    3    3    0    0 -0.42928090076E+01 -0.21609997636E+02 -0.34151159291E+02  0.40641381471E+02  0.00000000000E+00 0. -1.
</event>
<event>
 7    1  0.2385752E-015  0.9000776E+02  0.7816164E-02  0.1186339E+00
        -11   -1    0    0    0    0  0.00000000000E+00  0.00000000000E+00  0.45593999997E+02  0.45594000000E+02  0.51100000000E-03 0.  1.
         11   -1    0    0    0    0 -0.00000000000E+00 -0.00000000000E+00 -0.45593999997E+02  0.45594000000E+02  0.51100000000E-03 0. -1.
    9900012    2    1    2    0    0  0.62526624802E+00  0.61992420057E+00 -0.78593590399E+00  0.90007763100E+02  0.90000024773E+02 0.  0.
        -12    1    1    2    0    0 -0.62526624802E+00 -0.61992420057E+00  0.78593590399E+00  0.11802369002E+01  0.00000000000E+00 0.  1.
         11    1    3    3    0    0 -0.43613580234E+01 -0.61394502827E+01  0.64890079857E+01  0.99409012912E+01  0.51100000000E-03 0. -1.
        -11    1    3    3    0    0 -0.15524160034E+02 -0.28156737444E+02  0.13119462826E+02  0.34726383534E+02  0.51100000000E-03 0.  1.
         12    1    3    3    0    0  0.20510784305E+02  0.34916111927E+02 -0.20394406716E+02  0.45340478275E+02  0.00000000000E+00 0. -1.
</event>
<event>
 7    1  0.4080825E-015  0.9000776E+02  0.7816164E-02  0.1186339E+00
        -11   -1    0    0    0    0  0.00000000000E+00  0.00000000000E+00  0.45593999997E+02  0.45594000000E+02  0.51100000000E-03 0. -1.
         11   -1    0    0    0    0 -0.00000000000E+00 -0.00000000000E+00 -0.45593999997E+02  0.45594000000E+02  0.51100000000E-03 0.  1.
    9900012    2    1    2    0    0  0.97774337819E+00  0.53213919022E+00  0.39217798266E+00  0.90007763667E+02  0.90000025348E+02 0.  0.
        -12    1    1    2    0    0 -0.97774337819E+00 -0.53213919022E+00 -0.39217798266E+00  0.11802363329E+01  0.00000000000E+00 0.  1.
         11    1    3    3    0    0 -0.13490028143E+02  0.23516435267E+01  0.40290090311E+02  0.42553524697E+02  0.51100000000E-03 0. -1.
        -11    1    3    3    0    0 -0.46531258520E+01  0.34630109066E+01 -0.77832805630E+01  0.97068780417E+01  0.51100000000E-03 0.  1.
        -12    1    3    3    0    0  0.19120897373E+02 -0.52825152431E+01 -0.32114631765E+02  0.37747360929E+02  0.00000000000E+00 0.  1.
</event>
<event>
 7    1  0.2385752E-015  0.9000772E+02  0.7816164E-02  0.1186339E+00
        -11   -1    0    0    0    0  0.00000000000E+00  0.00000000000E+00  0.45593999997E+02  0.45594000000E+02  0.51100000000E-03 0.  1.
         11   -1    0    0    0    0 -0.00000000000E+00 -0.00000000000E+00 -0.45593999997E+02  0.45594000000E+02  0.51100000000E-03 0. -1.
    9900012    2    1    2    0    0  0.10802636207E+01  0.40954469645E+00  0.24159908994E+00  0.90007717632E+02  0.89999978704E+02 0.  0.
        -12    1    1    2    0    0 -0.10802636207E+01 -0.40954469645E+00 -0.24159908994E+00  0.11802823683E+01  0.00000000000E+00 0.  1.
         11    1    3    3    0    0  0.12523113047E+01  0.71425880885E+01 -0.47240353969E+01  0.86545571174E+01  0.51100000000E-03 0. -1.
        -11    1    3    3    0    0 -0.32640744889E+02 -0.21624230844E+01  0.26522008964E+02  0.42113077069E+02  0.51100000000E-03 0.  1.
         12    1    3    3    0    0  0.32468697205E+02 -0.45706203077E+01 -0.21556374477E+02  0.39240083445E+02  0.00000000000E+00 0. -1.
</event>
<event>
 7    1  0.2385752E-015  0.9000762E+02  0.7816164E-02  0.1186339E+00
        -11   -1    0    0    0    0  0.00000000000E+00  0.00000000000E+00  0.45593999997E+02  0.45594000000E+02  0.51100000000E-03 0.  1.
         11   -1    0    0    0    0 -0.00000000000E+00 -0.00000000000E+00 -0.45593999997E+02  0.45594000000E+02  0.51100000000E-03 0. -1.
    9900012    2    1    2    0    0 -0.36255533911E+00 -0.30479035215E+00 -0.10811823670E+01  0.90007619196E+02  0.89999878969E+02 0.  0.
        -12    1    1    2    0    0  0.36255533911E+00  0.30479035215E+00  0.10811823670E+01  0.11803808044E+01  0.00000000000E+00 0.  1.
         11    1    3    3    0    0  0.21208515982E+02  0.32746711995E+02 -0.17498766091E+02  0.42759269306E+02  0.51100000000E-03 0. -1.
        -11    1    3    3    0    0 -0.65254294696E+01 -0.90800975985E+00  0.87261865736E+01  0.10933985726E+02  0.51100000000E-03 0.  1.
        -12    1    3    3    0    0 -0.15045641851E+02 -0.32143492588E+02  0.76913971499E+01  0.36314364163E+02  0.00000000000E+00 0.  1.
</event>
<event>
 7    1  0.2385752E-015  0.9000779E+02  0.7816164E-02  0.1186339E+00
        -11   -1    0    0    0    0  0.00000000000E+00  0.00000000000E+00  0.45593999997E+02  0.45594000000E+02  0.51100000000E-03 0.  1.
         11   -1    0    0    0    0 -0.00000000000E+00 -0.00000000000E+00 -0.45593999997E+02  0.45594000000E+02  0.51100000000E-03 0. -1.
    9900012    2    1    2    0    0  0.41523425094E+00  0.42289177859E+00 -0.10206054453E+01  0.90007791368E+02  0.90000053414E+02 0.  0.
        -12    1    1    2    0    0 -0.41523425094E+00 -0.42289177859E+00  0.10206054453E+01  0.11802086318E+01  0.00000000000E+00 0.  1.
         11    1    3    3    0    0  0.32871881335E+02  0.19766835046E+01 -0.19710575172E+02  0.38379351663E+02  0.51100000000E-03 0. -1.
        -11    1    3    3    0    0 -0.14304661839E+01 -0.76289452170E+01 -0.73349505182E+01  0.10679351010E+02  0.51100000000E-03 0.  1.
        -12    1    3    3    0    0 -0.31026180901E+02  0.60751534910E+01  0.26024920245E+02  0.40949088695E+02  0.00000000000E+00 0.  1.
</event>
<event>
 7    1  0.2385752E-015  0.9000722E+02  0.7816164E-02  0.1186340E+00
        -11   -1    0    0    0    0  0.00000000000E+00  0.00000000000E+00  0.45593999997E+02  0.45594000000E+02  0.51100000000E-03 0. -1.
         11   -1    0    0    0    0 -0.00000000000E+00 -0.00000000000E+00 -0.45593999997E+02  0.45594000000E+02  0.51100000000E-03 0.  1.
    9900012    2    1    2    0    0  0.51622390576E+00 -0.10618913156E+01  0.12138387888E-01  0.90007217367E+02  0.89999471834E+02 0.  0.
        -12    1    1    2    0    0 -0.51622390576E+00  0.10618913156E+01 -0.12138387888E-01  0.11807826335E+01  0.00000000000E+00 0.  1.
         11    1    3    3    0    0  0.25085214620E+01  0.66854020969E+01  0.69949671988E+01  0.99958415102E+01  0.51100000000E-03 0. -1.
        -11    1    3    3    0    0  0.88421497946E+01  0.31577787643E+02  0.12131782995E+02  0.34964559833E+02  0.51100000000E-03 0.  1.
         12    1    3    3    0    0 -0.10834447351E+02 -0.39325081055E+02 -0.19114611806E+02  0.45046816024E+02  0.00000000000E+00 0. -1.
</event>
<event>
 7    1  0.2385752E-015  0.9000773E+02  0.7816164E-02  0.1186339E+00
        -11   -1    0    0    0    0  0.00000000000E+00  0.00000000000E+00  0.45593999997E+02  0.45594000000E+02  0.51100000000E-03 0.  1.
         11   -1    0    0    0    0 -0.00000000000E+00 -0.00000000000E+00 -0.45593999997E+02  0.45594000000E+02  0.51100000000E-03 0. -1.
    9900012    2    1    2    0    0  0.55169714540E+00  0.53291304543E+00 -0.89703099047E+00  0.90007732805E+02  0.89999994078E+02 0.  0.
        -12    1    1    2    0    0 -0.55169714540E+00 -0.53291304543E+00  0.89703099047E+00  0.11802671952E+01  0.00000000000E+00 0.  1.
         11    1    3    3    0    0 -0.35075924959E+02  0.14064143710E+02 -0.17686370494E+01  0.37831848056E+02  0.51100000000E-03 0. -1.
        -11    1    3    3    0    0  0.23064599809E+01 -0.21713534139E+01  0.14187880342E+02  0.14537210261E+02  0.51100000000E-03 0.  1.
        -12    1    3    3    0    0  0.33321162124E+02 -0.11359877251E+02 -0.13316274284E+02  0.37638674488E+02  0.00000000000E+00 0.  1.
</event>
<event>
 7    1  0.2385752E-015  0.9000777E+02  0.7816164E-02  0.1186339E+00
        -11   -1    0    0    0    0  0.00000000000E+00  0.00000000000E+00  0.45593999997E+02  0.45594000000E+02  0.51100000000E-03 0. -1.
         11   -1    0    0    0    0 -0.00000000000E+00 -0.00000000000E+00 -0.45593999997E+02  0.45594000000E+02  0.51100000000E-03 0.  1.
    9900012    2    1    2    0    0 -0.14115778288E+00 -0.49351824500E+00  0.10627539029E+01  0.90007774752E+02  0.90000036579E+02 0.  0.
        -12    1    1    2    0    0  0.14115778288E+00  0.49351824500E+00 -0.10627539029E+01  0.11802252479E+01  0.00000000000E+00 0.  1.
         11    1    3    3    0    0  0.52219561207E+01 -0.26109437802E+02 -0.45427119603E+01  0.27011253215E+02  0.51100000000E-03 0. -1.
        -11    1    3    3    0    0  0.57938969246E+01 -0.16485176455E+02 -0.49893658050E+01  0.18172068009E+02  0.51100000000E-03 0.  1.
         12    1    3    3    0    0 -0.11157010828E+02  0.42101096012E+02  0.10594831668E+02  0.44824453528E+02  0.00000000000E+00 0. -1.
</event>
<event>
 7    1  0.2385752E-015  0.9000773E+02  0.7816164E-02  0.1186339E+00
        -11   -1    0    0    0    0  0.00000000000E+00  0.00000000000E+00  0.45593999997E+02  0.45594000000E+02  0.51100000000E-03 0.  1.
         11   -1    0    0    0    0 -0.00000000000E+00 -0.00000000000E+00 -0.45593999997E+02  0.45594000000E+02  0.51100000000E-03 0. -1.
    9900012    2    1    2    0    0  0.51680763967E+00  0.85942495664E+00 -0.62236742986E+00  0.90007727739E+02  0.89999988945E+02 0.  0.
        -12    1    1    2    0    0 -0.51680763967E+00 -0.85942495664E+00  0.62236742986E+00  0.11802722611E+01  0.00000000000E+00 0.  1.
         11    1    3    3    0    0  0.68446060911E+01  0.78896506118E+01  0.59467858579E+01  0.12019129820E+02  0.51100000000E-03 0. -1.
        -11    1    3    3    0    0  0.15442735428E+02 -0.34130819960E+02  0.10993886302E+02  0.39041727484E+02  0.51100000000E-03 0.  1.
         12    1    3    3    0    0 -0.21770533880E+02  0.27100594305E+02 -0.17563039590E+02  0.38946870435E+02  0.00000000000E+00 0. -1.
</event>
<event>
 7    1  0.2385752E-015  0.9000853E+02  0.7816164E-02  0.1186337E+00
        -11   -1    0    0    0    0  0.00000000000E+00  0.00000000000E+00  0.45593999997E+02  0.45594000000E+02  0.51100000000E-03 0. -1.
         11   -1    0    0    0    0 -0.00000000000E+00 -0.00000000000E+00 -0.45593999997E+02  0.45594000000E+02  0.51100000000E-03 0.  1.
    9900012    2    1    2    0    0 -0.74619647258E+00  0.24381551809E+00  0.88027733464E+00  0.90008532591E+02  0.90000804418E+02 0.  0.
        -12    1    1    2    0    0  0.74619647258E+00 -0.24381551809E+00 -0.88027733464E+00  0.11794674088E+01  0.00000000000E+00 0.  1.
         11    1    3    3    0    0 -0.63710910293E+01 -0.12409316702E+01 -0.14191641218E+01  0.66441507643E+01  0.51100000000E-03 0. -1.
        -11    1    3    3    0    0 -0.31506064313E+02 -0.21126575385E+02 -0.78128187568E+01  0.38729890436E+02  0.51100000000E-03 0.  1.
         12    1    3    3    0    0  0.37130958870E+02  0.22611322573E+02  0.10112260213E+02  0.44634491391E+02  0.00000000000E+00 0. -1.
</event>
<event>
 7    1  0.2385752E-015  0.9000854E+02  0.7816164E-02  0.1186337E+00
        -11   -1    0    0    0    0  0.00000000000E+00  0.00000000000E+00  0.45593999997E+02  0.45594000000E+02  0.51100000000E-03 0.  1.
         11   -1    0    0    0    0 -0.00000000000E+00 -0.00000000000E+00 -0.45593999997E+02  0.45594000000E+02  0.51100000000E-03 0. -1.
    9900012    2    1    2    0    0 -0.48920193564E+00 -0.27393400618E+00 -0.10376779473E+01  0.90008536607E+02  0.90000808486E+02 0.  0.
        -12    1    1    2    0    0  0.48920193564E+00  0.27393400618E+00  0.10376779473E+01  0.11794633932E+01  0.00000000000E+00 0.  1.
         11    1    3    3    0    0  0.28544724658E+02  0.10072162783E+02 -0.11731687181E+02  0.32463552691E+02  0.51100000000E-03 0. -1.
        -11    1    3    3    0    0  0.12120831966E+02 -0.79666620773E+00 -0.40401553106E+01  0.12801253837E+02  0.51100000000E-03 0.  1.
        -12    1    3    3    0    0 -0.41154758560E+02 -0.95494305817E+01  0.14734164545E+02  0.44743730079E+02  0.00000000000E+00 0.  1.
</event>
<event>
 7    1  0.2385752E-015  0.9000775E+02  0.7816164E-02  0.1186339E+00
        -11   -1    0    0    0    0  0.00000000000E+00  0.00000000000E+00  0.45593999997E+02  0.45594000000E+02  0.51100000000E-03 0.  1.
         11   -1    0    0    0    0 -0.00000000000E+00 -0.00000000000E+00 -0.45593999997E+02  0.45594000000E+02  0.51100000000E-03 0. -1.
    9900012    2    1    2    0    0  0.63482665402E+00  0.99474095115E+00 -0.21925768880E-01  0.90007747832E+02  0.90000009303E+02 0.  0.
        -12    1    1    2    0    0 -0.63482665402E+00 -0.99474095115E+00  0.21925768880E-01  0.11802521679E+01  0.00000000000E+00 0.  1.
         11    1    3    3    0    0  0.80796673358E+00 -0.14760309048E+02 -0.38993484632E+02  0.41701455340E+02  0.51100000000E-03 0. -1.
        -11    1    3    3    0    0 -0.19473680353E+01  0.92895552744E+01  0.77198452304E+00  0.95228168010E+01  0.51100000000E-03 0.  1.
        -12    1    3    3    0    0  0.17742279558E+01  0.64654947247E+01  0.38199574341E+02  0.38783475691E+02  0.00000000000E+00 0.  1.
</event>
<event>
 7    1  0.2385752E-015  0.9000767E+02  0.7816164E-02  0.1186339E+00
        -11   -1    0    0    0    0  0.00000000000E+00  0.00000000000E+00  0.45593999997E+02  0.45594000000E+02  0.51100000000E-03 0. -1.
         11   -1    0    0    0    0 -0.00000000000E+00 -0.00000000000E+00 -0.45593999997E+02  0.45594000000E+02  0.51100000000E-03 0.  1.
    9900012    2    1    2    0    0  0.70548999292E+00  0.53144012584E+00  0.78296442699E+00  0.90007670372E+02  0.89999930821E+02 0.  0.
        -12    1    1    2    0    0 -0.70548999292E+00 -0.53144012584E+00 -0.78296442699E+00  0.11803296283E+01  0.00000000000E+00 0.  1.
         11    1    3    3    0    0  0.11877552909E+02  0.83795297339E+01  0.42329673306E+01  0.15139709190E+02  0.51100000000E-03 0. -1.
        -11    1    3    3    0    0 -0.58005879067E+01 -0.89153338288E+01 -0.38218426654E+02  0.39670872608E+02  0.51100000000E-03 0.  1.
         12    1    3    3    0    0 -0.53714750091E+01  0.10672442207E+01  0.34768423750E+02  0.35197088574E+02  0.00000000000E+00 0. -1.
</event>
<event>
 7    1  0.2385752E-015  0.9000785E+02  0.7816164E-02  0.1186339E+00
        -11   -1    0    0    0    0  0.00000000000E+00  0.00000000000E+00  0.45593999997E+02  0.45594000000E+02  0.51100000000E-03 0.  1.
         11   -1    0    0    0    0 -0.00000000000E+00 -0.00000000000E+00 -0.45593999997E+02  0.45594000000E+02  0.51100000000E-03 0. -1.
    9900012    2    1    2    0    0  0.48921802019E+00  0.37550559887E-01 -0.10733209256E+01  0.90007846567E+02  0.90000109342E+02 0.  0.
        -12    1    1    2    0    0 -0.48921802019E+00 -0.37550559887E-01  0.10733209256E+01  0.11801534328E+01  0.00000000000E+00 0.  1.
         11    1    3    3    0    0  0.78762227662E+00 -0.32539460869E+02  0.84261832432E+01  0.33621978329E+02  0.51100000000E-03 0. -1.
        -11    1    3    3    0    0  0.18052771095E+02  0.23857053841E+01 -0.10538939138E+02  0.21039566840E+02  0.51100000000E-03 0.  1.
        -12    1    3    3    0    0 -0.18351175351E+02  0.30191306044E+02  0.10394349697E+01  0.35346301398E+02  0.00000000000E+00 0.  1.
</event>
<event>
 7    1  0.2385752E-015  0.9000773E+02  0.7816164E-02  0.1186339E+00
        -11   -1    0    0    0    0  0.00000000000E+00  0.00000000000E+00  0.45593999997E+02  0.45594000000E+02  0.51100000000E-03 0. -1.
         11   -1    0    0    0    0 -0.00000000000E+00 -0.00000000000E+00 -0.45593999997E+02  0.45594000000E+02  0.51100000000E-03 0.  1.
    9900012    2    1    2    0    0 -0.61515673334E+00 -0.86061848672E+00  0.52341845836E+00  0.90007725088E+02  0.89999986259E+02 0.  0.
        -12    1    1    2    0    0  0.61515673334E+00  0.86061848672E+00 -0.52341845836E+00  0.11802749124E+01  0.00000000000E+00 0.  1.
         11    1    3    3    0    0  0.32337465875E+01 -0.83625721572E+01  0.42374795651E+01  0.99169533327E+01  0.51100000000E-03 0. -1.
        -11    1    3    3    0    0 -0.86152275374E+01 -0.35598552548E+02 -0.24772247631E+01  0.36709886023E+02  0.51100000000E-03 0.  1.
         12    1    3    3    0    0  0.47663242165E+01  0.43100506218E+02 -0.12368363437E+01  0.43380885732E+02  0.00000000000E+00 0. -1.
</event>
<event>
 7    1  0.2385752E-015  0.9000763E+02  0.7816164E-02  0.1186339E+00
        -11   -1    0    0    0    0  0.00000000000E+00  0.00000000000E+00  0.45593999997E+02  0.45594000000E+02  0.51100000000E-03 0.  1.
         11   -1    0    0    0    0 -0.00000000000E+00 -0.00000000000E+00 -0.45593999997E+02  0.45594000000E+02  0.51100000000E-03 0. -1.
    9900012    2    1    2    0    0  0.60304346092E-01  0.10569467635E+01  0.52200920729E+00  0.90007632817E+02  0.89999892770E+02 0.  0.
        -12    1    1    2    0    0 -0.60304346092E-01 -0.10569467635E+01 -0.52200920729E+00  0.11803671833E+01  0.00000000000E+00 0.  1.
         11    1    3    3    0    0 -0.51205029302E+01 -0.73857735437E+01  0.13583244939E+02  0.16287226419E+02  0.51100000000E-03 0. -1.
        -11    1    3    3    0    0 -0.28947109544E+02  0.17723943090E+02  0.44892757621E+01  0.34237799385E+02  0.51100000000E-03 0.  1.
         12    1    3    3    0    0  0.34127916820E+02 -0.92812227827E+01 -0.17550511494E+02  0.39482607013E+02  0.00000000000E+00 0. -1.
</event>
<event>
 7    1  0.2385752E-015  0.9000810E+02  0.7816164E-02  0.1186338E+00
        -11   -1    0    0    0    0  0.00000000000E+00  0.00000000000E+00  0.45593999997E+02  0.45594000000E+02  0.51100000000E-03 0.  1.
         11   -1    0    0    0    0 -0.00000000000E+00 -0.00000000000E+00 -0.45593999997E+02  0.45594000000E+02  0.51100000000E-03 0. -1.
    9900012    2    1    2    0    0 -0.84168772032E-01  0.95915278239E+00  0.68199435187E+00  0.90008095454E+02  0.90000361513E+02 0.  0.
        -12    1    1    2    0    0  0.84168772032E-01 -0.95915278239E+00 -0.68199435187E+00  0.11799045462E+01  0.00000000000E+00 0.  1.
         11    1    3    3    0    0  0.20166375526E+02  0.20248003464E+02 -0.25521546177E+02  0.38314666456E+02  0.51100000000E-03 0. -1.
        -11    1    3    3    0    0  0.88617240114E+01 -0.42366025007E+01  0.14590255654E+00  0.98234536198E+01  0.51100000000E-03 0.  1.
        -12    1    3    3    0    0 -0.29112268309E+02 -0.15052248181E+02  0.26057637973E+02  0.41869975378E+02  0.00000000000E+00 0.  1.
</event>
<event>
 7    1  0.2385752E-015  0.9000770E+02  0.7816164E-02  0.1186339E+00
        -11   -1    0    0    0    0  0.00000000000E+00  0.00000000000E+00  0.45593999997E+02  0.45594000000E+02  0.51100000000E-03 0. -1.
         11   -1    0    0    0    0 -0.00000000000E+00 -0.00000000000E+00 -0.45593999997E+02  0.45594000000E+02  0.51100000000E-03 0.  1.
    9900012    2    1    2    0    0 -0.57371623377E+00  0.58573031406E+00  0.84905157407E+00  0.90007695424E+02  0.89999956203E+02 0.  0.
        -12    1    1    2    0    0  0.57371623377E+00 -0.58573031406E+00 -0.84905157407E+00  0.11803045764E+01  0.00000000000E+00 0.  1.
         11    1    3    3    0    0  0.20908784514E+01  0.63449112705E+01  0.68817108889E+01  0.95910175033E+01  0.51100000000E-03 0. -1.
        -11    1    3    3    0    0  0.26678835671E+02 -0.31332463931E+02 -0.95068294489E+00  0.41162936813E+02  0.51100000000E-03 0.  1.
         12    1    3    3    0    0 -0.29343430356E+02  0.25573282974E+02 -0.50819763699E+01  0.39253741108E+02  0.00000000000E+00 0. -1.
</event>
<event>
 7    1  0.2385752E-015  0.9000778E+02  0.7816164E-02  0.1186339E+00
        -11   -1    0    0    0    0  0.00000000000E+00  0.00000000000E+00  0.45593999997E+02  0.45594000000E+02  0.51100000000E-03 0.  1.
         11   -1    0    0    0    0 -0.00000000000E+00 -0.00000000000E+00 -0.45593999997E+02  0.45594000000E+02  0.51100000000E-03 0. -1.
    9900012    2    1    2    0    0  0.81228784857E+00  0.22323573327E-01 -0.85591966793E+00  0.90007784609E+02  0.90000046566E+02 0.  0.
        -12    1    1    2    0    0 -0.81228784857E+00 -0.22323573327E-01  0.85591966793E+00  0.11802153909E+01  0.00000000000E+00 0.  1.
         11    1    3    3    0    0 -0.41443808432E+01  0.56066546014E+01  0.72440181943E+01  0.10054166711E+02  0.51100000000E-03 0. -1.
        -11    1    3    3    0    0 -0.23095388493E+01  0.29157606558E+02  0.19361657147E+02  0.35076683960E+02  0.51100000000E-03 0.  1.
         12    1    3    3    0    0  0.72662075411E+01 -0.34741937586E+02 -0.27461595009E+02  0.44876933938E+02  0.00000000000E+00 0. -1.
</event>
<event>
 7    1  0.2385752E-015  0.9000775E+02  0.7816164E-02  0.1186339E+00
        -11   -1    0    0    0    0  0.00000000000E+00  0.00000000000E+00  0.45593999997E+02  0.45594000000E+02  0.51100000000E-03 0. -1.
         11   -1    0    0    0    0 -0.00000000000E+00 -0.00000000000E+00 -0.45593999997E+02  0.45594000000E+02  0.51100000000E-03 0.  1.
    9900012    2    1    2    0    0 -0.11377288679E+01  0.28864925125E+00 -0.12349940886E+00  0.90007746861E+02  0.90000008320E+02 0.  0.
        -12    1    1    2    0    0  0.11377288679E+01 -0.28864925125E+00  0.12349940886E+00  0.11802531386E+01  0.00000000000E+00 0.  1.
         11    1    3    3    0    0 -0.70375970897E+01 -0.14570302445E+01  0.65829085683E+01  0.97460451163E+01  0.51100000000E-03 0. -1.
        -11    1    3    3    0    0 -0.26096833236E+02 -0.38917242787E+01  0.23918941218E+02  0.35613283646E+02  0.51100000000E-03 0.  1.
         12    1    3    3    0    0  0.31996701457E+02  0.56374037745E+01 -0.30625349195E+02  0.44648418099E+02  0.00000000000E+00 0. -1.
</event>
<event>
 7    1  0.2385752E-015  0.9000774E+02  0.7816164E-02  0.1186339E+00
        -11   -1    0    0    0    0  0.00000000000E+00  0.00000000000E+00  0.45593999997E+02  0.45594000000E+02  0.51100000000E-03 0. -1.
         11   -1    0    0    0    0 -0.00000000000E+00 -0.00000000000E+00 -0.45593999997E+02  0.45594000000E+02  0.51100000000E-03 0.  1.
    9900012    2    1    2    0    0  0.58263681661E+00  0.10219971390E+01  0.95266383542E-01  0.90007737531E+02  0.89999998866E+02 0.  0.
        -12    1    1    2    0    0 -0.58263681661E+00 -0.10219971390E+01 -0.95266383542E-01  0.11802624691E+01  0.00000000000E+00 0.  1.
         11    1    3    3    0    0 -0.82156778851E+01 -0.10849075467E+02  0.53445966728E+00  0.13619304277E+02  0.51100000000E-03 0. -1.
        -11    1    3    3    0    0  0.40337427501E+01 -0.27105796918E+02 -0.18604917136E+02  0.33123077288E+02  0.51100000000E-03 0.  1.
         12    1    3    3    0    0  0.47645719516E+01  0.38976869524E+02  0.18165723852E+02  0.43265355966E+02  0.00000000000E+00 0. -1.
</event>
<event>
 7    1  0.2385752E-015  0.9000774E+02  0.7816164E-02  0.1186339E+00
        -11   -1    0    0    0    0  0.00000000000E+00  0.00000000000E+00  0.45593999997E+02  0.45594000000E+02  0.51100000000E-03 0. -1.
         11   -1    0    0    0    0 -0.00000000000E+00 -0.00000000000E+00 -0.45593999997E+02  0.45594000000E+02  0.51100000000E-03 0.  1.
    9900012    2    1    2    0    0  0.27960911001E+00  0.19524295642E+00  0.11299123533E+01  0.90007744522E+02  0.90000005950E+02 0.  0.
        -12    1    1    2    0    0 -0.27960911001E+00 -0.19524295642E+00 -0.11299123533E+01  0.11802554777E+01  0.00000000000E+00 0.  1.
         11    1    3    3    0    0 -0.35132380807E+01 -0.92925363177E+00  0.86562973231E+01  0.93881754208E+01  0.51100000000E-03 0. -1.
        -11    1    3    3    0    0 -0.27660267689E+02 -0.26408796693E+02 -0.59739299902E+00  0.38247507501E+02  0.51100000000E-03 0.  1.
         12    1    3    3    0    0  0.31453114880E+02  0.27533293281E+02 -0.69289919708E+01  0.42372061600E+02  0.00000000000E+00 0. -1.
</event>
<event>
 7    1  0.2385752E-015  0.9000773E+02  0.7816164E-02  0.1186339E+00
        -11   -1    0    0    0    0  0.00000000000E+00  0.00000000000E+00  0.45593999997E+02  0.45594000000E+02  0.51100000000E-03 0.  1.
         11   -1    0    0    0    0 -0.00000000000E+00 -0.00000000000E+00 -0.45593999997E+02  0.45594000000E+02  0.51100000000E-03 0. -1.
    9900012    2    1    2    0    0 -0.31871713102E+00 -0.41517786622E-01 -0.11356689140E+01  0.90007725363E+02  0.89999986538E+02 0.  0.
        -12    1    1    2    0    0  0.31871713102E+00  0.41517786622E-01  0.11356689140E+01  0.11802746369E+01  0.00000000000E+00 0.  1.
         11    1    3    3    0    0  0.90567605065E+01 -0.51315415892E+01 -0.77543608570E+01  0.12980282836E+02  0.51100000000E-03 0. -1.
        -11    1    3    3    0    0 -0.30951305299E+01 -0.95805037633E+01 -0.32901179910E+02  0.34407172582E+02  0.51100000000E-03 0.  1.
        -12    1    3    3    0    0 -0.62803471076E+01  0.14670527566E+02  0.39519871853E+02  0.42620269945E+02  0.00000000000E+00 0.  1.
</event>
<event>
 7    1  0.2385752E-015  0.9000776E+02  0.7816164E-02  0.1186339E+00
        -11   -1    0    0    0    0  0.00000000000E+00  0.00000000000E+00  0.45593999997E+02  0.45594000000E+02  0.51100000000E-03 0.  1.
         11   -1    0    0    0    0 -0.00000000000E+00 -0.00000000000E+00 -0.45593999997E+02  0.45594000000E+02  0.51100000000E-03 0. -1.
    9900012    2    1    2    0    0 -0.89133548659E+00 -0.72868427869E+00  0.25982526705E+00  0.90007758967E+02  0.90000020585E+02 0.  0.
        -12    1    1    2    0    0  0.89133548659E+00  0.72868427869E+00 -0.25982526705E+00  0.11802410335E+01  0.00000000000E+00 0.  1.
         11    1    3    3    0    0 -0.96930214910E+01 -0.31198448945E+01 -0.34757088060E+02  0.36217996473E+02  0.51100000000E-03 0. -1.
        -11    1    3    3    0    0 -0.64385649755E+01 -0.66665696951E+00 -0.66727892185E+01  0.92965405756E+01  0.51100000000E-03 0.  1.
        -12    1    3    3    0    0  0.15240250980E+02  0.30578175854E+01  0.41689702546E+02  0.44493221918E+02  0.00000000000E+00 0.  1.
</event>
<event>
 7    1  0.2385752E-015  0.9000778E+02  0.7816164E-02  0.1186339E+00
        -11   -1    0    0    0    0  0.00000000000E+00  0.00000000000E+00  0.45593999997E+02  0.45594000000E+02  0.51100000000E-03 0. -1.
         11   -1    0    0    0    0 -0.00000000000E+00 -0.00000000000E+00 -0.45593999997E+02  0.45594000000E+02  0.51100000000E-03 0.  1.
    9900012    2    1    2    0    0 -0.19575466793E+00 -0.28548702964E+00  0.11283116753E+01  0.90007783931E+02  0.90000045878E+02 0.  0.
        -12    1    1    2    0    0  0.19575466793E+00  0.28548702964E+00 -0.11283116753E+01  0.11802160695E+01  0.00000000000E+00 0.  1.
         11    1    3    3    0    0  0.52049038909E+01  0.64985460609E+01 -0.43788971480E+01  0.94072772848E+01  0.51100000000E-03 0. -1.
        -11    1    3    3    0    0  0.73334241468E+01  0.29948601131E+02 -0.17472175667E+02  0.35439733947E+02  0.51100000000E-03 0.  1.
         12    1    3    3    0    0 -0.12734082706E+02 -0.36732634221E+02  0.22979384491E+02  0.45160772699E+02  0.00000000000E+00 0. -1.
</event>
<event>
 7    1  0.2385752E-015  0.9000766E+02  0.7816164E-02  0.1186339E+00
        -11   -1    0    0    0    0  0.00000000000E+00  0.00000000000E+00  0.45593999997E+02  0.45594000000E+02  0.51100000000E-03 0. -1.
         11   -1    0    0    0    0 -0.00000000000E+00 -0.00000000000E+00 -0.45593999997E+02  0.45594000000E+02  0.51100000000E-03 0.  1.
    9900012    2    1    2    0    0 -0.10910303305E+01 -0.43420292860E+00 -0.11969426350E+00  0.90007658489E+02  0.89999918781E+02 0.  0.
        -12    1    1    2    0    0  0.10910303305E+01  0.43420292860E+00  0.11969426350E+00  0.11803415107E+01  0.00000000000E+00 0.  1.
         11    1    3    3    0    0 -0.52156641146E+01 -0.80812306292E+01  0.38456958529E+01  0.10358514251E+02  0.51100000000E-03 0. -1.
        -11    1    3    3    0    0  0.95249280398E+01 -0.27644839241E+02 -0.24775136830E+02  0.38324519515E+02  0.51100000000E-03 0.  1.
         12    1    3    3    0    0 -0.54002942556E+01  0.35291866942E+02  0.20809746713E+02  0.41324624724E+02  0.00000000000E+00 0. -1.
</event>
<event>
 7    1  0.2385752E-015  0.9000770E+02  0.7816164E-02  0.1186339E+00
        -11   -1    0    0    0    0  0.00000000000E+00  0.00000000000E+00  0.45593999997E+02  0.45594000000E+02  0.51100000000E-03 0.  1.
         11   -1    0    0    0    0 -0.00000000000E+00 -0.00000000000E+00 -0.45593999997E+02  0.45594000000E+02  0.51100000000E-03 0. -1.
    9900012    2    1    2    0    0 -0.19713548101E+00  0.70769604321E+00 -0.92380195933E+00  0.90007700823E+02  0.89999961674E+02 0.  0.
        -12    1    1    2    0    0  0.19713548101E+00 -0.70769604321E+00  0.92380195933E+00  0.11802991771E+01  0.00000000000E+00 0.  1.
         11    1    3    3    0    0 -0.87435305195E+01 -0.54437785483E+01 -0.34499509298E+02  0.36004169105E+02  0.51100000000E-03 0. -1.
        -11    1    3    3    0    0  0.11548347651E+02 -0.28040165117E+01 -0.60025735460E+01  0.13313817315E+02  0.51100000000E-03 0.  1.
        -12    1    3    3    0    0 -0.30019526128E+01  0.89554911032E+01  0.39578280885E+02  0.40689714403E+02  0.00000000000E+00 0.  1.
</event>
<event>
 7    1  0.2385752E-015  0.9000774E+02  0.7816164E-02  0.1186339E+00
        -11   -1    0    0    0    0  0.00000000000E+00  0.00000000000E+00  0.45593999997E+02  0.45594000000E+02  0.51100000000E-03 0.  1.
         11   -1    0    0    0    0 -0.00000000000E+00 -0.00000000000E+00 -0.45593999997E+02  0.45594000000E+02  0.51100000000E-03 0. -1.
    9900012    2    1    2    0    0 -0.32703084367E+00  0.26301779956E+00 -0.11031238284E+01  0.90007741674E+02  0.90000003064E+02 0.  0.
        -12    1    1    2    0    0  0.32703084367E+00 -0.26301779956E+00  0.11031238284E+01  0.11802583261E+01  0.00000000000E+00 0.  1.
         11    1    3    3    0    0 -0.61241142625E+01  0.35902580764E+02 -0.12929096078E+02  0.38647918530E+02  0.51100000000E-03 0. -1.
        -11    1    3    3    0    0  0.13262013448E+01 -0.23164843081E+01 -0.10609378192E+02  0.10940009846E+02  0.51100000000E-03 0.  1.
        -12    1    3    3    0    0  0.44708820740E+01 -0.33323078656E+02  0.22435350442E+02  0.40419813298E+02  0.00000000000E+00 0.  1.
</event>
<event>
 7    1  0.2385752E-015  0.9000772E+02  0.7816164E-02  0.1186339E+00
        -11   -1    0    0    0    0  0.00000000000E+00  0.00000000000E+00  0.45593999997E+02  0.45594000000E+02  0.51100000000E-03 0.  1.
         11   -1    0    0    0    0 -0.00000000000E+00 -0.00000000000E+00 -0.45593999997E+02  0.45594000000E+02  0.51100000000E-03 0. -1.
    9900012    2    1    2    0    0 -0.32914494158E+00  0.84017608836E+00 -0.76081036481E+00  0.90007718397E+02  0.89999979479E+02 0.  0.
        -12    1    1    2    0    0  0.32914494158E+00 -0.84017608836E+00  0.76081036481E+00  0.11802816034E+01  0.00000000000E+00 0.  1.
         11    1    3    3    0    0  0.34122683664E+02  0.12505782805E+02  0.23334833658E+01  0.36416991760E+02  0.51100000000E-03 0. -1.
        -11    1    3    3    0    0  0.85436881915E+01 -0.12924881884E+01  0.25343237883E+01  0.90048837281E+01  0.51100000000E-03 0.  1.
        -12    1    3    3    0    0 -0.42995516797E+02 -0.10373118528E+02 -0.56286175189E+01  0.44585842908E+02  0.00000000000E+00 0.  1.
</event>
<event>
 7    1  0.2951738E-015  0.9000764E+02  0.7816164E-02  0.1186339E+00
        -11   -1    0    0    0    0  0.00000000000E+00  0.00000000000E+00  0.45593999997E+02  0.45594000000E+02  0.51100000000E-03 0. -1.
         11   -1    0    0    0    0 -0.00000000000E+00 -0.00000000000E+00 -0.45593999997E+02  0.45594000000E+02  0.51100000000E-03 0.  1.
    9900012    2    1    2    0    0 -0.45575943442E+00 -0.68756530095E+00  0.84427396569E+00  0.90007635127E+02  0.89999895110E+02 0.  0.
        -12    1    1    2    0    0  0.45575943442E+00  0.68756530095E+00 -0.84427396569E+00  0.11803648734E+01  0.00000000000E+00 0.  1.
         11    1    3    3    0    0 -0.61210582159E-01  0.38277143296E+02  0.13628764018E+02  0.40631104521E+02  0.51100000000E-03 0. -1.
        -11    1    3    3    0    0 -0.19283130027E+01 -0.49605062907E+01  0.79150600708E+01  0.95379866787E+01  0.51100000000E-03 0.  1.
        -12    1    3    3    0    0  0.15337641504E+01 -0.34004202306E+02 -0.20699550123E+02  0.39838543927E+02  0.00000000000E+00 0.  1.
</event>
<event>
 7    1  0.2385752E-015  0.9000775E+02  0.7816164E-02  0.1186339E+00
        -11   -1    0    0    0    0  0.00000000000E+00  0.00000000000E+00  0.45593999997E+02  0.45594000000E+02  0.51100000000E-03 0. -1.
         11   -1    0    0    0    0 -0.00000000000E+00 -0.00000000000E+00 -0.45593999997E+02  0.45594000000E+02  0.51100000000E-03 0.  1.
    9900012    2    1    2    0    0  0.48245369852E+00  0.10732768943E+01  0.91089277477E-01  0.90007753365E+02  0.90000014909E+02 0.  0.
        -12    1    1    2    0    0 -0.48245369852E+00 -0.10732768943E+01 -0.91089277477E-01  0.11802466350E+01  0.00000000000E+00 0.  1.
         11    1    3    3    0    0 -0.38227624275E+01  0.26314901834E+01  0.89855112236E+01  0.10113242080E+02  0.51100000000E-03 0. -1.
        -11    1    3    3    0    0 -0.33147004906E+02  0.40822078296E+01 -0.21798695845E+02  0.39881969558E+02  0.51100000000E-03 0.  1.
         12    1    3    3    0    0  0.37452221032E+02 -0.56404211188E+01  0.12904273899E+02  0.40012541727E+02  0.00000000000E+00 0. -1.
</event>
<event>
 7    1  0.2385752E-015  0.9000778E+02  0.7816164E-02  0.1186339E+00
        -11   -1    0    0    0    0  0.00000000000E+00  0.00000000000E+00  0.45593999997E+02  0.45594000000E+02  0.51100000000E-03 0.  1.
         11   -1    0    0    0    0 -0.00000000000E+00 -0.00000000000E+00 -0.45593999997E+02  0.45594000000E+02  0.51100000000E-03 0. -1.
    9900012    2    1    2    0    0 -0.11069857309E+01  0.14730053762E+00 -0.38184030923E+00  0.90007781004E+02  0.90000042913E+02 0.  0.
        -12    1    1    2    0    0  0.11069857309E+01 -0.14730053762E+00  0.38184030923E+00  0.11802189960E+01  0.00000000000E+00 0.  1.
         11    1    3    3    0    0  0.15723567718E+00  0.34057224857E+01  0.86733696015E+01  0.93193888862E+01  0.51100000000E-03 0. -1.
        -11    1    3    3    0    0 -0.17415896387E+02 -0.18911572345E+02  0.27577004996E+02  0.37702151402E+02  0.51100000000E-03 0.  1.
         12    1    3    3    0    0  0.16151674979E+02  0.15653150397E+02 -0.36632214906E+02  0.42986240716E+02  0.00000000000E+00 0. -1.
</event>
<event>
 7    1  0.2385752E-015  0.9000778E+02  0.7816164E-02  0.1186339E+00
        -11   -1    0    0    0    0  0.00000000000E+00  0.00000000000E+00  0.45593999997E+02  0.45594000000E+02  0.51100000000E-03 0.  1.
         11   -1    0    0    0    0 -0.00000000000E+00 -0.00000000000E+00 -0.45593999997E+02  0.45594000000E+02  0.51100000000E-03 0. -1.
    9900012    2    1    2    0    0  0.43642488536E+00  0.10951387096E+01 -0.55921235573E-01  0.90007778555E+02  0.90000040432E+02 0.  0.
        -12    1    1    2    0    0 -0.43642488536E+00 -0.10951387096E+01  0.55921235573E-01  0.11802214446E+01  0.00000000000E+00 0.  1.
         11    1    3    3    0    0  0.26318120279E+01 -0.43308146176E+01 -0.75522733818E+01  0.90950109014E+01  0.51100000000E-03 0. -1.
        -11    1    3    3    0    0 -0.64720555672E+01 -0.37182443064E+02  0.36876782117E+01  0.37921241361E+02  0.51100000000E-03 0.  1.
         12    1    3    3    0    0  0.42766684246E+01  0.42608396391E+02  0.38086739345E+01  0.42991526293E+02  0.00000000000E+00 0. -1.
</event>
<event>
 7    1  0.2385752E-015  0.9000810E+02  0.7816164E-02  0.1186338E+00
        -11   -1    0    0    0    0  0.00000000000E+00  0.00000000000E+00  0.45593999997E+02  0.45594000000E+02  0.51100000000E-03 0.  1.
         11   -1    0    0    0    0 -0.00000000000E+00 -0.00000000000E+00 -0.45593999997E+02  0.45594000000E+02  0.51100000000E-03 0. -1.
    9900012    2    1    2    0    0 -0.43033088016E+00 -0.69762199680E+00 -0.84870933019E+00  0.90008098036E+02  0.90000364130E+02 0.  0.
        -12    1    1    2    0    0  0.43033088016E+00  0.69762199680E+00  0.84870933019E+00  0.11799019637E+01  0.00000000000E+00 0.  1.
         11    1    3    3    0    0  0.16725749969E+02  0.35102622417E+02 -0.54174614272E+01  0.39259313560E+02  0.51100000000E-03 0. -1.
        -11    1    3    3    0    0  0.76533395284E+01 -0.22004801533E+01 -0.25881099899E+01  0.83734122330E+01  0.51100000000E-03 0.  1.
        -12    1    3    3    0    0 -0.24809420378E+02 -0.33599764261E+02  0.71568620869E+01  0.42375372244E+02  0.00000000000E+00 0.  1.
</event>
<event>
 7    1  0.2385752E-015  0.9000777E+02  0.7816164E-02  0.1186339E+00
        -11   -1    0    0    0    0  0.00000000000E+00  0.00000000000E+00  0.45593999997E+02  0.45594000000E+02  0.51100000000E-03 0. -1.
         11   -1    0    0    0    0 -0.00000000000E+00 -0.00000000000E+00 -0.45593999997E+02  0.45594000000E+02  0.51100000000E-03 0.  1.
    9900012    2    1    2    0    0  0.94031833223E+00 -0.96462229783E-01  0.70670825746E+00  0.90007771171E+02  0.90000032950E+02 0.  0.
        -12    1    1    2    0    0 -0.94031833223E+00  0.96462229783E-01 -0.70670825746E+00  0.11802288290E+01  0.00000000000E+00 0.  1.
         11    1    3    3    0    0 -0.38484943874E+01 -0.33841088524E+02  0.86054999820E+01  0.35129543290E+02  0.51100000000E-03 0. -1.
        -11    1    3    3    0    0  0.12234691653E+02 -0.45742089093E+01 -0.89408556741E+01  0.15828770244E+02  0.51100000000E-03 0.  1.
        -12    1    3    3    0    0 -0.74458789332E+01  0.38318835204E+02  0.10420639496E+01  0.39049457637E+02  0.00000000000E+00 0.  1.
</event>
<event>
 7    1  0.2385752E-015  0.9000775E+02  0.7816164E-02  0.1186339E+00
        -11   -1    0    0    0    0  0.00000000000E+00  0.00000000000E+00  0.45593999997E+02  0.45594000000E+02  0.51100000000E-03 0.  1.
         11   -1    0    0    0    0 -0.00000000000E+00 -0.00000000000E+00 -0.45593999997E+02  0.45594000000E+02  0.51100000000E-03 0. -1.
    9900012    2    1    2    0    0  0.49312693274E+00  0.10620514253E+01  0.14782756866E+00  0.90007754097E+02  0.90000015651E+02 0.  0.
        -12    1    1    2    0    0 -0.49312693274E+00 -0.10620514253E+01 -0.14782756866E+00  0.11802459031E+01  0.00000000000E+00 0.  1.
         11    1    3    3    0    0 -0.60321230519E+01 -0.68142324064E+01 -0.13877782082E+01  0.92057699525E+01  0.51100000000E-03 0. -1.
        -11    1    3    3    0    0 -0.23492246158E+01 -0.17695803300E+02  0.34079920759E+02  0.38472084814E+02  0.51100000000E-03 0.  1.
         12    1    3    3    0    0  0.88744746005E+01  0.25572087132E+02 -0.32544314982E+02  0.42329899331E+02  0.00000000000E+00 0. -1.
</event>
<event>
 7    1  0.2385752E-015  0.9000768E+02  0.7816164E-02  0.1186339E+00
        -11   -1    0    0    0    0  0.00000000000E+00  0.00000000000E+00  0.45593999997E+02  0.45594000000E+02  0.51100000000E-03 0.  1.
         11   -1    0    0    0    0 -0.00000000000E+00 -0.00000000000E+00 -0.45593999997E+02  0.45594000000E+02  0.51100000000E-03 0. -1.
    9900012    2    1    2    0    0 -0.72090780585E-01  0.11671527583E+01 -0.16034293414E+00  0.90007681188E+02  0.89999941779E+02 0.  0.
        -12    1    1    2    0    0  0.72090780585E-01 -0.11671527583E+01  0.16034293414E+00  0.11803188122E+01  0.00000000000E+00 0.  1.
         11    1    3    3    0    0 -0.82534918523E+01  0.15032704696E+01 -0.15479946570E+01  0.85308989901E+01  0.51100000000E-03 0. -1.
        -11    1    3    3    0    0 -0.85370962094E+01  0.35754215607E+02  0.14618341453E+02  0.39559345956E+02  0.51100000000E-03 0.  1.
         12    1    3    3    0    0  0.16718497281E+02 -0.36090333318E+02 -0.13230689730E+02  0.41917436242E+02  0.00000000000E+00 0. -1.
</event>
<event>
 7    1  0.2385752E-015  0.9000787E+02  0.7816164E-02  0.1186339E+00
        -11   -1    0    0    0    0  0.00000000000E+00  0.00000000000E+00  0.45593999997E+02  0.45594000000E+02  0.51100000000E-03 0.  1.
         11   -1    0    0    0    0 -0.00000000000E+00 -0.00000000000E+00 -0.45593999997E+02  0.45594000000E+02  0.51100000000E-03 0. -1.
    9900012    2    1    2    0    0 -0.52628035440E+00  0.73041379035E+00 -0.76304199161E+00  0.90007869330E+02  0.90000132405E+02 0.  0.
        -12    1    1    2    0    0  0.52628035440E+00 -0.73041379035E+00  0.76304199161E+00  0.11801306697E+01  0.00000000000E+00 0.  1.
         11    1    3    3    0    0 -0.92326526287E+01  0.36184341224E+01  0.26214546363E+00  0.99198619228E+01  0.51100000000E-03 0. -1.
        -11    1    3    3    0    0 -0.65464285494E+01 -0.36950903808E+02  0.13724348115E+02  0.39957261548E+02  0.51100000000E-03 0.  1.
         12    1    3    3    0    0  0.15252800824E+02  0.34062883476E+02 -0.14749535570E+02  0.40130745859E+02  0.00000000000E+00 0. -1.
</event>
<event>
 7    1  0.2385752E-015  0.9000777E+02  0.7816164E-02  0.1186339E+00
        -11   -1    0    0    0    0  0.00000000000E+00  0.00000000000E+00  0.45593999997E+02  0.45594000000E+02  0.51100000000E-03 0. -1.
         11   -1    0    0    0    0 -0.00000000000E+00 -0.00000000000E+00 -0.45593999997E+02  0.45594000000E+02  0.51100000000E-03 0.  1.
    9900012    2    1    2    0    0 -0.32128032906E-01  0.52740657295E+00  0.10553491569E+01  0.90007766232E+02  0.90000027946E+02 0.  0.
        -12    1    1    2    0    0  0.32128032906E-01 -0.52740657295E+00 -0.10553491569E+01  0.11802337678E+01  0.00000000000E+00 0.  1.
         11    1    3    3    0    0 -0.35387155237E+02  0.87732698499E+01  0.18057841532E+02  0.40685460065E+02  0.51100000000E-03 0. -1.
        -11    1    3    3    0    0 -0.46445073214E+01 -0.21628331603E+01  0.67864890289E+00  0.51681582922E+01  0.51100000000E-03 0.  1.
        -12    1    3    3    0    0  0.39999534526E+02 -0.60830301167E+01 -0.17681141278E+02  0.44154147875E+02  0.00000000000E+00 0.  1.
</event>
<event>
 7    1  0.2385752E-015  0.9000776E+02  0.7816164E-02  0.1186339E+00
        -11   -1    0    0    0    0  0.00000000000E+00  0.00000000000E+00  0.45593999997E+02  0.45594000000E+02  0.51100000000E-03 0.  1.
         11   -1    0    0    0    0 -0.00000000000E+00 -0.00000000000E+00 -0.45593999997E+02  0.45594000000E+02  0.51100000000E-03 0. -1.
    9900012    2    1    2    0    0 -0.85239885685E+00 -0.81785846648E-01 -0.81222071007E+00  0.90007756289E+02  0.90000017872E+02 0.  0.
        -12    1    1    2    0    0  0.85239885685E+00  0.81785846648E-01  0.81222071007E+00  0.11802437112E+01  0.00000000000E+00 0.  1.
         11    1    3    3    0    0 -0.41272879415E+00 -0.83057475450E+01 -0.21686458491E+01  0.85941149875E+01  0.51100000000E-03 0. -1.
        -11    1    3    3    0    0  0.35712103909E+02  0.11757237410E+02 -0.16355902204E+02  0.41001250399E+02  0.51100000000E-03 0.  1.
         12    1    3    3    0    0 -0.36151773971E+02 -0.35332757114E+01  0.17712327343E+02  0.40412390902E+02  0.00000000000E+00 0. -1.
</event>
<event>
 7    1  0.2385752E-015  0.9000740E+02  0.7816164E-02  0.1186340E+00
        -11   -1    0    0    0    0  0.00000000000E+00  0.00000000000E+00  0.45593999997E+02  0.45594000000E+02  0.51100000000E-03 0.  1.
         11   -1    0    0    0    0 -0.00000000000E+00 -0.00000000000E+00 -0.45593999997E+02  0.45594000000E+02  0.51100000000E-03 0. -1.
    9900012    2    1    2    0    0  0.51809044481E+00  0.57406170680E+00 -0.89210124554E+00  0.90007403039E+02  0.89999659958E+02 0.  0.
        -12    1    1    2    0    0 -0.51809044481E+00 -0.57406170680E+00  0.89210124554E+00  0.11805969611E+01  0.00000000000E+00 0.  1.
         11    1    3    3    0    0  0.10439899537E+01  0.10532200398E+02 -0.20417146382E+00  0.10585785115E+02  0.51100000000E-03 0. -1.
        -11    1    3    3    0    0 -0.66577140424E+01  0.34194580943E+02  0.16133851755E+00  0.34837057174E+02  0.51100000000E-03 0.  1.
         12    1    3    3    0    0  0.61318145335E+01 -0.44152719635E+02 -0.84926829928E+00  0.44584560750E+02  0.00000000000E+00 0. -1.
</event>
<event>
 7    1  0.2385752E-015  0.9000772E+02  0.7816164E-02  0.1186339E+00
        -11   -1    0    0    0    0  0.00000000000E+00  0.00000000000E+00  0.45593999997E+02  0.45594000000E+02  0.51100000000E-03 0.  1.
         11   -1    0    0    0    0 -0.00000000000E+00 -0.00000000000E+00 -0.45593999997E+02  0.45594000000E+02  0.51100000000E-03 0. -1.
    9900012    2    1    2    0    0 -0.75324085765E+00 -0.77745360567E+00  0.47038666650E+00  0.90007716341E+02  0.89999977397E+02 0.  0.
        -12    1    1    2    0    0  0.75324085765E+00  0.77745360567E+00 -0.47038666650E+00  0.11802836585E+01  0.00000000000E+00 0.  1.
         11    1    3    3    0    0 -0.19799285720E+02 -0.32360703125E+02 -0.59313308208E+01  0.38398014367E+02  0.51100000000E-03 0. -1.
        -11    1    3    3    0    0 -0.81133327759E+01  0.27874132544E+01 -0.56026324718E+01  0.10246235028E+02  0.51100000000E-03 0.  1.
        -12    1    3    3    0    0  0.27159377638E+02  0.28795836265E+02  0.12004349959E+02  0.41363466946E+02  0.00000000000E+00 0.  1.
</event>
<event>
 7    1  0.2385752E-015  0.9000770E+02  0.7816164E-02  0.1186339E+00
        -11   -1    0    0    0    0  0.00000000000E+00  0.00000000000E+00  0.45593999997E+02  0.45594000000E+02  0.51100000000E-03 0. -1.
         11   -1    0    0    0    0 -0.00000000000E+00 -0.00000000000E+00 -0.45593999997E+02  0.45594000000E+02  0.51100000000E-03 0.  1.
    9900012    2    1    2    0    0 -0.79520310340E+00  0.64114639679E+00 -0.59134426302E+00  0.90007701430E+02  0.89999962289E+02 0.  0.
        -12    1    1    2    0    0  0.79520310340E+00 -0.64114639679E+00  0.59134426302E+00  0.11802985704E+01  0.00000000000E+00 0.  1.
         11    1    3    3    0    0 -0.42728788000E+02  0.63452604066E+01  0.73070824342E+01  0.43811015824E+02  0.51100000000E-03 0. -1.
        -11    1    3    3    0    0  0.47757083586E+01 -0.52909971202E+01  0.25918822699E+01  0.75841871558E+01  0.51100000000E-03 0.  1.
        -12    1    3    3    0    0  0.37157876538E+02 -0.41311688955E+00 -0.10490308967E+02  0.38612498450E+02  0.00000000000E+00 0.  1.
</event>
<event>
 7    1  0.2385752E-015  0.9000771E+02  0.7816164E-02  0.1186339E+00
        -11   -1    0    0    0    0  0.00000000000E+00  0.00000000000E+00  0.45593999997E+02  0.45594000000E+02  0.51100000000E-03 0.  1.
         11   -1    0    0    0    0 -0.00000000000E+00 -0.00000000000E+00 -0.45593999997E+02  0.45594000000E+02  0.51100000000E-03 0. -1.
    9900012    2    1    2    0    0  0.11049509102E+01 -0.13885029526E+00  0.39102089027E+00  0.90007706284E+02  0.89999967207E+02 0.  0.
        -12    1    1    2    0    0 -0.11049509102E+01  0.13885029526E+00 -0.39102089027E+00  0.11802937156E+01  0.00000000000E+00 0.  1.
         11    1    3    3    0    0  0.87698982590E+01  0.61109799284E+01 -0.45782444950E+01  0.11628220589E+02  0.51100000000E-03 0. -1.
        -11    1    3    3    0    0  0.17807977998E+01 -0.41162812264E+02 -0.31146862952E+01  0.41318877347E+02  0.51100000000E-03 0.  1.
         12    1    3    3    0    0 -0.94457451486E+01  0.34912982040E+02  0.80839516805E+01  0.37060608348E+02  0.00000000000E+00 0. -1.
</event>
<event>
 7    1  0.2385752E-015  0.9000778E+02  0.7816164E-02  0.1186339E+00
        -11   -1    0    0    0    0  0.00000000000E+00  0.00000000000E+00  0.45593999997E+02  0.45594000000E+02  0.51100000000E-03 0.  1.
         11   -1    0    0    0    0 -0.00000000000E+00 -0.00000000000E+00 -0.45593999997E+02  0.45594000000E+02  0.51100000000E-03 0. -1.
    9900012    2    1    2    0    0  0.29690064474E+00 -0.27909246375E-02 -0.11422608456E+01  0.90007780689E+02  0.90000042594E+02 0.  0.
        -12    1    1    2    0    0 -0.29690064474E+00  0.27909246375E-02  0.11422608456E+01  0.11802193108E+01  0.00000000000E+00 0.  1.
         11    1    3    3    0    0  0.18899391407E+02 -0.98547562889E+01 -0.30968031449E+02  0.37594177596E+02  0.51100000000E-03 0. -1.
        -11    1    3    3    0    0  0.65950957000E+01 -0.80343033115E+01  0.15138304434E+01  0.10504142034E+02  0.51100000000E-03 0.  1.
        -12    1    3    3    0    0 -0.25197586462E+02  0.17886268676E+02  0.28311940160E+02  0.41909461059E+02  0.00000000000E+00 0.  1.
</event>
<event>
 8    1  0.2385752E-015  0.9000770E+02  0.7816164E-02  0.1186339E+00
        -11   -1    0    0    0    0  0.00000000000E+00  0.00000000000E+00  0.45593999997E+02  0.45594000000E+02  0.51100000000E-03 0.  1.
         11   -1    0    0    0    0 -0.00000000000E+00 -0.00000000000E+00 -0.45593999997E+02  0.45594000000E+02  0.51100000000E-03 0. -1.
    9900012    2    1    2    0    0 -0.80511112098E+00 -0.51707796438E+00 -0.69104721030E+00  0.90007695046E+02  0.89999955820E+02 0.  0.
         23    2    3    3    0    0  0.55886676747E+01 -0.10707285306E+02  0.16660612522E+02  0.68893699014E+02  0.65748662262E+02 0.  0.
        -12    1    1    2    0    0  0.80511112098E+00  0.51707796438E+00  0.69104721030E+00  0.11803049543E+01  0.00000000000E+00 0.  1.
         11    1    4    4    0    0  0.22572812434E+01 -0.16112993448E+02  0.40804540373E+02  0.43928742206E+02  0.51100000000E-03 0.  1.
        -11    1    4    4    0    0  0.33313864312E+01  0.54057081428E+01 -0.24143927851E+02  0.24964956808E+02  0.51100000000E-03 0. -1.
        -12    1    3    3    0    0 -0.63937787957E+01  0.10190207341E+02 -0.17351659733E+02  0.21113996032E+02  0.00000000000E+00 0.  1.
</event>
<event>
 7    1  0.2385752E-015  0.9000766E+02  0.7816164E-02  0.1186339E+00
        -11   -1    0    0    0    0  0.00000000000E+00  0.00000000000E+00  0.45593999997E+02  0.45594000000E+02  0.51100000000E-03 0. -1.
         11   -1    0    0    0    0 -0.00000000000E+00 -0.00000000000E+00 -0.45593999997E+02  0.45594000000E+02  0.51100000000E-03 0.  1.
    9900012    2    1    2    0    0  0.41867991157E+00  0.10747731105E+01  0.25053967353E+00  0.90007660966E+02  0.89999921291E+02 0.  0.
        -12    1    1    2    0    0 -0.41867991157E+00 -0.10747731105E+01 -0.25053967353E+00  0.11803390341E+01  0.00000000000E+00 0.  1.
         11    1    3    3    0    0  0.17008409680E+01  0.73943714409E+01  0.56564828840E+01  0.94638991902E+01  0.51100000000E-03 0. -1.
        -11    1    3    3    0    0 -0.37112773903E+02  0.57803416154E+01 -0.16655666603E+02  0.41087486735E+02  0.51100000000E-03 0.  1.
         12    1    3    3    0    0  0.35830612847E+02 -0.12099939946E+02  0.11249723392E+02  0.39456275040E+02  0.00000000000E+00 0. -1.
</event>
<event>
 7    1  0.2385752E-015  0.9000771E+02  0.7816164E-02  0.1186339E+00
        -11   -1    0    0    0    0  0.00000000000E+00  0.00000000000E+00  0.45593999997E+02  0.45594000000E+02  0.51100000000E-03 0. -1.
         11   -1    0    0    0    0 -0.00000000000E+00 -0.00000000000E+00 -0.45593999997E+02  0.45594000000E+02  0.51100000000E-03 0.  1.
    9900012    2    1    2    0    0 -0.10171638752E+00  0.43104616864E+00  0.10940488251E+01  0.90007707725E+02  0.89999968667E+02 0.  0.
        -12    1    1    2    0    0  0.10171638752E+00 -0.43104616864E+00 -0.10940488251E+01  0.11802922751E+01  0.00000000000E+00 0.  1.
         11    1    3    3    0    0 -0.41321301563E+01 -0.84650783141E+01 -0.26567206088E+01  0.97872475776E+01  0.51100000000E-03 0. -1.
        -11    1    3    3    0    0  0.13314681174E+02 -0.33732745980E+02 -0.13798560371E+01  0.36291636627E+02  0.51100000000E-03 0.  1.
         12    1    3    3    0    0 -0.92842674051E+01  0.42628870463E+02  0.51306254710E+01  0.43928823520E+02  0.00000000000E+00 0. -1.
</event>
<event>
 7    1  0.2385752E-015  0.9000777E+02  0.7816164E-02  0.1186339E+00
        -11   -1    0    0    0    0  0.00000000000E+00  0.00000000000E+00  0.45593999997E+02  0.45594000000E+02  0.51100000000E-03 0.  1.
         11   -1    0    0    0    0 -0.00000000000E+00 -0.00000000000E+00 -0.45593999997E+02  0.45594000000E+02  0.51100000000E-03 0. -1.
    9900012    2    1    2    0    0  0.56821699066E-01 -0.90353261635E+00 -0.75719863398E+00  0.90007767114E+02  0.90000028840E+02 0.  0.
        -12    1    1    2    0    0 -0.56821699066E-01  0.90353261635E+00  0.75719863398E+00  0.11802328862E+01  0.00000000000E+00 0.  1.
         11    1    3    3    0    0  0.24430927708E+01 -0.87327113999E+01  0.70235940997E+00  0.90951778258E+01  0.51100000000E-03 0. -1.
        -11    1    3    3    0    0 -0.10047400088E+02 -0.76435013218E+00  0.38256653736E+02  0.39561421044E+02  0.51100000000E-03 0.  1.
         12    1    3    3    0    0  0.76611290159E+01  0.85935289157E+01 -0.39716211780E+02  0.41351168244E+02  0.00000000000E+00 0. -1.
</event>
<event>
 7    1  0.2385752E-015  0.9000775E+02  0.7816164E-02  0.1186339E+00
        -11   -1    0    0    0    0  0.00000000000E+00  0.00000000000E+00  0.45593999997E+02  0.45594000000E+02  0.51100000000E-03 0. -1.
         11   -1    0    0    0    0 -0.00000000000E+00 -0.00000000000E+00 -0.45593999997E+02  0.45594000000E+02  0.51100000000E-03 0.  1.
    9900012    2    1    2    0    0 -0.35231490822E+00  0.11086357221E+01  0.19946328530E+00  0.90007752331E+02  0.90000013861E+02 0.  0.
        -12    1    1    2    0    0  0.35231490822E+00 -0.11086357221E+01 -0.19946328530E+00  0.11802476693E+01  0.00000000000E+00 0.  1.
         11    1    3    3    0    0 -0.14438767990E+02  0.54023853795E+01 -0.28521518880E+01  0.15677964138E+02  0.51100000000E-03 0. -1.
        -11    1    3    3    0    0 -0.13742214195E+02 -0.22862746763E+02 -0.20308671344E+02  0.33526046182E+02  0.51100000000E-03 0.  1.
         12    1    3    3    0    0  0.27828667277E+02  0.18568997105E+02  0.23360286518E+02  0.40803742011E+02  0.00000000000E+00 0. -1.
</event>
<event>
 7    1  0.2385752E-015  0.9000753E+02  0.7816164E-02  0.1186339E+00
        -11   -1    0    0    0    0  0.00000000000E+00  0.00000000000E+00  0.45593999997E+02  0.45594000000E+02  0.51100000000E-03 0.  1.
         11   -1    0    0    0    0 -0.00000000000E+00 -0.00000000000E+00 -0.45593999997E+02  0.45594000000E+02  0.51100000000E-03 0. -1.
    9900012    2    1    2    0    0 -0.93297129324E+00 -0.72045924179E+00  0.63262608430E-01  0.90007534367E+02  0.89999793020E+02 0.  0.
        -12    1    1    2    0    0  0.93297129324E+00  0.72045924179E+00 -0.63262608430E-01  0.11804656330E+01  0.00000000000E+00 0.  1.
         11    1    3    3    0    0 -0.12362923999E+02  0.12460452115E+02 -0.27542707691E+02  0.32660457804E+02  0.51100000000E-03 0. -1.
        -11    1    3    3    0    0 -0.15682701186E+02 -0.12358734533E+02  0.20374435016E+01  0.20070790020E+02  0.51100000000E-03 0.  1.
        -12    1    3    3    0    0  0.27112653892E+02 -0.82217682357E+00  0.25568526798E+02  0.37276286543E+02  0.00000000000E+00 0.  1.
</event>
<event>
 7    1  0.2385752E-015  0.9000767E+02  0.7816164E-02  0.1186339E+00
        -11   -1    0    0    0    0  0.00000000000E+00  0.00000000000E+00  0.45593999997E+02  0.45594000000E+02  0.51100000000E-03 0.  1.
         11   -1    0    0    0    0 -0.00000000000E+00 -0.00000000000E+00 -0.45593999997E+02  0.45594000000E+02  0.51100000000E-03 0. -1.
    9900012    2    1    2    0    0  0.21199940336E+00  0.10148104220E+01 -0.56426690848E+00  0.90007669079E+02  0.89999929511E+02 0.  0.
        -12    1    1    2    0    0 -0.21199940336E+00 -0.10148104220E+01  0.56426690848E+00  0.11803309213E+01  0.00000000000E+00 0.  1.
         11    1    3    3    0    0  0.62694216974E+01 -0.98049053970E+01 -0.87089931556E+01  0.14535762117E+02  0.51100000000E-03 0. -1.
        -11    1    3    3    0    0  0.22352614371E+02 -0.97175244753E+01  0.26414030623E+02  0.35941211236E+02  0.51100000000E-03 0.  1.
         12    1    3    3    0    0 -0.28410036665E+02  0.20537240294E+02 -0.18269304376E+02  0.39530695726E+02  0.00000000000E+00 0. -1.
</event>
<event>
 7    1  0.2385752E-015  0.9000776E+02  0.7816164E-02  0.1186339E+00
        -11   -1    0    0    0    0  0.00000000000E+00  0.00000000000E+00  0.45593999997E+02  0.45594000000E+02  0.51100000000E-03 0. -1.
         11   -1    0    0    0    0 -0.00000000000E+00 -0.00000000000E+00 -0.45593999997E+02  0.45594000000E+02  0.51100000000E-03 0.  1.
    9900012    2    1    2    0    0  0.26402432313E+00 -0.11022794121E+01  0.32900020097E+00  0.90007758551E+02  0.90000020164E+02 0.  0.
        -12    1    1    2    0    0 -0.26402432313E+00  0.11022794121E+01 -0.32900020097E+00  0.11802414489E+01  0.00000000000E+00 0.  1.
         11    1    3    3    0    0 -0.16080718495E+01 -0.18081952137E+01  0.86522097244E+01  0.89842194085E+01  0.51100000000E-03 0. -1.
        -11    1    3    3    0    0 -0.32683786792E+02 -0.12548444816E+02  0.14108455709E+02  0.37745753525E+02  0.51100000000E-03 0.  1.
         12    1    3    3    0    0  0.34555882965E+02  0.13254360618E+02 -0.22431665233E+02  0.43277785618E+02  0.00000000000E+00 0. -1.
</event>
<event>
 7    1  0.2385752E-015  0.9000774E+02  0.7816164E-02  0.1186339E+00
        -11   -1    0    0    0    0  0.00000000000E+00  0.00000000000E+00  0.45593999997E+02  0.45594000000E+02  0.51100000000E-03 0. -1.
         11   -1    0    0    0    0 -0.00000000000E+00 -0.00000000000E+00 -0.45593999997E+02  0.45594000000E+02  0.51100000000E-03 0.  1.
    9900012    2    1    2    0    0 -0.10324956202E+01 -0.11865288812E+00  0.55936828194E+00  0.90007737915E+02  0.89999999256E+02 0.  0.
        -12    1    1    2    0    0  0.10324956202E+01  0.11865288812E+00 -0.55936828194E+00  0.11802620846E+01  0.00000000000E+00 0.  1.
         11    1    3    3    0    0  0.56572761974E+01  0.26932310988E+01 -0.43121509836E+01  0.76061103129E+01  0.51100000000E-03 0. -1.
        -11    1    3    3    0    0  0.12763510374E+02  0.21143376531E+02 -0.27985916316E+02  0.37325073081E+02  0.51100000000E-03 0.  1.
         12    1    3    3    0    0 -0.19453282192E+02 -0.23955260518E+02  0.32857435581E+02  0.45076554521E+02  0.00000000000E+00 0. -1.
</event>
<event>
 7    1  0.2385752E-015  0.9000778E+02  0.7816164E-02  0.1186339E+00
        -11   -1    0    0    0    0  0.00000000000E+00  0.00000000000E+00  0.45593999997E+02  0.45594000000E+02  0.51100000000E-03 0.  1.
         11   -1    0    0    0    0 -0.00000000000E+00 -0.00000000000E+00 -0.45593999997E+02  0.45594000000E+02  0.51100000000E-03 0. -1.
    9900012    2    1    2    0    0  0.70978455531E+00  0.76648042197E+00 -0.54922137241E+00  0.90007775247E+02  0.90000037080E+02 0.  0.
        -12    1    1    2    0    0 -0.70978455531E+00 -0.76648042197E+00  0.54922137241E+00  0.11802247532E+01  0.00000000000E+00 0.  1.
         11    1    3    3    0    0 -0.11768922127E+02  0.37988274456E+02 -0.89248465705E+01  0.40758672829E+02  0.51100000000E-03 0. -1.
        -11    1    3    3    0    0 -0.40000067609E+01 -0.11138964664E+00  0.76554104261E+01  0.86381578357E+01  0.51100000000E-03 0.  1.
        -12    1    3    3    0    0  0.16478713443E+02 -0.37110404388E+02  0.72021477197E+00  0.40610944582E+02  0.00000000000E+00 0.  1.
</event>
<event>
 7    1  0.2385752E-015  0.9000775E+02  0.7816164E-02  0.1186339E+00
        -11   -1    0    0    0    0  0.00000000000E+00  0.00000000000E+00  0.45593999997E+02  0.45594000000E+02  0.51100000000E-03 0. -1.
         11   -1    0    0    0    0 -0.00000000000E+00 -0.00000000000E+00 -0.45593999997E+02  0.45594000000E+02  0.51100000000E-03 0.  1.
    9900012    2    1    2    0    0  0.88084528019E+00  0.73565745834E+00 -0.27549962357E+00  0.90007754116E+02  0.90000015671E+02 0.  0.
        -12    1    1    2    0    0 -0.88084528019E+00 -0.73565745834E+00  0.27549962357E+00  0.11802458838E+01  0.00000000000E+00 0.  1.
         11    1    3    3    0    0 -0.78636596082E+01  0.38403241056E+02 -0.16569765443E+02  0.42558232965E+02  0.51100000000E-03 0. -1.
        -11    1    3    3    0    0 -0.61960420325E+01 -0.40139932623E+01  0.50695908725E+01  0.89556591412E+01  0.51100000000E-03 0.  1.
        -12    1    3    3    0    0  0.14940546921E+02 -0.33653590335E+02  0.11224674947E+02  0.38493862010E+02  0.00000000000E+00 0.  1.
</event>
<event>
 7    1  0.2385752E-015  0.9000794E+02  0.7816164E-02  0.1186339E+00
        -11   -1    0    0    0    0  0.00000000000E+00  0.00000000000E+00  0.45593999997E+02  0.45594000000E+02  0.51100000000E-03 0.  1.
         11   -1    0    0    0    0 -0.00000000000E+00 -0.00000000000E+00 -0.45593999997E+02  0.45594000000E+02  0.51100000000E-03 0. -1.
    9900012    2    1    2    0    0  0.34323383596E+00 -0.11268658201E+01  0.69970651371E-01  0.90007944097E+02  0.90000208159E+02 0.  0.
        -12    1    1    2    0    0 -0.34323383596E+00  0.11268658201E+01 -0.69970651371E-01  0.11800559032E+01  0.00000000000E+00 0.  1.
         11    1    3    3    0    0 -0.25895162660E+02  0.23646524653E+02  0.10853177675E+02  0.36708432863E+02  0.51100000000E-03 0. -1.
        -11    1    3    3    0    0 -0.72812176641E+01  0.33192610456E+01  0.84041281835E+00  0.80461120131E+01  0.51100000000E-03 0.  1.
        -12    1    3    3    0    0  0.33519614160E+02 -0.28092651519E+02 -0.11623619842E+02  0.45253399221E+02  0.00000000000E+00 0.  1.
</event>
<event>
 7    1  0.2385752E-015  0.9000771E+02  0.7816164E-02  0.1186339E+00
        -11   -1    0    0    0    0  0.00000000000E+00  0.00000000000E+00  0.45593999997E+02  0.45594000000E+02  0.51100000000E-03 0.  1.
         11   -1    0    0    0    0 -0.00000000000E+00 -0.00000000000E+00 -0.45593999997E+02  0.45594000000E+02  0.51100000000E-03 0. -1.
    9900012    2    1    2    0    0  0.24824376089E+00 -0.11430463776E+01  0.15783157923E+00  0.90007707327E+02  0.89999968264E+02 0.  0.
        -12    1    1    2    0    0 -0.24824376089E+00  0.11430463776E+01 -0.15783157923E+00  0.11802926728E+01  0.00000000000E+00 0.  1.
         11    1    3    3    0    0 -0.32688660765E+02  0.10058834739E+02  0.12490414019E+02  0.36410700921E+02  0.51100000000E-03 0. -1.
        -11    1    3    3    0    0 -0.58761064421E+00 -0.22132026810E+01  0.11349882687E+02  0.11578574594E+02  0.51100000000E-03 0.  1.
        -12    1    3    3    0    0  0.33524515171E+02 -0.89886784355E+01 -0.23682465127E+02  0.42018431812E+02  0.00000000000E+00 0.  1.
</event>
<event>
 7    1  0.2385752E-015  0.9000784E+02  0.7816164E-02  0.1186339E+00
        -11   -1    0    0    0    0  0.00000000000E+00  0.00000000000E+00  0.45593999997E+02  0.45594000000E+02  0.51100000000E-03 0.  1.
         11   -1    0    0    0    0 -0.00000000000E+00 -0.00000000000E+00 -0.45593999997E+02  0.45594000000E+02  0.51100000000E-03 0. -1.
    9900012    2    1    2    0    0 -0.57948249206E+00 -0.56561796382E+00 -0.85851656878E+00  0.90007841393E+02  0.90000104099E+02 0.  0.
        -12    1    1    2    0    0  0.57948249206E+00  0.56561796382E+00  0.85851656878E+00  0.11801586073E+01  0.00000000000E+00 0.  1.
         11    1    3    3    0    0 -0.64422310061E+01  0.65266999361E+01  0.17893575770E+01  0.93435514229E+01  0.51100000000E-03 0. -1.
        -11    1    3    3    0    0 -0.10445626712E+02  0.34060498421E+02  0.41939265763E+01  0.35872241225E+02  0.51100000000E-03 0.  1.
         12    1    3    3    0    0  0.16308375226E+02 -0.41152816321E+02 -0.68418007222E+01  0.44792048745E+02  0.00000000000E+00 0. -1.
</event>
<event>
 7    1  0.2385752E-015  0.9000771E+02  0.7816164E-02  0.1186339E+00
        -11   -1    0    0    0    0  0.00000000000E+00  0.00000000000E+00  0.45593999997E+02  0.45594000000E+02  0.51100000000E-03 0.  1.
         11   -1    0    0    0    0 -0.00000000000E+00 -0.00000000000E+00 -0.45593999997E+02  0.45594000000E+02  0.51100000000E-03 0. -1.
    9900012    2    1    2    0    0 -0.76288211257E+00 -0.62630840883E+00 -0.64717908110E+00  0.90007706772E+02  0.89999967702E+02 0.  0.
        -12    1    1    2    0    0  0.76288211257E+00  0.62630840883E+00  0.64717908110E+00  0.11802932278E+01  0.00000000000E+00 0.  1.
         11    1    3    3    0    0  0.16658804737E+01  0.35894903117E+01  0.81913405366E+01  0.90971236387E+01  0.51100000000E-03 0. -1.
        -11    1    3    3    0    0 -0.48739569293E+01  0.37897355245E+02 -0.53550444821E+01  0.38582917106E+02  0.51100000000E-03 0.  1.
         12    1    3    3    0    0  0.24451943430E+01 -0.42113153966E+02 -0.34834751356E+01  0.42327666028E+02  0.00000000000E+00 0. -1.
</event>
<event>
 7    1  0.2385752E-015  0.9000792E+02  0.7816164E-02  0.1186339E+00
        -11   -1    0    0    0    0  0.00000000000E+00  0.00000000000E+00  0.45593999997E+02  0.45594000000E+02  0.51100000000E-03 0.  1.
         11   -1    0    0    0    0 -0.00000000000E+00 -0.00000000000E+00 -0.45593999997E+02  0.45594000000E+02  0.51100000000E-03 0. -1.
    9900012    2    1    2    0    0 -0.27308095078E+00  0.81165789052E+00  0.81193077824E+00  0.90007918085E+02  0.90000181804E+02 0.  0.
        -12    1    1    2    0    0  0.27308095078E+00 -0.81165789052E+00 -0.81193077824E+00  0.11800819148E+01  0.00000000000E+00 0.  1.
         11    1    3    3    0    0 -0.12170423182E+01 -0.20689136873E+01 -0.88225815891E+01  0.91432785152E+01  0.51100000000E-03 0. -1.
        -11    1    3    3    0    0  0.23620611913E+02  0.31807699840E+02 -0.74808413260E+01  0.40319053355E+02  0.51100000000E-03 0.  1.
         12    1    3    3    0    0 -0.22676650545E+02 -0.28927128262E+02  0.17115353693E+02  0.40545586215E+02  0.00000000000E+00 0. -1.
</event>
<event>
 7    1  0.2385752E-015  0.9000693E+02  0.7816164E-02  0.1186341E+00
        -11   -1    0    0    0    0  0.00000000000E+00  0.00000000000E+00  0.45593999997E+02  0.45594000000E+02  0.51100000000E-03 0.  1.
         11   -1    0    0    0    0 -0.00000000000E+00 -0.00000000000E+00 -0.45593999997E+02  0.45594000000E+02  0.51100000000E-03 0. -1.
    9900012    2    1    2    0    0  0.72451833435E+00 -0.54443847385E+00 -0.75734853966E+00  0.90006934007E+02  0.89999184732E+02 0.  0.
        -12    1    1    2    0    0 -0.72451833435E+00  0.54443847385E+00  0.75734853966E+00  0.11810659927E+01  0.00000000000E+00 0.  1.
         11    1    3    3    0    0 -0.76954786906E+01 -0.11986831457E+02  0.25385804800E+02  0.29109167049E+02  0.51100000000E-03 0.  1.
        -11    1    3    3    0    0 -0.17249111915E+02 -0.10636903386E+02 -0.46445677693E+01  0.20790564819E+02  0.51100000000E-03 0. -1.
        -12    1    3    3    0    0  0.25669108940E+02  0.22079296369E+02 -0.21498585571E+02  0.40107202139E+02  0.00000000000E+00 0.  1.
</event>
<event>
 7    1  0.2385752E-015  0.9000777E+02  0.7816164E-02  0.1186339E+00
        -11   -1    0    0    0    0  0.00000000000E+00  0.00000000000E+00  0.45593999997E+02  0.45594000000E+02  0.51100000000E-03 0.  1.
         11   -1    0    0    0    0 -0.00000000000E+00 -0.00000000000E+00 -0.45593999997E+02  0.45594000000E+02  0.51100000000E-03 0. -1.
    9900012    2    1    2    0    0  0.10807705781E+01  0.19288423517E-01 -0.47381588298E+00  0.90007771812E+02  0.90000033599E+02 0.  0.
        -12    1    1    2    0    0 -0.10807705781E+01 -0.19288423517E-01  0.47381588298E+00  0.11802281884E+01  0.00000000000E+00 0.  1.
         11    1    3    3    0    0 -0.10959314137E+02  0.17288492329E+02 -0.28222797533E+02  0.34864377726E+02  0.51100000000E-03 0. -1.
        -11    1    3    3    0    0 -0.32109130191E+01  0.17897513505E+01 -0.97384978519E+01  0.10409203283E+02  0.51100000000E-03 0.  1.
        -12    1    3    3    0    0  0.15250997734E+02 -0.19058955256E+02  0.37487479502E+02  0.44734190803E+02  0.00000000000E+00 0.  1.
</event>
<event>
 7    1  0.2385752E-015  0.9000793E+02  0.7816164E-02  0.1186339E+00
        -11   -1    0    0    0    0  0.00000000000E+00  0.00000000000E+00  0.45593999997E+02  0.45594000000E+02  0.51100000000E-03 0.  1.
         11   -1    0    0    0    0 -0.00000000000E+00 -0.00000000000E+00 -0.45593999997E+02  0.45594000000E+02  0.51100000000E-03 0. -1.
    9900012    2    1    2    0    0 -0.55461418881E+00 -0.41015536265E+00 -0.95746066111E+00  0.90007934223E+02  0.90000198155E+02 0.  0.
        -12    1    1    2    0    0  0.55461418881E+00  0.41015536265E+00  0.95746066111E+00  0.11800657768E+01  0.00000000000E+00 0.  1.
         11    1    3    3    0    0  0.18080747160E+02  0.13739280886E+02  0.10980481022E+01  0.22735148274E+02  0.51100000000E-03 0. -1.
        -11    1    3    3    0    0  0.21790029640E+02  0.95439772657E+00 -0.89404938247E+01  0.23572201781E+02  0.51100000000E-03 0.  1.
        -12    1    3    3    0    0 -0.40425390989E+02 -0.15103833976E+02  0.68849850613E+01  0.43700584168E+02  0.00000000000E+00 0.  1.
</event>
<event>
 7    1  0.2385752E-015  0.9000773E+02  0.7816164E-02  0.1186339E+00
        -11   -1    0    0    0    0  0.00000000000E+00  0.00000000000E+00  0.45593999997E+02  0.45594000000E+02  0.51100000000E-03 0.  1.
         11   -1    0    0    0    0 -0.00000000000E+00 -0.00000000000E+00 -0.45593999997E+02  0.45594000000E+02  0.51100000000E-03 0. -1.
    9900012    2    1    2    0    0  0.29932773736E+00 -0.29448948247E+00 -0.11030499419E+01  0.90007728708E+02  0.89999989926E+02 0.  0.
        -12    1    1    2    0    0 -0.29932773736E+00  0.29448948247E+00  0.11030499419E+01  0.11802712925E+01  0.00000000000E+00 0.  1.
         11    1    3    3    0    0  0.14200119505E+02 -0.60908626177E+01  0.54414056792E+01  0.16381419273E+02  0.51100000000E-03 0. -1.
        -11    1    3    3    0    0 -0.20094155862E+01  0.32304636286E+02 -0.23489763809E+02  0.39992452796E+02  0.51100000000E-03 0.  1.
         12    1    3    3    0    0 -0.11891376181E+02 -0.26508263151E+02  0.16945308188E+02  0.33633856638E+02  0.00000000000E+00 0. -1.
</event>
<event>
 7    1  0.2385752E-015  0.9000784E+02  0.7816164E-02  0.1186339E+00
        -11   -1    0    0    0    0  0.00000000000E+00  0.00000000000E+00  0.45593999997E+02  0.45594000000E+02  0.51100000000E-03 0.  1.
         11   -1    0    0    0    0 -0.00000000000E+00 -0.00000000000E+00 -0.45593999997E+02  0.45594000000E+02  0.51100000000E-03 0. -1.
    9900012    2    1    2    0    0  0.37435940090E+00  0.75283209043E+00  0.82817357128E+00  0.90007842137E+02  0.90000104853E+02 0.  0.
        -12    1    1    2    0    0 -0.37435940090E+00 -0.75283209043E+00 -0.82817357128E+00  0.11801578630E+01  0.00000000000E+00 0.  1.
         11    1    3    3    0    0  0.36315186824E+02  0.68464833875E+01 -0.29620872397E+00  0.36956120856E+02  0.51100000000E-03 0. -1.
        -11    1    3    3    0    0  0.41993301779E+01 -0.60037643326E+00  0.10623153336E+02  0.11438802947E+02  0.51100000000E-03 0.  1.
        -12    1    3    3    0    0 -0.40140157601E+02 -0.54932748638E+01 -0.94987710409E+01  0.41612918334E+02  0.00000000000E+00 0.  1.
</event>
<event>
 7    1  0.2385752E-015  0.9000775E+02  0.7816164E-02  0.1186339E+00
        -11   -1    0    0    0    0  0.00000000000E+00  0.00000000000E+00  0.45593999997E+02  0.45594000000E+02  0.51100000000E-03 0.  1.
         11   -1    0    0    0    0 -0.00000000000E+00 -0.00000000000E+00 -0.45593999997E+02  0.45594000000E+02  0.51100000000E-03 0. -1.
    9900012    2    1    2    0    0  0.86425795387E+00 -0.30572737736E+00 -0.74335220147E+00  0.90007752765E+02  0.90000014302E+02 0.  0.
        -12    1    1    2    0    0 -0.86425795387E+00  0.30572737736E+00  0.74335220147E+00  0.11802472349E+01  0.00000000000E+00 0.  1.
         11    1    3    3    0    0 -0.90563531734E+01  0.84121681590E+01 -0.76790877364E-01  0.12360744437E+02  0.51100000000E-03 0. -1.
        -11    1    3    3    0    0  0.51206777914E+01  0.33915454847E+02 -0.44058697706E+01  0.34581658538E+02  0.51100000000E-03 0.  1.
         12    1    3    3    0    0  0.47999333359E+01 -0.42633350383E+02  0.37393084464E+01  0.43065349791E+02  0.00000000000E+00 0. -1.
</event>
<event>
 7    1  0.2385752E-015  0.9000776E+02  0.7816164E-02  0.1186339E+00
        -11   -1    0    0    0    0  0.00000000000E+00  0.00000000000E+00  0.45593999997E+02  0.45594000000E+02  0.51100000000E-03 0. -1.
         11   -1    0    0    0    0 -0.00000000000E+00 -0.00000000000E+00 -0.45593999997E+02  0.45594000000E+02  0.51100000000E-03 0.  1.
    9900012    2    1    2    0    0 -0.93959457107E+00 -0.57967667468E+00  0.41725246390E+00  0.90007761624E+02  0.90000023278E+02 0.  0.
        -12    1    1    2    0    0  0.93959457107E+00  0.57967667468E+00 -0.41725246390E+00  0.11802383758E+01  0.00000000000E+00 0.  1.
         11    1    3    3    0    0 -0.74747119264E+01 -0.28653259188E+02  0.21090259784E+02  0.36354912165E+02  0.51100000000E-03 0. -1.
        -11    1    3    3    0    0 -0.78468058289E+01 -0.20925534973E+01  0.66417669911E+01  0.10491149169E+02  0.51100000000E-03 0.  1.
        -12    1    3    3    0    0  0.14381923184E+02  0.30166136011E+02 -0.27314774311E+02  0.43161700291E+02  0.00000000000E+00 0.  1.
</event>
<event>
 7    1  0.2385752E-015  0.9000772E+02  0.7816164E-02  0.1186339E+00
        -11   -1    0    0    0    0  0.00000000000E+00  0.00000000000E+00  0.45593999997E+02  0.45594000000E+02  0.51100000000E-03 0. -1.
         11   -1    0    0    0    0 -0.00000000000E+00 -0.00000000000E+00 -0.45593999997E+02  0.45594000000E+02  0.51100000000E-03 0.  1.
    9900012    2    1    2    0    0  0.68226732752E+00 -0.86499228569E+00 -0.42350777411E+00  0.90007720713E+02  0.89999981826E+02 0.  0.
        -12    1    1    2    0    0 -0.68226732752E+00  0.86499228569E+00  0.42350777411E+00  0.11802792870E+01  0.00000000000E+00 0.  1.
         11    1    3    3    0    0  0.30761348000E+02  0.17716540305E+02  0.53925153829E+01  0.35905647934E+02  0.51100000000E-03 0. -1.
        -11    1    3    3    0    0  0.43782608012E+01  0.79050767448E+01  0.34351961061E+01  0.96674701206E+01  0.51100000000E-03 0.  1.
        -12    1    3    3    0    0 -0.34457341474E+02 -0.26486609336E+02 -0.92512192631E+01  0.44434602658E+02  0.00000000000E+00 0.  1.
</event>
<event>
 7    1  0.2385752E-015  0.9000773E+02  0.7816164E-02  0.1186339E+00
        -11   -1    0    0    0    0  0.00000000000E+00  0.00000000000E+00  0.45593999997E+02  0.45594000000E+02  0.51100000000E-03 0.  1.
         11   -1    0    0    0    0 -0.00000000000E+00 -0.00000000000E+00 -0.45593999997E+02  0.45594000000E+02  0.51100000000E-03 0. -1.
    9900012    2    1    2    0    0 -0.11547885281E+01 -0.15845342810E+00  0.18544028698E+00  0.90007732177E+02  0.89999993442E+02 0.  0.
        -12    1    1    2    0    0  0.11547885281E+01  0.15845342810E+00 -0.18544028698E+00  0.11802678228E+01  0.00000000000E+00 0.  1.
         11    1    3    3    0    0  0.33654647794E+02  0.25578144499E+01 -0.15018293542E+02  0.36942209924E+02  0.51100000000E-03 0. -1.
        -11    1    3    3    0    0  0.59457243805E+01 -0.64040662823E+01 -0.14992026032E+01  0.88663020512E+01  0.51100000000E-03 0.  1.
        -12    1    3    3    0    0 -0.40755160703E+02  0.36877984043E+01  0.16702936432E+02  0.44199220202E+02  0.00000000000E+00 0.  1.
</event>
<event>
 7    1  0.2385752E-015  0.9000702E+02  0.7816164E-02  0.1186340E+00
        -11   -1    0    0    0    0  0.00000000000E+00  0.00000000000E+00  0.45593999997E+02  0.45594000000E+02  0.51100000000E-03 0. -1.
         11   -1    0    0    0    0 -0.00000000000E+00 -0.00000000000E+00 -0.45593999997E+02  0.45594000000E+02  0.51100000000E-03 0.  1.
    9900012    2    1    2    0    0  0.10776581048E+01 -0.26899191954E+00 -0.40124949313E+00  0.90007023794E+02  0.89999275705E+02 0.  0.
        -12    1    1    2    0    0 -0.10776581048E+01  0.26899191954E+00  0.40124949313E+00  0.11809762061E+01  0.00000000000E+00 0.  1.
         11    1    3    3    0    0 -0.69312031469E+01  0.57112918407E+01 -0.46668761988E+01  0.10121272908E+02  0.51100000000E-03 0. -1.
        -11    1    3    3    0    0  0.49734139218E+01 -0.29703125961E+02 -0.27050668739E+02  0.40481467579E+02  0.51100000000E-03 0.  1.
         12    1    3    3    0    0  0.30354473299E+01  0.23722842201E+02  0.31316295444E+02  0.39404283307E+02  0.00000000000E+00 0. -1.
</event>
<event>
 7    1  0.2385752E-015  0.9000774E+02  0.7816164E-02  0.1186339E+00
        -11   -1    0    0    0    0  0.00000000000E+00  0.00000000000E+00  0.45593999997E+02  0.45594000000E+02  0.51100000000E-03 0. -1.
         11   -1    0    0    0    0 -0.00000000000E+00 -0.00000000000E+00 -0.45593999997E+02  0.45594000000E+02  0.51100000000E-03 0.  1.
    9900012    2    1    2    0    0 -0.70137240675E+00 -0.30541580341E+00  0.89878115150E+00  0.90007741713E+02  0.90000003104E+02 0.  0.
        -12    1    1    2    0    0  0.70137240675E+00  0.30541580341E+00 -0.89878115150E+00  0.11802582871E+01  0.00000000000E+00 0.  1.
         11    1    3    3    0    0 -0.65296960168E+01  0.50924907491E+01 -0.22855222841E+01  0.85903436761E+01  0.51100000000E-03 0. -1.
        -11    1    3    3    0    0 -0.25528987551E+02 -0.13521318932E+02 -0.25209942112E+02  0.38341836844E+02  0.51100000000E-03 0.  1.
         12    1    3    3    0    0  0.31357311161E+02  0.81234123791E+01  0.28394245547E+02  0.43075561193E+02  0.00000000000E+00 0. -1.
</event>
<event>
 7    1  0.2385752E-015  0.9000736E+02  0.7816164E-02  0.1186340E+00
        -11   -1    0    0    0    0  0.00000000000E+00  0.00000000000E+00  0.45593999997E+02  0.45594000000E+02  0.51100000000E-03 0. -1.
         11   -1    0    0    0    0 -0.00000000000E+00 -0.00000000000E+00 -0.45593999997E+02  0.45594000000E+02  0.51100000000E-03 0.  1.
    9900012    2    1    2    0    0  0.64894611889E+00 -0.16478809702E+00  0.97243328254E+00  0.90007359212E+02  0.89999615552E+02 0.  0.
        -12    1    1    2    0    0 -0.64894611889E+00  0.16478809702E+00 -0.97243328254E+00  0.11806407884E+01  0.00000000000E+00 0.  1.
         11    1    3    3    0    0 -0.28690487972E+02  0.14603125418E+02  0.18023339250E+02  0.36894933664E+02  0.51100000000E-03 0. -1.
        -11    1    3    3    0    0 -0.35932626370E+01 -0.38378207919E+01  0.85182828223E+01  0.10010072293E+02  0.51100000000E-03 0.  1.
        -12    1    3    3    0    0  0.32932696728E+02 -0.10930092723E+02 -0.25569188790E+02  0.43102353255E+02  0.00000000000E+00 0.  1.
</event>
<event>
 7    1  0.2385752E-015  0.9000775E+02  0.7816164E-02  0.1186339E+00
        -11   -1    0    0    0    0  0.00000000000E+00  0.00000000000E+00  0.45593999997E+02  0.45594000000E+02  0.51100000000E-03 0. -1.
         11   -1    0    0    0    0 -0.00000000000E+00 -0.00000000000E+00 -0.45593999997E+02  0.45594000000E+02  0.51100000000E-03 0.  1.
    9900012    2    1    2    0    0  0.94710032585E+00  0.61389929913E+00 -0.34513935950E+00  0.90007748944E+02  0.90000010430E+02 0.  0.
        -12    1    1    2    0    0 -0.94710032585E+00 -0.61389929913E+00  0.34513935950E+00  0.11802510556E+01  0.00000000000E+00 0.  1.
         11    1    3    3    0    0 -0.90903135247E+01  0.53838307659E+01  0.15684745968E+01  0.10680802709E+02  0.51100000000E-03 0. -1.
        -11    1    3    3    0    0  0.19075152509E+02  0.34241572393E+02  0.63276042747E+00  0.39201366165E+02  0.51100000000E-03 0.  1.
         12    1    3    3    0    0 -0.90377386586E+01 -0.39011503860E+02 -0.25463743838E+01  0.40125580070E+02  0.00000000000E+00 0. -1.
</event>
<event>
 7    1  0.2385752E-015  0.9000784E+02  0.7816164E-02  0.1186339E+00
        -11   -1    0    0    0    0  0.00000000000E+00  0.00000000000E+00  0.45593999997E+02  0.45594000000E+02  0.51100000000E-03 0.  1.
         11   -1    0    0    0    0 -0.00000000000E+00 -0.00000000000E+00 -0.45593999997E+02  0.45594000000E+02  0.51100000000E-03 0. -1.
    9900012    2    1    2    0    0 -0.75026694903E+00  0.29043555096E-01  0.91051450670E+00  0.90007838702E+02  0.90000101373E+02 0.  0.
        -12    1    1    2    0    0  0.75026694903E+00 -0.29043555096E-01 -0.91051450670E+00  0.11801612982E+01  0.00000000000E+00 0.  1.
         11    1    3    3    0    0  0.53419164983E+01  0.82675296989E+01  0.92972334157E+01  0.13539817896E+02  0.51100000000E-03 0.  1.
        -11    1    3    3    0    0  0.33662983315E+02 -0.92131124257E+01  0.31998497464E+01  0.35047352609E+02  0.51100000000E-03 0. -1.
         12    1    3    3    0    0 -0.39755166762E+02  0.97462628185E+00 -0.11586568655E+02  0.41420668197E+02  0.00000000000E+00 0. -1.
</event>
<event>
 7    1  0.2385752E-015  0.9000783E+02  0.7816164E-02  0.1186339E+00
        -11   -1    0    0    0    0  0.00000000000E+00  0.00000000000E+00  0.45593999997E+02  0.45594000000E+02  0.51100000000E-03 0. -1.
         11   -1    0    0    0    0 -0.00000000000E+00 -0.00000000000E+00 -0.45593999997E+02  0.45594000000E+02  0.51100000000E-03 0.  1.
    9900012    2    1    2    0    0 -0.45283948855E+00 -0.94428235968E+00 -0.54412301742E+00  0.90007829404E+02  0.90000091952E+02 0.  0.
        -12    1    1    2    0    0  0.45283948855E+00  0.94428235968E+00  0.54412301742E+00  0.11801705958E+01  0.00000000000E+00 0.  1.
         11    1    3    3    0    0  0.31513124319E+01 -0.53788271627E+01 -0.69348236487E+01  0.93249306158E+01  0.51100000000E-03 0. -1.
        -11    1    3    3    0    0  0.10608946708E+02  0.21353872820E+02 -0.29869992328E+02  0.38219812619E+02  0.51100000000E-03 0.  1.
         12    1    3    3    0    0 -0.14213098629E+02 -0.16919328017E+02  0.36260692959E+02  0.42463086170E+02  0.00000000000E+00 0. -1.
</event>
<event>
 7    1  0.2385752E-015  0.9000773E+02  0.7816164E-02  0.1186339E+00
        -11   -1    0    0    0    0  0.00000000000E+00  0.00000000000E+00  0.45593999997E+02  0.45594000000E+02  0.51100000000E-03 0. -1.
         11   -1    0    0    0    0 -0.00000000000E+00 -0.00000000000E+00 -0.45593999997E+02  0.45594000000E+02  0.51100000000E-03 0.  1.
    9900012    2    1    2    0    0 -0.11561131275E+01  0.12707306926E-01  0.23720943246E+00  0.90007734202E+02  0.89999995493E+02 0.  0.
        -12    1    1    2    0    0  0.11561131275E+01 -0.12707306926E-01 -0.23720943246E+00  0.11802657981E+01  0.00000000000E+00 0.  1.
         11    1    3    3    0    0  0.23229822852E+02  0.25584742582E+02  0.13550645602E+02  0.37119047930E+02  0.51100000000E-03 0. -1.
        -11    1    3    3    0    0  0.20903204407E+01  0.10545497661E+01  0.89391876269E+01  0.92407029194E+01  0.51100000000E-03 0.  1.
        -12    1    3    3    0    0 -0.26476256420E+02 -0.26626585041E+02 -0.22252623796E+02  0.43647983353E+02  0.00000000000E+00 0.  1.
</event>
<event>
 7    1  0.2385752E-015  0.9000778E+02  0.7816164E-02  0.1186339E+00
        -11   -1    0    0    0    0  0.00000000000E+00  0.00000000000E+00  0.45593999997E+02  0.45594000000E+02  0.51100000000E-03 0. -1.
         11   -1    0    0    0    0 -0.00000000000E+00 -0.00000000000E+00 -0.45593999997E+02  0.45594000000E+02  0.51100000000E-03 0.  1.
    9900012    2    1    2    0    0 -0.95870472050E+00  0.58000595025E+00  0.37066933836E+00  0.90007780782E+02  0.90000042689E+02 0.  0.
        -12    1    1    2    0    0  0.95870472050E+00 -0.58000595025E+00 -0.37066933836E+00  0.11802192177E+01  0.00000000000E+00 0.  1.
         11    1    3    3    0    0  0.17879792565E+01 -0.89672197298E+01 -0.71455074073E+01  0.11604575644E+02  0.51100000000E-03 0. -1.
        -11    1    3    3    0    0  0.11199438241E+02 -0.25293476998E+02 -0.18017388942E+02  0.33012326487E+02  0.51100000000E-03 0.  1.
         12    1    3    3    0    0 -0.13946122218E+02  0.34840702678E+02  0.25533565688E+02  0.45390878651E+02  0.00000000000E+00 0. -1.
</event>
<event>
 7    1  0.2385752E-015  0.9000796E+02  0.7816164E-02  0.1186339E+00
        -11   -1    0    0    0    0  0.00000000000E+00  0.00000000000E+00  0.45593999997E+02  0.45594000000E+02  0.51100000000E-03 0.  1.
         11   -1    0    0    0    0 -0.00000000000E+00 -0.00000000000E+00 -0.45593999997E+02  0.45594000000E+02  0.51100000000E-03 0. -1.
    9900012    2    1    2    0    0  0.88536099983E+00  0.60022569282E+00 -0.49836620396E+00  0.90007955994E+02  0.90000220213E+02 0.  0.
        -12    1    1    2    0    0 -0.88536099983E+00 -0.60022569282E+00  0.49836620396E+00  0.11800440058E+01  0.00000000000E+00 0.  1.
         11    1    3    3    0    0  0.15759760269E+01  0.90049783873E+01  0.73983715594E+01  0.11760494810E+02  0.51100000000E-03 0. -1.
        -11    1    3    3    0    0  0.52648076793E+01  0.12334638583E+02  0.30994405944E+02  0.33771507354E+02  0.51100000000E-03 0.  1.
         12    1    3    3    0    0 -0.59554227064E+01 -0.20739391278E+02 -0.38891143708E+02  0.44475953830E+02  0.00000000000E+00 0. -1.
</event>
<event>
 7    1  0.2385752E-015  0.9000779E+02  0.7816164E-02  0.1186339E+00
        -11   -1    0    0    0    0  0.00000000000E+00  0.00000000000E+00  0.45593999997E+02  0.45594000000E+02  0.51100000000E-03 0.  1.
         11   -1    0    0    0    0 -0.00000000000E+00 -0.00000000000E+00 -0.45593999997E+02  0.45594000000E+02  0.51100000000E-03 0. -1.
    9900012    2    1    2    0    0  0.11274566644E+01  0.15539031898E+00  0.31241426467E+00  0.90007785039E+02  0.90000047002E+02 0.  0.
        -12    1    1    2    0    0 -0.11274566644E+01 -0.15539031898E+00 -0.31241426467E+00  0.11802149610E+01  0.00000000000E+00 0.  1.
         11    1    3    3    0    0  0.18427796833E+00  0.42971390999E+01  0.78390238831E+01  0.89414572925E+01  0.51100000000E-03 0. -1.
        -11    1    3    3    0    0  0.94791903742E+01  0.21387256934E+02  0.28004453423E+02  0.36489987957E+02  0.51100000000E-03 0.  1.
         12    1    3    3    0    0 -0.85360116781E+01 -0.25529005715E+02 -0.35531063042E+02  0.44576339789E+02  0.00000000000E+00 0. -1.
</event>
<event>
 7    1  0.2385752E-015  0.9000772E+02  0.7816164E-02  0.1186339E+00
        -11   -1    0    0    0    0  0.00000000000E+00  0.00000000000E+00  0.45593999997E+02  0.45594000000E+02  0.51100000000E-03 0. -1.
         11   -1    0    0    0    0 -0.00000000000E+00 -0.00000000000E+00 -0.45593999997E+02  0.45594000000E+02  0.51100000000E-03 0.  1.
    9900012    2    1    2    0    0 -0.63897056395E+00  0.93920503579E+00  0.32044145477E+00  0.90007715201E+02  0.89999976242E+02 0.  0.
        -12    1    1    2    0    0  0.63897056395E+00 -0.93920503579E+00 -0.32044145477E+00  0.11802847990E+01  0.00000000000E+00 0.  1.
         11    1    3    3    0    0 -0.10301725879E+02  0.19343292486E+01  0.60442583210E+00  0.10499167423E+02  0.51100000000E-03 0. -1.
        -11    1    3    3    0    0 -0.29423573570E+02 -0.20419305990E+02 -0.14815478244E+01  0.35845358458E+02  0.51100000000E-03 0.  1.
         12    1    3    3    0    0  0.39086328885E+02  0.19424181777E+02  0.11975634470E+01  0.43663189320E+02  0.00000000000E+00 0. -1.
</event>
<event>
 7    1  0.2385752E-015  0.9000771E+02  0.7816164E-02  0.1186339E+00
        -11   -1    0    0    0    0  0.00000000000E+00  0.00000000000E+00  0.45593999997E+02  0.45594000000E+02  0.51100000000E-03 0. -1.
         11   -1    0    0    0    0 -0.00000000000E+00 -0.00000000000E+00 -0.45593999997E+02  0.45594000000E+02  0.51100000000E-03 0.  1.
    9900012    2    1    2    0    0  0.48496328915E+00 -0.79469073335E+00 -0.72551469455E+00  0.90007705831E+02  0.89999966748E+02 0.  0.
        -12    1    1    2    0    0 -0.48496328915E+00  0.79469073335E+00  0.72551469455E+00  0.11802941691E+01  0.00000000000E+00 0.  1.
         11    1    3    3    0    0 -0.79478889418E+01 -0.26395107238E+01 -0.17057696112E+00  0.83764582165E+01  0.51100000000E-03 0. -1.
        -11    1    3    3    0    0  0.79277782047E+01 -0.30532509332E+02  0.25105064542E+02  0.40315605654E+02  0.51100000000E-03 0.  1.
         12    1    3    3    0    0  0.50507402618E+00  0.32377329322E+02 -0.25660002275E+02  0.41315641960E+02  0.00000000000E+00 0. -1.
</event>
<event>
 7    1  0.2385752E-015  0.9000776E+02  0.7816164E-02  0.1186339E+00
        -11   -1    0    0    0    0  0.00000000000E+00  0.00000000000E+00  0.45593999997E+02  0.45594000000E+02  0.51100000000E-03 0. -1.
         11   -1    0    0    0    0 -0.00000000000E+00 -0.00000000000E+00 -0.45593999997E+02  0.45594000000E+02  0.51100000000E-03 0.  1.
    9900012    2    1    2    0    0 -0.11029675696E+01 -0.31502676836E+00  0.27783864530E+00  0.90007756958E+02  0.90000018550E+02 0.  0.
        -12    1    1    2    0    0  0.11029675696E+01  0.31502676836E+00 -0.27783864530E+00  0.11802430416E+01  0.00000000000E+00 0.  1.
         11    1    3    3    0    0  0.63377879978E+01  0.12621317760E+01 -0.45328251159E+01  0.78934806719E+01  0.51100000000E-03 0. -1.
        -11    1    3    3    0    0 -0.70272462480E+01  0.23762997977E+02 -0.30091332758E+02  0.38981413136E+02  0.51100000000E-03 0.  1.
         12    1    3    3    0    0 -0.41350931938E+00 -0.25340156521E+02  0.34901996520E+02  0.43132863150E+02  0.00000000000E+00 0. -1.
</event>
<event>
 7    1  0.2385752E-015  0.9000765E+02  0.7816164E-02  0.1186339E+00
        -11   -1    0    0    0    0  0.00000000000E+00  0.00000000000E+00  0.45593999997E+02  0.45594000000E+02  0.51100000000E-03 0.  1.
         11   -1    0    0    0    0 -0.00000000000E+00 -0.00000000000E+00 -0.45593999997E+02  0.45594000000E+02  0.51100000000E-03 0. -1.
    9900012    2    1    2    0    0 -0.31638152215E+00  0.11102337291E+01 -0.24597575902E+00  0.90007652477E+02  0.89999912690E+02 0.  0.
        -12    1    1    2    0    0  0.31638152215E+00 -0.11102337291E+01  0.24597575902E+00  0.11803475229E+01  0.00000000000E+00 0.  1.
         11    1    3    3    0    0  0.20264887458E+01  0.46303134111E+01  0.76030536791E+01  0.91297800867E+01  0.51100000000E-03 0. -1.
        -11    1    3    3    0    0 -0.11332130807E+02 -0.10463027024E+02  0.34095932688E+02  0.37422249388E+02  0.51100000000E-03 0.  1.
         12    1    3    3    0    0  0.89892605389E+01  0.69429473423E+01 -0.41944962126E+02  0.43455623003E+02  0.00000000000E+00 0. -1.
</event>
<event>
 7    1  0.2385752E-015  0.9000695E+02  0.7816164E-02  0.1186341E+00
        -11   -1    0    0    0    0  0.00000000000E+00  0.00000000000E+00  0.45593999997E+02  0.45594000000E+02  0.51100000000E-03 0. -1.
         11   -1    0    0    0    0 -0.00000000000E+00 -0.00000000000E+00 -0.45593999997E+02  0.45594000000E+02  0.51100000000E-03 0.  1.
    9900012    2    1    2    0    0  0.49212892605E+00  0.10666222438E+01  0.12251235737E+00  0.90006948279E+02  0.89999199192E+02 0.  0.
        -12    1    1    2    0    0 -0.49212892605E+00 -0.10666222438E+01 -0.12251235737E+00  0.11810517213E+01  0.00000000000E+00 0.  1.
         11    1    3    3    0    0  0.10773155787E+02  0.19797299372E+02  0.31850140270E+02  0.39018269868E+02  0.51100000000E-03 0. -1.
        -11    1    3    3    0    0  0.16739639987E+00  0.81304402759E+01 -0.10264366131E-01  0.81321698367E+01  0.51100000000E-03 0.  1.
        -12    1    3    3    0    0 -0.10448423261E+02 -0.26861117404E+02 -0.31717363546E+02  0.42856508574E+02  0.00000000000E+00 0.  1.
</event>
<event>
 7    1  0.2743611E-015  0.9000834E+02  0.7816164E-02  0.1186338E+00
        -11   -1    0    0    0    0  0.00000000000E+00  0.00000000000E+00  0.45593999997E+02  0.45594000000E+02  0.51100000000E-03 0.  1.
         11   -1    0    0    0    0 -0.00000000000E+00 -0.00000000000E+00 -0.45593999997E+02  0.45594000000E+02  0.51100000000E-03 0. -1.
    9900012    2    1    2    0    0  0.59187913046E-01 -0.10504950513E+01 -0.53344023832E+00  0.90008338375E+02  0.90000607639E+02 0.  0.
        -12    1    1    2    0    0 -0.59187913046E-01  0.10504950513E+01  0.53344023832E+00  0.11796616251E+01  0.00000000000E+00 0.  1.
         11    1    3    3    0    0 -0.30532571653E+02 -0.21427592029E+02 -0.14134446162E+02  0.39889374531E+02  0.51100000000E-03 0. -1.
        -11    1    3    3    0    0  0.46878864514E+01 -0.11605531698E+01 -0.85367734968E+01  0.98081427924E+01  0.51100000000E-03 0.  1.
        -12    1    3    3    0    0  0.25903873115E+02  0.21537650147E+02  0.22137779421E+02  0.40310821052E+02  0.00000000000E+00 0.  1.
</event>
<event>
 7    1  0.2385752E-015  0.9000768E+02  0.7816164E-02  0.1186339E+00
        -11   -1    0    0    0    0  0.00000000000E+00  0.00000000000E+00  0.45593999997E+02  0.45594000000E+02  0.51100000000E-03 0. -1.
         11   -1    0    0    0    0 -0.00000000000E+00 -0.00000000000E+00 -0.45593999997E+02  0.45594000000E+02  0.51100000000E-03 0.  1.
    9900012    2    1    2    0    0 -0.76078490103E+00  0.15499255089E+00 -0.88900813497E+00  0.90007681475E+02  0.89999942070E+02 0.  0.
        -12    1    1    2    0    0  0.76078490103E+00 -0.15499255089E+00  0.88900813497E+00  0.11803185250E+01  0.00000000000E+00 0.  1.
         11    1    3    3    0    0 -0.67902266791E+01 -0.90382850594E+01  0.17599030158E+02  0.20917065711E+02  0.51100000000E-03 0. -1.
        -11    1    3    3    0    0  0.10145181656E+02  0.33090507167E+02  0.54257829668E+01  0.35033491069E+02  0.51100000000E-03 0.  1.
         12    1    3    3    0    0 -0.41157398780E+01 -0.23897229557E+02 -0.23913821260E+02  0.34057124695E+02  0.00000000000E+00 0. -1.
</event>
<event>
 7    1  0.2385752E-015  0.9000769E+02  0.7816164E-02  0.1186339E+00
        -11   -1    0    0    0    0  0.00000000000E+00  0.00000000000E+00  0.45593999997E+02  0.45594000000E+02  0.51100000000E-03 0.  1.
         11   -1    0    0    0    0 -0.00000000000E+00 -0.00000000000E+00 -0.45593999997E+02  0.45594000000E+02  0.51100000000E-03 0. -1.
    9900012    2    1    2    0    0 -0.25252048254E+00 -0.40761191116E+00 -0.10785209891E+01  0.90007694282E+02  0.89999955046E+02 0.  0.
        -12    1    1    2    0    0  0.25252048254E+00  0.40761191116E+00  0.10785209891E+01  0.11803057181E+01  0.00000000000E+00 0.  1.
         11    1    3    3    0    0  0.85173585191E+01 -0.52483357928E+01 -0.18522644883E+01  0.10174542188E+02  0.51100000000E-03 0. -1.
        -11    1    3    3    0    0  0.99678131243E+01 -0.18756108179E+02  0.30722349195E+02  0.37349854522E+02  0.51100000000E-03 0.  1.
         12    1    3    3    0    0 -0.18737692126E+02  0.23596832060E+02 -0.29948605696E+02  0.42483297572E+02  0.00000000000E+00 0. -1.
</event>
<event>
 7    1  0.2385752E-015  0.9000775E+02  0.7816164E-02  0.1186339E+00
        -11   -1    0    0    0    0  0.00000000000E+00  0.00000000000E+00  0.45593999997E+02  0.45594000000E+02  0.51100000000E-03 0. -1.
         11   -1    0    0    0    0 -0.00000000000E+00 -0.00000000000E+00 -0.45593999997E+02  0.45594000000E+02  0.51100000000E-03 0.  1.
    9900012    2    1    2    0    0 -0.28453480910E-01 -0.11060167540E+01  0.41098861325E+00  0.90007748204E+02  0.90000009681E+02 0.  0.
        -12    1    1    2    0    0  0.28453480910E-01  0.11060167540E+01 -0.41098861325E+00  0.11802517955E+01  0.00000000000E+00 0.  1.
         11    1    3    3    0    0 -0.40086293112E+02  0.29233790877E+01 -0.34486912862E+01  0.40340432727E+02  0.51100000000E-03 0. -1.
        -11    1    3    3    0    0  0.59597369166E+00  0.77774421371E+01  0.33096625650E+01  0.84733498331E+01  0.51100000000E-03 0.  1.
        -12    1    3    3    0    0  0.39461865939E+02 -0.11806837979E+02  0.55001733447E+00  0.41193965645E+02  0.00000000000E+00 0.  1.
</event>
<event>
 7    1  0.2385752E-015  0.9000743E+02  0.7816164E-02  0.1186340E+00
        -11   -1    0    0    0    0  0.00000000000E+00  0.00000000000E+00  0.45593999997E+02  0.45594000000E+02  0.51100000000E-03 0.  1.
         11   -1    0    0    0    0 -0.00000000000E+00 -0.00000000000E+00 -0.45593999997E+02  0.45594000000E+02  0.51100000000E-03 0. -1.
    9900012    2    1    2    0    0 -0.88176119294E-01  0.97491085759E+00 -0.65994629306E+00  0.90007425852E+02  0.89999683073E+02 0.  0.
        -12    1    1    2    0    0  0.88176119294E-01 -0.97491085759E+00  0.65994629306E+00  0.11805741476E+01  0.00000000000E+00 0.  1.
         11    1    3    3    0    0 -0.83283301954E+01  0.55263706094E+01  0.37939128945E+00  0.10002289436E+02  0.51100000000E-03 0. -1.
        -11    1    3    3    0    0 -0.28424273268E+02 -0.23211973585E+02 -0.97113996773E+01  0.37961115796E+02  0.51100000000E-03 0.  1.
         12    1    3    3    0    0  0.36664427344E+02  0.18660513833E+02  0.86720620948E+01  0.42044020620E+02  0.00000000000E+00 0. -1.
</event>
<event>
 7    1  0.2385752E-015  0.9000828E+02  0.7816164E-02  0.1186338E+00
        -11   -1    0    0    0    0  0.00000000000E+00  0.00000000000E+00  0.45593999997E+02  0.45594000000E+02  0.51100000000E-03 0.  1.
         11   -1    0    0    0    0 -0.00000000000E+00 -0.00000000000E+00 -0.45593999997E+02  0.45594000000E+02  0.51100000000E-03 0. -1.
    9900012    2    1    2    0    0 -0.53698332035E-01 -0.11747276942E+01 -0.94146837228E-01  0.90008282960E+02  0.90000551494E+02 0.  0.
        -12    1    1    2    0    0  0.53698332035E-01  0.11747276942E+01  0.94146837228E-01  0.11797170396E+01  0.00000000000E+00 0.  1.
         11    1    3    3    0    0 -0.12564463966E+02  0.82332788508E+01  0.66481841768E+01  0.16427141824E+02  0.51100000000E-03 0. -1.
        -11    1    3    3    0    0 -0.26518651901E+02  0.85467440740E+01  0.65291549596E+01  0.28616701377E+02  0.51100000000E-03 0.  1.
         12    1    3    3    0    0  0.39029417536E+02 -0.17954750619E+02 -0.13271485974E+02  0.44964439760E+02  0.00000000000E+00 0. -1.
</event>
<event>
 7    1  0.2385752E-015  0.9000780E+02  0.7816164E-02  0.1186339E+00
        -11   -1    0    0    0    0  0.00000000000E+00  0.00000000000E+00  0.45593999997E+02  0.45594000000E+02  0.51100000000E-03 0. -1.
         11   -1    0    0    0    0 -0.00000000000E+00 -0.00000000000E+00 -0.45593999997E+02  0.45594000000E+02  0.51100000000E-03 0.  1.
    9900012    2    1    2    0    0 -0.21184493565E+00 -0.76930500881E-01  0.11584797034E+01  0.90007800101E+02  0.90000062262E+02 0.  0.
        -12    1    1    2    0    0  0.21184493565E+00  0.76930500881E-01 -0.11584797034E+01  0.11801998991E+01  0.00000000000E+00 0.  1.
         11    1    3    3    0    0 -0.57912103977E+00  0.47485093016E+01 -0.91349089697E+01  0.10311657670E+02  0.51100000000E-03 0. -1.
        -11    1    3    3    0    0 -0.92360312857E+01  0.23694191917E+02 -0.23373409815E+02  0.34540342951E+02  0.51100000000E-03 0.  1.
         12    1    3    3    0    0  0.96033073898E+01 -0.28519631719E+02  0.33666798488E+02  0.45155799480E+02  0.00000000000E+00 0. -1.
</event>
<event>
 7    1  0.2385752E-015  0.9000796E+02  0.7816164E-02  0.1186339E+00
        -11   -1    0    0    0    0  0.00000000000E+00  0.00000000000E+00  0.45593999997E+02  0.45594000000E+02  0.51100000000E-03 0.  1.
         11   -1    0    0    0    0 -0.00000000000E+00 -0.00000000000E+00 -0.45593999997E+02  0.45594000000E+02  0.51100000000E-03 0. -1.
    9900012    2    1    2    0    0 -0.29700917166E+00 -0.33094285091E+00  0.10930536300E+01  0.90007955994E+02  0.90000220213E+02 0.  0.
        -12    1    1    2    0    0  0.29700917166E+00  0.33094285091E+00 -0.10930536300E+01  0.11800440062E+01  0.00000000000E+00 0.  1.
         11    1    3    3    0    0  0.41569909925E+01 -0.88953721806E+01  0.52749452619E+01  0.11145997852E+02  0.51100000000E-03 0. -1.
        -11    1    3    3    0    0  0.12575536379E+02  0.26651580971E+02  0.26328008709E+02  0.39517273771E+02  0.51100000000E-03 0.  1.
         12    1    3    3    0    0 -0.17029536543E+02 -0.18087151641E+02 -0.30509900341E+02  0.39344684370E+02  0.00000000000E+00 0. -1.
</event>
<event>
 7    1  0.2385752E-015  0.9000748E+02  0.7816164E-02  0.1186340E+00
        -11   -1    0    0    0    0  0.00000000000E+00  0.00000000000E+00  0.45593999997E+02  0.45594000000E+02  0.51100000000E-03 0.  1.
         11   -1    0    0    0    0 -0.00000000000E+00 -0.00000000000E+00 -0.45593999997E+02  0.45594000000E+02  0.51100000000E-03 0. -1.
    9900012    2    1    2    0    0  0.54124691303E+00  0.10172198806E+01 -0.25680852184E+00  0.90007476759E+02  0.89999734651E+02 0.  0.
        -12    1    1    2    0    0 -0.54124691303E+00 -0.10172198806E+01  0.25680852184E+00  0.11805232413E+01  0.00000000000E+00 0.  1.
         11    1    3    3    0    0 -0.48208696045E+01  0.33553046440E+01 -0.72733253009E+01  0.93488028213E+01  0.51100000000E-03 0. -1.
        -11    1    3    3    0    0  0.37010322322E+01  0.34648183078E+02 -0.14606995465E+02  0.37783045760E+02  0.51100000000E-03 0.  1.
         12    1    3    3    0    0  0.16610842853E+01 -0.36986267841E+02  0.21623512244E+02  0.42875628177E+02  0.00000000000E+00 0. -1.
</event>
<event>
 7    1  0.2385752E-015  0.9000780E+02  0.7816164E-02  0.1186339E+00
        -11   -1    0    0    0    0  0.00000000000E+00  0.00000000000E+00  0.45593999997E+02  0.45594000000E+02  0.51100000000E-03 0. -1.
         11   -1    0    0    0    0 -0.00000000000E+00 -0.00000000000E+00 -0.45593999997E+02  0.45594000000E+02  0.51100000000E-03 0.  1.
    9900012    2    1    2    0    0 -0.70934085323E+00 -0.64753867047E+00 -0.68586504674E+00  0.90007795934E+02  0.90000058040E+02 0.  0.
        -12    1    1    2    0    0  0.70934085323E+00  0.64753867047E+00  0.68586504674E+00  0.11802040663E+01  0.00000000000E+00 0.  1.
         11    1    3    3    0    0 -0.15409359704E+02  0.21003691551E+02  0.31495251808E+02  0.40872415049E+02  0.51100000000E-03 0. -1.
        -11    1    3    3    0    0  0.92896772129E+01 -0.28265932381E+01  0.18360754212E+01  0.98822520342E+01  0.51100000000E-03 0.  1.
        -12    1    3    3    0    0  0.54103416377E+01 -0.18824636984E+02 -0.34017192276E+02  0.39253128850E+02  0.00000000000E+00 0.  1.
</event>
<event>
 7    1  0.2385752E-015  0.9000774E+02  0.7816164E-02  0.1186339E+00
        -11   -1    0    0    0    0  0.00000000000E+00  0.00000000000E+00  0.45593999997E+02  0.45594000000E+02  0.51100000000E-03 0.  1.
         11   -1    0    0    0    0 -0.00000000000E+00 -0.00000000000E+00 -0.45593999997E+02  0.45594000000E+02  0.51100000000E-03 0. -1.
    9900012    2    1    2    0    0 -0.31451364103E+00  0.85193540209E+00 -0.75386391445E+00  0.90007735809E+02  0.89999997121E+02 0.  0.
        -12    1    1    2    0    0  0.31451364103E+00 -0.85193540209E+00  0.75386391445E+00  0.11802641913E+01  0.00000000000E+00 0.  1.
         11    1    3    3    0    0  0.10374561694E+02  0.43208958015E+01 -0.31710274035E+00  0.11242874423E+02  0.51100000000E-03 0. -1.
        -11    1    3    3    0    0  0.21411694729E+02 -0.16073280209E+02  0.24433079651E+02  0.36246191378E+02  0.51100000000E-03 0.  1.
         12    1    3    3    0    0 -0.32100770065E+02  0.12604319810E+02 -0.24869840825E+02  0.42518670008E+02  0.00000000000E+00 0. -1.
</event>
<event>
 7    1  0.2385752E-015  0.9000769E+02  0.7816164E-02  0.1186339E+00
        -11   -1    0    0    0    0  0.00000000000E+00  0.00000000000E+00  0.45593999997E+02  0.45594000000E+02  0.51100000000E-03 0.  1.
         11   -1    0    0    0    0 -0.00000000000E+00 -0.00000000000E+00 -0.45593999997E+02  0.45594000000E+02  0.51100000000E-03 0. -1.
    9900012    2    1    2    0    0 -0.10587312963E-01 -0.10235334271E+01 -0.58769842174E+00  0.90007694022E+02  0.89999954783E+02 0.  0.
        -12    1    1    2    0    0  0.10587312963E-01  0.10235334271E+01  0.58769842174E+00  0.11803059784E+01  0.00000000000E+00 0.  1.
         11    1    3    3    0    0  0.41332736048E+01 -0.94603872509E+01  0.70621002337E+01  0.12508242786E+02  0.51100000000E-03 0. -1.
        -11    1    3    3    0    0 -0.26948957719E+02  0.12713959351E+02  0.23996388239E+02  0.38258564182E+02  0.51100000000E-03 0.  1.
         12    1    3    3    0    0  0.22805096801E+02 -0.42771055269E+01 -0.31646186894E+02  0.39240887053E+02  0.00000000000E+00 0. -1.
</event>
<event>
 7    1  0.2385752E-015  0.9000778E+02  0.7816164E-02  0.1186339E+00
        -11   -1    0    0    0    0  0.00000000000E+00  0.00000000000E+00  0.45593999997E+02  0.45594000000E+02  0.51100000000E-03 0. -1.
         11   -1    0    0    0    0 -0.00000000000E+00 -0.00000000000E+00 -0.45593999997E+02  0.45594000000E+02  0.51100000000E-03 0.  1.
    9900012    2    1    2    0    0  0.70671167147E+00 -0.69694255328E+00 -0.63854959176E+00  0.90007781423E+02  0.90000043337E+02 0.  0.
        -12    1    1    2    0    0 -0.70671167147E+00  0.69694255328E+00  0.63854959176E+00  0.11802185773E+01  0.00000000000E+00 0.  1.
         11    1    3    3    0    0  0.14241388158E+02  0.27845657099E+01 -0.37162004186E+01  0.14979355416E+02  0.51100000000E-03 0. -1.
        -11    1    3    3    0    0  0.17727275174E+02  0.26302999755E+02  0.28723508182E+01  0.31848932175E+02  0.51100000000E-03 0.  1.
         12    1    3    3    0    0 -0.31261951660E+02 -0.29784508018E+02  0.20530000873E+00  0.43179493832E+02  0.00000000000E+00 0. -1.
</event>
<event>
 7    1  0.2385752E-015  0.9000773E+02  0.7816164E-02  0.1186339E+00
        -11   -1    0    0    0    0  0.00000000000E+00  0.00000000000E+00  0.45593999997E+02  0.45594000000E+02  0.51100000000E-03 0.  1.
         11   -1    0    0    0    0 -0.00000000000E+00 -0.00000000000E+00 -0.45593999997E+02  0.45594000000E+02  0.51100000000E-03 0. -1.
    9900012    2    1    2    0    0  0.31754872768E+00 -0.37364121615E+00 -0.10735880183E+01  0.90007730460E+02  0.89999991703E+02 0.  0.
        -12    1    1    2    0    0 -0.31754872768E+00  0.37364121615E+00  0.10735880183E+01  0.11802695395E+01  0.00000000000E+00 0.  1.
         11    1    3    3    0    0  0.46497009453E+01 -0.83649817940E+01  0.39556823059E+01  0.10355677769E+02  0.51100000000E-03 0. -1.
        -11    1    3    3    0    0  0.16527691518E+01  0.91572946299E+01  0.36505150236E+02  0.37672452599E+02  0.51100000000E-03 0.  1.
         12    1    3    3    0    0 -0.59849213695E+01 -0.11659540520E+01 -0.41534420560E+02  0.41979600092E+02  0.00000000000E+00 0. -1.
</event>
<event>
 7    1  0.2385752E-015  0.9000781E+02  0.7816164E-02  0.1186339E+00
        -11   -1    0    0    0    0  0.00000000000E+00  0.00000000000E+00  0.45593999997E+02  0.45594000000E+02  0.51100000000E-03 0. -1.
         11   -1    0    0    0    0 -0.00000000000E+00 -0.00000000000E+00 -0.45593999997E+02  0.45594000000E+02  0.51100000000E-03 0.  1.
    9900012    2    1    2    0    0  0.13848859528E+00  0.21025440708E+00  0.11530248554E+01  0.90007808353E+02  0.90000070623E+02 0.  0.
        -12    1    1    2    0    0 -0.13848859528E+00 -0.21025440708E+00 -0.11530248554E+01  0.11801916471E+01  0.00000000000E+00 0.  1.
         11    1    3    3    0    0 -0.86595851995E+01 -0.27955020179E+02  0.30328049298E+02  0.42145725092E+02  0.51100000000E-03 0. -1.
        -11    1    3    3    0    0  0.89217643207E+01  0.53851960029E+01  0.52188077348E+00  0.10434106305E+02  0.51100000000E-03 0.  1.
        -12    1    3    3    0    0 -0.12369052597E+00  0.22780078583E+02 -0.29696905216E+02  0.37427976956E+02  0.00000000000E+00 0.  1.
</event>
<event>
 7    1  0.2385752E-015  0.9000784E+02  0.7816164E-02  0.1186339E+00
        -11   -1    0    0    0    0  0.00000000000E+00  0.00000000000E+00  0.45593999997E+02  0.45594000000E+02  0.51100000000E-03 0.  1.
         11   -1    0    0    0    0 -0.00000000000E+00 -0.00000000000E+00 -0.45593999997E+02  0.45594000000E+02  0.51100000000E-03 0. -1.
    9900012    2    1    2    0    0  0.10963903882E+01  0.25971385957E+00 -0.35108210844E+00  0.90007838223E+02  0.90000100888E+02 0.  0.
        -12    1    1    2    0    0 -0.10963903882E+01 -0.25971385957E+00  0.35108210844E+00  0.11801617767E+01  0.00000000000E+00 0.  1.
         11    1    3    3    0    0  0.40709991079E+01  0.57913340004E+01  0.73362313300E+01  0.10194747355E+02  0.51100000000E-03 0. -1.
        -11    1    3    3    0    0  0.29398810720E+02  0.22175421726E+02 -0.30611637762E+01  0.36951456323E+02  0.51100000000E-03 0.  1.
         12    1    3    3    0    0 -0.32373419440E+02 -0.27707041866E+02 -0.46261496622E+01  0.42861634545E+02  0.00000000000E+00 0. -1.
</event>
<event>
 7    1  0.2502453E-015  0.9000763E+02  0.7816164E-02  0.1186339E+00
        -11   -1    0    0    0    0  0.00000000000E+00  0.00000000000E+00  0.45593999997E+02  0.45594000000E+02  0.51100000000E-03 0.  1.
         11   -1    0    0    0    0 -0.00000000000E+00 -0.00000000000E+00 -0.45593999997E+02  0.45594000000E+02  0.51100000000E-03 0. -1.
    9900012    2    1    2    0    0 -0.99857616600E+00 -0.35844578797E+00 -0.51732750130E+00  0.90007633326E+02  0.89999893286E+02 0.  0.
        -12    1    1    2    0    0  0.99857616600E+00  0.35844578797E+00  0.51732750130E+00  0.11803666743E+01  0.00000000000E+00 0.  1.
         11    1    3    3    0    0 -0.48513855586E+01  0.28893162804E+02 -0.26196548921E+02  0.39301526361E+02  0.51100000000E-03 0. -1.
        -11    1    3    3    0    0  0.90979580247E+01  0.17788733176E+01 -0.11631181926E+01  0.93429157489E+01  0.51100000000E-03 0.  1.
        -12    1    3    3    0    0 -0.52451486321E+01 -0.31030481909E+02  0.26842339613E+02  0.41363191216E+02  0.00000000000E+00 0.  1.
</event>
<event>
 7    1  0.2385752E-015  0.9000784E+02  0.7816164E-02  0.1186339E+00
        -11   -1    0    0    0    0  0.00000000000E+00  0.00000000000E+00  0.45593999997E+02  0.45594000000E+02  0.51100000000E-03 0.  1.
         11   -1    0    0    0    0 -0.00000000000E+00 -0.00000000000E+00 -0.45593999997E+02  0.45594000000E+02  0.51100000000E-03 0. -1.
    9900012    2    1    2    0    0 -0.32477231820E+00 -0.10529626807E+01 -0.42257427875E+00  0.90007840482E+02  0.90000103177E+02 0.  0.
        -12    1    1    2    0    0  0.32477231820E+00  0.10529626807E+01  0.42257427875E+00  0.11801595175E+01  0.00000000000E+00 0.  1.
         11    1    3    3    0    0  0.34074633840E+01 -0.29461702428E+02  0.96695563639E+01  0.31194599487E+02  0.51100000000E-03 0. -1.
        -11    1    3    3    0    0 -0.42364339536E+01 -0.13831218609E+02  0.26160689363E+01  0.14700129176E+02  0.51100000000E-03 0.  1.
        -12    1    3    3    0    0  0.50419825134E+00  0.42239958356E+02 -0.12708199579E+02  0.44113111819E+02  0.00000000000E+00 0.  1.
</event>
<event>
 7    1  0.4288606E-015  0.9000771E+02  0.7816164E-02  0.1186339E+00
        -11   -1    0    0    0    0  0.00000000000E+00  0.00000000000E+00  0.45593999997E+02  0.45594000000E+02  0.51100000000E-03 0.  1.
         11   -1    0    0    0    0 -0.00000000000E+00 -0.00000000000E+00 -0.45593999997E+02  0.45594000000E+02  0.51100000000E-03 0. -1.
    9900012    2    1    2    0    0 -0.39616719792E+00 -0.10635543235E+01  0.32400392039E+00  0.90007714107E+02  0.89999975134E+02 0.  0.
        -12    1    1    2    0    0  0.39616719792E+00  0.10635543235E+01 -0.32400392039E+00  0.11802858926E+01  0.00000000000E+00 0.  1.
         11    1    3    3    0    0 -0.30844131184E+02  0.93370424085E+01  0.19075495173E+02  0.37448835840E+02  0.51100000000E-03 0. -1.
        -11    1    3    3    0    0  0.24368531081E+00  0.22038957496E+01  0.92340716050E+01  0.94965582015E+01  0.51100000000E-03 0.  1.
        -12    1    3    3    0    0  0.30204278675E+02 -0.12604492482E+02 -0.27985562857E+02  0.43062320066E+02  0.00000000000E+00 0.  1.
</event>
<event>
 7    1  0.2385752E-015  0.9000741E+02  0.7816164E-02  0.1186340E+00
        -11   -1    0    0    0    0  0.00000000000E+00  0.00000000000E+00  0.45593999997E+02  0.45594000000E+02  0.51100000000E-03 0.  1.
         11   -1    0    0    0    0 -0.00000000000E+00 -0.00000000000E+00 -0.45593999997E+02  0.45594000000E+02  0.51100000000E-03 0. -1.
    9900012    2    1    2    0    0  0.78008028133E+00 -0.86917235053E+00  0.17264873180E+00  0.90007409722E+02  0.89999666730E+02 0.  0.
        -12    1    1    2    0    0 -0.78008028133E+00  0.86917235053E+00 -0.17264873180E+00  0.11805902781E+01  0.00000000000E+00 0.  1.
         11    1    3    3    0    0 -0.10356124472E+01 -0.10468346358E+02 -0.30511578413E+01  0.10953005663E+02  0.51100000000E-03 0. -1.
        -11    1    3    3    0    0 -0.27516759865E+02  0.28025833702E+02  0.15612725254E+02  0.42265548835E+02  0.51100000000E-03 0.  1.
         12    1    3    3    0    0  0.29332452594E+02 -0.18426659695E+02 -0.12388918681E+02  0.36788855225E+02  0.00000000000E+00 0. -1.
</event>
<event>
 7    1  0.2610618E-015  0.9000812E+02  0.7816164E-02  0.1186338E+00
        -11   -1    0    0    0    0  0.00000000000E+00  0.00000000000E+00  0.45593999997E+02  0.45594000000E+02  0.51100000000E-03 0.  1.
         11   -1    0    0    0    0 -0.00000000000E+00 -0.00000000000E+00 -0.45593999997E+02  0.45594000000E+02  0.51100000000E-03 0. -1.
    9900012    2    1    2    0    0 -0.10212739743E+01 -0.49450480352E+00  0.32337540133E+00  0.90008124082E+02  0.90000390519E+02 0.  0.
        -12    1    1    2    0    0  0.10212739743E+01  0.49450480352E+00 -0.32337540133E+00  0.11798759178E+01  0.00000000000E+00 0.  1.
         11    1    3    3    0    0 -0.53292742519E+01 -0.38089556885E+02 -0.65205797828E+01  0.39009402311E+02  0.51100000000E-03 0. -1.
        -11    1    3    3    0    0  0.77427033041E+00 -0.91715926719E+00 -0.90914386575E+01  0.91703289358E+01  0.51100000000E-03 0.  1.
        -12    1    3    3    0    0  0.35337299472E+01  0.38512211348E+02  0.15935393842E+02  0.41828392835E+02  0.00000000000E+00 0.  1.
</event>
<event>
 7    1  0.2385752E-015  0.9000777E+02  0.7816164E-02  0.1186339E+00
        -11   -1    0    0    0    0  0.00000000000E+00  0.00000000000E+00  0.45593999997E+02  0.45594000000E+02  0.51100000000E-03 0.  1.
         11   -1    0    0    0    0 -0.00000000000E+00 -0.00000000000E+00 -0.45593999997E+02  0.45594000000E+02  0.51100000000E-03 0. -1.
    9900012    2    1    2    0    0  0.79591776477E+00 -0.50690087513E+00 -0.70887366440E+00  0.90007773133E+02  0.90000034938E+02 0.  0.
        -12    1    1    2    0    0 -0.79591776477E+00  0.50690087513E+00  0.70887366440E+00  0.11802268670E+01  0.00000000000E+00 0.  1.
         11    1    3    3    0    0 -0.13171828965E+02  0.20324640046E+01 -0.34083814565E+02  0.36596917955E+02  0.51100000000E-03 0. -1.
        -11    1    3    3    0    0 -0.25506351004E+00  0.97604784066E+00 -0.87515087284E+01  0.88094626434E+01  0.51100000000E-03 0.  1.
        -12    1    3    3    0    0  0.14222810240E+02 -0.35154127204E+01  0.42126449629E+02  0.44601392535E+02  0.00000000000E+00 0.  1.
</event>
<event>
 7    1  0.2385752E-015  0.9000783E+02  0.7816164E-02  0.1186339E+00
        -11   -1    0    0    0    0  0.00000000000E+00  0.00000000000E+00  0.45593999997E+02  0.45594000000E+02  0.51100000000E-03 0. -1.
         11   -1    0    0    0    0 -0.00000000000E+00 -0.00000000000E+00 -0.45593999997E+02  0.45594000000E+02  0.51100000000E-03 0.  1.
    9900012    2    1    2    0    0 -0.64092252997E+00 -0.11401856947E+00  0.98438227784E+00  0.90007834591E+02  0.90000097208E+02 0.  0.
        -12    1    1    2    0    0  0.64092252997E+00  0.11401856947E+00 -0.98438227784E+00  0.11801654090E+01  0.00000000000E+00 0.  1.
         11    1    3    3    0    0 -0.85536233052E+01  0.70225882172E+00  0.39923617421E+01  0.94655476144E+01  0.51100000000E-03 0. -1.
        -11    1    3    3    0    0 -0.33854533970E+02  0.21103267661E+01  0.12124411644E+02  0.36021997548E+02  0.51100000000E-03 0.  1.
         12    1    3    3    0    0  0.41767234745E+02 -0.29266041573E+01 -0.15132391108E+02  0.44520289429E+02  0.00000000000E+00 0. -1.
</event>
<event>
 7    1  0.2385752E-015  0.9000788E+02  0.7816164E-02  0.1186339E+00
        -11   -1    0    0    0    0  0.00000000000E+00  0.00000000000E+00  0.45593999997E+02  0.45594000000E+02  0.51100000000E-03 0.  1.
         11   -1    0    0    0    0 -0.00000000000E+00 -0.00000000000E+00 -0.45593999997E+02  0.45594000000E+02  0.51100000000E-03 0. -1.
    9900012    2    1    2    0    0  0.77273310587E+00  0.43757272901E+00 -0.77723483637E+00  0.90007881219E+02  0.90000144451E+02 0.  0.
        -12    1    1    2    0    0 -0.77273310587E+00 -0.43757272901E+00  0.77723483637E+00  0.11801187809E+01  0.00000000000E+00 0.  1.
         11    1    3    3    0    0  0.28263650040E+02 -0.30492034641E+02  0.77471197868E+01  0.42292031819E+02  0.51100000000E-03 0. -1.
        -11    1    3    3    0    0 -0.93615311367E+01 -0.11241561060E+01 -0.51305843168E+01  0.10734285624E+02  0.51100000000E-03 0.  1.
        -12    1    3    3    0    0 -0.18129385797E+02  0.32053763476E+02 -0.33937703064E+01  0.36981563776E+02  0.00000000000E+00 0.  1.
</event>
<event>
 7    1  0.3918115E-015  0.9000775E+02  0.7816164E-02  0.1186339E+00
        -11   -1    0    0    0    0  0.00000000000E+00  0.00000000000E+00  0.45593999997E+02  0.45594000000E+02  0.51100000000E-03 0. -1.
         11   -1    0    0    0    0 -0.00000000000E+00 -0.00000000000E+00 -0.45593999997E+02  0.45594000000E+02  0.51100000000E-03 0.  1.
    9900012    2    1    2    0    0  0.61607843574E+00  0.14135969585E+00  0.99672699595E+00  0.90007745829E+02  0.90000007274E+02 0.  0.
        -12    1    1    2    0    0 -0.61607843574E+00 -0.14135969585E+00 -0.99672699595E+00  0.11802541705E+01  0.00000000000E+00 0.  1.
         11    1    3    3    0    0 -0.17805897664E+02 -0.70037482391E+01  0.35703057875E+02  0.40506923148E+02  0.51100000000E-03 0. -1.
        -11    1    3    3    0    0  0.42163162237E+01  0.89735550397E+01  0.19863701740E+01  0.10111759455E+02  0.51100000000E-03 0.  1.
        -12    1    3    3    0    0  0.14205659876E+02 -0.18284471048E+01 -0.36692701053E+02  0.39389063227E+02  0.00000000000E+00 0.  1.
</event>
<event>
 7    1  0.2385752E-015  0.9000775E+02  0.7816164E-02  0.1186339E+00
        -11   -1    0    0    0    0  0.00000000000E+00  0.00000000000E+00  0.45593999997E+02  0.45594000000E+02  0.51100000000E-03 0. -1.
         11   -1    0    0    0    0 -0.00000000000E+00 -0.00000000000E+00 -0.45593999997E+02  0.45594000000E+02  0.51100000000E-03 0.  1.
    9900012    2    1    2    0    0  0.85533038692E+00  0.80892548796E+00  0.83885227524E-01  0.90007751193E+02  0.90000012708E+02 0.  0.
        -12    1    1    2    0    0 -0.85533038692E+00 -0.80892548796E+00 -0.83885227524E-01  0.11802488074E+01  0.00000000000E+00 0.  1.
         11    1    3    3    0    0 -0.37383757400E+02 -0.13182436311E+02  0.67875710377E+01  0.40216825650E+02  0.51100000000E-03 0. -1.
        -11    1    3    3    0    0 -0.22424206841E+01  0.71613376247E+01  0.21237787573E+01  0.77989514404E+01  0.51100000000E-03 0.  1.
        -12    1    3    3    0    0  0.40481508471E+02  0.68300241746E+01 -0.88274645675E+01  0.41991974103E+02  0.00000000000E+00 0.  1.
</event>
<event>
 7    1  0.2385752E-015  0.9000775E+02  0.7816164E-02  0.1186339E+00
        -11   -1    0    0    0    0  0.00000000000E+00  0.00000000000E+00  0.45593999997E+02  0.45594000000E+02  0.51100000000E-03 0. -1.
         11   -1    0    0    0    0 -0.00000000000E+00 -0.00000000000E+00 -0.45593999997E+02  0.45594000000E+02  0.51100000000E-03 0.  1.
    9900012    2    1    2    0    0  0.10849537397E+00 -0.11344367425E+01 -0.30702309116E+00  0.90007753777E+02  0.90000015327E+02 0.  0.
        -12    1    1    2    0    0 -0.10849537397E+00  0.11344367425E+01  0.30702309116E+00  0.11802462232E+01  0.00000000000E+00 0.  1.
         11    1    3    3    0    0  0.24638626352E+01  0.14031185136E+02 -0.25389087495E+01  0.14470343234E+02  0.51100000000E-03 0. -1.
        -11    1    3    3    0    0 -0.25387595693E+02  0.20639998054E+02 -0.18304844382E+01  0.32770264086E+02  0.51100000000E-03 0.  1.
         12    1    3    3    0    0  0.23032228432E+02 -0.35805619932E+02  0.40623700965E+01  0.42767146457E+02  0.00000000000E+00 0. -1.
</event>
<event>
 7    1  0.2385752E-015  0.9000863E+02  0.7816164E-02  0.1186337E+00
        -11   -1    0    0    0    0  0.00000000000E+00  0.00000000000E+00  0.45593999997E+02  0.45594000000E+02  0.51100000000E-03 0.  1.
         11   -1    0    0    0    0 -0.00000000000E+00 -0.00000000000E+00 -0.45593999997E+02  0.45594000000E+02  0.51100000000E-03 0. -1.
    9900012    2    1    2    0    0  0.20001788257E+00 -0.80880696922E+00 -0.83470799969E+00  0.90008630121E+02  0.90000903234E+02 0.  0.
        -12    1    1    2    0    0 -0.20001788257E+00  0.80880696922E+00  0.83470799969E+00  0.11793698790E+01  0.00000000000E+00 0.  1.
         11    1    3    3    0    0 -0.38433713292E+01  0.52846887715E+01  0.65593608777E+01  0.92587609307E+01  0.51100000000E-03 0. -1.
        -11    1    3    3    0    0 -0.32896861390E+02  0.69080452607E+01  0.13664337628E+02  0.36285516418E+02  0.51100000000E-03 0.  1.
         12    1    3    3    0    0  0.36940250602E+02 -0.13001541001E+02 -0.21058406506E+02  0.44464352773E+02  0.00000000000E+00 0. -1.
</event>
<event>
 7    1  0.2385752E-015  0.9000774E+02  0.7816164E-02  0.1186339E+00
        -11   -1    0    0    0    0  0.00000000000E+00  0.00000000000E+00  0.45593999997E+02  0.45594000000E+02  0.51100000000E-03 0. -1.
         11   -1    0    0    0    0 -0.00000000000E+00 -0.00000000000E+00 -0.45593999997E+02  0.45594000000E+02  0.51100000000E-03 0.  1.
    9900012    2    1    2    0    0 -0.90025027034E+00 -0.41289203731E+00  0.64193651035E+00  0.90007740339E+02  0.90000001712E+02 0.  0.
        -12    1    1    2    0    0  0.90025027034E+00  0.41289203731E+00 -0.64193651035E+00  0.11802596609E+01  0.00000000000E+00 0.  1.
         11    1    3    3    0    0  0.17331969042E+01  0.17910632760E+02  0.33777333717E+02  0.38271438576E+02  0.51100000000E-03 0. -1.
        -11    1    3    3    0    0 -0.40562689822E+01 -0.25092127491E+01  0.70590024692E+01  0.85193299500E+01  0.51100000000E-03 0.  1.
        -12    1    3    3    0    0  0.14228218077E+01 -0.15814312048E+02 -0.40194399675E+02  0.43216971814E+02  0.00000000000E+00 0.  1.
</event>
<event>
 7    1  0.2385752E-015  0.9000775E+02  0.7816164E-02  0.1186339E+00
        -11   -1    0    0    0    0  0.00000000000E+00  0.00000000000E+00  0.45593999997E+02  0.45594000000E+02  0.51100000000E-03 0. -1.
         11   -1    0    0    0    0 -0.00000000000E+00 -0.00000000000E+00 -0.45593999997E+02  0.45594000000E+02  0.51100000000E-03 0.  1.
    9900012    2    1    2    0    0 -0.65433613678E+00 -0.74069074573E+00  0.64515252369E+00  0.90007745646E+02  0.90000007089E+02 0.  0.
        -12    1    1    2    0    0  0.65433613678E+00  0.74069074573E+00 -0.64515252369E+00  0.11802543537E+01  0.00000000000E+00 0.  1.
         11    1    3    3    0    0 -0.24040812429E+01  0.85674833500E+01  0.27538018388E+01  0.93147626058E+01  0.51100000000E-03 0. -1.
        -11    1    3    3    0    0  0.17868722751E+02 -0.18079512425E+02 -0.34864273064E+02  0.43147161654E+02  0.51100000000E-03 0.  1.
         12    1    3    3    0    0 -0.16118977645E+02  0.87713383297E+01  0.32755623748E+02  0.37545821386E+02  0.00000000000E+00 0. -1.
</event>
<event>
 7    1  0.2385752E-015  0.9000782E+02  0.7816164E-02  0.1186339E+00
        -11   -1    0    0    0    0  0.00000000000E+00  0.00000000000E+00  0.45593999997E+02  0.45594000000E+02  0.51100000000E-03 0.  1.
         11   -1    0    0    0    0 -0.00000000000E+00 -0.00000000000E+00 -0.45593999997E+02  0.45594000000E+02  0.51100000000E-03 0. -1.
    9900012    2    1    2    0    0 -0.88258481875E+00  0.64546161808E+00  0.44413559737E+00  0.90007816501E+02  0.90000078879E+02 0.  0.
        -12    1    1    2    0    0  0.88258481875E+00 -0.64546161808E+00 -0.44413559737E+00  0.11801834991E+01  0.00000000000E+00 0.  1.
         11    1    3    3    0    0 -0.22865925621E+00 -0.54721718247E+01  0.76911744082E+01  0.94419867387E+01  0.51100000000E-03 0. -1.
        -11    1    3    3    0    0  0.34693018115E+01 -0.35385008403E+02  0.74839692987E+01  0.36333795171E+02  0.51100000000E-03 0.  1.
         12    1    3    3    0    0 -0.41232273740E+01  0.41502641846E+02 -0.14731008110E+02  0.44232034592E+02  0.00000000000E+00 0. -1.
</event>
<event>
 7    1  0.2385752E-015  0.9000785E+02  0.7816164E-02  0.1186339E+00
        -11   -1    0    0    0    0  0.00000000000E+00  0.00000000000E+00  0.45593999997E+02  0.45594000000E+02  0.51100000000E-03 0. -1.
         11   -1    0    0    0    0 -0.00000000000E+00 -0.00000000000E+00 -0.45593999997E+02  0.45594000000E+02  0.51100000000E-03 0.  1.
    9900012    2    1    2    0    0  0.11610715661E+01 -0.26708296444E-02 -0.21133905657E+00  0.90007848098E+02  0.90000110893E+02 0.  0.
        -12    1    1    2    0    0 -0.11610715661E+01  0.26708296444E-02  0.21133905657E+00  0.11801519020E+01  0.00000000000E+00 0.  1.
         11    1    3    3    0    0  0.81695572175E+01 -0.92881518485E+00 -0.71073998949E+01  0.10868279363E+02  0.51100000000E-03 0. -1.
        -11    1    3    3    0    0  0.11106490753E+02  0.16463284436E+02 -0.29533014247E+02  0.35589223116E+02  0.51100000000E-03 0.  1.
         12    1    3    3    0    0 -0.18114976404E+02 -0.15537140081E+02  0.36429075085E+02  0.43550345619E+02  0.00000000000E+00 0. -1.
</event>
<event>
 7    1  0.2385752E-015  0.9000782E+02  0.7816164E-02  0.1186339E+00
        -11   -1    0    0    0    0  0.00000000000E+00  0.00000000000E+00  0.45593999997E+02  0.45594000000E+02  0.51100000000E-03 0.  1.
         11   -1    0    0    0    0 -0.00000000000E+00 -0.00000000000E+00 -0.45593999997E+02  0.45594000000E+02  0.51100000000E-03 0. -1.
    9900012    2    1    2    0    0  0.38434682496E+00  0.60525215064E-01 -0.11141977226E+01  0.90007821052E+02  0.90000083490E+02 0.  0.
        -12    1    1    2    0    0 -0.38434682496E+00 -0.60525215064E-01  0.11141977226E+01  0.11801789476E+01  0.00000000000E+00 0.  1.
         11    1    3    3    0    0  0.23726969905E+02 -0.24651217949E+02  0.71830365672E+00  0.34222326158E+02  0.51100000000E-03 0. -1.
        -11    1    3    3    0    0  0.45712065810E+01 -0.94385807876E+01  0.41422366797E+01  0.11275675672E+02  0.51100000000E-03 0.  1.
        -12    1    3    3    0    0 -0.27913829661E+02  0.34150323952E+02 -0.59747380590E+01  0.44509819223E+02  0.00000000000E+00 0.  1.
</event>
<event>
 7    1  0.2385752E-015  0.9000733E+02  0.7816164E-02  0.1186340E+00
        -11   -1    0    0    0    0  0.00000000000E+00  0.00000000000E+00  0.45593999997E+02  0.45594000000E+02  0.51100000000E-03 0.  1.
         11   -1    0    0    0    0 -0.00000000000E+00 -0.00000000000E+00 -0.45593999997E+02  0.45594000000E+02  0.51100000000E-03 0. -1.
    9900012    2    1    2    0    0 -0.87054600295E+00  0.78503491610E+00 -0.14092722420E+00  0.90007326190E+02  0.89999582095E+02 0.  0.
        -12    1    1    2    0    0  0.87054600295E+00 -0.78503491610E+00  0.14092722420E+00  0.11806738099E+01  0.00000000000E+00 0.  1.
         11    1    3    3    0    0  0.51841653019E+01 -0.89695236816E+01 -0.66725515119E+01  0.12322778457E+02  0.51100000000E-03 0. -1.
        -11    1    3    3    0    0  0.29138107502E+02  0.11126273992E+02  0.23050666940E+02  0.38783456890E+02  0.51100000000E-03 0.  1.
         12    1    3    3    0    0 -0.35192818806E+02 -0.13717153942E+01 -0.16519042652E+02  0.38901090843E+02  0.00000000000E+00 0. -1.
</event>
<event>
 7    1  0.2385752E-015  0.9000765E+02  0.7816164E-02  0.1186339E+00
        -11   -1    0    0    0    0  0.00000000000E+00  0.00000000000E+00  0.45593999997E+02  0.45594000000E+02  0.51100000000E-03 0. -1.
         11   -1    0    0    0    0 -0.00000000000E+00 -0.00000000000E+00 -0.45593999997E+02  0.45594000000E+02  0.51100000000E-03 0.  1.
    9900012    2    1    2    0    0 -0.69417546203E+00 -0.90229072245E-01  0.95037525227E+00  0.90007646673E+02  0.89999906809E+02 0.  0.
        -12    1    1    2    0    0  0.69417546203E+00  0.90229072245E-01 -0.95037525227E+00  0.11803533275E+01  0.00000000000E+00 0.  1.
         11    1    3    3    0    0  0.40565514236E+01 -0.30049076225E+01 -0.75354562957E+01  0.90701808757E+01  0.51100000000E-03 0. -1.
        -11    1    3    3    0    0 -0.22726883473E+02 -0.25707074917E+01 -0.30226147859E+02  0.37904350464E+02  0.51100000000E-03 0.  1.
         12    1    3    3    0    0  0.17976156588E+02  0.54853860420E+01  0.38711979407E+02  0.43033115333E+02  0.00000000000E+00 0. -1.
</event>
<event>
 7    1  0.2385752E-015  0.9000768E+02  0.7816164E-02  0.1186339E+00
        -11   -1    0    0    0    0  0.00000000000E+00  0.00000000000E+00  0.45593999997E+02  0.45594000000E+02  0.51100000000E-03 0.  1.
         11   -1    0    0    0    0 -0.00000000000E+00 -0.00000000000E+00 -0.45593999997E+02  0.45594000000E+02  0.51100000000E-03 0. -1.
    9900012    2    1    2    0    0 -0.60152277288E-01 -0.39356358266E+00 -0.11111474839E+01  0.90007678298E+02  0.89999938851E+02 0.  0.
        -12    1    1    2    0    0  0.60152277288E-01  0.39356358266E+00  0.11111474839E+01  0.11803217023E+01  0.00000000000E+00 0.  1.
         11    1    3    3    0    0 -0.14423308718E+02 -0.41669331784E+01 -0.39649069325E+02  0.42396271830E+02  0.51100000000E-03 0. -1.
        -11    1    3    3    0    0  0.33644136046E+01 -0.72295024818E+01  0.24966661541E+01  0.83557361844E+01  0.51100000000E-03 0.  1.
        -12    1    3    3    0    0  0.10998742836E+02  0.11002872078E+02  0.36041255687E+02  0.39255670283E+02  0.00000000000E+00 0.  1.
</event>
<event>
 7    1  0.2385752E-015  0.9000762E+02  0.7816164E-02  0.1186339E+00
        -11   -1    0    0    0    0  0.00000000000E+00  0.00000000000E+00  0.45593999997E+02  0.45594000000E+02  0.51100000000E-03 0. -1.
         11   -1    0    0    0    0 -0.00000000000E+00 -0.00000000000E+00 -0.45593999997E+02  0.45594000000E+02  0.51100000000E-03 0.  1.
    9900012    2    1    2    0    0  0.10077977754E+01 -0.59628706467E+00  0.14861086402E+00  0.90007618787E+02  0.89999878555E+02 0.  0.
        -12    1    1    2    0    0 -0.10077977754E+01  0.59628706467E+00 -0.14861086402E+00  0.11803812132E+01  0.00000000000E+00 0.  1.
         11    1    3    3    0    0 -0.79415742965E+01  0.56594646408E+01 -0.91181566893E+00  0.97943631953E+01  0.51100000000E-03 0. -1.
        -11    1    3    3    0    0  0.25400793244E+02 -0.22806428161E+02 -0.27138942296E+02  0.43610270030E+02  0.51100000000E-03 0.  1.
         12    1    3    3    0    0 -0.16451421172E+02  0.16550676455E+02  0.28199368829E+02  0.36602985562E+02  0.00000000000E+00 0. -1.
</event>
<event>
 7    1  0.2385752E-015  0.9000773E+02  0.7816164E-02  0.1186339E+00
        -11   -1    0    0    0    0  0.00000000000E+00  0.00000000000E+00  0.45593999997E+02  0.45594000000E+02  0.51100000000E-03 0.  1.
         11   -1    0    0    0    0 -0.00000000000E+00 -0.00000000000E+00 -0.45593999997E+02  0.45594000000E+02  0.51100000000E-03 0. -1.
    9900012    2    1    2    0    0  0.23331654645E+00  0.35183977928E+00 -0.11021804358E+01  0.90007733270E+02  0.89999994549E+02 0.  0.
        -12    1    1    2    0    0 -0.23331654645E+00 -0.35183977928E+00  0.11021804358E+01  0.11802667301E+01  0.00000000000E+00 0.  1.
         11    1    3    3    0    0 -0.23478576479E+02  0.19813754778E+02  0.22002525209E+02  0.37788087378E+02  0.51100000000E-03 0. -1.
        -11    1    3    3    0    0 -0.79329264499E+01 -0.13822008457E+01  0.15739187245E+01  0.82048169784E+01  0.51100000000E-03 0.  1.
        -12    1    3    3    0    0  0.31644819475E+02 -0.18079714153E+02 -0.24678624370E+02  0.44014828913E+02  0.00000000000E+00 0.  1.
</event>
<event>
 7    1  0.2385752E-015  0.9000763E+02  0.7816164E-02  0.1186339E+00
        -11   -1    0    0    0    0  0.00000000000E+00  0.00000000000E+00  0.45593999997E+02  0.45594000000E+02  0.51100000000E-03 0. -1.
         11   -1    0    0    0    0 -0.00000000000E+00 -0.00000000000E+00 -0.45593999997E+02  0.45594000000E+02  0.51100000000E-03 0.  1.
    9900012    2    1    2    0    0  0.37437108293E+00 -0.48345405365E+00  0.10096477491E+01  0.90007631368E+02  0.89999891302E+02 0.  0.
        -12    1    1    2    0    0 -0.37437108293E+00  0.48345405365E+00 -0.10096477491E+01  0.11803686318E+01  0.00000000000E+00 0.  1.
         11    1    3    3    0    0 -0.19125717306E+02  0.17530095808E+02 -0.13297411427E+02  0.29153361254E+02  0.51100000000E-03 0. -1.
        -11    1    3    3    0    0 -0.16625241245E+02  0.10038358193E+01  0.10860980586E+02  0.19883843500E+02  0.51100000000E-03 0.  1.
         12    1    3    3    0    0  0.36125329634E+02 -0.19017385681E+02  0.34460785902E+01  0.40970426614E+02  0.00000000000E+00 0. -1.
</event>
<event>
 7    1  0.2385752E-015  0.9000764E+02  0.7816164E-02  0.1186339E+00
        -11   -1    0    0    0    0  0.00000000000E+00  0.00000000000E+00  0.45593999997E+02  0.45594000000E+02  0.51100000000E-03 0.  1.
         11   -1    0    0    0    0 -0.00000000000E+00 -0.00000000000E+00 -0.45593999997E+02  0.45594000000E+02  0.51100000000E-03 0. -1.
    9900012    2    1    2    0    0 -0.32435478084E+00  0.75482653211E+00 -0.84750953131E+00  0.90007643476E+02  0.89999903570E+02 0.  0.
        -12    1    1    2    0    0  0.32435478084E+00 -0.75482653211E+00  0.84750953131E+00  0.11803565237E+01  0.00000000000E+00 0.  1.
         11    1    3    3    0    0 -0.79516004995E+00  0.20319739877E+01 -0.96215555162E+01  0.98658769809E+01  0.51100000000E-03 0. -1.
        -11    1    3    3    0    0 -0.12680327206E+02  0.34257648945E+02  0.18608829775E+02  0.40995923641E+02  0.51100000000E-03 0.  1.
         12    1    3    3    0    0  0.13151132475E+02 -0.35534796401E+02 -0.98347837903E+01  0.39145842855E+02  0.00000000000E+00 0. -1.
</event>
<event>
 7    1  0.2385752E-015  0.9000776E+02  0.7816164E-02  0.1186339E+00
        -11   -1    0    0    0    0  0.00000000000E+00  0.00000000000E+00  0.45593999997E+02  0.45594000000E+02  0.51100000000E-03 0.  1.
         11   -1    0    0    0    0 -0.00000000000E+00 -0.00000000000E+00 -0.45593999997E+02  0.45594000000E+02  0.51100000000E-03 0. -1.
    9900012    2    1    2    0    0 -0.96895279512E+00 -0.62889766600E+00 -0.24203741884E+00  0.90007761081E+02  0.90000022727E+02 0.  0.
        -12    1    1    2    0    0  0.96895279512E+00  0.62889766600E+00  0.24203741884E+00  0.11802389189E+01  0.00000000000E+00 0.  1.
         11    1    3    3    0    0  0.26261228614E+01  0.62050639899E+01  0.54810742063E+01  0.86857075197E+01  0.51100000000E-03 0. -1.
        -11    1    3    3    0    0  0.18041865731E+02 -0.38577288398E+02 -0.83222624725E+00  0.42595876561E+02  0.51100000000E-03 0.  1.
         12    1    3    3    0    0 -0.21636941388E+02  0.31743326742E+02 -0.48908853779E+01  0.38726177000E+02  0.00000000000E+00 0. -1.
</event>
<event>
 7    1  0.2385752E-015  0.9000781E+02  0.7816164E-02  0.1186339E+00
        -11   -1    0    0    0    0  0.00000000000E+00  0.00000000000E+00  0.45593999997E+02  0.45594000000E+02  0.51100000000E-03 0.  1.
         11   -1    0    0    0    0 -0.00000000000E+00 -0.00000000000E+00 -0.45593999997E+02  0.45594000000E+02  0.51100000000E-03 0. -1.
    9900012    2    1    2    0    0  0.12751462308E+00 -0.63088522979E+00 -0.98922713449E+00  0.90007810830E+02  0.90000073133E+02 0.  0.
        -12    1    1    2    0    0 -0.12751462308E+00  0.63088522979E+00  0.98922713449E+00  0.11801891695E+01  0.00000000000E+00 0.  1.
         11    1    3    3    0    0 -0.24368423790E+02 -0.23842259894E+02 -0.20233194326E+02  0.39644111640E+02  0.51100000000E-03 0. -1.
        -11    1    3    3    0    0  0.27204415561E+01  0.66117864667E+01 -0.86866679362E+01  0.11250543215E+02  0.51100000000E-03 0.  1.
        -12    1    3    3    0    0  0.21775496857E+02  0.16599588197E+02  0.27930635128E+02  0.39113155975E+02  0.00000000000E+00 0.  1.
</event>
<event>
 7    1  0.2385752E-015  0.9000775E+02  0.7816164E-02  0.1186339E+00
        -11   -1    0    0    0    0  0.00000000000E+00  0.00000000000E+00  0.45593999997E+02  0.45594000000E+02  0.51100000000E-03 0.  1.
         11   -1    0    0    0    0 -0.00000000000E+00 -0.00000000000E+00 -0.45593999997E+02  0.45594000000E+02  0.51100000000E-03 0. -1.
    9900012    2    1    2    0    0 -0.50478072118E+00 -0.10251935300E+01  0.29525446080E+00  0.90007745558E+02  0.90000007000E+02 0.  0.
        -12    1    1    2    0    0  0.50478072118E+00  0.10251935300E+01 -0.29525446080E+00  0.11802544416E+01  0.00000000000E+00 0.  1.
         11    1    3    3    0    0 -0.63321642603E+01 -0.22781661073E+02 -0.29959814750E+02  0.38166620044E+02  0.51100000000E-03 0. -1.
        -11    1    3    3    0    0  0.49440033278E+01 -0.93989852162E+01  0.50627969741E+01  0.11765033169E+02  0.51100000000E-03 0.  1.
        -12    1    3    3    0    0  0.88338021136E+00  0.31155452759E+02  0.25192272237E+02  0.40076092346E+02  0.00000000000E+00 0.  1.
</event>
<event>
 7    1  0.2385752E-015  0.9000782E+02  0.7816164E-02  0.1186339E+00
        -11   -1    0    0    0    0  0.00000000000E+00  0.00000000000E+00  0.45593999997E+02  0.45594000000E+02  0.51100000000E-03 0.  1.
         11   -1    0    0    0    0 -0.00000000000E+00 -0.00000000000E+00 -0.45593999997E+02  0.45594000000E+02  0.51100000000E-03 0. -1.
    9900012    2    1    2    0    0 -0.92354951488E-01  0.19301544431E+00 -0.11606230152E+01  0.90007817733E+02  0.90000080128E+02 0.  0.
        -12    1    1    2    0    0  0.92354951488E-01 -0.19301544431E+00  0.11606230152E+01  0.11801822665E+01  0.00000000000E+00 0.  1.
         11    1    3    3    0    0  0.15520488186E+01 -0.17613766546E+02 -0.32240485402E+02  0.36770946774E+02  0.51100000000E-03 0. -1.
        -11    1    3    3    0    0  0.61134190424E+01 -0.68317603756E+01 -0.37235095739E+01  0.98950172322E+01  0.51100000000E-03 0.  1.
        -12    1    3    3    0    0 -0.77578228124E+01  0.24638542366E+02  0.34803371960E+02  0.43341853727E+02  0.00000000000E+00 0.  1.
</event>
<event>
 7    1  0.2385752E-015  0.9000787E+02  0.7816164E-02  0.1186339E+00
        -11   -1    0    0    0    0  0.00000000000E+00  0.00000000000E+00  0.45593999997E+02  0.45594000000E+02  0.51100000000E-03 0. -1.
         11   -1    0    0    0    0 -0.00000000000E+00 -0.00000000000E+00 -0.45593999997E+02  0.45594000000E+02  0.51100000000E-03 0.  1.
    9900012    2    1    2    0    0 -0.49231176017E+00  0.18365042357E+00  0.10566920255E+01  0.90007874420E+02  0.90000137563E+02 0.  0.
        -12    1    1    2    0    0  0.49231176017E+00 -0.18365042357E+00 -0.10566920255E+01  0.11801255797E+01  0.00000000000E+00 0.  1.
         11    1    3    3    0    0  0.28420574114E+02 -0.71895678784E+01  0.17475457313E+02  0.34129320646E+02  0.51100000000E-03 0. -1.
        -11    1    3    3    0    0  0.17911486683E+01  0.70103329226E+00  0.12816802056E+02  0.12960327018E+02  0.51100000000E-03 0.  1.
        -12    1    3    3    0    0 -0.30704034542E+02  0.66721850097E+01 -0.29235567343E+02  0.42918226756E+02  0.00000000000E+00 0.  1.
</event>
<event>
 7    1  0.2385752E-015  0.9000764E+02  0.7816164E-02  0.1186339E+00
        -11   -1    0    0    0    0  0.00000000000E+00  0.00000000000E+00  0.45593999997E+02  0.45594000000E+02  0.51100000000E-03 0. -1.
         11   -1    0    0    0    0 -0.00000000000E+00 -0.00000000000E+00 -0.45593999997E+02  0.45594000000E+02  0.51100000000E-03 0.  1.
    9900012    2    1    2    0    0 -0.14627533521E+00  0.57457797537E+00  0.10206415280E+01  0.90007641812E+02  0.89999901884E+02 0.  0.
        -12    1    1    2    0    0  0.14627533521E+00 -0.57457797537E+00 -0.10206415280E+01  0.11803581880E+01  0.00000000000E+00 0.  1.
         11    1    3    3    0    0  0.53400918755E+00 -0.13138359505E+02  0.10288512301E+01  0.13189396931E+02  0.51100000000E-03 0. -1.
        -11    1    3    3    0    0 -0.13891398680E+02  0.68924838263E+01 -0.35281759469E+02  0.38539328511E+02  0.51100000000E-03 0.  1.
         12    1    3    3    0    0  0.13211114157E+02  0.68204536542E+01  0.35273549767E+02  0.38278916370E+02  0.00000000000E+00 0. -1.
</event>
<event>
 7    1  0.2385752E-015  0.9000769E+02  0.7816164E-02  0.1186339E+00
        -11   -1    0    0    0    0  0.00000000000E+00  0.00000000000E+00  0.45593999997E+02  0.45594000000E+02  0.51100000000E-03 0. -1.
         11   -1    0    0    0    0 -0.00000000000E+00 -0.00000000000E+00 -0.45593999997E+02  0.45594000000E+02  0.51100000000E-03 0.  1.
    9900012    2    1    2    0    0 -0.40876934852E+00 -0.40763921393E-01  0.11065195100E+01  0.90007686693E+02  0.89999947357E+02 0.  0.
        -12    1    1    2    0    0  0.40876934852E+00  0.40763921393E-01 -0.11065195100E+01  0.11803133073E+01  0.00000000000E+00 0.  1.
         11    1    3    3    0    0 -0.28832230683E+01 -0.12004770578E+01 -0.97384179378E+01  0.10226969474E+02  0.51100000000E-03 0. -1.
        -11    1    3    3    0    0 -0.96905959967E+01  0.34203382793E+02 -0.12329550812E+02  0.37627076272E+02  0.51100000000E-03 0.  1.
         12    1    3    3    0    0  0.12165049716E+02 -0.33043669657E+02  0.23174488260E+02  0.42153640947E+02  0.00000000000E+00 0. -1.
</event>
<event>
 7    1  0.2385752E-015  0.9000774E+02  0.7816164E-02  0.1186339E+00
        -11   -1    0    0    0    0  0.00000000000E+00  0.00000000000E+00  0.45593999997E+02  0.45594000000E+02  0.51100000000E-03 0.  1.
         11   -1    0    0    0    0 -0.00000000000E+00 -0.00000000000E+00 -0.45593999997E+02  0.45594000000E+02  0.51100000000E-03 0. -1.
    9900012    2    1    2    0    0  0.57412239194E+00 -0.13676323479E+00 -0.10221035054E+01  0.90007738894E+02  0.90000000247E+02 0.  0.
        -12    1    1    2    0    0 -0.57412239194E+00  0.13676323479E+00  0.10221035054E+01  0.11802611063E+01  0.00000000000E+00 0.  1.
         11    1    3    3    0    0 -0.80301166609E+01  0.34597501619E+00 -0.56648257310E+01  0.98332458082E+01  0.51100000000E-03 0. -1.
        -11    1    3    3    0    0 -0.29609717994E+02 -0.20172715624E+01  0.23195306931E+02  0.37667320692E+02  0.51100000000E-03 0.  1.
         12    1    3    3    0    0  0.38213957047E+02  0.15345333114E+01 -0.18552584705E+02  0.42507172394E+02  0.00000000000E+00 0. -1.
</event>
<event>
 7    1  0.2385752E-015  0.9000776E+02  0.7816164E-02  0.1186339E+00
        -11   -1    0    0    0    0  0.00000000000E+00  0.00000000000E+00  0.45593999997E+02  0.45594000000E+02  0.51100000000E-03 0.  1.
         11   -1    0    0    0    0 -0.00000000000E+00 -0.00000000000E+00 -0.45593999997E+02  0.45594000000E+02  0.51100000000E-03 0. -1.
    9900012    2    1    2    0    0  0.59024390260E+00 -0.22794343755E+00 -0.99630166902E+00  0.90007761426E+02  0.90000023077E+02 0.  0.
        -12    1    1    2    0    0 -0.59024390260E+00  0.22794343755E+00  0.99630166902E+00  0.11802385738E+01  0.00000000000E+00 0.  1.
         11    1    3    3    0    0  0.24743496145E+02  0.95406424604E+01 -0.10584581999E+02  0.28553420747E+02  0.51100000000E-03 0. -1.
        -11    1    3    3    0    0 -0.46454555689E+01 -0.21808305833E+02 -0.15739318472E+02  0.27293013886E+02  0.51100000000E-03 0.  1.
        -12    1    3    3    0    0 -0.19507796673E+02  0.12039719935E+02  0.25327598802E+02  0.34161326793E+02  0.00000000000E+00 0.  1.
</event>
<event>
 7    1  0.2385752E-015  0.9000789E+02  0.7816164E-02  0.1186339E+00
        -11   -1    0    0    0    0  0.00000000000E+00  0.00000000000E+00  0.45593999997E+02  0.45594000000E+02  0.51100000000E-03 0.  1.
         11   -1    0    0    0    0 -0.00000000000E+00 -0.00000000000E+00 -0.45593999997E+02  0.45594000000E+02  0.51100000000E-03 0. -1.
    9900012    2    1    2    0    0 -0.26719646991E+00  0.11069146605E+01  0.30985759634E+00  0.90007887400E+02  0.90000150713E+02 0.  0.
        -12    1    1    2    0    0  0.26719646991E+00 -0.11069146605E+01 -0.30985759634E+00  0.11801126002E+01  0.00000000000E+00 0.  1.
         11    1    3    3    0    0  0.26500486011E+01  0.94155740107E+01 -0.99378551307E+00  0.98317547491E+01  0.51100000000E-03 0. -1.
        -11    1    3    3    0    0  0.25874959484E+02  0.10863326202E+02  0.25535425441E+02  0.37941841510E+02  0.51100000000E-03 0.  1.
         12    1    3    3    0    0 -0.28792204555E+02 -0.19171985552E+02 -0.24231782332E+02  0.42234291140E+02  0.00000000000E+00 0. -1.
</event>
<event>
 7    1  0.2385752E-015  0.9000776E+02  0.7816164E-02  0.1186339E+00
        -11   -1    0    0    0    0  0.00000000000E+00  0.00000000000E+00  0.45593999997E+02  0.45594000000E+02  0.51100000000E-03 0.  1.
         11   -1    0    0    0    0 -0.00000000000E+00 -0.00000000000E+00 -0.45593999997E+02  0.45594000000E+02  0.51100000000E-03 0. -1.
    9900012    2    1    2    0    0  0.47036499494E+00 -0.94581851714E+00 -0.52644263497E+00  0.90007763692E+02  0.90000025372E+02 0.  0.
        -12    1    1    2    0    0 -0.47036499494E+00  0.94581851714E+00  0.52644263497E+00  0.11802363084E+01  0.00000000000E+00 0.  1.
         11    1    3    3    0    0 -0.18477950318E+02  0.29497019094E+02 -0.76637385952E+01  0.35640449954E+02  0.51100000000E-03 0. -1.
        -11    1    3    3    0    0  0.28572319615E+00  0.88594809119E+01  0.62573868601E+01  0.10850204162E+02  0.51100000000E-03 0.  1.
        -12    1    3    3    0    0  0.18662592117E+02 -0.39302318523E+02  0.87990910009E+00  0.43517109576E+02  0.00000000000E+00 0.  1.
</event>
<event>
 7    1  0.2385752E-015  0.9000775E+02  0.7816164E-02  0.1186339E+00
        -11   -1    0    0    0    0  0.00000000000E+00  0.00000000000E+00  0.45593999997E+02  0.45594000000E+02  0.51100000000E-03 0.  1.
         11   -1    0    0    0    0 -0.00000000000E+00 -0.00000000000E+00 -0.45593999997E+02  0.45594000000E+02  0.51100000000E-03 0. -1.
    9900012    2    1    2    0    0 -0.89960757803E+00  0.75974879720E+00  0.80493170328E-01  0.90007749527E+02  0.90000011020E+02 0.  0.
        -12    1    1    2    0    0  0.89960757803E+00 -0.75974879720E+00 -0.80493170328E-01  0.11802504733E+01  0.00000000000E+00 0.  1.
         11    1    3    3    0    0 -0.10182322316E+02  0.93871709672E+00  0.80344006538E+01  0.13004325113E+02  0.51100000000E-03 0. -1.
        -11    1    3    3    0    0  0.20836233269E+02  0.34319283599E+02 -0.26405866535E+01  0.40235985656E+02  0.51100000000E-03 0.  1.
         12    1    3    3    0    0 -0.11553518531E+02 -0.34498251899E+02 -0.53133208300E+01  0.36767438757E+02  0.00000000000E+00 0. -1.
</event>
<event>
 7    1  0.2385752E-015  0.9000775E+02  0.7816164E-02  0.1186339E+00
        -11   -1    0    0    0    0  0.00000000000E+00  0.00000000000E+00  0.45593999997E+02  0.45594000000E+02  0.51100000000E-03 0.  1.
         11   -1    0    0    0    0 -0.00000000000E+00 -0.00000000000E+00 -0.45593999997E+02  0.45594000000E+02  0.51100000000E-03 0. -1.
    9900012    2    1    2    0    0 -0.36935662389E+00 -0.57724838587E+00 -0.96090746900E+00  0.90007752916E+02  0.90000014455E+02 0.  0.
        -12    1    1    2    0    0  0.36935662389E+00  0.57724838587E+00  0.96090746900E+00  0.11802470837E+01  0.00000000000E+00 0.  1.
         11    1    3    3    0    0  0.16283690513E+02  0.31596070904E+02 -0.15873780763E+02  0.38928745025E+02  0.51100000000E-03 0. -1.
        -11    1    3    3    0    0  0.94093068775E+01 -0.55005397505E+01 -0.44796170860E-01  0.10899220175E+02  0.51100000000E-03 0.  1.
        -12    1    3    3    0    0 -0.26062354014E+02 -0.26672779539E+02  0.14957669464E+02  0.40179787716E+02  0.00000000000E+00 0.  1.
</event>
<event>
 7    1  0.2385752E-015  0.9000776E+02  0.7816164E-02  0.1186339E+00
        -11   -1    0    0    0    0  0.00000000000E+00  0.00000000000E+00  0.45593999997E+02  0.45594000000E+02  0.51100000000E-03 0.  1.
         11   -1    0    0    0    0 -0.00000000000E+00 -0.00000000000E+00 -0.45593999997E+02  0.45594000000E+02  0.51100000000E-03 0. -1.
    9900012    2    1    2    0    0 -0.65249286310E+00  0.88939473439E+00  0.41974450817E+00  0.90007764692E+02  0.90000026386E+02 0.  0.
        -12    1    1    2    0    0  0.65249286310E+00 -0.88939473439E+00 -0.41974450817E+00  0.11802353079E+01  0.00000000000E+00 0.  1.
         11    1    3    3    0    0  0.15829159030E+02  0.57929384641E+01  0.74501168529E+01  0.18428908080E+02  0.51100000000E-03 0. -1.
        -11    1    3    3    0    0  0.44852772936E+01 -0.41160649644E+01  0.29136936862E+02  0.29766101410E+02  0.51100000000E-03 0.  1.
         12    1    3    3    0    0 -0.20966929186E+02 -0.78747876524E+00 -0.36167309207E+02  0.41812755202E+02  0.00000000000E+00 0. -1.
</event>
<event>
 7    1  0.2385752E-015  0.9000772E+02  0.7816164E-02  0.1186339E+00
        -11   -1    0    0    0    0  0.00000000000E+00  0.00000000000E+00  0.45593999997E+02  0.45594000000E+02  0.51100000000E-03 0. -1.
         11   -1    0    0    0    0 -0.00000000000E+00 -0.00000000000E+00 -0.45593999997E+02  0.45594000000E+02  0.51100000000E-03 0.  1.
    9900012    2    1    2    0    0  0.23226416452E+00 -0.10467376017E+01  0.49340030337E+00  0.90007724563E+02  0.89999985727E+02 0.  0.
        -12    1    1    2    0    0 -0.23226416452E+00  0.10467376017E+01 -0.49340030337E+00  0.11802754375E+01  0.00000000000E+00 0.  1.
         11    1    3    3    0    0 -0.99154413615E+01  0.61470260887E+00  0.50266321938E+00  0.99471858967E+01  0.51100000000E-03 0. -1.
        -11    1    3    3    0    0 -0.33461512543E+02  0.98793412419E+01  0.15407103337E+01  0.34923459073E+02  0.51100000000E-03 0.  1.
         12    1    3    3    0    0  0.43609218069E+02 -0.11540781452E+02 -0.15499732497E+01  0.45137079593E+02  0.00000000000E+00 0. -1.
</event>
<event>
 7    1  0.2385752E-015  0.9000775E+02  0.7816164E-02  0.1186339E+00
        -11   -1    0    0    0    0  0.00000000000E+00  0.00000000000E+00  0.45593999997E+02  0.45594000000E+02  0.51100000000E-03 0. -1.
         11   -1    0    0    0    0 -0.00000000000E+00 -0.00000000000E+00 -0.45593999997E+02  0.45594000000E+02  0.51100000000E-03 0.  1.
    9900012    2    1    2    0    0 -0.35232808896E+00 -0.98504886190E+00  0.54638911860E+00  0.90007746887E+02  0.90000008346E+02 0.  0.
        -12    1    1    2    0    0  0.35232808896E+00  0.98504886190E+00 -0.54638911860E+00  0.11802531133E+01  0.00000000000E+00 0.  1.
         11    1    3    3    0    0 -0.21942615742E+02 -0.23798557893E+02  0.24582157978E+02  0.40646429541E+02  0.51100000000E-03 0. -1.
        -11    1    3    3    0    0  0.26401504716E+01  0.43112439485E+01  0.69531357322E+01  0.85967037676E+01  0.51100000000E-03 0.  1.
        -12    1    3    3    0    0  0.18950137181E+02  0.18502265083E+02 -0.30988904591E+02  0.40764613578E+02  0.00000000000E+00 0.  1.
</event>
<event>
 7    1  0.2385752E-015  0.9000787E+02  0.7816164E-02  0.1186339E+00
        -11   -1    0    0    0    0  0.00000000000E+00  0.00000000000E+00  0.45593999997E+02  0.45594000000E+02  0.51100000000E-03 0. -1.
         11   -1    0    0    0    0 -0.00000000000E+00 -0.00000000000E+00 -0.45593999997E+02  0.45594000000E+02  0.51100000000E-03 0.  1.
    9900012    2    1    2    0    0  0.79115521607E+00 -0.54504934029E+00  0.68534055573E+00  0.90007874144E+02  0.90000137282E+02 0.  0.
        -12    1    1    2    0    0 -0.79115521607E+00  0.54504934029E+00 -0.68534055573E+00  0.11801258562E+01  0.00000000000E+00 0.  1.
         11    1    3    3    0    0  0.11190899272E+02  0.37234446092E+02 -0.38903946164E+01  0.39073973087E+02  0.51100000000E-03 0. -1.
        -11    1    3    3    0    0 -0.56746936408E+01  0.40545134403E+01 -0.38977972498E+01  0.79896214439E+01  0.51100000000E-03 0.  1.
        -12    1    3    3    0    0 -0.47250504154E+01 -0.41834008872E+02  0.84735324219E+01  0.42944279613E+02  0.00000000000E+00 0.  1.
</event>
<event>
 7    1  0.2385752E-015  0.9000777E+02  0.7816164E-02  0.1186339E+00
        -11   -1    0    0    0    0  0.00000000000E+00  0.00000000000E+00  0.45593999997E+02  0.45594000000E+02  0.51100000000E-03 0. -1.
         11   -1    0    0    0    0 -0.00000000000E+00 -0.00000000000E+00 -0.45593999997E+02  0.45594000000E+02  0.51100000000E-03 0.  1.
    9900012    2    1    2    0    0 -0.10173885052E+00 -0.58002248249E+00  0.10228267342E+01  0.90007766378E+02  0.90000028094E+02 0.  0.
        -12    1    1    2    0    0  0.10173885052E+00  0.58002248249E+00 -0.10228267342E+01  0.11802336218E+01  0.00000000000E+00 0.  1.
         11    1    3    3    0    0 -0.32902537072E+02  0.19512040673E+02  0.14307532658E+02  0.40841182255E+02  0.51100000000E-03 0. -1.
        -11    1    3    3    0    0  0.41857110186E+01  0.17756984624E+01  0.66098988297E+01  0.80227205212E+01  0.51100000000E-03 0.  1.
        -12    1    3    3    0    0  0.28615087202E+02 -0.21867761618E+02 -0.19894604753E+02  0.41143863602E+02  0.00000000000E+00 0.  1.
</event>
<event>
 7    1  0.2385752E-015  0.9000776E+02  0.7816164E-02  0.1186339E+00
        -11   -1    0    0    0    0  0.00000000000E+00  0.00000000000E+00  0.45593999997E+02  0.45594000000E+02  0.51100000000E-03 0. -1.
         11   -1    0    0    0    0 -0.00000000000E+00 -0.00000000000E+00 -0.45593999997E+02  0.45594000000E+02  0.51100000000E-03 0.  1.
    9900012    2    1    2    0    0  0.11227929537E+01 -0.15310054123E+00  0.32994437326E+00  0.90007759736E+02  0.90000021364E+02 0.  0.
        -12    1    1    2    0    0 -0.11227929537E+01  0.15310054123E+00 -0.32994437326E+00  0.11802402645E+01  0.00000000000E+00 0.  1.
         11    1    3    3    0    0  0.23374474297E+02  0.18247921716E+02  0.26420353044E+02  0.39716341106E+02  0.51100000000E-03 0. -1.
        -11    1    3    3    0    0  0.40158497991E+01  0.45436992212E+01 -0.10418195262E+02  0.12054503101E+02  0.51100000000E-03 0.  1.
        -12    1    3    3    0    0 -0.26267531142E+02 -0.22944721478E+02 -0.15672213409E+02  0.38236915529E+02  0.00000000000E+00 0.  1.
</event>
<event>
 7    1  0.2385752E-015  0.9000808E+02  0.7816164E-02  0.1186338E+00
        -11   -1    0    0    0    0  0.00000000000E+00  0.00000000000E+00  0.45593999997E+02  0.45594000000E+02  0.51100000000E-03 0.  1.
         11   -1    0    0    0    0 -0.00000000000E+00 -0.00000000000E+00 -0.45593999997E+02  0.45594000000E+02  0.51100000000E-03 0. -1.
    9900012    2    1    2    0    0 -0.18234067494E+00 -0.56177101817E+00 -0.10214581012E+01  0.90008079896E+02  0.90000345750E+02 0.  0.
        -12    1    1    2    0    0  0.18234067494E+00  0.56177101817E+00  0.10214581012E+01  0.11799201037E+01  0.00000000000E+00 0.  1.
         11    1    3    3    0    0  0.19557388353E+02 -0.33040390300E+02  0.76353219049E+01  0.39146608681E+02  0.51100000000E-03 0. -1.
        -11    1    3    3    0    0 -0.90027095742E+01 -0.22881727318E+01  0.66108154825E+01  0.11401201504E+02  0.51100000000E-03 0.  1.
        -12    1    3    3    0    0 -0.10737019454E+02  0.34766792014E+02 -0.15267595489E+02  0.39460269711E+02  0.00000000000E+00 0.  1.
</event>
<event>
 7    1  0.2385752E-015  0.9000774E+02  0.7816164E-02  0.1186339E+00
        -11   -1    0    0    0    0  0.00000000000E+00  0.00000000000E+00  0.45593999997E+02  0.45594000000E+02  0.51100000000E-03 0.  1.
         11   -1    0    0    0    0 -0.00000000000E+00 -0.00000000000E+00 -0.45593999997E+02  0.45594000000E+02  0.51100000000E-03 0. -1.
    9900012    2    1    2    0    0  0.39875613484E-01  0.44596743315E+00 -0.10920281294E+01  0.90007744752E+02  0.90000006182E+02 0.  0.
        -12    1    1    2    0    0 -0.39875613484E-01 -0.44596743315E+00  0.10920281294E+01  0.11802552484E+01  0.00000000000E+00 0.  1.
         11    1    3    3    0    0  0.10815067270E+02  0.18355415710E+01 -0.34432524812E+02  0.36137704107E+02  0.51100000000E-03 0. -1.
        -11    1    3    3    0    0  0.32201218424E-01  0.35371956627E+01 -0.91187449923E+01  0.97808128788E+01  0.51100000000E-03 0.  1.
        -12    1    3    3    0    0 -0.10807392875E+02 -0.49267698006E+01  0.42459241675E+02  0.44089227766E+02  0.00000000000E+00 0.  1.
</event>
<event>
 7    1  0.2385752E-015  0.9000775E+02  0.7816164E-02  0.1186339E+00
        -11   -1    0    0    0    0  0.00000000000E+00  0.00000000000E+00  0.45593999997E+02  0.45594000000E+02  0.51100000000E-03 0. -1.
         11   -1    0    0    0    0 -0.00000000000E+00 -0.00000000000E+00 -0.45593999997E+02  0.45594000000E+02  0.51100000000E-03 0.  1.
    9900012    2    1    2    0    0  0.79898867362E+00 -0.25038136581E+00  0.83181207696E+00  0.90007752119E+02  0.90000013647E+02 0.  0.
        -12    1    1    2    0    0 -0.79898867362E+00  0.25038136581E+00 -0.83181207696E+00  0.11802478809E+01  0.00000000000E+00 0.  1.
         11    1    3    3    0    0  0.92939652387E+00 -0.21482524202E+02  0.18999898782E+02  0.28694229001E+02  0.51100000000E-03 0. -1.
        -11    1    3    3    0    0 -0.18690526515E+02 -0.35414480585E+01 -0.23146702173E+02  0.29960765302E+02  0.51100000000E-03 0.  1.
        -12    1    3    3    0    0  0.18560118664E+02  0.24773590895E+02  0.49786154685E+01  0.31352757815E+02  0.00000000000E+00 0.  1.
</event>
<event>
 7    1  0.2385752E-015  0.9000759E+02  0.7816164E-02  0.1186339E+00
        -11   -1    0    0    0    0  0.00000000000E+00  0.00000000000E+00  0.45593999997E+02  0.45594000000E+02  0.51100000000E-03 0. -1.
         11   -1    0    0    0    0 -0.00000000000E+00 -0.00000000000E+00 -0.45593999997E+02  0.45594000000E+02  0.51100000000E-03 0.  1.
    9900012    2    1    2    0    0 -0.91522728951E-01 -0.97693105924E+00 -0.65619211203E+00  0.90007593802E+02  0.89999853240E+02 0.  0.
        -12    1    1    2    0    0  0.91522728951E-01  0.97693105924E+00  0.65619211203E+00  0.11804061980E+01  0.00000000000E+00 0.  1.
         11    1    3    3    0    0  0.13054977862E+02 -0.58787663793E+01  0.31319938860E+02  0.34437347627E+02  0.51100000000E-03 0. -1.
        -11    1    3    3    0    0 -0.90406342892E+01  0.11958611938E+01  0.98248750462E+01  0.13404899190E+02  0.51100000000E-03 0.  1.
        -12    1    3    3    0    0 -0.41058663021E+01  0.37059741262E+01 -0.41801006018E+02  0.42165346986E+02  0.00000000000E+00 0.  1.
</event>
<event>
 7    1  0.2385752E-015  0.9000766E+02  0.7816164E-02  0.1186339E+00
        -11   -1    0    0    0    0  0.00000000000E+00  0.00000000000E+00  0.45593999997E+02  0.45594000000E+02  0.51100000000E-03 0. -1.
         11   -1    0    0    0    0 -0.00000000000E+00 -0.00000000000E+00 -0.45593999997E+02  0.45594000000E+02  0.51100000000E-03 0.  1.
    9900012    2    1    2    0    0 -0.62492303045E+00 -0.89966377412E+00 -0.43964093812E+00  0.90007657738E+02  0.89999918020E+02 0.  0.
        -12    1    1    2    0    0  0.62492303045E+00  0.89966377412E+00  0.43964093812E+00  0.11803422618E+01  0.00000000000E+00 0.  1.
         11    1    3    3    0    0  0.33393605637E+02  0.10457279255E+02  0.85678524993E+01  0.36026319317E+02  0.51100000000E-03 0. -1.
        -11    1    3    3    0    0  0.80518150109E+01 -0.17611930131E+01  0.36473758335E+01  0.90131502002E+01  0.51100000000E-03 0.  1.
        -12    1    3    3    0    0 -0.42070343678E+02 -0.95957500155E+01 -0.12654869271E+02  0.44968188221E+02  0.00000000000E+00 0.  1.
</event>
<event>
 7    1  0.2385752E-015  0.9000723E+02  0.7816164E-02  0.1186340E+00
        -11   -1    0    0    0    0  0.00000000000E+00  0.00000000000E+00  0.45593999997E+02  0.45594000000E+02  0.51100000000E-03 0.  1.
         11   -1    0    0    0    0 -0.00000000000E+00 -0.00000000000E+00 -0.45593999997E+02  0.45594000000E+02  0.51100000000E-03 0. -1.
    9900012    2    1    2    0    0 -0.55037402610E+00 -0.51270598677E+00 -0.91018167030E+00  0.90007233439E+02  0.89999488119E+02 0.  0.
        -12    1    1    2    0    0  0.55037402610E+00  0.51270598677E+00  0.91018167030E+00  0.11807665605E+01  0.00000000000E+00 0.  1.
         11    1    3    3    0    0 -0.92586839614E+01 -0.41144344119E+01 -0.61823738760E+01  0.11869016228E+02  0.51100000000E-03 0. -1.
        -11    1    3    3    0    0 -0.19722595355E+02 -0.16609544103E+02  0.26765662426E+02  0.37165284988E+02  0.51100000000E-03 0.  1.
         12    1    3    3    0    0  0.28430905291E+02  0.20211272528E+02 -0.21493470220E+02  0.40972932223E+02  0.00000000000E+00 0. -1.
</event>
<event>
 7    1  0.2385752E-015  0.9000785E+02  0.7816164E-02  0.1186339E+00
        -11   -1    0    0    0    0  0.00000000000E+00  0.00000000000E+00  0.45593999997E+02  0.45594000000E+02  0.51100000000E-03 0. -1.
         11   -1    0    0    0    0 -0.00000000000E+00 -0.00000000000E+00 -0.45593999997E+02  0.45594000000E+02  0.51100000000E-03 0.  1.
    9900012    2    1    2    0    0 -0.86632487710E+00  0.45905183788E+00 -0.65689971101E+00  0.90007845513E+02  0.90000108274E+02 0.  0.
        -12    1    1    2    0    0  0.86632487710E+00 -0.45905183788E+00  0.65689971101E+00  0.11801544869E+01  0.00000000000E+00 0.  1.
         11    1    3    3    0    0 -0.49146867417E+01  0.14482497461E+01 -0.11206797937E+02  0.12322495419E+02  0.51100000000E-03 0. -1.
        -11    1    3    3    0    0  0.41755052649E+01  0.15700364102E+02 -0.29843899354E+02  0.33979326157E+02  0.51100000000E-03 0.  1.
         12    1    3    3    0    0 -0.12714340025E+00 -0.16689562010E+02  0.40393797579E+02  0.43706023938E+02  0.00000000000E+00 0. -1.
</event>
<event>
 7    1  0.2385752E-015  0.9000774E+02  0.7816164E-02  0.1186339E+00
        -11   -1    0    0    0    0  0.00000000000E+00  0.00000000000E+00  0.45593999997E+02  0.45594000000E+02  0.51100000000E-03 0.  1.
         11   -1    0    0    0    0 -0.00000000000E+00 -0.00000000000E+00 -0.45593999997E+02  0.45594000000E+02  0.51100000000E-03 0. -1.
    9900012    2    1    2    0    0  0.70172423493E+00 -0.62079422107E+00 -0.71778080558E+00  0.90007740854E+02  0.90000002233E+02 0.  0.
        -12    1    1    2    0    0 -0.70172423493E+00  0.62079422107E+00  0.71778080558E+00  0.11802591460E+01  0.00000000000E+00 0.  1.
         11    1    3    3    0    0  0.66154125756E+01  0.10328119884E+02 -0.17665455917E+00  0.12266415572E+02  0.51100000000E-03 0. -1.
        -11    1    3    3    0    0  0.17117526121E+02  0.27468411750E+02 -0.49137790453E+01  0.32736349359E+02  0.51100000000E-03 0.  1.
         12    1    3    3    0    0 -0.23031214462E+02 -0.38417325855E+02  0.43726527989E+01  0.45004975924E+02  0.00000000000E+00 0. -1.
</event>
<event>
 7    1  0.2385752E-015  0.9000779E+02  0.7816164E-02  0.1186339E+00
        -11   -1    0    0    0    0  0.00000000000E+00  0.00000000000E+00  0.45593999997E+02  0.45594000000E+02  0.51100000000E-03 0.  1.
         11   -1    0    0    0    0 -0.00000000000E+00 -0.00000000000E+00 -0.45593999997E+02  0.45594000000E+02  0.51100000000E-03 0. -1.
    9900012    2    1    2    0    0 -0.72247337229E+00 -0.92967089587E+00 -0.81502478325E-01  0.90007788831E+02  0.90000050844E+02 0.  0.
        -12    1    1    2    0    0  0.72247337229E+00  0.92967089587E+00  0.81502478325E-01  0.11802111685E+01  0.00000000000E+00 0.  1.
         11    1    3    3    0    0  0.87438890959E+01 -0.11022083300E+01 -0.52007851465E+01  0.10233211916E+02  0.51100000000E-03 0. -1.
        -11    1    3    3    0    0  0.12736013976E+02 -0.34870636023E+02 -0.38775692381E+01  0.37325632642E+02  0.51100000000E-03 0.  1.
         12    1    3    3    0    0 -0.22202376444E+02  0.35043173457E+02  0.89968519063E+01  0.42448944273E+02  0.00000000000E+00 0. -1.
</event>
<event>
 7    1  0.2385752E-015  0.9000773E+02  0.7816164E-02  0.1186339E+00
        -11   -1    0    0    0    0  0.00000000000E+00  0.00000000000E+00  0.45593999997E+02  0.45594000000E+02  0.51100000000E-03 0. -1.
         11   -1    0    0    0    0 -0.00000000000E+00 -0.00000000000E+00 -0.45593999997E+02  0.45594000000E+02  0.51100000000E-03 0.  1.
    9900012    2    1    2    0    0  0.10517400922E+01  0.49378297078E+00  0.20749211201E+00  0.90007732310E+02  0.89999993576E+02 0.  0.
        -12    1    1    2    0    0 -0.10517400922E+01 -0.49378297078E+00 -0.20749211201E+00  0.11802676901E+01  0.00000000000E+00 0.  1.
         11    1    3    3    0    0 -0.32203502205E+02 -0.72003726460E+01  0.73218185453E+01  0.33801182636E+02  0.51100000000E-03 0. -1.
        -11    1    3    3    0    0 -0.97985980973E+01 -0.34319986089E+01  0.25708513968E+01  0.10695813026E+02  0.51100000000E-03 0.  1.
        -12    1    3    3    0    0  0.43053840395E+02  0.11126154226E+02 -0.96851778301E+01  0.45510736648E+02  0.00000000000E+00 0.  1.
</event>
<event>
 7    1  0.2385752E-015  0.9000715E+02  0.7816164E-02  0.1186340E+00
        -11   -1    0    0    0    0  0.00000000000E+00  0.00000000000E+00  0.45593999997E+02  0.45594000000E+02  0.51100000000E-03 0.  1.
         11   -1    0    0    0    0 -0.00000000000E+00 -0.00000000000E+00 -0.45593999997E+02  0.45594000000E+02  0.51100000000E-03 0. -1.
    9900012    2    1    2    0    0 -0.13086079148E+00 -0.77063198015E+00  0.88509782895E+00  0.90007154387E+02  0.89999408023E+02 0.  0.
        -12    1    1    2    0    0  0.13086079148E+00  0.77063198015E+00 -0.88509782895E+00  0.11808456133E+01  0.00000000000E+00 0.  1.
         11    1    3    3    0    0  0.94557092652E+01 -0.12004642968E+02 -0.26896117855E+01  0.15516310847E+02  0.51100000000E-03 0. -1.
        -11    1    3    3    0    0  0.27898583108E+02  0.15094723614E+02  0.15035148654E+02  0.35103237967E+02  0.51100000000E-03 0.  1.
         12    1    3    3    0    0 -0.37485153165E+02 -0.38607126264E+01 -0.11460439040E+02  0.39387605573E+02  0.00000000000E+00 0. -1.
</event>
<event>
 7    1  0.2385752E-015  0.9000774E+02  0.7816164E-02  0.1186339E+00
        -11   -1    0    0    0    0  0.00000000000E+00  0.00000000000E+00  0.45593999997E+02  0.45594000000E+02  0.51100000000E-03 0.  1.
         11   -1    0    0    0    0 -0.00000000000E+00 -0.00000000000E+00 -0.45593999997E+02  0.45594000000E+02  0.51100000000E-03 0. -1.
    9900012    2    1    2    0    0  0.75315569067E+00  0.66150402030E+00  0.62304042270E+00  0.90007741371E+02  0.90000002757E+02 0.  0.
        -12    1    1    2    0    0 -0.75315569067E+00 -0.66150402030E+00 -0.62304042270E+00  0.11802586291E+01  0.00000000000E+00 0.  1.
         11    1    3    3    0    0  0.96995547225E+01  0.43781841714E+02  0.36751562600E+01  0.44993752894E+02  0.51100000000E-03 0. -1.
        -11    1    3    3    0    0 -0.26238191502E+01 -0.86518882652E+01 -0.41617888970E+01  0.99528932764E+01  0.51100000000E-03 0.  1.
        -12    1    3    3    0    0 -0.63225798816E+01 -0.34468449428E+02  0.11096730597E+01  0.35061095201E+02  0.00000000000E+00 0.  1.
</event>
<event>
 7    1  0.2385752E-015  0.9000782E+02  0.7816164E-02  0.1186339E+00
        -11   -1    0    0    0    0  0.00000000000E+00  0.00000000000E+00  0.45593999997E+02  0.45594000000E+02  0.51100000000E-03 0. -1.
         11   -1    0    0    0    0 -0.00000000000E+00 -0.00000000000E+00 -0.45593999997E+02  0.45594000000E+02  0.51100000000E-03 0.  1.
    9900012    2    1    2    0    0  0.10281288432E+01 -0.19808720102E+00  0.54454801267E+00  0.90007822049E+02  0.90000084500E+02 0.  0.
        -12    1    1    2    0    0 -0.10281288432E+01  0.19808720102E+00 -0.54454801267E+00  0.11801779508E+01  0.00000000000E+00 0.  1.
         11    1    3    3    0    0 -0.40685277513E+01 -0.21168801140E+00  0.33645364543E+02  0.33891123991E+02  0.51100000000E-03 0. -1.
        -11    1    3    3    0    0  0.43646665661E+01  0.24389612495E+00  0.11089345725E+02  0.11919873675E+02  0.51100000000E-03 0.  1.
        -12    1    3    3    0    0  0.73199002842E+00 -0.23029531457E+00 -0.44190162256E+02  0.44196824383E+02  0.00000000000E+00 0.  1.
</event>
<event>
 7    1  0.2385752E-015  0.9000772E+02  0.7816164E-02  0.1186339E+00
        -11   -1    0    0    0    0  0.00000000000E+00  0.00000000000E+00  0.45593999997E+02  0.45594000000E+02  0.51100000000E-03 0.  1.
         11   -1    0    0    0    0 -0.00000000000E+00 -0.00000000000E+00 -0.45593999997E+02  0.45594000000E+02  0.51100000000E-03 0. -1.
    9900012    2    1    2    0    0 -0.42967274008E+00  0.10652873617E+01  0.27129411810E+00  0.90007721929E+02  0.89999983058E+02 0.  0.
        -12    1    1    2    0    0  0.42967274008E+00 -0.10652873617E+01 -0.27129411810E+00  0.11802780711E+01  0.00000000000E+00 0.  1.
         11    1    3    3    0    0  0.20744450744E+02 -0.32891242334E+01 -0.93515842274E+00  0.21024392891E+02  0.51100000000E-03 0. -1.
        -11    1    3    3    0    0 -0.85937420047E+00 -0.28964609647E+02 -0.51913250802E+01  0.29438698890E+02  0.51100000000E-03 0.  1.
         12    1    3    3    0    0 -0.20314749284E+02  0.33319021242E+02  0.63977776210E+01  0.39544630147E+02  0.00000000000E+00 0. -1.
</event>
<event>
 7    1  0.2385752E-015  0.9000768E+02  0.7816164E-02  0.1186339E+00
        -11   -1    0    0    0    0  0.00000000000E+00  0.00000000000E+00  0.45593999997E+02  0.45594000000E+02  0.51100000000E-03 0.  1.
         11   -1    0    0    0    0 -0.00000000000E+00 -0.00000000000E+00 -0.45593999997E+02  0.45594000000E+02  0.51100000000E-03 0. -1.
    9900012    2    1    2    0    0  0.59509215864E+00  0.74266359639E+00 -0.69819197532E+00  0.90007679735E+02  0.89999940307E+02 0.  0.
        -12    1    1    2    0    0 -0.59509215864E+00 -0.74266359639E+00  0.69819197532E+00  0.11803202655E+01  0.00000000000E+00 0.  1.
         11    1    3    3    0    0  0.22524143521E+01 -0.65139806188E+01  0.58094267128E+01  0.90141418288E+01  0.51100000000E-03 0. -1.
        -11    1    3    3    0    0 -0.30289223451E+02 -0.23470176371E+02  0.98730817067E+00  0.38330940685E+02  0.51100000000E-03 0.  1.
         12    1    3    3    0    0  0.28631901257E+02  0.30726820587E+02 -0.74949268588E+01  0.42662597220E+02  0.00000000000E+00 0. -1.
</event>
<event>
 7    1  0.2385752E-015  0.9000787E+02  0.7816164E-02  0.1186339E+00
        -11   -1    0    0    0    0  0.00000000000E+00  0.00000000000E+00  0.45593999997E+02  0.45594000000E+02  0.51100000000E-03 0. -1.
         11   -1    0    0    0    0 -0.00000000000E+00 -0.00000000000E+00 -0.45593999997E+02  0.45594000000E+02  0.51100000000E-03 0.  1.
    9900012    2    1    2    0    0  0.59931810374E+00 -0.23284178245E+00  0.98960567269E+00  0.90007865740E+02  0.90000128767E+02 0.  0.
        -12    1    1    2    0    0 -0.59931810374E+00  0.23284178245E+00 -0.98960567269E+00  0.11801342604E+01  0.00000000000E+00 0.  1.
         11    1    3    3    0    0 -0.62280133319E+01  0.99419284159E+01 -0.38473206542E+01  0.12346334159E+02  0.51100000000E-03 0. -1.
        -11    1    3    3    0    0 -0.33347303238E+02  0.51668120008E+00 -0.77209002000E+01  0.34233344752E+02  0.51100000000E-03 0.  1.
         12    1    3    3    0    0  0.40174634674E+02 -0.10691451398E+02  0.12557826527E+02  0.43428186829E+02  0.00000000000E+00 0. -1.
</event>
<event>
 7    1  0.2385752E-015  0.9000767E+02  0.7816164E-02  0.1186339E+00
        -11   -1    0    0    0    0  0.00000000000E+00  0.00000000000E+00  0.45593999997E+02  0.45594000000E+02  0.51100000000E-03 0. -1.
         11   -1    0    0    0    0 -0.00000000000E+00 -0.00000000000E+00 -0.45593999997E+02  0.45594000000E+02  0.51100000000E-03 0.  1.
    9900012    2    1    2    0    0 -0.10218464036E+01 -0.40859125766E-01  0.58935263497E+00  0.90007671203E+02  0.89999931663E+02 0.  0.
        -12    1    1    2    0    0  0.10218464036E+01  0.40859125766E-01 -0.58935263497E+00  0.11803287970E+01  0.00000000000E+00 0.  1.
         11    1    3    3    0    0 -0.31939498402E+01 -0.35104762433E+01 -0.80078697552E+01  0.93086377797E+01  0.51100000000E-03 0. -1.
        -11    1    3    3    0    0  0.13588391736E+02 -0.26233329462E+02 -0.21781509935E+02  0.36705124165E+02  0.51100000000E-03 0.  1.
         12    1    3    3    0    0 -0.11416288300E+02  0.29702946580E+02  0.30378732326E+02  0.43993909258E+02  0.00000000000E+00 0. -1.
</event>
<event>
 7    1  0.2385752E-015  0.9000766E+02  0.7816164E-02  0.1186339E+00
        -11   -1    0    0    0    0  0.00000000000E+00  0.00000000000E+00  0.45593999997E+02  0.45594000000E+02  0.51100000000E-03 0. -1.
         11   -1    0    0    0    0 -0.00000000000E+00 -0.00000000000E+00 -0.45593999997E+02  0.45594000000E+02  0.51100000000E-03 0.  1.
    9900012    2    1    2    0    0  0.10939595225E+01 -0.25337491393E+00  0.36365538563E+00  0.90007664656E+02  0.89999925030E+02 0.  0.
        -12    1    1    2    0    0 -0.10939595225E+01  0.25337491393E+00 -0.36365538563E+00  0.11803353436E+01  0.00000000000E+00 0.  1.
         11    1    3    3    0    0  0.34517033870E+02 -0.12267546058E+02  0.81871336690E+00  0.36641351030E+02  0.51100000000E-03 0. -1.
        -11    1    3    3    0    0  0.88038271456E+01 -0.16940764282E+01 -0.28027024999E+00  0.89697167753E+01  0.51100000000E-03 0.  1.
        -12    1    3    3    0    0 -0.42226901493E+02  0.13708247572E+02 -0.17478773128E+00  0.44396596851E+02  0.00000000000E+00 0.  1.
</event>
<event>
 7    1  0.2385752E-015  0.9000777E+02  0.7816164E-02  0.1186339E+00
        -11   -1    0    0    0    0  0.00000000000E+00  0.00000000000E+00  0.45593999997E+02  0.45594000000E+02  0.51100000000E-03 0.  1.
         11   -1    0    0    0    0 -0.00000000000E+00 -0.00000000000E+00 -0.45593999997E+02  0.45594000000E+02  0.51100000000E-03 0. -1.
    9900012    2    1    2    0    0  0.23034470055E+00  0.73072090259E+00  0.89773342101E+00  0.90007772474E+02  0.90000034270E+02 0.  0.
        -12    1    1    2    0    0 -0.23034470055E+00 -0.73072090259E+00 -0.89773342101E+00  0.11802275263E+01  0.00000000000E+00 0.  1.
         11    1    3    3    0    0  0.24304732507E+02 -0.29963955709E+02 -0.17438091740E+01  0.38621231657E+02  0.51100000000E-03 0. -1.
        -11    1    3    3    0    0 -0.83627736430E+00 -0.19674525577E+01  0.10348631244E+02  0.10567137658E+02  0.51100000000E-03 0.  1.
        -12    1    3    3    0    0 -0.23238110442E+02  0.32662129169E+02 -0.77070886494E+01  0.40819403159E+02  0.00000000000E+00 0.  1.
</event>
<event>
 7    1  0.2385752E-015  0.9000793E+02  0.7816164E-02  0.1186339E+00
        -11   -1    0    0    0    0  0.00000000000E+00  0.00000000000E+00  0.45593999997E+02  0.45594000000E+02  0.51100000000E-03 0.  1.
         11   -1    0    0    0    0 -0.00000000000E+00 -0.00000000000E+00 -0.45593999997E+02  0.45594000000E+02  0.51100000000E-03 0. -1.
    9900012    2    1    2    0    0  0.41229512633E+00 -0.71764550399E+00 -0.84116990183E+00  0.90007928331E+02  0.90000192185E+02 0.  0.
        -12    1    1    2    0    0 -0.41229512633E+00  0.71764550399E+00  0.84116990183E+00  0.11800716691E+01  0.00000000000E+00 0.  1.
         11    1    3    3    0    0 -0.38667435467E+01 -0.76125376018E+01  0.50074685596E+01  0.98983420849E+01  0.51100000000E-03 0. -1.
        -11    1    3    3    0    0 -0.52517150187E+01 -0.29570294203E+02  0.18467146788E+02  0.35256464948E+02  0.51100000000E-03 0.  1.
         12    1    3    3    0    0  0.95307536917E+01  0.36465186300E+02 -0.24315785250E+02  0.44853121298E+02  0.00000000000E+00 0. -1.
</event>
<event>
 7    1  0.2385752E-015  0.9000797E+02  0.7816164E-02  0.1186339E+00
        -11   -1    0    0    0    0  0.00000000000E+00  0.00000000000E+00  0.45593999997E+02  0.45594000000E+02  0.51100000000E-03 0.  1.
         11   -1    0    0    0    0 -0.00000000000E+00 -0.00000000000E+00 -0.45593999997E+02  0.45594000000E+02  0.51100000000E-03 0. -1.
    9900012    2    1    2    0    0  0.59638100446E-01 -0.70997515223E+00 -0.94065939191E+00  0.90007973936E+02  0.90000238392E+02 0.  0.
        -12    1    1    2    0    0 -0.59638100446E-01  0.70997515223E+00  0.94065939191E+00  0.11800260639E+01  0.00000000000E+00 0.  1.
         11    1    3    3    0    0  0.51241461873E+01  0.43455416146E+01  0.58865647261E+01  0.89326508164E+01  0.51100000000E-03 0. -1.
        -11    1    3    3    0    0 -0.13619702691E+02  0.25855154331E+02  0.23067771825E+02  0.37230463388E+02  0.51100000000E-03 0.  1.
         12    1    3    3    0    0  0.85551946040E+01 -0.30910671098E+02 -0.29894995943E+02  0.43844859731E+02  0.00000000000E+00 0. -1.
</event>
<event>
 7    1  0.2385752E-015  0.9000753E+02  0.7816164E-02  0.1186339E+00
        -11   -1    0    0    0    0  0.00000000000E+00  0.00000000000E+00  0.45593999997E+02  0.45594000000E+02  0.51100000000E-03 0.  1.
         11   -1    0    0    0    0 -0.00000000000E+00 -0.00000000000E+00 -0.45593999997E+02  0.45594000000E+02  0.51100000000E-03 0. -1.
    9900012    2    1    2    0    0  0.40428405638E+00 -0.35064028192E+00 -0.10521926947E+01  0.90007532435E+02  0.89999791063E+02 0.  0.
        -12    1    1    2    0    0 -0.40428405638E+00  0.35064028192E+00  0.10521926947E+01  0.11804675651E+01  0.00000000000E+00 0.  1.
         11    1    3    3    0    0  0.67146037848E+01 -0.14514440879E+02 -0.42110188506E+01  0.16537459842E+02  0.51100000000E-03 0. -1.
        -11    1    3    3    0    0 -0.36946787741E+02  0.36793126215E+01 -0.10101784439E+02  0.38479195871E+02  0.51100000000E-03 0.  1.
         12    1    3    3    0    0  0.30636468013E+02  0.10484487976E+02  0.13260610595E+02  0.34990876722E+02  0.00000000000E+00 0. -1.
</event>
<event>
 7    1  0.2385752E-015  0.9000773E+02  0.7816164E-02  0.1186339E+00
        -11   -1    0    0    0    0  0.00000000000E+00  0.00000000000E+00  0.45593999997E+02  0.45594000000E+02  0.51100000000E-03 0. -1.
         11   -1    0    0    0    0 -0.00000000000E+00 -0.00000000000E+00 -0.45593999997E+02  0.45594000000E+02  0.51100000000E-03 0.  1.
    9900012    2    1    2    0    0 -0.87560786958E+00 -0.60184590102E+00 -0.51394513304E+00  0.90007725782E+02  0.89999986962E+02 0.  0.
        -12    1    1    2    0    0  0.87560786958E+00  0.60184590102E+00  0.51394513304E+00  0.11802742180E+01  0.00000000000E+00 0.  1.
         11    1    3    3    0    0 -0.52968455935E+01 -0.50587730995E+01  0.36706871293E+02  0.37430497711E+02  0.51100000000E-03 0. -1.
        -11    1    3    3    0    0  0.18837965933E+01 -0.22763130997E+01  0.70925889672E+01  0.76834308386E+01  0.51100000000E-03 0.  1.
        -12    1    3    3    0    0  0.25374411305E+01  0.67332402982E+01 -0.44313405393E+02  0.44893797232E+02  0.00000000000E+00 0.  1.
</event>
<event>
 7    1  0.2385752E-015  0.9000788E+02  0.7816164E-02  0.1186339E+00
        -11   -1    0    0    0    0  0.00000000000E+00  0.00000000000E+00  0.45593999997E+02  0.45594000000E+02  0.51100000000E-03 0.  1.
         11   -1    0    0    0    0 -0.00000000000E+00 -0.00000000000E+00 -0.45593999997E+02  0.45594000000E+02  0.51100000000E-03 0. -1.
    9900012    2    1    2    0    0  0.11306964405E+00 -0.11581966485E+01 -0.19613192015E+00  0.90007884772E+02  0.90000148051E+02 0.  0.
        -12    1    1    2    0    0 -0.11306964405E+00  0.11581966485E+01  0.19613192015E+00  0.11801152279E+01  0.00000000000E+00 0.  1.
         11    1    3    3    0    0 -0.29713263417E+02  0.81036864115E+01 -0.12275265227E+02  0.33154636071E+02  0.51100000000E-03 0. -1.
        -11    1    3    3    0    0 -0.46993873402E+01  0.13623475709E+01 -0.12323844301E+02  0.13259614281E+02  0.51100000000E-03 0.  1.
        -12    1    3    3    0    0  0.34525720402E+02 -0.10624230631E+02  0.24402977608E+02  0.43593634419E+02  0.00000000000E+00 0.  1.
</event>
<event>
 7    1  0.2385752E-015  0.9000786E+02  0.7816164E-02  0.1186339E+00
        -11   -1    0    0    0    0  0.00000000000E+00  0.00000000000E+00  0.45593999997E+02  0.45594000000E+02  0.51100000000E-03 0. -1.
         11   -1    0    0    0    0 -0.00000000000E+00 -0.00000000000E+00 -0.45593999997E+02  0.45594000000E+02  0.51100000000E-03 0.  1.
    9900012    2    1    2    0    0 -0.28944773551E+00 -0.46502397507E+00  0.10453196853E+01  0.90007864189E+02  0.90000127196E+02 0.  0.
        -12    1    1    2    0    0  0.28944773551E+00  0.46502397507E+00 -0.10453196853E+01  0.11801358115E+01  0.00000000000E+00 0.  1.
         11    1    3    3    0    0 -0.79066964127E+01  0.11934002357E+02 -0.14285153278E+02  0.20223794521E+02  0.51100000000E-03 0. -1.
        -11    1    3    3    0    0 -0.28056467194E+02  0.17491135579E+01  0.13951040560E+02  0.31382419961E+02  0.51100000000E-03 0.  1.
         12    1    3    3    0    0  0.35673715871E+02 -0.14148139890E+02  0.13794324031E+01  0.38401649706E+02  0.00000000000E+00 0. -1.
</event>
<event>
 7    1  0.2385752E-015  0.9000767E+02  0.7816164E-02  0.1186339E+00
        -11   -1    0    0    0    0  0.00000000000E+00  0.00000000000E+00  0.45593999997E+02  0.45594000000E+02  0.51100000000E-03 0. -1.
         11   -1    0    0    0    0 -0.00000000000E+00 -0.00000000000E+00 -0.45593999997E+02  0.45594000000E+02  0.51100000000E-03 0.  1.
    9900012    2    1    2    0    0 -0.78047869192E+00 -0.27348299903E+00 -0.84216773311E+00  0.90007666814E+02  0.89999927216E+02 0.  0.
        -12    1    1    2    0    0  0.78047869192E+00  0.27348299903E+00  0.84216773311E+00  0.11803331860E+01  0.00000000000E+00 0.  1.
         11    1    3    3    0    0  0.42034879589E+01 -0.63349882582E+01 -0.80124161895E+01  0.11045370103E+02  0.51100000000E-03 0. -1.
        -11    1    3    3    0    0 -0.25686490333E+02  0.96042636078E+01 -0.27237036469E+02  0.38650922640E+02  0.51100000000E-03 0.  1.
         12    1    3    3    0    0  0.20702523682E+02 -0.35427583486E+01  0.34407284926E+02  0.40311374071E+02  0.00000000000E+00 0. -1.
</event>
<event>
 7    1  0.2385752E-015  0.9000775E+02  0.7816164E-02  0.1186339E+00
        -11   -1    0    0    0    0  0.00000000000E+00  0.00000000000E+00  0.45593999997E+02  0.45594000000E+02  0.51100000000E-03 0. -1.
         11   -1    0    0    0    0 -0.00000000000E+00 -0.00000000000E+00 -0.45593999997E+02  0.45594000000E+02  0.51100000000E-03 0.  1.
    9900012    2    1    2    0    0 -0.48545844191E+00  0.10245960162E+01  0.32791256847E+00  0.90007748523E+02  0.90000010004E+02 0.  0.
        -12    1    1    2    0    0  0.48545844191E+00 -0.10245960162E+01 -0.32791256847E+00  0.11802514765E+01  0.00000000000E+00 0.  1.
         11    1    3    3    0    0  0.11624700866E+02  0.91339155224E+01  0.30376404896E+02  0.33782955135E+02  0.51100000000E-03 0. -1.
        -11    1    3    3    0    0 -0.21362864713E+01 -0.14362520341E+02  0.78733871679E+01  0.16517746099E+02  0.51100000000E-03 0.  1.
        -12    1    3    3    0    0 -0.99738728366E+01  0.62532008344E+01 -0.37921879495E+02  0.39707047290E+02  0.00000000000E+00 0.  1.
</event>
<event>
 7    1  0.2385752E-015  0.9000775E+02  0.7816164E-02  0.1186339E+00
        -11   -1    0    0    0    0  0.00000000000E+00  0.00000000000E+00  0.45593999997E+02  0.45594000000E+02  0.51100000000E-03 0.  1.
         11   -1    0    0    0    0 -0.00000000000E+00 -0.00000000000E+00 -0.45593999997E+02  0.45594000000E+02  0.51100000000E-03 0. -1.
    9900012    2    1    2    0    0  0.89615329887E+00  0.12612488790E+00 -0.75762249249E+00  0.90007750000E+02  0.90000011500E+02 0.  0.
        -12    1    1    2    0    0 -0.89615329887E+00 -0.12612488790E+00  0.75762249249E+00  0.11802500004E+01  0.00000000000E+00 0.  1.
         11    1    3    3    0    0 -0.32202480384E+01 -0.61218989838E+01  0.64534614072E+01  0.94601696069E+01  0.51100000000E-03 0. -1.
        -11    1    3    3    0    0  0.22678088040E+02 -0.29751196418E+02  0.61221073395E+01  0.37906589981E+02  0.51100000000E-03 0.  1.
         12    1    3    3    0    0 -0.18561686703E+02  0.35999220289E+02 -0.13333191239E+02  0.42640990412E+02  0.00000000000E+00 0. -1.
</event>
<event>
 7    1  0.2385752E-015  0.9000776E+02  0.7816164E-02  0.1186339E+00
        -11   -1    0    0    0    0  0.00000000000E+00  0.00000000000E+00  0.45593999997E+02  0.45594000000E+02  0.51100000000E-03 0.  1.
         11   -1    0    0    0    0 -0.00000000000E+00 -0.00000000000E+00 -0.45593999997E+02  0.45594000000E+02  0.51100000000E-03 0. -1.
    9900012    2    1    2    0    0  0.84021860252E+00  0.47508034036E+00 -0.67918367249E+00  0.90007763121E+02  0.90000024794E+02 0.  0.
        -12    1    1    2    0    0 -0.84021860252E+00 -0.47508034036E+00  0.67918367249E+00  0.11802368791E+01  0.00000000000E+00 0.  1.
         11    1    3    3    0    0  0.81123348895E+01 -0.48110808556E+01  0.79133877286E+01  0.12311709141E+02  0.51100000000E-03 0. -1.
        -11    1    3    3    0    0  0.13908156060E+02 -0.21384248306E+02  0.20639796211E+02  0.32813473886E+02  0.51100000000E-03 0.  1.
         12    1    3    3    0    0 -0.21180272347E+02  0.26670409502E+02 -0.29232367612E+02  0.44882580094E+02  0.00000000000E+00 0. -1.
</event>
<event>
 7    1  0.2385752E-015  0.9000773E+02  0.7816164E-02  0.1186339E+00
        -11   -1    0    0    0    0  0.00000000000E+00  0.00000000000E+00  0.45593999997E+02  0.45594000000E+02  0.51100000000E-03 0. -1.
         11   -1    0    0    0    0 -0.00000000000E+00 -0.00000000000E+00 -0.45593999997E+02  0.45594000000E+02  0.51100000000E-03 0.  1.
    9900012    2    1    2    0    0  0.86335452160E+00 -0.79910411389E+00  0.95361871972E-01  0.90007727870E+02  0.89999989078E+02 0.  0.
        -12    1    1    2    0    0 -0.86335452160E+00  0.79910411389E+00 -0.95361871972E-01  0.11802721302E+01  0.00000000000E+00 0.  1.
         11    1    3    3    0    0 -0.49482537803E+00 -0.37929974691E+02 -0.76393290788E+01  0.38694795273E+02  0.51100000000E-03 0. -1.
        -11    1    3    3    0    0 -0.44237658543E+01 -0.24187802041E+01  0.10083688740E+02  0.11273907081E+02  0.51100000000E-03 0.  1.
        -12    1    3    3    0    0  0.57819457540E+01  0.39549650781E+02 -0.23489977889E+01  0.40039025515E+02  0.00000000000E+00 0.  1.
</event>
<event>
 7    1  0.2385752E-015  0.9000770E+02  0.7816164E-02  0.1186339E+00
        -11   -1    0    0    0    0  0.00000000000E+00  0.00000000000E+00  0.45593999997E+02  0.45594000000E+02  0.51100000000E-03 0.  1.
         11   -1    0    0    0    0 -0.00000000000E+00 -0.00000000000E+00 -0.45593999997E+02  0.45594000000E+02  0.51100000000E-03 0. -1.
    9900012    2    1    2    0    0 -0.14229238514E+00  0.10765409827E+01 -0.46250615129E+00  0.90007703618E+02  0.89999964505E+02 0.  0.
        -12    1    1    2    0    0  0.14229238514E+00 -0.10765409827E+01  0.46250615129E+00  0.11802963824E+01  0.00000000000E+00 0.  1.
         11    1    3    3    0    0  0.41678254290E+02  0.18600238417E+01 -0.32687050174E+01  0.41847592549E+02  0.51100000000E-03 0. -1.
        -11    1    3    3    0    0 -0.39504490279E+01 -0.38655059793E+01  0.80914548624E+01  0.97989706628E+01  0.51100000000E-03 0.  1.
        -12    1    3    3    0    0 -0.37870097647E+02  0.30820231203E+01 -0.52852559964E+01  0.38361140406E+02  0.00000000000E+00 0.  1.
</event>
<event>
 7    1  0.2385752E-015  0.9000772E+02  0.7816164E-02  0.1186339E+00
        -11   -1    0    0    0    0  0.00000000000E+00  0.00000000000E+00  0.45593999997E+02  0.45594000000E+02  0.51100000000E-03 0.  1.
         11   -1    0    0    0    0 -0.00000000000E+00 -0.00000000000E+00 -0.45593999997E+02  0.45594000000E+02  0.51100000000E-03 0. -1.
    9900012    2    1    2    0    0  0.59050861763E+00  0.91308787240E+00 -0.45894906281E+00  0.90007718621E+02  0.89999979707E+02 0.  0.
        -12    1    1    2    0    0 -0.59050861763E+00 -0.91308787240E+00  0.45894906281E+00  0.11802813785E+01  0.00000000000E+00 0.  1.
         11    1    3    3    0    0  0.40500694439E+02  0.16378727617E+02 -0.89187514933E+01  0.44588261873E+02  0.51100000000E-03 0. -1.
        -11    1    3    3    0    0 -0.92712394214E+01 -0.30566135774E+01 -0.33436889861E+01  0.10318867344E+02  0.51100000000E-03 0.  1.
        -12    1    3    3    0    0 -0.30638946400E+02 -0.12409026167E+02  0.11803491417E+02  0.35100589404E+02  0.00000000000E+00 0.  1.
</event>
<event>
 7    1  0.2385752E-015  0.9000833E+02  0.7816164E-02  0.1186338E+00
        -11   -1    0    0    0    0  0.00000000000E+00  0.00000000000E+00  0.45593999997E+02  0.45594000000E+02  0.51100000000E-03 0.  1.
         11   -1    0    0    0    0 -0.00000000000E+00 -0.00000000000E+00 -0.45593999997E+02  0.45594000000E+02  0.51100000000E-03 0. -1.
    9900012    2    1    2    0    0 -0.77643999470E+00  0.81350282313E+00 -0.35632491894E+00  0.90008333371E+02  0.90000602569E+02 0.  0.
        -12    1    1    2    0    0  0.77643999470E+00 -0.81350282313E+00  0.35632491894E+00  0.11796666294E+01  0.00000000000E+00 0.  1.
         11    1    3    3    0    0 -0.40985446149E+01 -0.51970712551E+01  0.87571202171E+01  0.10977011084E+02  0.51100000000E-03 0. -1.
        -11    1    3    3    0    0  0.23130836477E+02 -0.91561566814E+01  0.25982444351E+02  0.35971630711E+02  0.51100000000E-03 0.  1.
         12    1    3    3    0    0 -0.19808731857E+02  0.15166730760E+02 -0.35095889487E+02  0.43059691575E+02  0.00000000000E+00 0. -1.
</event>
<event>
 7    1  0.2385752E-015  0.9000773E+02  0.7816164E-02  0.1186339E+00
        -11   -1    0    0    0    0  0.00000000000E+00  0.00000000000E+00  0.45593999997E+02  0.45594000000E+02  0.51100000000E-03 0. -1.
         11   -1    0    0    0    0 -0.00000000000E+00 -0.00000000000E+00 -0.45593999997E+02  0.45594000000E+02  0.51100000000E-03 0.  1.
    9900012    2    1    2    0    0  0.11673911015E+01 -0.92839803184E-01  0.14703655852E+00  0.90007728437E+02  0.89999989652E+02 0.  0.
        -12    1    1    2    0    0 -0.11673911015E+01  0.92839803184E-01 -0.14703655852E+00  0.11802715630E+01  0.00000000000E+00 0.  1.
         11    1    3    3    0    0  0.88677168759E+01 -0.32551787394E+01  0.50229939728E+00  0.94596456679E+01  0.51100000000E-03 0. -1.
        -11    1    3    3    0    0  0.28023917458E+02  0.23399165888E+02  0.10670016499E+02  0.38035643366E+02  0.51100000000E-03 0.  1.
         12    1    3    3    0    0 -0.35724243232E+02 -0.20236826951E+02 -0.11025279338E+02  0.42512439403E+02  0.00000000000E+00 0. -1.
</event>
<event>
 7    1  0.2385752E-015  0.9000774E+02  0.7816164E-02  0.1186339E+00
        -11   -1    0    0    0    0  0.00000000000E+00  0.00000000000E+00  0.45593999997E+02  0.45594000000E+02  0.51100000000E-03 0.  1.
         11   -1    0    0    0    0 -0.00000000000E+00 -0.00000000000E+00 -0.45593999997E+02  0.45594000000E+02  0.51100000000E-03 0. -1.
    9900012    2    1    2    0    0 -0.11401676114E+01 -0.20109376215E+00 -0.22931965649E+00  0.90007742237E+02  0.90000003634E+02 0.  0.
        -12    1    1    2    0    0  0.11401676114E+01  0.20109376215E+00  0.22931965649E+00  0.11802577634E+01  0.00000000000E+00 0.  1.
         11    1    3    3    0    0 -0.83780122477E+01  0.81374403607E+01  0.55221199669E+01  0.12919087972E+02  0.51100000000E-03 0. -1.
        -11    1    3    3    0    0 -0.11162451246E+02  0.20474265311E+02  0.22750620032E+02  0.32578928312E+02  0.51100000000E-03 0.  1.
         12    1    3    3    0    0  0.18400295883E+02 -0.28812799434E+02 -0.28502059655E+02  0.44509725953E+02  0.00000000000E+00 0. -1.
</event>
<event>
 7    1  0.2385752E-015  0.9000785E+02  0.7816164E-02  0.1186339E+00
        -11   -1    0    0    0    0  0.00000000000E+00  0.00000000000E+00  0.45593999997E+02  0.45594000000E+02  0.51100000000E-03 0.  1.
         11   -1    0    0    0    0 -0.00000000000E+00 -0.00000000000E+00 -0.45593999997E+02  0.45594000000E+02  0.51100000000E-03 0. -1.
    9900012    2    1    2    0    0 -0.32494849693E+00  0.82183901890E+00 -0.78214323010E+00  0.90007847920E+02  0.90000110713E+02 0.  0.
        -12    1    1    2    0    0  0.32494849693E+00 -0.82183901890E+00  0.78214323010E+00  0.11801520796E+01  0.00000000000E+00 0.  1.
         11    1    3    3    0    0  0.13036146523E+02 -0.33698347504E+02 -0.87000950220E+01  0.37164652485E+02  0.51100000000E-03 0. -1.
        -11    1    3    3    0    0 -0.43363695781E+01 -0.78258218700E+01  0.11542271938E+01  0.90210769721E+01  0.51100000000E-03 0.  1.
        -12    1    3    3    0    0 -0.90247254418E+01  0.42346008393E+02  0.67637245981E+01  0.43822118463E+02  0.00000000000E+00 0.  1.
</event>
<event>
 7    1  0.2385752E-015  0.9000776E+02  0.7816164E-02  0.1186339E+00
        -11   -1    0    0    0    0  0.00000000000E+00  0.00000000000E+00  0.45593999997E+02  0.45594000000E+02  0.51100000000E-03 0.  1.
         11   -1    0    0    0    0 -0.00000000000E+00 -0.00000000000E+00 -0.45593999997E+02  0.45594000000E+02  0.51100000000E-03 0. -1.
    9900012    2    1    2    0    0  0.88635710478E+00 -0.68330964525E+00 -0.37473565306E+00  0.90007759432E+02  0.90000021057E+02 0.  0.
        -12    1    1    2    0    0 -0.88635710478E+00  0.68330964525E+00  0.37473565306E+00  0.11802405679E+01  0.00000000000E+00 0.  1.
         11    1    3    3    0    0  0.21849096204E+02  0.25591882121E+02 -0.13227588414E+02  0.36156555850E+02  0.51100000000E-03 0. -1.
        -11    1    3    3    0    0  0.78987197172E+01  0.49237729759E+01  0.52149517656E+01  0.10669069110E+02  0.51100000000E-03 0.  1.
        -12    1    3    3    0    0 -0.28861458816E+02 -0.31198964742E+02  0.76379009954E+01  0.43182134472E+02  0.00000000000E+00 0.  1.
</event>
<event>
 7    1  0.2385752E-015  0.9000778E+02  0.7816164E-02  0.1186339E+00
        -11   -1    0    0    0    0  0.00000000000E+00  0.00000000000E+00  0.45593999997E+02  0.45594000000E+02  0.51100000000E-03 0. -1.
         11   -1    0    0    0    0 -0.00000000000E+00 -0.00000000000E+00 -0.45593999997E+02  0.45594000000E+02  0.51100000000E-03 0.  1.
    9900012    2    1    2    0    0 -0.19594129991E+00  0.10807769506E+01  0.43179548863E+00  0.90007780040E+02  0.90000041937E+02 0.  0.
        -12    1    1    2    0    0  0.19594129991E+00 -0.10807769506E+01 -0.43179548863E+00  0.11802199600E+01  0.00000000000E+00 0.  1.
         11    1    3    3    0    0 -0.17095025514E+02 -0.28205082040E+02 -0.11254351878E+02  0.34848629624E+02  0.51100000000E-03 0. -1.
        -11    1    3    3    0    0 -0.30080934976E+01  0.35841944648E+01 -0.13337249288E+02  0.14134259630E+02  0.51100000000E-03 0.  1.
        -12    1    3    3    0    0  0.19907177712E+02  0.25701664526E+02  0.25023396655E+02  0.41024890786E+02  0.00000000000E+00 0.  1.
</event>
<event>
 7    1  0.2385752E-015  0.9000775E+02  0.7816164E-02  0.1186339E+00
        -11   -1    0    0    0    0  0.00000000000E+00  0.00000000000E+00  0.45593999997E+02  0.45594000000E+02  0.51100000000E-03 0.  1.
         11   -1    0    0    0    0 -0.00000000000E+00 -0.00000000000E+00 -0.45593999997E+02  0.45594000000E+02  0.51100000000E-03 0. -1.
    9900012    2    1    2    0    0 -0.10432035237E+01 -0.52097876354E+00 -0.18249710893E+00  0.90007746782E+02  0.90000008239E+02 0.  0.
        -12    1    1    2    0    0  0.10432035237E+01  0.52097876354E+00  0.18249710893E+00  0.11802532180E+01  0.00000000000E+00 0.  1.
         11    1    3    3    0    0 -0.81176111712E+01  0.55105733025E+01  0.24608070925E+01  0.10115216313E+02  0.51100000000E-03 0. -1.
        -11    1    3    3    0    0 -0.22597429981E+02  0.26885305058E+02 -0.51947915605E+01  0.35502807346E+02  0.51100000000E-03 0.  1.
         12    1    3    3    0    0  0.29671837628E+02 -0.32916857125E+02  0.25514873590E+01  0.44389723123E+02  0.00000000000E+00 0. -1.
</event>
<event>
 7    1  0.2385752E-015  0.9000776E+02  0.7816164E-02  0.1186339E+00
        -11   -1    0    0    0    0  0.00000000000E+00  0.00000000000E+00  0.45593999997E+02  0.45594000000E+02  0.51100000000E-03 0.  1.
         11   -1    0    0    0    0 -0.00000000000E+00 -0.00000000000E+00 -0.45593999997E+02  0.45594000000E+02  0.51100000000E-03 0. -1.
    9900012    2    1    2    0    0  0.83620650516E+00 -0.63041285600E+00 -0.54434937086E+00  0.90007755142E+02  0.90000016709E+02 0.  0.
        -12    1    1    2    0    0 -0.83620650516E+00  0.63041285600E+00  0.54434937086E+00  0.11802448584E+01  0.00000000000E+00 0.  1.
         11    1    3    3    0    0 -0.49777025197E+01 -0.60706050161E+01  0.47230174895E+01  0.91616953728E+01  0.51100000000E-03 0. -1.
        -11    1    3    3    0    0 -0.31756054308E+02 -0.16665778773E+02  0.45851401338E+01  0.36155479220E+02  0.51100000000E-03 0.  1.
         12    1    3    3    0    0  0.37569963333E+02  0.22105970933E+02 -0.98525069942E+01  0.44690580549E+02  0.00000000000E+00 0. -1.
</event>
<event>
 7    1  0.2385752E-015  0.9000849E+02  0.7816164E-02  0.1186338E+00
        -11   -1    0    0    0    0  0.00000000000E+00  0.00000000000E+00  0.45593999997E+02  0.45594000000E+02  0.51100000000E-03 0.  1.
         11   -1    0    0    0    0 -0.00000000000E+00 -0.00000000000E+00 -0.45593999997E+02  0.45594000000E+02  0.51100000000E-03 0. -1.
    9900012    2    1    2    0    0 -0.76156172737E+00 -0.84176560425E+00  0.32046399577E+00  0.90008490454E+02  0.90000761725E+02 0.  0.
        -12    1    1    2    0    0  0.76156172737E+00  0.84176560425E+00 -0.32046399577E+00  0.11795095462E+01  0.00000000000E+00 0.  1.
         11    1    3    3    0    0 -0.84523060818E+01  0.35376401489E+02 -0.12090448318E+02  0.38328973391E+02  0.51100000000E-03 0. -1.
        -11    1    3    3    0    0  0.11726619384E+02 -0.58426334384E+01 -0.75383099310E+01  0.15115425385E+02  0.51100000000E-03 0.  1.
        -12    1    3    3    0    0 -0.40358750300E+01 -0.30375533655E+02  0.19949222245E+02  0.36564091678E+02  0.00000000000E+00 0.  1.
</event>
<event>
 7    1  0.2385752E-015  0.9000792E+02  0.7816164E-02  0.1186339E+00
        -11   -1    0    0    0    0  0.00000000000E+00  0.00000000000E+00  0.45593999997E+02  0.45594000000E+02  0.51100000000E-03 0.  1.
         11   -1    0    0    0    0 -0.00000000000E+00 -0.00000000000E+00 -0.45593999997E+02  0.45594000000E+02  0.51100000000E-03 0. -1.
    9900012    2    1    2    0    0  0.87442789464E+00  0.35051927187E-01 -0.79167387609E+00  0.90007915127E+02  0.90000178807E+02 0.  0.
        -12    1    1    2    0    0 -0.87442789464E+00 -0.35051927187E-01  0.79167387609E+00  0.11800848726E+01  0.00000000000E+00 0.  1.
         11    1    3    3    0    0  0.40402316785E+01 -0.20706139749E+01  0.10501126988E+02  0.11440479995E+02  0.51100000000E-03 0. -1.
        -11    1    3    3    0    0  0.27536094412E+02  0.22789668888E+02 -0.19402522052E+02  0.40670177842E+02  0.51100000000E-03 0.  1.
         12    1    3    3    0    0 -0.30701898196E+02 -0.20684002986E+02  0.81097211882E+01  0.37897257290E+02  0.00000000000E+00 0. -1.
</event>
<event>
 7    1  0.2385752E-015  0.9000773E+02  0.7816164E-02  0.1186339E+00
        -11   -1    0    0    0    0  0.00000000000E+00  0.00000000000E+00  0.45593999997E+02  0.45594000000E+02  0.51100000000E-03 0. -1.
         11   -1    0    0    0    0 -0.00000000000E+00 -0.00000000000E+00 -0.45593999997E+02  0.45594000000E+02  0.51100000000E-03 0.  1.
    9900012    2    1    2    0    0  0.99047150519E+00  0.47502857151E+00  0.43168462400E+00  0.90007729878E+02  0.89999991112E+02 0.  0.
        -12    1    1    2    0    0 -0.99047150519E+00 -0.47502857151E+00 -0.43168462400E+00  0.11802701220E+01  0.00000000000E+00 0.  1.
         11    1    3    3    0    0  0.41899283410E+01  0.60159271073E+01  0.58440975053E+01  0.93755188856E+01  0.51100000000E-03 0. -1.
        -11    1    3    3    0    0  0.16153606086E+02  0.23856587880E+02  0.21811589873E+02  0.36136148493E+02  0.51100000000E-03 0.  1.
         12    1    3    3    0    0 -0.19353062921E+02 -0.29397486415E+02 -0.27224002755E+02  0.44496062500E+02  0.00000000000E+00 0. -1.
</event>
<event>
 7    1  0.2385752E-015  0.9000772E+02  0.7816164E-02  0.1186339E+00
        -11   -1    0    0    0    0  0.00000000000E+00  0.00000000000E+00  0.45593999997E+02  0.45594000000E+02  0.51100000000E-03 0. -1.
         11   -1    0    0    0    0 -0.00000000000E+00 -0.00000000000E+00 -0.45593999997E+02  0.45594000000E+02  0.51100000000E-03 0.  1.
    9900012    2    1    2    0    0  0.71852761901E+00  0.24752445370E+00  0.90306250443E+00  0.90007715212E+02  0.89999976253E+02 0.  0.
        -12    1    1    2    0    0 -0.71852761901E+00 -0.24752445370E+00 -0.90306250443E+00  0.11802847882E+01  0.00000000000E+00 0.  1.
         11    1    3    3    0    0  0.58195900615E+00 -0.13367336446E+02  0.38925851554E+02  0.41161223007E+02  0.51100000000E-03 0. -1.
        -11    1    3    3    0    0  0.77042586504E+01  0.76224400056E+00  0.27509937953E+00  0.77467604325E+01  0.51100000000E-03 0.  1.
        -12    1    3    3    0    0 -0.75676900376E+01  0.12852616899E+02 -0.38297888429E+02  0.41099731773E+02  0.00000000000E+00 0.  1.
</event>
<event>
 7    1  0.2385752E-015  0.9000772E+02  0.7816164E-02  0.1186339E+00
        -11   -1    0    0    0    0  0.00000000000E+00  0.00000000000E+00  0.45593999997E+02  0.45594000000E+02  0.51100000000E-03 0.  1.
         11   -1    0    0    0    0 -0.00000000000E+00 -0.00000000000E+00 -0.45593999997E+02  0.45594000000E+02  0.51100000000E-03 0. -1.
    9900012    2    1    2    0    0  0.35567259216E+00  0.47114160149E+00 -0.10220521059E+01  0.90007717022E+02  0.89999978087E+02 0.  0.
        -12    1    1    2    0    0 -0.35567259216E+00 -0.47114160149E+00  0.10220521059E+01  0.11802829782E+01  0.00000000000E+00 0.  1.
         11    1    3    3    0    0 -0.69988770954E+01 -0.32945211878E+02 -0.20927467414E+02  0.39652618563E+02  0.51100000000E-03 0. -1.
        -11    1    3    3    0    0  0.59059090322E+01 -0.50320906865E+01  0.28055694545E+01  0.82506313940E+01  0.51100000000E-03 0.  1.
        -12    1    3    3    0    0  0.14486406553E+01  0.38448444166E+02  0.17099845854E+02  0.42104467064E+02  0.00000000000E+00 0.  1.
</event>
<event>
 7    1  0.2385752E-015  0.9000783E+02  0.7816164E-02  0.1186339E+00
        -11   -1    0    0    0    0  0.00000000000E+00  0.00000000000E+00  0.45593999997E+02  0.45594000000E+02  0.51100000000E-03 0. -1.
         11   -1    0    0    0    0 -0.00000000000E+00 -0.00000000000E+00 -0.45593999997E+02  0.45594000000E+02  0.51100000000E-03 0.  1.
    9900012    2    1    2    0    0 -0.54423491984E+00  0.52493756347E+00  0.90611256199E+00  0.90007834305E+02  0.90000096917E+02 0.  0.
        -12    1    1    2    0    0  0.54423491984E+00 -0.52493756347E+00 -0.90611256199E+00  0.11801656954E+01  0.00000000000E+00 0.  1.
         11    1    3    3    0    0  0.14390371063E+02  0.79600380123E+01  0.11244990650E+02  0.19922218739E+02  0.51100000000E-03 0. -1.
        -11    1    3    3    0    0 -0.10172271438E+01  0.15001647489E+02 -0.32374382410E+02  0.35695725446E+02  0.51100000000E-03 0.  1.
         12    1    3    3    0    0 -0.13917378839E+02 -0.22436747937E+02  0.22035504321E+02  0.34389890120E+02  0.00000000000E+00 0. -1.
</event>
<event>
 7    1  0.2385752E-015  0.9000766E+02  0.7816164E-02  0.1186339E+00
        -11   -1    0    0    0    0  0.00000000000E+00  0.00000000000E+00  0.45593999997E+02  0.45594000000E+02  0.51100000000E-03 0.  1.
         11   -1    0    0    0    0 -0.00000000000E+00 -0.00000000000E+00 -0.45593999997E+02  0.45594000000E+02  0.51100000000E-03 0. -1.
    9900012    2    1    2    0    0  0.36358367523E+00 -0.87938650983E+00 -0.69835550078E+00  0.90007655081E+02  0.89999915328E+02 0.  0.
        -12    1    1    2    0    0 -0.36358367523E+00  0.87938650983E+00  0.69835550078E+00  0.11803449191E+01  0.00000000000E+00 0.  1.
         11    1    3    3    0    0 -0.16308562017E+02 -0.13017601974E+01 -0.36286330732E+02  0.39804039656E+02  0.51100000000E-03 0. -1.
        -11    1    3    3    0    0 -0.87256558803E+01  0.28529539952E+01  0.52950032226E+01  0.10597805265E+02  0.51100000000E-03 0.  1.
        -12    1    3    3    0    0  0.25397801572E+02 -0.24305803076E+01  0.30292972009E+02  0.39605810160E+02  0.00000000000E+00 0.  1.
</event>
<event>
 7    1  0.2385752E-015  0.9000811E+02  0.7816164E-02  0.1186338E+00
        -11   -1    0    0    0    0  0.00000000000E+00  0.00000000000E+00  0.45593999997E+02  0.45594000000E+02  0.51100000000E-03 0.  1.
         11   -1    0    0    0    0 -0.00000000000E+00 -0.00000000000E+00 -0.45593999997E+02  0.45594000000E+02  0.51100000000E-03 0. -1.
    9900012    2    1    2    0    0 -0.85017889841E+00 -0.81568844903E+00  0.63095449703E-01  0.90008113208E+02  0.90000379502E+02 0.  0.
        -12    1    1    2    0    0  0.85017889841E+00  0.81568844903E+00 -0.63095449703E-01  0.11798867916E+01  0.00000000000E+00 0.  1.
         11    1    3    3    0    0 -0.16303719796E+02 -0.28210600134E+02  0.21068691967E+02  0.38801276017E+02  0.51100000000E-03 0. -1.
        -11    1    3    3    0    0 -0.63247463764E+01 -0.46092484883E+01 -0.51833478932E+01  0.93869422069E+01  0.51100000000E-03 0.  1.
        -12    1    3    3    0    0  0.21778287274E+02  0.32004160173E+02 -0.15822248624E+02  0.41819894984E+02  0.00000000000E+00 0.  1.
</event>
<event>
 7    1  0.2385752E-015  0.9000774E+02  0.7816164E-02  0.1186339E+00
        -11   -1    0    0    0    0  0.00000000000E+00  0.00000000000E+00  0.45593999997E+02  0.45594000000E+02  0.51100000000E-03 0. -1.
         11   -1    0    0    0    0 -0.00000000000E+00 -0.00000000000E+00 -0.45593999997E+02  0.45594000000E+02  0.51100000000E-03 0.  1.
    9900012    2    1    2    0    0  0.94477230358E+00 -0.41794219967E+00  0.57074890403E+00  0.90007735327E+02  0.89999996633E+02 0.  0.
        -12    1    1    2    0    0 -0.94477230358E+00  0.41794219967E+00 -0.57074890403E+00  0.11802646734E+01  0.00000000000E+00 0.  1.
         11    1    3    3    0    0  0.25846122995E+01 -0.55816040594E+01 -0.72656978987E+01  0.95197106485E+01  0.51100000000E-03 0. -1.
        -11    1    3    3    0    0  0.91606796259E+01 -0.11819307078E+02 -0.32296926855E+02  0.35590807178E+02  0.51100000000E-03 0.  1.
         12    1    3    3    0    0 -0.10800519622E+02  0.16982968938E+02  0.40133373658E+02  0.44897217500E+02  0.00000000000E+00 0. -1.
</event>
<event>
 7    1  0.2385752E-015  0.9000771E+02  0.7816164E-02  0.1186339E+00
        -11   -1    0    0    0    0  0.00000000000E+00  0.00000000000E+00  0.45593999997E+02  0.45594000000E+02  0.51100000000E-03 0. -1.
         11   -1    0    0    0    0 -0.00000000000E+00 -0.00000000000E+00 -0.45593999997E+02  0.45594000000E+02  0.51100000000E-03 0.  1.
    9900012    2    1    2    0    0  0.35399783969E+00  0.93404694356E+00 -0.62875907777E+00  0.90007705062E+02  0.89999965969E+02 0.  0.
        -12    1    1    2    0    0 -0.35399783969E+00 -0.93404694356E+00  0.62875907777E+00  0.11802949382E+01  0.00000000000E+00 0.  1.
         11    1    3    3    0    0  0.32722179811E+02 -0.27930570227E+02  0.35369583381E+01  0.43166745063E+02  0.51100000000E-03 0. -1.
        -11    1    3    3    0    0 -0.61279982488E+01  0.27157141262E+01 -0.69954157911E+01  0.96883078039E+01  0.51100000000E-03 0.  1.
        -12    1    3    3    0    0 -0.26240183723E+02  0.26148903044E+02  0.28296983752E+01  0.37152652195E+02  0.00000000000E+00 0.  1.
</event>
<event>
 7    1  0.2385752E-015  0.9000799E+02  0.7816164E-02  0.1186339E+00
        -11   -1    0    0    0    0  0.00000000000E+00  0.00000000000E+00  0.45593999997E+02  0.45594000000E+02  0.51100000000E-03 0.  1.
         11   -1    0    0    0    0 -0.00000000000E+00 -0.00000000000E+00 -0.45593999997E+02  0.45594000000E+02  0.51100000000E-03 0. -1.
    9900012    2    1    2    0    0 -0.93479991903E+00 -0.59257100008E+00 -0.40918730354E+00  0.90007989183E+02  0.90000253840E+02 0.  0.
        -12    1    1    2    0    0  0.93479991903E+00  0.59257100008E+00  0.40918730354E+00  0.11800108170E+01  0.00000000000E+00 0.  1.
         11    1    3    3    0    0 -0.33707061870E+02  0.69623409119E+01 -0.21975264468E+01  0.34488684139E+02  0.51100000000E-03 0. -1.
        -11    1    3    3    0    0 -0.10951284141E+02 -0.19962529368E+01  0.26203126987E+01  0.11435982206E+02  0.51100000000E-03 0.  1.
        -12    1    3    3    0    0  0.43723546092E+02 -0.55586589751E+01 -0.83197355549E+00  0.44083322838E+02  0.00000000000E+00 0.  1.
</event>
<event>
 7    1  0.2385752E-015  0.9000774E+02  0.7816164E-02  0.1186339E+00
        -11   -1    0    0    0    0  0.00000000000E+00  0.00000000000E+00  0.45593999997E+02  0.45594000000E+02  0.51100000000E-03 0. -1.
         11   -1    0    0    0    0 -0.00000000000E+00 -0.00000000000E+00 -0.45593999997E+02  0.45594000000E+02  0.51100000000E-03 0.  1.
    9900012    2    1    2    0    0 -0.67271203587E+00  0.92668499891E+00  0.28586146276E+00  0.90007744372E+02  0.90000005798E+02 0.  0.
        -12    1    1    2    0    0  0.67271203587E+00 -0.92668499891E+00 -0.28586146276E+00  0.11802556275E+01  0.00000000000E+00 0.  1.
         11    1    3    3    0    0 -0.33954775683E+02 -0.19887559773E+02  0.10600158785E+02  0.40752977706E+02  0.51100000000E-03 0. -1.
        -11    1    3    3    0    0 -0.49629717215E+01  0.40274937657E+01 -0.11480588600E+01  0.64938304373E+01  0.51100000000E-03 0.  1.
        -12    1    3    3    0    0  0.38245035368E+02  0.16786751006E+02 -0.91662384624E+01  0.42760936229E+02  0.00000000000E+00 0.  1.
</event>
<event>
 7    1  0.2385752E-015  0.9000779E+02  0.7816164E-02  0.1186339E+00
        -11   -1    0    0    0    0  0.00000000000E+00  0.00000000000E+00  0.45593999997E+02  0.45594000000E+02  0.51100000000E-03 0.  1.
         11   -1    0    0    0    0 -0.00000000000E+00 -0.00000000000E+00 -0.45593999997E+02  0.45594000000E+02  0.51100000000E-03 0. -1.
    9900012    2    1    2    0    0 -0.46632525419E-01  0.22066718638E+00 -0.11584595718E+01  0.90007789350E+02  0.90000051369E+02 0.  0.
        -12    1    1    2    0    0  0.46632525419E-01 -0.22066718638E+00  0.11584595718E+01  0.11802106503E+01  0.00000000000E+00 0.  1.
         11    1    3    3    0    0 -0.35756062163E+01 -0.78335065433E+00 -0.76733607299E+01  0.85017094289E+01  0.51100000000E-03 0. -1.
        -11    1    3    3    0    0  0.29233031473E+02 -0.29350524016E+02  0.46763934903E+01  0.41688032401E+02  0.51100000000E-03 0.  1.
         12    1    3    3    0    0 -0.25704057782E+02  0.30354541857E+02  0.18385076677E+01  0.39818047520E+02  0.00000000000E+00 0. -1.
</event>
<event>
 7    1  0.2726568E-015  0.9000772E+02  0.7816164E-02  0.1186339E+00
        -11   -1    0    0    0    0  0.00000000000E+00  0.00000000000E+00  0.45593999997E+02  0.45594000000E+02  0.51100000000E-03 0. -1.
         11   -1    0    0    0    0 -0.00000000000E+00 -0.00000000000E+00 -0.45593999997E+02  0.45594000000E+02  0.51100000000E-03 0.  1.
    9900012    2    1    2    0    0  0.10567038485E+01 -0.25366501912E+00  0.46053861707E+00  0.90007718346E+02  0.89999979428E+02 0.  0.
        -12    1    1    2    0    0 -0.10567038485E+01  0.25366501912E+00 -0.46053861707E+00  0.11802816542E+01  0.00000000000E+00 0.  1.
         11    1    3    3    0    0  0.13864049099E+02  0.34154089028E+02 -0.10861473574E+01  0.36876732110E+02  0.51100000000E-03 0. -1.
        -11    1    3    3    0    0  0.26481611543E+01  0.53880439420E+01 -0.73825058144E+01  0.95155224439E+01  0.51100000000E-03 0.  1.
        -12    1    3    3    0    0 -0.15455506405E+02 -0.39795797989E+02  0.89291917888E+01  0.43615463792E+02  0.00000000000E+00 0.  1.
</event>
<event>
 7    1  0.2385752E-015  0.9000769E+02  0.7816164E-02  0.1186339E+00
        -11   -1    0    0    0    0  0.00000000000E+00  0.00000000000E+00  0.45593999997E+02  0.45594000000E+02  0.51100000000E-03 0.  1.
         11   -1    0    0    0    0 -0.00000000000E+00 -0.00000000000E+00 -0.45593999997E+02  0.45594000000E+02  0.51100000000E-03 0. -1.
    9900012    2    1    2    0    0  0.71934402641E+00  0.86186921196E+00 -0.36448168271E+00  0.90007694419E+02  0.89999955186E+02 0.  0.
        -12    1    1    2    0    0 -0.71934402641E+00 -0.86186921196E+00  0.36448168271E+00  0.11803055807E+01  0.00000000000E+00 0.  1.
         11    1    3    3    0    0 -0.29027708487E+02 -0.19628753445E+02 -0.10095494542E+02  0.36466626278E+02  0.51100000000E-03 0. -1.
        -11    1    3    3    0    0 -0.52767211308E+01 -0.21235567973E+01  0.10390768573E+02  0.11845731348E+02  0.51100000000E-03 0.  1.
        -12    1    3    3    0    0  0.35023773644E+02  0.22614179454E+02 -0.65975571420E+00  0.41695336793E+02  0.00000000000E+00 0.  1.
</event>
<event>
 7    1  0.2385752E-015  0.9000765E+02  0.7816164E-02  0.1186339E+00
        -11   -1    0    0    0    0  0.00000000000E+00  0.00000000000E+00  0.45593999997E+02  0.45594000000E+02  0.51100000000E-03 0. -1.
         11   -1    0    0    0    0 -0.00000000000E+00 -0.00000000000E+00 -0.45593999997E+02  0.45594000000E+02  0.51100000000E-03 0.  1.
    9900012    2    1    2    0    0  0.58750264262E+00  0.54457677385E+00  0.86689571196E+00  0.90007647767E+02  0.89999907918E+02 0.  0.
        -12    1    1    2    0    0 -0.58750264262E+00 -0.54457677385E+00 -0.86689571196E+00  0.11803522326E+01  0.00000000000E+00 0.  1.
         11    1    3    3    0    0 -0.76318683584E+01  0.34381952055E+01 -0.47110955664E+01  0.96052601530E+01  0.51100000000E-03 0. -1.
        -11    1    3    3    0    0 -0.32520855820E+02 -0.68728687478E+01 -0.12687071252E+02  0.35578141678E+02  0.51100000000E-03 0.  1.
         12    1    3    3    0    0  0.40740226821E+02  0.39792503162E+01  0.18265062531E+02  0.44824245936E+02  0.00000000000E+00 0. -1.
</event>
<event>
 7    1  0.2385752E-015  0.9000772E+02  0.7816164E-02  0.1186339E+00
        -11   -1    0    0    0    0  0.00000000000E+00  0.00000000000E+00  0.45593999997E+02  0.45594000000E+02  0.51100000000E-03 0.  1.
         11   -1    0    0    0    0 -0.00000000000E+00 -0.00000000000E+00 -0.45593999997E+02  0.45594000000E+02  0.51100000000E-03 0. -1.
    9900012    2    1    2    0    0 -0.13230315065E+00  0.11559716545E+01  0.19821942091E+00  0.90007718030E+02  0.89999979108E+02 0.  0.
        -12    1    1    2    0    0  0.13230315065E+00 -0.11559716545E+01 -0.19821942091E+00  0.11802819699E+01  0.00000000000E+00 0.  1.
         11    1    3    3    0    0 -0.78511595033E+01  0.17526130346E+01 -0.10084495139E+01  0.81073626216E+01  0.51100000000E-03 0. -1.
        -11    1    3    3    0    0 -0.18642658893E+02  0.18012868449E+02  0.29296179205E+02  0.39118771410E+02  0.51100000000E-03 0.  1.
         12    1    3    3    0    0  0.26361515246E+02 -0.18609509829E+02 -0.28089510271E+02  0.42781583998E+02  0.00000000000E+00 0. -1.
</event>
<event>
 7    1  0.2385752E-015  0.9000776E+02  0.7816164E-02  0.1186339E+00
        -11   -1    0    0    0    0  0.00000000000E+00  0.00000000000E+00  0.45593999997E+02  0.45594000000E+02  0.51100000000E-03 0. -1.
         11   -1    0    0    0    0 -0.00000000000E+00 -0.00000000000E+00 -0.45593999997E+02  0.45594000000E+02  0.51100000000E-03 0.  1.
    9900012    2    1    2    0    0  0.40729776482E+00 -0.11069581931E+01  0.41513919503E-01  0.90007757942E+02  0.90000019547E+02 0.  0.
        -12    1    1    2    0    0 -0.40729776482E+00  0.11069581931E+01 -0.41513919503E-01  0.11802420582E+01  0.00000000000E+00 0.  1.
         11    1    3    3    0    0  0.12681647478E+02  0.14324346294E+02 -0.17370409061E+02  0.25840708015E+02  0.51100000000E-03 0. -1.
        -11    1    3    3    0    0  0.23500393701E+02 -0.10137407669E+02  0.69942022772E+01  0.26532139079E+02  0.51100000000E-03 0.  1.
        -12    1    3    3    0    0 -0.35774743415E+02 -0.52938968181E+01  0.10417720703E+02  0.37634910848E+02  0.00000000000E+00 0.  1.
</event>
<event>
 7    1  0.2385752E-015  0.9000773E+02  0.7816164E-02  0.1186339E+00
        -11   -1    0    0    0    0  0.00000000000E+00  0.00000000000E+00  0.45593999997E+02  0.45594000000E+02  0.51100000000E-03 0. -1.
         11   -1    0    0    0    0 -0.00000000000E+00 -0.00000000000E+00 -0.45593999997E+02  0.45594000000E+02  0.51100000000E-03 0.  1.
    9900012    2    1    2    0    0  0.27918254105E+00 -0.54678660206E+00  0.10080305911E+01  0.90007727086E+02  0.89999988283E+02 0.  0.
        -12    1    1    2    0    0 -0.27918254105E+00  0.54678660206E+00 -0.10080305911E+01  0.11802729142E+01  0.00000000000E+00 0.  1.
         11    1    3    3    0    0 -0.31128709349E+00 -0.15699965578E-01  0.12107927784E+02  0.12111938806E+02  0.51100000000E-03 0. -1.
        -11    1    3    3    0    0 -0.38202539443E+02  0.97894793233E+00 -0.70855625771E+01  0.38866406526E+02  0.51100000000E-03 0.  1.
         12    1    3    3    0    0  0.38793009077E+02 -0.15100345688E+01 -0.40143346163E+01  0.39029381754E+02  0.00000000000E+00 0. -1.
</event>
<event>
 7    1  0.2385752E-015  0.9000776E+02  0.7816164E-02  0.1186339E+00
        -11   -1    0    0    0    0  0.00000000000E+00  0.00000000000E+00  0.45593999997E+02  0.45594000000E+02  0.51100000000E-03 0. -1.
         11   -1    0    0    0    0 -0.00000000000E+00 -0.00000000000E+00 -0.45593999997E+02  0.45594000000E+02  0.51100000000E-03 0.  1.
    9900012    2    1    2    0    0 -0.95888552208E+00 -0.61474340067E+00 -0.30919912781E+00  0.90007756384E+02  0.90000017968E+02 0.  0.
        -12    1    1    2    0    0  0.95888552208E+00  0.61474340067E+00  0.30919912781E+00  0.11802436163E+01  0.00000000000E+00 0.  1.
         11    1    3    3    0    0  0.23165350664E+01  0.36016181549E+01 -0.69470772626E+01  0.81608743895E+01  0.51100000000E-03 0. -1.
        -11    1    3    3    0    0  0.57255489154E+01 -0.29066092823E+02 -0.26301168932E+02  0.39615289344E+02  0.51100000000E-03 0.  1.
         12    1    3    3    0    0 -0.90009695038E+01  0.24849731268E+02  0.32939047066E+02  0.42231592650E+02  0.00000000000E+00 0. -1.
</event>
<event>
 7    1  0.2385752E-015  0.9000775E+02  0.7816164E-02  0.1186339E+00
        -11   -1    0    0    0    0  0.00000000000E+00  0.00000000000E+00  0.45593999997E+02  0.45594000000E+02  0.51100000000E-03 0. -1.
         11   -1    0    0    0    0 -0.00000000000E+00 -0.00000000000E+00 -0.45593999997E+02  0.45594000000E+02  0.51100000000E-03 0.  1.
    9900012    2    1    2    0    0 -0.50042970630E+00 -0.54562519766E-01  0.10675138963E+01  0.90007748807E+02  0.90000010291E+02 0.  0.
        -12    1    1    2    0    0  0.50042970630E+00  0.54562519766E-01 -0.10675138963E+01  0.11802511929E+01  0.00000000000E+00 0.  1.
         11    1    3    3    0    0 -0.71870582831E+00 -0.76252106145E+01 -0.50390203251E+01  0.91679932963E+01  0.51100000000E-03 0. -1.
        -11    1    3    3    0    0 -0.16940790820E+02 -0.25283995805E+02 -0.19176421437E+02  0.35972294574E+02  0.51100000000E-03 0.  1.
         12    1    3    3    0    0  0.17159066942E+02  0.32854643900E+02  0.25282955659E+02  0.44867460937E+02  0.00000000000E+00 0. -1.
</event>
<event>
 7    1  0.2385752E-015  0.9000765E+02  0.7816164E-02  0.1186339E+00
        -11   -1    0    0    0    0  0.00000000000E+00  0.00000000000E+00  0.45593999997E+02  0.45594000000E+02  0.51100000000E-03 0. -1.
         11   -1    0    0    0    0 -0.00000000000E+00 -0.00000000000E+00 -0.45593999997E+02  0.45594000000E+02  0.51100000000E-03 0.  1.
    9900012    2    1    2    0    0 -0.99194084514E+00  0.44681883293E+00 -0.45786514136E+00  0.90007646579E+02  0.89999906714E+02 0.  0.
        -12    1    1    2    0    0  0.99194084514E+00 -0.44681883293E+00  0.45786514136E+00  0.11803534205E+01  0.00000000000E+00 0.  1.
         11    1    3    3    0    0  0.41287925915E+01  0.54857411948E+01 -0.66544984516E+01  0.95615184267E+01  0.51100000000E-03 0. -1.
        -11    1    3    3    0    0  0.31971699629E+02  0.90985389598E+00  0.22896213978E+02  0.39335150006E+02  0.51100000000E-03 0.  1.
         12    1    3    3    0    0 -0.37092433065E+02 -0.59487762579E+01 -0.16699580667E+02  0.41110978146E+02  0.00000000000E+00 0. -1.
</event>
<event>
 7    1  0.2385752E-015  0.9000739E+02  0.7816164E-02  0.1186340E+00
        -11   -1    0    0    0    0  0.00000000000E+00  0.00000000000E+00  0.45593999997E+02  0.45594000000E+02  0.51100000000E-03 0.  1.
         11   -1    0    0    0    0 -0.00000000000E+00 -0.00000000000E+00 -0.45593999997E+02  0.45594000000E+02  0.51100000000E-03 0. -1.
    9900012    2    1    2    0    0  0.68934929768E+00 -0.39920066544E+00 -0.87136912226E+00  0.90007386696E+02  0.89999643400E+02 0.  0.
        -12    1    1    2    0    0 -0.68934929768E+00  0.39920066544E+00  0.87136912226E+00  0.11806133036E+01  0.00000000000E+00 0.  1.
         11    1    3    3    0    0  0.32823330017E+02  0.34644547716E+01 -0.28474227163E+02  0.43590767980E+02  0.51100000000E-03 0. -1.
        -11    1    3    3    0    0 -0.73273380812E+00 -0.44552720033E+01  0.85867897693E+01  0.97015105144E+01  0.51100000000E-03 0.  1.
        -12    1    3    3    0    0 -0.31401246912E+02  0.59161656623E+00  0.19016068271E+02  0.36715108202E+02  0.00000000000E+00 0.  1.
</event>
<event>
 7    1  0.2385752E-015  0.9000773E+02  0.7816164E-02  0.1186339E+00
        -11   -1    0    0    0    0  0.00000000000E+00  0.00000000000E+00  0.45593999997E+02  0.45594000000E+02  0.51100000000E-03 0. -1.
         11   -1    0    0    0    0 -0.00000000000E+00 -0.00000000000E+00 -0.45593999997E+02  0.45594000000E+02  0.51100000000E-03 0.  1.
    9900012    2    1    2    0    0  0.36567545659E+00 -0.11220529982E+01  0.18086790461E-01  0.90007725200E+02  0.89999986373E+02 0.  0.
        -12    1    1    2    0    0 -0.36567545659E+00  0.11220529982E+01 -0.18086790461E-01  0.11802747995E+01  0.00000000000E+00 0.  1.
         11    1    3    3    0    0  0.13525694507E+00 -0.81703361600E+01 -0.71067706125E+00  0.82023014792E+01  0.51100000000E-03 0. -1.
        -11    1    3    3    0    0 -0.38838571447E+02 -0.50405020948E+01  0.87496965944E+01  0.40129770548E+02  0.51100000000E-03 0.  1.
         12    1    3    3    0    0  0.39068989959E+02  0.12088785257E+02 -0.80209327427E+01  0.41675653174E+02  0.00000000000E+00 0. -1.
</event>
<event>
 7    1  0.2385752E-015  0.9000773E+02  0.7816164E-02  0.1186339E+00
        -11   -1    0    0    0    0  0.00000000000E+00  0.00000000000E+00  0.45593999997E+02  0.45594000000E+02  0.51100000000E-03 0. -1.
         11   -1    0    0    0    0 -0.00000000000E+00 -0.00000000000E+00 -0.45593999997E+02  0.45594000000E+02  0.51100000000E-03 0.  1.
    9900012    2    1    2    0    0 -0.19993815012E+00  0.47227355391E+00  0.10630246349E+01  0.90007729290E+02  0.89999990517E+02 0.  0.
        -12    1    1    2    0    0  0.19993815012E+00 -0.47227355391E+00 -0.10630246349E+01  0.11802707097E+01  0.00000000000E+00 0.  1.
         11    1    3    3    0    0  0.26024673509E+00 -0.91228275214E+01 -0.52697232933E+01  0.10538676112E+02  0.51100000000E-03 0. -1.
        -11    1    3    3    0    0 -0.22544920722E+02  0.27027489171E+02 -0.20381303020E+02  0.40671318325E+02  0.51100000000E-03 0.  1.
         12    1    3    3    0    0  0.22084735837E+02 -0.17432388095E+02  0.26714050948E+02  0.38797734853E+02  0.00000000000E+00 0. -1.
</event>
<event>
 7    1  0.2385752E-015  0.9000770E+02  0.7816164E-02  0.1186339E+00
        -11   -1    0    0    0    0  0.00000000000E+00  0.00000000000E+00  0.45593999997E+02  0.45594000000E+02  0.51100000000E-03 0.  1.
         11   -1    0    0    0    0 -0.00000000000E+00 -0.00000000000E+00 -0.45593999997E+02  0.45594000000E+02  0.51100000000E-03 0. -1.
    9900012    2    1    2    0    0 -0.12236142292E+00 -0.11732418325E+01 -0.40501666222E-01  0.90007699572E+02  0.89999960406E+02 0.  0.
        -12    1    1    2    0    0  0.12236142292E+00  0.11732418325E+01  0.40501666222E-01  0.11803004279E+01  0.00000000000E+00 0.  1.
         11    1    3    3    0    0  0.21939994090E+02  0.16233273146E+02 -0.14227411884E+02  0.30778267444E+02  0.51100000000E-03 0. -1.
        -11    1    3    3    0    0  0.73179641784E+01  0.11246437179E+02 -0.44781801839E+01  0.14145283559E+02  0.51100000000E-03 0.  1.
        -12    1    3    3    0    0 -0.29380319691E+02 -0.28652952158E+02  0.18665090401E+02  0.45084148569E+02  0.00000000000E+00 0.  1.
</event>
<event>
 7    1  0.2385752E-015  0.9000772E+02  0.7816164E-02  0.1186339E+00
        -11   -1    0    0    0    0  0.00000000000E+00  0.00000000000E+00  0.45593999997E+02  0.45594000000E+02  0.51100000000E-03 0.  1.
         11   -1    0    0    0    0 -0.00000000000E+00 -0.00000000000E+00 -0.45593999997E+02  0.45594000000E+02  0.51100000000E-03 0. -1.
    9900012    2    1    2    0    0  0.11027770803E+00  0.11731139573E+01 -0.68611201635E-01  0.90007718243E+02  0.89999979323E+02 0.  0.
        -12    1    1    2    0    0 -0.11027770803E+00 -0.11731139573E+01  0.68611201635E-01  0.11802817573E+01  0.00000000000E+00 0.  1.
         11    1    3    3    0    0  0.84115056045E+01  0.62110590740E+01 -0.35971641373E+02  0.37460508068E+02  0.51100000000E-03 0. -1.
        -11    1    3    3    0    0 -0.55563884688E+01  0.42610887587E+01 -0.61936849463E+01  0.93483722488E+01  0.51100000000E-03 0.  1.
        -12    1    3    3    0    0 -0.27448394277E+01 -0.92990338755E+01  0.42096715118E+02  0.43198837926E+02  0.00000000000E+00 0.  1.
</event>
<event>
 7    1  0.2385752E-015  0.9000791E+02  0.7816164E-02  0.1186339E+00
        -11   -1    0    0    0    0  0.00000000000E+00  0.00000000000E+00  0.45593999997E+02  0.45594000000E+02  0.51100000000E-03 0. -1.
         11   -1    0    0    0    0 -0.00000000000E+00 -0.00000000000E+00 -0.45593999997E+02  0.45594000000E+02  0.51100000000E-03 0.  1.
    9900012    2    1    2    0    0 -0.52981173075E+00 -0.93833600709E+00  0.48106881771E+00  0.90007914351E+02  0.90000178020E+02 0.  0.
        -12    1    1    2    0    0  0.52981173075E+00  0.93833600709E+00 -0.48106881771E+00  0.11800856493E+01  0.00000000000E+00 0.  1.
         11    1    3    3    0    0 -0.28315431974E+02 -0.51224930735E+01  0.16959680310E+02  0.33401113449E+02  0.51100000000E-03 0. -1.
        -11    1    3    3    0    0  0.35221928261E+01  0.34010382596E+01  0.15615746188E+02  0.16365342429E+02  0.51100000000E-03 0.  1.
        -12    1    3    3    0    0  0.24263427417E+02  0.78311880678E+00 -0.32094357680E+02  0.40241458473E+02  0.00000000000E+00 0.  1.
</event>
<event>
 7    1  0.2385752E-015  0.9000775E+02  0.7816164E-02  0.1186339E+00
        -11   -1    0    0    0    0  0.00000000000E+00  0.00000000000E+00  0.45593999997E+02  0.45594000000E+02  0.51100000000E-03 0.  1.
         11   -1    0    0    0    0 -0.00000000000E+00 -0.00000000000E+00 -0.45593999997E+02  0.45594000000E+02  0.51100000000E-03 0. -1.
    9900012    2    1    2    0    0  0.10830294729E+01  0.42988094194E+00  0.18774656112E+00  0.90007746114E+02  0.90000007563E+02 0.  0.
        -12    1    1    2    0    0 -0.10830294729E+01 -0.42988094194E+00 -0.18774656112E+00  0.11802538856E+01  0.00000000000E+00 0.  1.
         11    1    3    3    0    0  0.49436868234E+01 -0.60091008990E+01 -0.29962646450E+01  0.83382813041E+01  0.51100000000E-03 0. -1.
        -11    1    3    3    0    0 -0.30207959261E+02 -0.45259386053E+01  0.29780021338E+02  0.42659753798E+02  0.51100000000E-03 0.  1.
         12    1    3    3    0    0  0.26347301910E+02  0.10964920446E+02 -0.26596010132E+02  0.39009711012E+02  0.00000000000E+00 0. -1.
</event>
<event>
 7    1  0.2385752E-015  0.9000759E+02  0.7816164E-02  0.1186339E+00
        -11   -1    0    0    0    0  0.00000000000E+00  0.00000000000E+00  0.45593999997E+02  0.45594000000E+02  0.51100000000E-03 0.  1.
         11   -1    0    0    0    0 -0.00000000000E+00 -0.00000000000E+00 -0.45593999997E+02  0.45594000000E+02  0.51100000000E-03 0. -1.
    9900012    2    1    2    0    0 -0.10803874263E+01 -0.25807696973E+00 -0.39940808211E+00  0.90007590101E+02  0.89999849490E+02 0.  0.
        -12    1    1    2    0    0  0.10803874263E+01  0.25807696973E+00  0.39940808211E+00  0.11804098988E+01  0.00000000000E+00 0.  1.
         11    1    3    3    0    0 -0.20508637198E+02  0.13906572266E+02 -0.34116151354E+02  0.42165255073E+02  0.51100000000E-03 0. -1.
        -11    1    3    3    0    0  0.89598187556E+01 -0.38904017797E+01 -0.13222591813E+01  0.98570760240E+01  0.51100000000E-03 0.  1.
        -12    1    3    3    0    0  0.10468431017E+02 -0.10274247456E+02  0.35039002453E+02  0.37985259004E+02  0.00000000000E+00 0.  1.
</event>
<event>
 7    1  0.2385752E-015  0.9000773E+02  0.7816164E-02  0.1186339E+00
        -11   -1    0    0    0    0  0.00000000000E+00  0.00000000000E+00  0.45593999997E+02  0.45594000000E+02  0.51100000000E-03 0. -1.
         11   -1    0    0    0    0 -0.00000000000E+00 -0.00000000000E+00 -0.45593999997E+02  0.45594000000E+02  0.51100000000E-03 0.  1.
    9900012    2    1    2    0    0  0.94702443238E+00 -0.14040091840E+00  0.69027211653E+00  0.90007727452E+02  0.89999988654E+02 0.  0.
        -12    1    1    2    0    0 -0.94702443238E+00  0.14040091840E+00 -0.69027211653E+00  0.11802725483E+01  0.00000000000E+00 0.  1.
         11    1    3    3    0    0  0.47851766158E+01 -0.11815034559E+02  0.38125013791E+01  0.13305191614E+02  0.51100000000E-03 0. -1.
        -11    1    3    3    0    0 -0.26038027002E+02 -0.23140396480E+02 -0.58471562280E+01  0.35322033288E+02  0.51100000000E-03 0.  1.
         12    1    3    3    0    0  0.22199874819E+02  0.34815030120E+02  0.27249269654E+01  0.41380502549E+02  0.00000000000E+00 0. -1.
</event>
<event>
 7    1  0.2385752E-015  0.9000776E+02  0.7816164E-02  0.1186339E+00
        -11   -1    0    0    0    0  0.00000000000E+00  0.00000000000E+00  0.45593999997E+02  0.45594000000E+02  0.51100000000E-03 0.  1.
         11   -1    0    0    0    0 -0.00000000000E+00 -0.00000000000E+00 -0.45593999997E+02  0.45594000000E+02  0.51100000000E-03 0. -1.
    9900012    2    1    2    0    0 -0.20133716540E+00  0.11471475357E+01  0.19101710530E+00  0.90007757797E+02  0.90000019400E+02 0.  0.
        -12    1    1    2    0    0  0.20133716540E+00 -0.11471475357E+01 -0.19101710530E+00  0.11802422029E+01  0.00000000000E+00 0.  1.
         11    1    3    3    0    0 -0.18614927638E+01 -0.92628515393E+01  0.25415059406E+01  0.97839065130E+01  0.51100000000E-03 0. -1.
        -11    1    3    3    0    0 -0.20679098055E+02 -0.27388679234E+02 -0.97987418434E+01  0.35690057278E+02  0.51100000000E-03 0.  1.
         12    1    3    3    0    0  0.22339253653E+02  0.37798678309E+02  0.74482530081E+01  0.44533794006E+02  0.00000000000E+00 0. -1.
</event>
<event>
 7    1  0.2385752E-015  0.9000775E+02  0.7816164E-02  0.1186339E+00
        -11   -1    0    0    0    0  0.00000000000E+00  0.00000000000E+00  0.45593999997E+02  0.45594000000E+02  0.51100000000E-03 0. -1.
         11   -1    0    0    0    0 -0.00000000000E+00 -0.00000000000E+00 -0.45593999997E+02  0.45594000000E+02  0.51100000000E-03 0.  1.
    9900012    2    1    2    0    0 -0.41503313861E+00 -0.17446359743E+00  0.10910067234E+01  0.90007751838E+02  0.90000013362E+02 0.  0.
        -12    1    1    2    0    0  0.41503313861E+00  0.17446359743E+00 -0.10910067234E+01  0.11802481618E+01  0.00000000000E+00 0.  1.
         11    1    3    3    0    0 -0.63767096337E-02 -0.28062877420E+02 -0.26506554696E+02  0.38602105796E+02  0.51100000000E-03 0. -1.
        -11    1    3    3    0    0  0.70492117309E+01 -0.56269776066E+01  0.62907560088E+01  0.10996721077E+02  0.51100000000E-03 0.  1.
        -12    1    3    3    0    0 -0.74578681598E+01  0.33515391429E+02  0.21306805411E+02  0.40408924966E+02  0.00000000000E+00 0.  1.
</event>
<event>
 7    1  0.2385752E-015  0.9000765E+02  0.7816164E-02  0.1186339E+00
        -11   -1    0    0    0    0  0.00000000000E+00  0.00000000000E+00  0.45593999997E+02  0.45594000000E+02  0.51100000000E-03 0. -1.
         11   -1    0    0    0    0 -0.00000000000E+00 -0.00000000000E+00 -0.45593999997E+02  0.45594000000E+02  0.51100000000E-03 0.  1.
    9900012    2    1    2    0    0  0.61825128676E+00  0.61803134212E+00  0.79310649657E+00  0.90007654581E+02  0.89999914821E+02 0.  0.
        -12    1    1    2    0    0 -0.61825128676E+00 -0.61803134212E+00 -0.79310649657E+00  0.11803454191E+01  0.00000000000E+00 0.  1.
         11    1    3    3    0    0  0.14342825198E+01  0.16019596779E+02  0.26571624607E+02  0.31060197710E+02  0.51100000000E-03 0. -1.
        -11    1    3    3    0    0  0.53602837185E+01  0.10681478238E+02  0.90555010092E+01  0.14994289502E+02  0.51100000000E-03 0.  1.
        -12    1    3    3    0    0 -0.61763149515E+01 -0.26083043675E+02 -0.34834019119E+02  0.43953167368E+02  0.00000000000E+00 0.  1.
</event>
<event>
 7    1  0.2385752E-015  0.9000767E+02  0.7816164E-02  0.1186339E+00
        -11   -1    0    0    0    0  0.00000000000E+00  0.00000000000E+00  0.45593999997E+02  0.45594000000E+02  0.51100000000E-03 0.  1.
         11   -1    0    0    0    0 -0.00000000000E+00 -0.00000000000E+00 -0.45593999997E+02  0.45594000000E+02  0.51100000000E-03 0. -1.
    9900012    2    1    2    0    0 -0.79225849349E+00  0.28974201976E+00 -0.82556519331E+00  0.90007668755E+02  0.89999929183E+02 0.  0.
        -12    1    1    2    0    0  0.79225849349E+00 -0.28974201976E+00  0.82556519331E+00  0.11803312446E+01  0.00000000000E+00 0.  1.
         11    1    3    3    0    0  0.13336870680E+01 -0.96011514046E+01 -0.11684739232E+01  0.97635117176E+01  0.51100000000E-03 0. -1.
        -11    1    3    3    0    0  0.10436584723E+02  0.14122983297E+02  0.37166953759E+02  0.41106731929E+02  0.51100000000E-03 0.  1.
         12    1    3    3    0    0 -0.12562530284E+02 -0.42320898724E+01 -0.36824045029E+02  0.39137425109E+02  0.00000000000E+00 0. -1.
</event>
<event>
 7    1  0.2385752E-015  0.9000810E+02  0.7816164E-02  0.1186338E+00
        -11   -1    0    0    0    0  0.00000000000E+00  0.00000000000E+00  0.45593999997E+02  0.45594000000E+02  0.51100000000E-03 0.  1.
         11   -1    0    0    0    0 -0.00000000000E+00 -0.00000000000E+00 -0.45593999997E+02  0.45594000000E+02  0.51100000000E-03 0. -1.
    9900012    2    1    2    0    0 -0.49424956400E+00 -0.20119426204E+00 -0.10523341021E+01  0.90008097960E+02  0.90000364052E+02 0.  0.
        -12    1    1    2    0    0  0.49424956400E+00  0.20119426204E+00  0.10523341021E+01  0.11799020404E+01  0.00000000000E+00 0.  1.
         11    1    3    3    0    0 -0.54695691867E+00  0.24467554586E+02 -0.25431175204E+02  0.35294547197E+02  0.51100000000E-03 0. -1.
        -11    1    3    3    0    0 -0.54075560030E+00  0.60250620148E+01 -0.80426065663E+01  0.10063662829E+02  0.51100000000E-03 0.  1.
        -12    1    3    3    0    0  0.59346295497E+00 -0.30693810863E+02  0.32421447668E+02  0.44649887934E+02  0.00000000000E+00 0.  1.
</event>
<event>
 7    1  0.2385752E-015  0.9000793E+02  0.7816164E-02  0.1186339E+00
        -11   -1    0    0    0    0  0.00000000000E+00  0.00000000000E+00  0.45593999997E+02  0.45594000000E+02  0.51100000000E-03 0. -1.
         11   -1    0    0    0    0 -0.00000000000E+00 -0.00000000000E+00 -0.45593999997E+02  0.45594000000E+02  0.51100000000E-03 0.  1.
    9900012    2    1    2    0    0 -0.70627196818E+00  0.27795367276E+00  0.90360203673E+00  0.90007925859E+02  0.90000189680E+02 0.  0.
        -12    1    1    2    0    0  0.70627196818E+00 -0.27795367276E+00 -0.90360203673E+00  0.11800741409E+01  0.00000000000E+00 0.  1.
         11    1    3    3    0    0  0.81852913482E+00 -0.35737758341E+02  0.86488742307E+01  0.36778531603E+02  0.51100000000E-03 0. -1.
        -11    1    3    3    0    0  0.42823979548E+01 -0.44284417353E+01  0.74225601115E+01  0.96459539350E+01  0.51100000000E-03 0.  1.
        -12    1    3    3    0    0 -0.58071990578E+01  0.40444153749E+02 -0.15167832305E+02  0.43583440321E+02  0.00000000000E+00 0.  1.
</event>
<event>
 7    1  0.3418294E-015  0.9000776E+02  0.7816164E-02  0.1186339E+00
        -11   -1    0    0    0    0  0.00000000000E+00  0.00000000000E+00  0.45593999997E+02  0.45594000000E+02  0.51100000000E-03 0.  1.
         11   -1    0    0    0    0 -0.00000000000E+00 -0.00000000000E+00 -0.45593999997E+02  0.45594000000E+02  0.51100000000E-03 0. -1.
    9900012    2    1    2    0    0  0.88550426854E-01  0.11533886523E+01  0.23415642727E+00  0.90007756045E+02  0.90000017625E+02 0.  0.
        -12    1    1    2    0    0 -0.88550426854E-01 -0.11533886523E+01 -0.23415642727E+00  0.11802439552E+01  0.00000000000E+00 0.  1.
         11    1    3    3    0    0 -0.35140742218E+02  0.38259277514E+01  0.19215392197E+02  0.40233577822E+02  0.51100000000E-03 0. -1.
        -11    1    3    3    0    0 -0.37450956367E+01  0.53265929047E+00 -0.84759143162E+01  0.92817342670E+01  0.51100000000E-03 0.  1.
        -12    1    3    3    0    0  0.38974388282E+02 -0.32051983896E+01 -0.10505321453E+02  0.40492443956E+02  0.00000000000E+00 0.  1.
</event>
<event>
 7    1  0.2385752E-015  0.9000776E+02  0.7816164E-02  0.1186339E+00
        -11   -1    0    0    0    0  0.00000000000E+00  0.00000000000E+00  0.45593999997E+02  0.45594000000E+02  0.51100000000E-03 0. -1.
         11   -1    0    0    0    0 -0.00000000000E+00 -0.00000000000E+00 -0.45593999997E+02  0.45594000000E+02  0.51100000000E-03 0.  1.
    9900012    2    1    2    0    0 -0.59664421862E+00 -0.18011921337E+00  0.10022654169E+01  0.90007761371E+02  0.90000023021E+02 0.  0.
        -12    1    1    2    0    0  0.59664421862E+00  0.18011921337E+00 -0.10022654169E+01  0.11802386287E+01  0.00000000000E+00 0.  1.
         11    1    3    3    0    0  0.30365422923E+01 -0.10642840637E+02 -0.16191886799E+01  0.11185366251E+02  0.51100000000E-03 0. -1.
        -11    1    3    3    0    0 -0.25245504596E+02  0.26881617262E+02  0.24233451573E+02  0.44127282086E+02  0.51100000000E-03 0.  1.
         12    1    3    3    0    0  0.21612318085E+02 -0.16418895838E+02 -0.21611997476E+02  0.34695113034E+02  0.00000000000E+00 0. -1.
</event>
<event>
 7    1  0.2385752E-015  0.9000775E+02  0.7816164E-02  0.1186339E+00
        -11   -1    0    0    0    0  0.00000000000E+00  0.00000000000E+00  0.45593999997E+02  0.45594000000E+02  0.51100000000E-03 0.  1.
         11   -1    0    0    0    0 -0.00000000000E+00 -0.00000000000E+00 -0.45593999997E+02  0.45594000000E+02  0.51100000000E-03 0. -1.
    9900012    2    1    2    0    0 -0.10171151125E+01 -0.37095582794E+00 -0.46994951804E+00  0.90007752599E+02  0.90000014133E+02 0.  0.
        -12    1    1    2    0    0  0.10171151125E+01  0.37095582794E+00  0.46994951804E+00  0.11802474011E+01  0.00000000000E+00 0.  1.
         11    1    3    3    0    0 -0.36027414414E+01  0.13730201769E+02 -0.36155204624E+02  0.38841949078E+02  0.51100000000E-03 0. -1.
        -11    1    3    3    0    0 -0.71635057411E+01  0.57912616469E+01  0.56864569831E-01  0.92118271698E+01  0.51100000000E-03 0.  1.
        -12    1    3    3    0    0  0.97491320699E+01 -0.19892419244E+02  0.35628390536E+02  0.41953976351E+02  0.00000000000E+00 0.  1.
</event>
<event>
 7    1  0.2385752E-015  0.9000761E+02  0.7816164E-02  0.1186339E+00
        -11   -1    0    0    0    0  0.00000000000E+00  0.00000000000E+00  0.45593999997E+02  0.45594000000E+02  0.51100000000E-03 0.  1.
         11   -1    0    0    0    0 -0.00000000000E+00 -0.00000000000E+00 -0.45593999997E+02  0.45594000000E+02  0.51100000000E-03 0. -1.
    9900012    2    1    2    0    0  0.73495096326E+00  0.74407584870E+00  0.54728883194E+00  0.90007607331E+02  0.89999866948E+02 0.  0.
        -12    1    1    2    0    0 -0.73495096326E+00 -0.74407584870E+00 -0.54728883194E+00  0.11803926688E+01  0.00000000000E+00 0.  1.
         11    1    3    3    0    0  0.24853615429E+02  0.26013521306E+02 -0.12757277180E+02  0.38172681487E+02  0.51100000000E-03 0. -1.
        -11    1    3    3    0    0  0.91958636710E+01 -0.19413881947E+01  0.18048154712E+01  0.95702798248E+01  0.51100000000E-03 0.  1.
        -12    1    3    3    0    0 -0.33314528137E+02 -0.23328057262E+02  0.11499750541E+02  0.42264646019E+02  0.00000000000E+00 0.  1.
</event>
<event>
 7    1  0.2385752E-015  0.9000756E+02  0.7816164E-02  0.1186339E+00
        -11   -1    0    0    0    0  0.00000000000E+00  0.00000000000E+00  0.45593999997E+02  0.45594000000E+02  0.51100000000E-03 0.  1.
         11   -1    0    0    0    0 -0.00000000000E+00 -0.00000000000E+00 -0.45593999997E+02  0.45594000000E+02  0.51100000000E-03 0. -1.
    9900012    2    1    2    0    0  0.11228726915E+01  0.10079317211E+00 -0.34990988729E+00  0.90007559712E+02  0.89999818700E+02 0.  0.
        -12    1    1    2    0    0 -0.11228726915E+01 -0.10079317211E+00  0.34990988729E+00  0.11804402883E+01  0.00000000000E+00 0.  1.
         11    1    3    3    0    0  0.19241061873E+01 -0.32779668942E+01 -0.87546164386E+01  0.95441375109E+01  0.51100000000E-03 0. -1.
        -11    1    3    3    0    0  0.30088511405E+02 -0.22047710376E+02  0.14446033098E+02  0.40001349026E+02  0.51100000000E-03 0.  1.
         12    1    3    3    0    0 -0.30889744901E+02  0.25426470442E+02 -0.60413265469E+01  0.40462073175E+02  0.00000000000E+00 0. -1.
</event>
<event>
 7    1  0.2385752E-015  0.9000774E+02  0.7816164E-02  0.1186339E+00
        -11   -1    0    0    0    0  0.00000000000E+00  0.00000000000E+00  0.45593999997E+02  0.45594000000E+02  0.51100000000E-03 0. -1.
         11   -1    0    0    0    0 -0.00000000000E+00 -0.00000000000E+00 -0.45593999997E+02  0.45594000000E+02  0.51100000000E-03 0.  1.
    9900012    2    1    2    0    0 -0.11338215658E+01  0.22712202250E+00  0.23638227923E+00  0.90007740563E+02  0.90000001939E+02 0.  0.
        -12    1    1    2    0    0  0.11338215658E+01 -0.22712202250E+00 -0.23638227923E+00  0.11802594368E+01  0.00000000000E+00 0.  1.
         11    1    3    3    0    0 -0.24369689349E+01  0.40154841956E+02 -0.58015614632E+01  0.40644904549E+02  0.51100000000E-03 0. -1.
        -11    1    3    3    0    0  0.71893409624E+01 -0.25661347382E+01 -0.59582023752E+01  0.96835864623E+01  0.51100000000E-03 0.  1.
        -12    1    3    3    0    0 -0.58861935933E+01 -0.37361585196E+02  0.11996146118E+02  0.39679249552E+02  0.00000000000E+00 0.  1.
</event>
<event>
 7    1  0.2385752E-015  0.9000779E+02  0.7816164E-02  0.1186339E+00
        -11   -1    0    0    0    0  0.00000000000E+00  0.00000000000E+00  0.45593999997E+02  0.45594000000E+02  0.51100000000E-03 0. -1.
         11   -1    0    0    0    0 -0.00000000000E+00 -0.00000000000E+00 -0.45593999997E+02  0.45594000000E+02  0.51100000000E-03 0.  1.
    9900012    2    1    2    0    0  0.99107889932E+00 -0.40554089411E+00 -0.49617395978E+00  0.90007792645E+02  0.90000054708E+02 0.  0.
        -12    1    1    2    0    0 -0.99107889932E+00  0.40554089411E+00  0.49617395978E+00  0.11802073546E+01  0.00000000000E+00 0.  1.
         11    1    3    3    0    0  0.25067546691E+02 -0.22569504272E+02  0.22841160974E+02  0.40736753125E+02  0.51100000000E-03 0. -1.
        -11    1    3    3    0    0 -0.36425751149E+01  0.64708181700E+01  0.64862347129E+01  0.98595680569E+01  0.51100000000E-03 0.  1.
        -12    1    3    3    0    0 -0.20433892677E+02  0.15693145208E+02 -0.29823569647E+02  0.39411471464E+02  0.00000000000E+00 0.  1.
</event>
<event>
 7    1  0.2385752E-015  0.9000779E+02  0.7816164E-02  0.1186339E+00
        -11   -1    0    0    0    0  0.00000000000E+00  0.00000000000E+00  0.45593999997E+02  0.45594000000E+02  0.51100000000E-03 0.  1.
         11   -1    0    0    0    0 -0.00000000000E+00 -0.00000000000E+00 -0.45593999997E+02  0.45594000000E+02  0.51100000000E-03 0. -1.
    9900012    2    1    2    0    0 -0.93442267765E+00  0.66249312889E-02 -0.72090825756E+00  0.90007788855E+02  0.90000050868E+02 0.  0.
        -12    1    1    2    0    0  0.93442267765E+00 -0.66249312889E-02  0.72090825756E+00  0.11802111447E+01  0.00000000000E+00 0.  1.
         11    1    3    3    0    0 -0.29070263094E+01  0.79728302920E+01  0.51384420153E+01  0.99207061963E+01  0.51100000000E-03 0. -1.
        -11    1    3    3    0    0 -0.15576253523E+01  0.47881914644E+01  0.35915192040E+02  0.36266430673E+02  0.51100000000E-03 0.  1.
         12    1    3    3    0    0  0.35302289840E+01 -0.12754396825E+02 -0.41774542313E+02  0.43820651986E+02  0.00000000000E+00 0. -1.
</event>
<event>
 7    1  0.2440629E-015  0.9000738E+02  0.7816164E-02  0.1186340E+00
        -11   -1    0    0    0    0  0.00000000000E+00  0.00000000000E+00  0.45593999997E+02  0.45594000000E+02  0.51100000000E-03 0. -1.
         11   -1    0    0    0    0 -0.00000000000E+00 -0.00000000000E+00 -0.45593999997E+02  0.45594000000E+02  0.51100000000E-03 0.  1.
    9900012    2    1    2    0    0 -0.57328175592E+00  0.85292749027E+00  0.58114131508E+00  0.90007380458E+02  0.89999637079E+02 0.  0.
        -12    1    1    2    0    0  0.57328175592E+00 -0.85292749027E+00 -0.58114131508E+00  0.11806195422E+01  0.00000000000E+00 0.  1.
         11    1    3    3    0    0  0.21862968107E+02  0.21639973027E+02  0.19273955597E+02  0.36301007860E+02  0.51100000000E-03 0. -1.
        -11    1    3    3    0    0  0.20466982266E+01  0.10008470361E+02 -0.15734861087E+00  0.10216810239E+02  0.51100000000E-03 0.  1.
        -12    1    3    3    0    0 -0.24482948089E+02 -0.30795515898E+02 -0.18535465671E+02  0.43489562359E+02  0.00000000000E+00 0.  1.
</event>
<event>
 7    1  0.3017540E-015  0.9000781E+02  0.7816164E-02  0.1186339E+00
        -11   -1    0    0    0    0  0.00000000000E+00  0.00000000000E+00  0.45593999997E+02  0.45594000000E+02  0.51100000000E-03 0.  1.
         11   -1    0    0    0    0 -0.00000000000E+00 -0.00000000000E+00 -0.45593999997E+02  0.45594000000E+02  0.51100000000E-03 0. -1.
    9900012    2    1    2    0    0 -0.65968347807E+00  0.66997663960E+00 -0.71330602206E+00  0.90007806596E+02  0.90000068843E+02 0.  0.
        -12    1    1    2    0    0  0.65968347807E+00 -0.66997663960E+00  0.71330602206E+00  0.11801934036E+01  0.00000000000E+00 0.  1.
         11    1    3    3    0    0  0.18877801643E+02  0.23969881783E+02 -0.28411172711E+02  0.41690782706E+02  0.51100000000E-03 0. -1.
        -11    1    3    3    0    0 -0.93541334756E+01 -0.24609776924E+00 -0.17893193482E+01  0.95269114188E+01  0.51100000000E-03 0.  1.
        -12    1    3    3    0    0 -0.10183351646E+02 -0.23053807374E+02  0.29487186037E+02  0.38790112472E+02  0.00000000000E+00 0.  1.
</event>
<event>
 7    1  0.2385752E-015  0.9000775E+02  0.7816164E-02  0.1186339E+00
        -11   -1    0    0    0    0  0.00000000000E+00  0.00000000000E+00  0.45593999997E+02  0.45594000000E+02  0.51100000000E-03 0. -1.
         11   -1    0    0    0    0 -0.00000000000E+00 -0.00000000000E+00 -0.45593999997E+02  0.45594000000E+02  0.51100000000E-03 0.  1.
    9900012    2    1    2    0    0 -0.72442425869E+00  0.93089998764E+00 -0.40326779844E-01  0.90007749373E+02  0.90000010865E+02 0.  0.
        -12    1    1    2    0    0  0.72442425869E+00 -0.93089998764E+00  0.40326779844E-01  0.11802506271E+01  0.00000000000E+00 0.  1.
         11    1    3    3    0    0 -0.11250699660E+02  0.68818309345E+01  0.28984703744E+01  0.13503294807E+02  0.51100000000E-03 0. -1.
        -11    1    3    3    0    0 -0.18461852500E+02  0.83689150481E+00 -0.30676570528E+02  0.35813298714E+02  0.51100000000E-03 0.  1.
         12    1    3    3    0    0  0.28988127901E+02 -0.67878224517E+01  0.27737773374E+02  0.40691155853E+02  0.00000000000E+00 0. -1.
</event>
<event>
 7    1  0.2385752E-015  0.9000775E+02  0.7816164E-02  0.1186339E+00
        -11   -1    0    0    0    0  0.00000000000E+00  0.00000000000E+00  0.45593999997E+02  0.45594000000E+02  0.51100000000E-03 0. -1.
         11   -1    0    0    0    0 -0.00000000000E+00 -0.00000000000E+00 -0.45593999997E+02  0.45594000000E+02  0.51100000000E-03 0.  1.
    9900012    2    1    2    0    0 -0.11735396430E+01  0.12119765715E+00  0.33189472913E-01  0.90007751845E+02  0.90000013370E+02 0.  0.
        -12    1    1    2    0    0  0.11735396430E+01 -0.12119765715E+00 -0.33189472913E-01  0.11802481548E+01  0.00000000000E+00 0.  1.
         11    1    3    3    0    0 -0.21615439240E+02  0.22352855880E+02  0.21754015532E+02  0.37948841505E+02  0.51100000000E-03 0. -1.
        -11    1    3    3    0    0 -0.96131488791E+01 -0.13479892558E+01 -0.42669465695E+00  0.97165721835E+01  0.51100000000E-03 0.  1.
        -12    1    3    3    0    0  0.30055048477E+02 -0.20883668967E+02 -0.21294131402E+02  0.42342338157E+02  0.00000000000E+00 0.  1.
</event>
<event>
 7    1  0.2385752E-015  0.9000775E+02  0.7816164E-02  0.1186339E+00
        -11   -1    0    0    0    0  0.00000000000E+00  0.00000000000E+00  0.45593999997E+02  0.45594000000E+02  0.51100000000E-03 0. -1.
         11   -1    0    0    0    0 -0.00000000000E+00 -0.00000000000E+00 -0.45593999997E+02  0.45594000000E+02  0.51100000000E-03 0.  1.
    9900012    2    1    2    0    0 -0.36781574649E+00 -0.10483009239E+01  0.39846847033E+00  0.90007745632E+02  0.90000007075E+02 0.  0.
        -12    1    1    2    0    0  0.36781574649E+00  0.10483009239E+01 -0.39846847033E+00  0.11802543676E+01  0.00000000000E+00 0.  1.
         11    1    3    3    0    0 -0.58692722196E+01 -0.83454801366E+01 -0.43140158387E+01  0.11077279811E+02  0.51100000000E-03 0. -1.
        -11    1    3    3    0    0 -0.21980967168E+02 -0.26740373269E+02 -0.19911119863E+01  0.34672395467E+02  0.51100000000E-03 0.  1.
         12    1    3    3    0    0  0.27482423641E+02  0.34037552482E+02  0.67035962953E+01  0.44258070354E+02  0.00000000000E+00 0. -1.
</event>
<event>
 7    1  0.2385752E-015  0.9000761E+02  0.7816164E-02  0.1186339E+00
        -11   -1    0    0    0    0  0.00000000000E+00  0.00000000000E+00  0.45593999997E+02  0.45594000000E+02  0.51100000000E-03 0. -1.
         11   -1    0    0    0    0 -0.00000000000E+00 -0.00000000000E+00 -0.45593999997E+02  0.45594000000E+02  0.51100000000E-03 0.  1.
    9900012    2    1    2    0    0  0.59802930346E+00 -0.90772715748E+00 -0.46012567695E+00  0.90007608845E+02  0.89999868482E+02 0.  0.
        -12    1    1    2    0    0 -0.59802930346E+00  0.90772715748E+00  0.46012567695E+00  0.11803911550E+01  0.00000000000E+00 0.  1.
         11    1    3    3    0    0 -0.13400531005E+02 -0.51863992145E+00  0.47212743387E+01  0.14217371425E+02  0.51100000000E-03 0. -1.
        -11    1    3    3    0    0 -0.71906230049E+01 -0.15623280429E+02 -0.33268033227E+02  0.37450687385E+02  0.51100000000E-03 0.  1.
         12    1    3    3    0    0  0.21189183313E+02  0.15234193193E+02  0.28086633212E+02  0.38339550035E+02  0.00000000000E+00 0. -1.
</event>
<event>
 7    1  0.2385752E-015  0.9000777E+02  0.7816164E-02  0.1186339E+00
        -11   -1    0    0    0    0  0.00000000000E+00  0.00000000000E+00  0.45593999997E+02  0.45594000000E+02  0.51100000000E-03 0.  1.
         11   -1    0    0    0    0 -0.00000000000E+00 -0.00000000000E+00 -0.45593999997E+02  0.45594000000E+02  0.51100000000E-03 0. -1.
    9900012    2    1    2    0    0 -0.33263473584E+00 -0.12495649622E+00 -0.11254682751E+01  0.90007771704E+02  0.90000033490E+02 0.  0.
        -12    1    1    2    0    0  0.33263473584E+00  0.12495649622E+00  0.11254682751E+01  0.11802282965E+01  0.00000000000E+00 0.  1.
         11    1    3    3    0    0  0.61961876513E+00  0.12884446989E+02 -0.12010043876E+01  0.12955126917E+02  0.51100000000E-03 0. -1.
        -11    1    3    3    0    0 -0.37403100058E+02 -0.68617741054E+01  0.88856691862E+01  0.39051644715E+02  0.51100000000E-03 0.  1.
         12    1    3    3    0    0  0.36450846557E+02 -0.61476293797E+01 -0.88101330737E+01  0.38001000072E+02  0.00000000000E+00 0. -1.
</event>
<event>
 7    1  0.2385752E-015  0.9000764E+02  0.7816164E-02  0.1186339E+00
        -11   -1    0    0    0    0  0.00000000000E+00  0.00000000000E+00  0.45593999997E+02  0.45594000000E+02  0.51100000000E-03 0.  1.
         11   -1    0    0    0    0 -0.00000000000E+00 -0.00000000000E+00 -0.45593999997E+02  0.45594000000E+02  0.51100000000E-03 0. -1.
    9900012    2    1    2    0    0 -0.79495687891E+00  0.15931403813E+00 -0.85785013482E+00  0.90007642319E+02  0.89999902397E+02 0.  0.
        -12    1    1    2    0    0  0.79495687891E+00 -0.15931403813E+00  0.85785013482E+00  0.11803576813E+01  0.00000000000E+00 0.  1.
         11    1    3    3    0    0 -0.29201457560E+02  0.23103560457E+02 -0.19786984969E+02  0.42166626660E+02  0.51100000000E-03 0. -1.
        -11    1    3    3    0    0 -0.38135587130E+01 -0.48210852178E+01  0.62331484270E+01  0.87543264909E+01  0.51100000000E-03 0.  1.
        -12    1    3    3    0    0  0.32220059394E+02 -0.18123161201E+02  0.12695986407E+02  0.39086689168E+02  0.00000000000E+00 0.  1.
</event>
<event>
 7    1  0.2385752E-015  0.9000776E+02  0.7816164E-02  0.1186339E+00
        -11   -1    0    0    0    0  0.00000000000E+00  0.00000000000E+00  0.45593999997E+02  0.45594000000E+02  0.51100000000E-03 0. -1.
         11   -1    0    0    0    0 -0.00000000000E+00 -0.00000000000E+00 -0.45593999997E+02  0.45594000000E+02  0.51100000000E-03 0.  1.
    9900012    2    1    2    0    0 -0.82290644610E-01 -0.23250443569E+00  0.11541846363E+01  0.90007757551E+02  0.90000019151E+02 0.  0.
        -12    1    1    2    0    0  0.82290644610E-01  0.23250443569E+00 -0.11541846363E+01  0.11802424486E+01  0.00000000000E+00 0.  1.
         11    1    3    3    0    0 -0.76470166274E+01  0.15256697202E+02  0.37469588760E+02  0.41172973598E+02  0.51100000000E-03 0. -1.
        -11    1    3    3    0    0 -0.34424122396E+01  0.49806985083E+01 -0.41620819828E+00  0.60688375479E+01  0.51100000000E-03 0.  1.
        -12    1    3    3    0    0  0.11007138222E+02 -0.20469900146E+02 -0.35899195925E+02  0.42765946405E+02  0.00000000000E+00 0.  1.
</event>
<event>
 7    1  0.2385752E-015  0.9000773E+02  0.7816164E-02  0.1186339E+00
        -11   -1    0    0    0    0  0.00000000000E+00  0.00000000000E+00  0.45593999997E+02  0.45594000000E+02  0.51100000000E-03 0. -1.
         11   -1    0    0    0    0 -0.00000000000E+00 -0.00000000000E+00 -0.45593999997E+02  0.45594000000E+02  0.51100000000E-03 0.  1.
    9900012    2    1    2    0    0 -0.84621107069E+00 -0.58307875612E+00 -0.58050895083E+00  0.90007726873E+02  0.89999988068E+02 0.  0.
        -12    1    1    2    0    0  0.84621107069E+00  0.58307875612E+00  0.58050895083E+00  0.11802731269E+01  0.00000000000E+00 0.  1.
         11    1    3    3    0    0 -0.48836670677E+01 -0.24004803617E+01  0.91291952598E+01  0.10628015635E+02  0.51100000000E-03 0. -1.
        -11    1    3    3    0    0 -0.25216844063E+02  0.26156651741E+02  0.83142654642E+01  0.37271794500E+02  0.51100000000E-03 0.  1.
         12    1    3    3    0    0  0.29254300060E+02 -0.24339250135E+02 -0.18023969675E+02  0.42107916738E+02  0.00000000000E+00 0. -1.
</event>
<event>
 7    1  0.2385752E-015  0.9000772E+02  0.7816164E-02  0.1186339E+00
        -11   -1    0    0    0    0  0.00000000000E+00  0.00000000000E+00  0.45593999997E+02  0.45594000000E+02  0.51100000000E-03 0. -1.
         11   -1    0    0    0    0 -0.00000000000E+00 -0.00000000000E+00 -0.45593999997E+02  0.45594000000E+02  0.51100000000E-03 0.  1.
    9900012    2    1    2    0    0  0.28143453245E+00 -0.10553691364E+01  0.44727761297E+00  0.90007717545E+02  0.89999978617E+02 0.  0.
        -12    1    1    2    0    0 -0.28143453245E+00  0.10553691364E+01 -0.44727761297E+00  0.11802824549E+01  0.00000000000E+00 0.  1.
         11    1    3    3    0    0 -0.54440073174E+01 -0.53915250292E+01  0.68816481174E+01  0.10298681415E+02  0.51100000000E-03 0. -1.
        -11    1    3    3    0    0 -0.21799673279E+02  0.26509775675E+02  0.15975812082E+02  0.37857899220E+02  0.51100000000E-03 0.  1.
         12    1    3    3    0    0  0.27525115129E+02 -0.22173619782E+02 -0.22410182587E+02  0.41851136910E+02  0.00000000000E+00 0. -1.
</event>
<event>
 7    1  0.2385752E-015  0.9000777E+02  0.7816164E-02  0.1186339E+00
        -11   -1    0    0    0    0  0.00000000000E+00  0.00000000000E+00  0.45593999997E+02  0.45594000000E+02  0.51100000000E-03 0. -1.
         11   -1    0    0    0    0 -0.00000000000E+00 -0.00000000000E+00 -0.45593999997E+02  0.45594000000E+02  0.51100000000E-03 0.  1.
    9900012    2    1    2    0    0  0.77622203087E+00  0.83466634181E+00 -0.30619027730E+00  0.90007770773E+02  0.90000032547E+02 0.  0.
        -12    1    1    2    0    0 -0.77622203087E+00 -0.83466634181E+00  0.30619027730E+00  0.11802292274E+01  0.00000000000E+00 0.  1.
         11    1    3    3    0    0  0.37491548514E+02  0.14025505826E+02  0.88339779828E+01  0.40992318682E+02  0.51100000000E-03 0. -1.
        -11    1    3    3    0    0 -0.32322996761E+01 -0.19116578182E+01  0.86701974875E+01  0.94485195424E+01  0.51100000000E-03 0.  1.
        -12    1    3    3    0    0 -0.33483026807E+02 -0.11279181666E+02 -0.17810365748E+02  0.39566932548E+02  0.00000000000E+00 0.  1.
</event>
<event>
 7    1  0.2385752E-015  0.9000769E+02  0.7816164E-02  0.1186339E+00
        -11   -1    0    0    0    0  0.00000000000E+00  0.00000000000E+00  0.45593999997E+02  0.45594000000E+02  0.51100000000E-03 0.  1.
         11   -1    0    0    0    0 -0.00000000000E+00 -0.00000000000E+00 -0.45593999997E+02  0.45594000000E+02  0.51100000000E-03 0. -1.
    9900012    2    1    2    0    0 -0.58347300429E+00  0.14545041102E+00 -0.10156443079E+01  0.90007690749E+02  0.89999951466E+02 0.  0.
        -12    1    1    2    0    0  0.58347300429E+00 -0.14545041102E+00  0.10156443079E+01  0.11803092514E+01  0.00000000000E+00 0.  1.
         11    1    3    3    0    0 -0.33278606140E+02 -0.16269746249E+02 -0.86984683712E+01  0.38050408958E+02  0.51100000000E-03 0. -1.
        -11    1    3    3    0    0 -0.78957860130E+01  0.41979583320E+01  0.43917809761E+00  0.89531652829E+01  0.51100000000E-03 0.  1.
        -12    1    3    3    0    0  0.40590919149E+02  0.12217238328E+02  0.72436459658E+01  0.43004116507E+02  0.00000000000E+00 0.  1.
</event>
<event>
 7    1  0.2385752E-015  0.9000771E+02  0.7816164E-02  0.1186339E+00
        -11   -1    0    0    0    0  0.00000000000E+00  0.00000000000E+00  0.45593999997E+02  0.45594000000E+02  0.51100000000E-03 0. -1.
         11   -1    0    0    0    0 -0.00000000000E+00 -0.00000000000E+00 -0.45593999997E+02  0.45594000000E+02  0.51100000000E-03 0.  1.
    9900012    2    1    2    0    0  0.66845069671E+00 -0.77668678988E+00  0.58567298590E+00  0.90007711243E+02  0.89999972231E+02 0.  0.
        -12    1    1    2    0    0 -0.66845069671E+00  0.77668678988E+00 -0.58567298590E+00  0.11802887570E+01  0.00000000000E+00 0.  1.
         11    1    3    3    0    0 -0.69934885971E+01 -0.20611244921E+01  0.67934786085E+01  0.99653634552E+01  0.51100000000E-03 0. -1.
        -11    1    3    3    0    0  0.12197167858E+02 -0.31505502927E+02 -0.24953864014E+02  0.42000749374E+02  0.51100000000E-03 0.  1.
         12    1    3    3    0    0 -0.45352285646E+01  0.32789940630E+02  0.18746058392E+02  0.38041598414E+02  0.00000000000E+00 0. -1.
</event>
<event>
 7    1  0.2385752E-015  0.9000772E+02  0.7816164E-02  0.1186339E+00
        -11   -1    0    0    0    0  0.00000000000E+00  0.00000000000E+00  0.45593999997E+02  0.45594000000E+02  0.51100000000E-03 0.  1.
         11   -1    0    0    0    0 -0.00000000000E+00 -0.00000000000E+00 -0.45593999997E+02  0.45594000000E+02  0.51100000000E-03 0. -1.
    9900012    2    1    2    0    0 -0.11682194681E+01  0.12297983359E+00  0.11489995274E+00  0.90007719201E+02  0.89999980295E+02 0.  0.
        -12    1    1    2    0    0  0.11682194681E+01 -0.12297983359E+00 -0.11489995274E+00  0.11802807989E+01  0.00000000000E+00 0.  1.
         11    1    3    3    0    0 -0.25257646888E+02 -0.28455612490E+02 -0.32162324030E+01  0.38183959455E+02  0.51100000000E-03 0. -1.
        -11    1    3    3    0    0 -0.24395305151E+01 -0.33642066747E+01  0.90027541643E+01  0.99155826096E+01  0.51100000000E-03 0.  1.
        -12    1    3    3    0    0  0.26528957935E+02  0.31942798999E+02 -0.56716218086E+01  0.41908177137E+02  0.00000000000E+00 0.  1.
</event>
<event>
 7    1  0.2385752E-015  0.9000785E+02  0.7816164E-02  0.1186339E+00
        -11   -1    0    0    0    0  0.00000000000E+00  0.00000000000E+00  0.45593999997E+02  0.45594000000E+02  0.51100000000E-03 0.  1.
         11   -1    0    0    0    0 -0.00000000000E+00 -0.00000000000E+00 -0.45593999997E+02  0.45594000000E+02  0.51100000000E-03 0. -1.
    9900012    2    1    2    0    0 -0.31551207947E+00 -0.10068788943E+01 -0.52859082584E+00  0.90007846942E+02  0.90000109721E+02 0.  0.
        -12    1    1    2    0    0  0.31551207947E+00  0.10068788943E+01  0.52859082584E+00  0.11801530584E+01  0.00000000000E+00 0.  1.
         11    1    3    3    0    0 -0.23792093710E+02  0.18551640459E+02  0.18576080005E+02  0.35430182549E+02  0.51100000000E-03 0. -1.
        -11    1    3    3    0    0 -0.52100585849E+01  0.35424056349E+01  0.70116539662E+01  0.94263799915E+01  0.51100000000E-03 0.  1.
        -12    1    3    3    0    0  0.28686640215E+02 -0.23100924988E+02 -0.26116324797E+02  0.45151284401E+02  0.00000000000E+00 0.  1.
</event>
<event>
 7    1  0.2385752E-015  0.9000788E+02  0.7816164E-02  0.1186339E+00
        -11   -1    0    0    0    0  0.00000000000E+00  0.00000000000E+00  0.45593999997E+02  0.45594000000E+02  0.51100000000E-03 0.  1.
         11   -1    0    0    0    0 -0.00000000000E+00 -0.00000000000E+00 -0.45593999997E+02  0.45594000000E+02  0.51100000000E-03 0. -1.
    9900012    2    1    2    0    0 -0.97433053501E+00 -0.53236554172E+00 -0.39993413147E+00  0.90007881205E+02  0.90000144437E+02 0.  0.
        -12    1    1    2    0    0  0.97433053501E+00  0.53236554172E+00  0.39993413147E+00  0.11801187953E+01  0.00000000000E+00 0.  1.
         11    1    3    3    0    0 -0.48632909122E+01 -0.14923031537E+01  0.82948891494E+01  0.97305577158E+01  0.51100000000E-03 0. -1.
        -11    1    3    3    0    0  0.29798250253E+02 -0.12057728151E+02  0.21297570217E+02  0.38560485263E+02  0.51100000000E-03 0.  1.
         12    1    3    3    0    0 -0.25909289876E+02  0.13017665763E+02 -0.29992393498E+02  0.41716838226E+02  0.00000000000E+00 0. -1.
</event>
<event>
 7    1  0.2385752E-015  0.9000772E+02  0.7816164E-02  0.1186339E+00
        -11   -1    0    0    0    0  0.00000000000E+00  0.00000000000E+00  0.45593999997E+02  0.45594000000E+02  0.51100000000E-03 0. -1.
         11   -1    0    0    0    0 -0.00000000000E+00 -0.00000000000E+00 -0.45593999997E+02  0.45594000000E+02  0.51100000000E-03 0.  1.
    9900012    2    1    2    0    0 -0.66245794897E+00 -0.70907271079E+00  0.67188415251E+00  0.90007719119E+02  0.89999980211E+02 0.  0.
        -12    1    1    2    0    0  0.66245794897E+00  0.70907271079E+00 -0.67188415251E+00  0.11802808809E+01  0.00000000000E+00 0.  1.
         11    1    3    3    0    0 -0.22099305129E+00 -0.89086599696E+01 -0.20291644023E+01  0.91395059393E+01  0.51100000000E-03 0. -1.
        -11    1    3    3    0    0 -0.18220189008E+02 -0.28777639724E+02 -0.13659226717E+02  0.36697442830E+02  0.51100000000E-03 0.  1.
         12    1    3    3    0    0  0.17778724110E+02  0.36977226982E+02  0.16360275272E+02  0.44170770349E+02  0.00000000000E+00 0. -1.
</event>
<event>
 7    1  0.2385752E-015  0.9000800E+02  0.7816164E-02  0.1186339E+00
        -11   -1    0    0    0    0  0.00000000000E+00  0.00000000000E+00  0.45593999997E+02  0.45594000000E+02  0.51100000000E-03 0.  1.
         11   -1    0    0    0    0 -0.00000000000E+00 -0.00000000000E+00 -0.45593999997E+02  0.45594000000E+02  0.51100000000E-03 0. -1.
    9900012    2    1    2    0    0 -0.23522850205E+00  0.69733966708E+00 -0.92238399274E+00  0.90007996911E+02  0.90000261670E+02 0.  0.
        -12    1    1    2    0    0  0.23522850205E+00 -0.69733966708E+00  0.92238399274E+00  0.11800030888E+01  0.00000000000E+00 0.  1.
         11    1    3    3    0    0 -0.24345711875E+02 -0.20704721934E+02 -0.19635783983E+02  0.37509508261E+02  0.51100000000E-03 0. -1.
        -11    1    3    3    0    0 -0.99314721792E+01  0.65111372337E+01  0.51462870168E+01  0.12942693616E+02  0.51100000000E-03 0.  1.
        -12    1    3    3    0    0  0.34041955553E+02  0.14890924367E+02  0.13567112974E+02  0.39555795034E+02  0.00000000000E+00 0.  1.
</event>
<event>
 7    1  0.2385752E-015  0.9000771E+02  0.7816164E-02  0.1186339E+00
        -11   -1    0    0    0    0  0.00000000000E+00  0.00000000000E+00  0.45593999997E+02  0.45594000000E+02  0.51100000000E-03 0.  1.
         11   -1    0    0    0    0 -0.00000000000E+00 -0.00000000000E+00 -0.45593999997E+02  0.45594000000E+02  0.51100000000E-03 0. -1.
    9900012    2    1    2    0    0 -0.75639120142E+00  0.47046425838E+00 -0.77435117872E+00  0.90007710198E+02  0.89999971173E+02 0.  0.
        -12    1    1    2    0    0  0.75639120142E+00 -0.47046425838E+00  0.77435117872E+00  0.11802898017E+01  0.00000000000E+00 0.  1.
         11    1    3    3    0    0 -0.18071208026E+02 -0.22810530682E+02 -0.22724641439E+02  0.36922868230E+02  0.51100000000E-03 0. -1.
        -11    1    3    3    0    0 -0.29448054383E+01 -0.93927418629E+01  0.54144626835E+01  0.11234406312E+02  0.51100000000E-03 0.  1.
        -12    1    3    3    0    0  0.20259622263E+02  0.32673736804E+02  0.16535827577E+02  0.41850435656E+02  0.00000000000E+00 0.  1.
</event>
<event>
 7    1  0.2385752E-015  0.9000779E+02  0.7816164E-02  0.1186339E+00
        -11   -1    0    0    0    0  0.00000000000E+00  0.00000000000E+00  0.45593999997E+02  0.45594000000E+02  0.51100000000E-03 0. -1.
         11   -1    0    0    0    0 -0.00000000000E+00 -0.00000000000E+00 -0.45593999997E+02  0.45594000000E+02  0.51100000000E-03 0.  1.
    9900012    2    1    2    0    0 -0.10454373456E+01  0.54189255080E+00 -0.79363487780E-01  0.90007794364E+02  0.90000056450E+02 0.  0.
        -12    1    1    2    0    0  0.10454373456E+01 -0.54189255080E+00  0.79363487780E-01  0.11802056360E+01  0.00000000000E+00 0.  1.
         11    1    3    3    0    0 -0.40106389919E+02  0.89020094232E+01 -0.16415665061E+01  0.41115240786E+02  0.51100000000E-03 0. -1.
        -11    1    3    3    0    0 -0.30154784710E+00 -0.15416071197E+01 -0.77212145972E+01  0.78793806059E+01  0.51100000000E-03 0.  1.
        -12    1    3    3    0    0  0.39362500420E+02 -0.68185097527E+01  0.92834176155E+01  0.41013172972E+02  0.00000000000E+00 0.  1.
</event>
<event>
 7    1  0.2385752E-015  0.9000888E+02  0.7816164E-02  0.1186337E+00
        -11   -1    0    0    0    0  0.00000000000E+00  0.00000000000E+00  0.45593999997E+02  0.45594000000E+02  0.51100000000E-03 0. -1.
         11   -1    0    0    0    0 -0.00000000000E+00 -0.00000000000E+00 -0.45593999997E+02  0.45594000000E+02  0.51100000000E-03 0.  1.
    9900012    2    1    2    0    0 -0.10833520648E+01  0.35408896634E+00  0.30215321734E+00  0.90008878607E+02  0.90001154997E+02 0.  0.
        -12    1    1    2    0    0  0.10833520648E+01 -0.35408896634E+00 -0.30215321734E+00  0.11791213929E+01  0.00000000000E+00 0.  1.
         11    1    3    3    0    0  0.29338518205E+02  0.28367597064E+02 -0.57415324635E+01  0.41212066303E+02  0.51100000000E-03 0. -1.
        -11    1    3    3    0    0  0.17677905175E+01 -0.96385751639E+01 -0.36965676446E+01  0.10473386612E+02  0.51100000000E-03 0.  1.
        -12    1    3    3    0    0 -0.32189660788E+02 -0.18374932934E+02  0.97402533254E+01  0.38323425692E+02  0.00000000000E+00 0.  1.
</event>
<event>
 7    1  0.2385752E-015  0.9000777E+02  0.7816164E-02  0.1186339E+00
        -11   -1    0    0    0    0  0.00000000000E+00  0.00000000000E+00  0.45593999997E+02  0.45594000000E+02  0.51100000000E-03 0.  1.
         11   -1    0    0    0    0 -0.00000000000E+00 -0.00000000000E+00 -0.45593999997E+02  0.45594000000E+02  0.51100000000E-03 0. -1.
    9900012    2    1    2    0    0  0.17072157883E+00  0.43554110575E-01 -0.11670052822E+01  0.90007769452E+02  0.90000031209E+02 0.  0.
        -12    1    1    2    0    0 -0.17072157883E+00 -0.43554110575E-01  0.11670052822E+01  0.11802305481E+01  0.00000000000E+00 0.  1.
         11    1    3    3    0    0  0.20120594366E+02 -0.26380859720E+02 -0.65792832305E+01  0.33824178413E+02  0.51100000000E-03 0. -1.
        -11    1    3    3    0    0 -0.16033254126E+02  0.76082347725E+01 -0.18412597659E+02  0.25572919799E+02  0.51100000000E-03 0.  1.
        -12    1    3    3    0    0 -0.39166186607E+01  0.18816179058E+02  0.23824875607E+02  0.30610671240E+02  0.00000000000E+00 0.  1.
</event>
<event>
 7    1  0.2385752E-015  0.9000771E+02  0.7816164E-02  0.1186339E+00
        -11   -1    0    0    0    0  0.00000000000E+00  0.00000000000E+00  0.45593999997E+02  0.45594000000E+02  0.51100000000E-03 0. -1.
         11   -1    0    0    0    0 -0.00000000000E+00 -0.00000000000E+00 -0.45593999997E+02  0.45594000000E+02  0.51100000000E-03 0.  1.
    9900012    2    1    2    0    0 -0.63680220070E+00 -0.94821438340E+00  0.29742205519E+00  0.90007708748E+02  0.89999969704E+02 0.  0.
        -12    1    1    2    0    0  0.63680220070E+00  0.94821438340E+00 -0.29742205519E+00  0.11802912516E+01  0.00000000000E+00 0.  1.
         11    1    3    3    0    0  0.28176797982E+01  0.47606807537E+00 -0.86227585996E+01  0.90839378238E+01  0.51100000000E-03 0. -1.
        -11    1    3    3    0    0  0.77029364544E+01 -0.39221045785E+02  0.11010806327E+02  0.41459178944E+02  0.51100000000E-03 0.  1.
         12    1    3    3    0    0 -0.11157418453E+02  0.37796763326E+02 -0.20906256724E+01  0.39464591980E+02  0.00000000000E+00 0. -1.
</event>
<event>
 7    1  0.2385752E-015  0.9000787E+02  0.7816164E-02  0.1186339E+00
        -11   -1    0    0    0    0  0.00000000000E+00  0.00000000000E+00  0.45593999997E+02  0.45594000000E+02  0.51100000000E-03 0. -1.
         11   -1    0    0    0    0 -0.00000000000E+00 -0.00000000000E+00 -0.45593999997E+02  0.45594000000E+02  0.51100000000E-03 0.  1.
    9900012    2    1    2    0    0 -0.21543640548E-01 -0.11752780275E+01 -0.10469256553E+00  0.90007871573E+02  0.90000134678E+02 0.  0.
        -12    1    1    2    0    0  0.21543640548E-01  0.11752780275E+01  0.10469256553E+00  0.11801284268E+01  0.00000000000E+00 0.  1.
         11    1    3    3    0    0 -0.24429815130E+01  0.83746575985E+01 -0.25569952674E+01  0.90907245929E+01  0.51100000000E-03 0. -1.
        -11    1    3    3    0    0  0.26601158055E+02  0.19820419640E+02  0.20304087305E+02  0.38893786214E+02  0.51100000000E-03 0.  1.
         12    1    3    3    0    0 -0.24179720182E+02 -0.29370355266E+02 -0.17851784603E+02  0.42023360766E+02  0.00000000000E+00 0. -1.
</event>
<event>
 7    1  0.2385752E-015  0.9000777E+02  0.7816164E-02  0.1186339E+00
        -11   -1    0    0    0    0  0.00000000000E+00  0.00000000000E+00  0.45593999997E+02  0.45594000000E+02  0.51100000000E-03 0.  1.
         11   -1    0    0    0    0 -0.00000000000E+00 -0.00000000000E+00 -0.45593999997E+02  0.45594000000E+02  0.51100000000E-03 0. -1.
    9900012    2    1    2    0    0  0.66016486590E+00 -0.97297557753E+00 -0.10224391244E+00  0.90007765726E+02  0.90000027433E+02 0.  0.
        -12    1    1    2    0    0 -0.66016486590E+00  0.97297557753E+00  0.10224391244E+00  0.11802342743E+01  0.00000000000E+00 0.  1.
         11    1    3    3    0    0 -0.62757920748E+01  0.29455370835E+02 -0.27418388051E+02  0.40728030161E+02  0.51100000000E-03 0. -1.
        -11    1    3    3    0    0 -0.91660588866E+01 -0.85656752411E+01  0.31598693042E+01  0.12937240901E+02  0.51100000000E-03 0.  1.
        -12    1    3    3    0    0  0.16102015827E+02 -0.21862671172E+02  0.24156274835E+02  0.36342494663E+02  0.00000000000E+00 0.  1.
</event>
<event>
 7    1  0.2385752E-015  0.9000772E+02  0.7816164E-02  0.1186339E+00
        -11   -1    0    0    0    0  0.00000000000E+00  0.00000000000E+00  0.45593999997E+02  0.45594000000E+02  0.51100000000E-03 0.  1.
         11   -1    0    0    0    0 -0.00000000000E+00 -0.00000000000E+00 -0.45593999997E+02  0.45594000000E+02  0.51100000000E-03 0. -1.
    9900012    2    1    2    0    0  0.59538259725E+00 -0.10168165265E+01 -0.68211490296E-01  0.90007724993E+02  0.89999986162E+02 0.  0.
        -12    1    1    2    0    0 -0.59538259725E+00  0.10168165265E+01  0.68211490296E-01  0.11802750074E+01  0.00000000000E+00 0.  1.
         11    1    3    3    0    0 -0.10890177587E+02  0.58413142705E+01 -0.55214149544E+01  0.13535248193E+02  0.51100000000E-03 0. -1.
        -11    1    3    3    0    0  0.53642946491E+01 -0.27147551942E+02  0.32128826372E+02  0.42403145141E+02  0.51100000000E-03 0.  1.
         12    1    3    3    0    0  0.61212655349E+01  0.20289421145E+02 -0.26675622908E+02  0.34069331659E+02  0.00000000000E+00 0. -1.
</event>
<event>
 7    1  0.2385752E-015  0.9000772E+02  0.7816164E-02  0.1186339E+00
        -11   -1    0    0    0    0  0.00000000000E+00  0.00000000000E+00  0.45593999997E+02  0.45594000000E+02  0.51100000000E-03 0.  1.
         11   -1    0    0    0    0 -0.00000000000E+00 -0.00000000000E+00 -0.45593999997E+02  0.45594000000E+02  0.51100000000E-03 0. -1.
    9900012    2    1    2    0    0  0.58768137337E+00 -0.82745937132E+00  0.60249757657E+00  0.90007719636E+02  0.89999980735E+02 0.  0.
        -12    1    1    2    0    0 -0.58768137337E+00  0.82745937132E+00 -0.60249757657E+00  0.11802803640E+01  0.00000000000E+00 0.  1.
         11    1    3    3    0    0  0.16719047419E+02 -0.95137766675E+01 -0.36535883520E+02  0.41290547077E+02  0.51100000000E-03 0. -1.
        -11    1    3    3    0    0 -0.14237309484E+01 -0.32253066567E+01 -0.28125231859E+01  0.45099778021E+01  0.51100000000E-03 0.  1.
        -12    1    3    3    0    0 -0.14707635097E+02  0.11911623953E+02  0.39950904282E+02  0.44207194757E+02  0.00000000000E+00 0.  1.
</event>
<event>
 7    1  0.2385752E-015  0.9000770E+02  0.7816164E-02  0.1186339E+00
        -11   -1    0    0    0    0  0.00000000000E+00  0.00000000000E+00  0.45593999997E+02  0.45594000000E+02  0.51100000000E-03 0. -1.
         11   -1    0    0    0    0 -0.00000000000E+00 -0.00000000000E+00 -0.45593999997E+02  0.45594000000E+02  0.51100000000E-03 0.  1.
    9900012    2    1    2    0    0  0.70794001336E+00  0.93353109828E+00 -0.14296461950E+00  0.90007704166E+02  0.89999965061E+02 0.  0.
        -12    1    1    2    0    0 -0.70794001336E+00 -0.93353109828E+00  0.14296461950E+00  0.11802958343E+01  0.00000000000E+00 0.  1.
         11    1    3    3    0    0  0.67085495797E+01  0.48338262463E+01  0.25399378810E+00  0.82725465697E+01  0.51100000000E-03 0. -1.
        -11    1    3    3    0    0  0.46762232851E+01  0.36090179960E+02 -0.12716158368E+02  0.38549563392E+02  0.51100000000E-03 0.  1.
         12    1    3    3    0    0 -0.10676832851E+02 -0.39990475108E+02  0.12319199961E+02  0.43185594204E+02  0.00000000000E+00 0. -1.
</event>
<event>
 7    1  0.2385752E-015  0.9000769E+02  0.7816164E-02  0.1186339E+00
        -11   -1    0    0    0    0  0.00000000000E+00  0.00000000000E+00  0.45593999997E+02  0.45594000000E+02  0.51100000000E-03 0.  1.
         11   -1    0    0    0    0 -0.00000000000E+00 -0.00000000000E+00 -0.45593999997E+02  0.45594000000E+02  0.51100000000E-03 0. -1.
    9900012    2    1    2    0    0 -0.38157405040E+00 -0.33310312076E+00 -0.10661018246E+01  0.90007690911E+02  0.89999951631E+02 0.  0.
        -12    1    1    2    0    0  0.38157405040E+00  0.33310312076E+00  0.10661018246E+01  0.11803090889E+01  0.00000000000E+00 0.  1.
         11    1    3    3    0    0 -0.73891124175E+01 -0.48483379096E+01  0.25581443349E+01  0.92005144152E+01  0.51100000000E-03 0. -1.
        -11    1    3    3    0    0  0.22276817487E+02 -0.22310858664E+02  0.23811203537E+02  0.39509548540E+02  0.51100000000E-03 0.  1.
         12    1    3    3    0    0 -0.15269279120E+02  0.26826093453E+02 -0.27435449696E+02  0.41297627956E+02  0.00000000000E+00 0. -1.
</event>
<event>
 8    1  0.2385752E-015  0.9000771E+02  0.7816164E-02  0.1186339E+00
        -11   -1    0    0    0    0  0.00000000000E+00  0.00000000000E+00  0.45593999997E+02  0.45594000000E+02  0.51100000000E-03 0.  1.
         11   -1    0    0    0    0 -0.00000000000E+00 -0.00000000000E+00 -0.45593999997E+02  0.45594000000E+02  0.51100000000E-03 0. -1.
    9900012    2    1    2    0    0  0.74189136009E+00  0.54581376345E+00  0.73807759669E+00  0.90007714444E+02  0.89999975475E+02 0.  0.
         23    2    3    3    0    0  0.11782649948E+02 -0.12464574333E+02  0.15033650748E+02  0.67747167274E+02  0.63792409938E+02 0.  0.
        -12    1    1    2    0    0 -0.74189136009E+00 -0.54581376345E+00 -0.73807759669E+00  0.11802855558E+01  0.00000000000E+00 0.  1.
         11    1    4    4    0    0  0.83262352045E+01  0.25007160089E+02 -0.20165392435E+01  0.26433892622E+02  0.51100000000E-03 0. -1.
        -11    1    4    4    0    0  0.34564147435E+01 -0.37471734421E+02  0.17050189992E+02  0.41313274651E+02  0.51100000000E-03 0.  1.
         12    1    3    3    0    0 -0.11040758588E+02  0.13010388096E+02 -0.14295573151E+02  0.22260547171E+02  0.00000000000E+00 0. -1.
</event>
<event>
 7    1  0.2385752E-015  0.9000776E+02  0.7816164E-02  0.1186339E+00
        -11   -1    0    0    0    0  0.00000000000E+00  0.00000000000E+00  0.45593999997E+02  0.45594000000E+02  0.51100000000E-03 0.  1.
         11   -1    0    0    0    0 -0.00000000000E+00 -0.00000000000E+00 -0.45593999997E+02  0.45594000000E+02  0.51100000000E-03 0. -1.
    9900012    2    1    2    0    0 -0.64286219278E+00  0.97844217371E+00 -0.14950899548E+00  0.90007756878E+02  0.90000018469E+02 0.  0.
        -12    1    1    2    0    0  0.64286219278E+00 -0.97844217371E+00  0.14950899548E+00  0.11802431215E+01  0.00000000000E+00 0.  1.
         11    1    3    3    0    0  0.38760258635E+02  0.70548582271E+01 -0.13625658523E+02  0.41686775415E+02  0.51100000000E-03 0. -1.
        -11    1    3    3    0    0 -0.63175736896E+01  0.39315887717E+01 -0.51562230885E+01  0.90529423058E+01  0.51100000000E-03 0.  1.
        -12    1    3    3    0    0 -0.33085547138E+02 -0.10008004825E+02  0.18632372616E+02  0.39268039158E+02  0.00000000000E+00 0.  1.
</event>
<event>
 7    1  0.2385752E-015  0.9000776E+02  0.7816164E-02  0.1186339E+00
        -11   -1    0    0    0    0  0.00000000000E+00  0.00000000000E+00  0.45593999997E+02  0.45594000000E+02  0.51100000000E-03 0.  1.
         11   -1    0    0    0    0 -0.00000000000E+00 -0.00000000000E+00 -0.45593999997E+02  0.45594000000E+02  0.51100000000E-03 0. -1.
    9900012    2    1    2    0    0  0.49848859656E+00  0.10675966206E+01 -0.68671104929E-01  0.90007758861E+02  0.90000020478E+02 0.  0.
        -12    1    1    2    0    0 -0.49848859656E+00 -0.10675966206E+01  0.68671104929E-01  0.11802411389E+01  0.00000000000E+00 0.  1.
         11    1    3    3    0    0  0.23269466536E+02  0.10152750018E+02 -0.36509077756E+02  0.44468631243E+02  0.51100000000E-03 0. -1.
        -11    1    3    3    0    0 -0.70304414363E+01  0.38003026793E+00  0.35911390337E+01  0.79036579895E+01  0.51100000000E-03 0.  1.
        -12    1    3    3    0    0 -0.15740536503E+02 -0.94651836651E+01  0.32849267617E+02  0.37635469629E+02  0.00000000000E+00 0.  1.
</event>
<event>
 7    1  0.2385752E-015  0.9000804E+02  0.7816164E-02  0.1186338E+00
        -11   -1    0    0    0    0  0.00000000000E+00  0.00000000000E+00  0.45593999997E+02  0.45594000000E+02  0.51100000000E-03 0. -1.
         11   -1    0    0    0    0 -0.00000000000E+00 -0.00000000000E+00 -0.45593999997E+02  0.45594000000E+02  0.51100000000E-03 0.  1.
    9900012    2    1    2    0    0 -0.67090027230E+00  0.91522020091E+00  0.32337654148E+00  0.90008039162E+02  0.90000304478E+02 0.  0.
        -12    1    1    2    0    0  0.67090027230E+00 -0.91522020091E+00 -0.32337654148E+00  0.11799608380E+01  0.00000000000E+00 0.  1.
         11    1    3    3    0    0 -0.29822970137E+02  0.23894691923E+02  0.13157421131E+02  0.40416377633E+02  0.51100000000E-03 0. -1.
        -11    1    3    3    0    0  0.71440693811E+01 -0.64687525718E+01  0.99627563388E+01  0.13861421330E+02  0.51100000000E-03 0.  1.
        -12    1    3    3    0    0  0.22008000483E+02 -0.16510719150E+02 -0.22796800928E+02  0.35730240199E+02  0.00000000000E+00 0.  1.
</event>
<event>
 7    1  0.2385752E-015  0.9000775E+02  0.7816164E-02  0.1186339E+00
        -11   -1    0    0    0    0  0.00000000000E+00  0.00000000000E+00  0.45593999997E+02  0.45594000000E+02  0.51100000000E-03 0. -1.
         11   -1    0    0    0    0 -0.00000000000E+00 -0.00000000000E+00 -0.45593999997E+02  0.45594000000E+02  0.51100000000E-03 0.  1.
    9900012    2    1    2    0    0 -0.10177456706E+01 -0.47619612923E-01  0.59574395019E+00  0.90007752258E+02  0.90000013788E+02 0.  0.
        -12    1    1    2    0    0  0.10177456706E+01  0.47619612923E-01 -0.59574395019E+00  0.11802477417E+01  0.00000000000E+00 0.  1.
         11    1    3    3    0    0 -0.19705287622E+02 -0.58016923518E+00  0.11614454673E+02  0.22880789196E+02  0.51100000000E-03 0. -1.
        -11    1    3    3    0    0 -0.13492432499E+02 -0.56310488698E+01 -0.26975705967E+02  0.30682945732E+02  0.51100000000E-03 0.  1.
         12    1    3    3    0    0  0.32179974450E+02  0.61635984921E+01  0.15956995244E+02  0.36444017331E+02  0.00000000000E+00 0. -1.
</event>
<event>
 7    1  0.2385752E-015  0.9000778E+02  0.7816164E-02  0.1186339E+00
        -11   -1    0    0    0    0  0.00000000000E+00  0.00000000000E+00  0.45593999997E+02  0.45594000000E+02  0.51100000000E-03 0.  1.
         11   -1    0    0    0    0 -0.00000000000E+00 -0.00000000000E+00 -0.45593999997E+02  0.45594000000E+02  0.51100000000E-03 0. -1.
    9900012    2    1    2    0    0 -0.74671866545E+00  0.33120384693E+00 -0.85183623556E+00  0.90007784034E+02  0.90000045984E+02 0.  0.
        -12    1    1    2    0    0  0.74671866545E+00 -0.33120384693E+00  0.85183623556E+00  0.11802159657E+01  0.00000000000E+00 0.  1.
         11    1    3    3    0    0 -0.17123522628E+02 -0.47690786419E+01 -0.35044592240E+02  0.39294816246E+02  0.51100000000E-03 0. -1.
        -11    1    3    3    0    0  0.36677558456E+00 -0.10114943247E+02  0.13750746072E+00  0.10122524872E+02  0.51100000000E-03 0.  1.
        -12    1    3    3    0    0  0.16010028378E+02  0.15215225736E+02  0.34055248543E+02  0.40590442917E+02  0.00000000000E+00 0.  1.
</event>
<event>
 7    1  0.2385752E-015  0.9000762E+02  0.7816164E-02  0.1186339E+00
        -11   -1    0    0    0    0  0.00000000000E+00  0.00000000000E+00  0.45593999997E+02  0.45594000000E+02  0.51100000000E-03 0.  1.
         11   -1    0    0    0    0 -0.00000000000E+00 -0.00000000000E+00 -0.45593999997E+02  0.45594000000E+02  0.51100000000E-03 0. -1.
    9900012    2    1    2    0    0  0.76800177079E+00  0.16297507328E+00 -0.88143006471E+00  0.90007615930E+02  0.89999875660E+02 0.  0.
        -12    1    1    2    0    0 -0.76800177079E+00 -0.16297507328E+00  0.88143006471E+00  0.11803840703E+01  0.00000000000E+00 0.  1.
         11    1    3    3    0    0  0.54638954111E+01  0.51951881777E+01 -0.49871064288E+01  0.90396550851E+01  0.51100000000E-03 0. -1.
        -11    1    3    3    0    0  0.29283238657E+02  0.17326877718E+02  0.17345764901E+02  0.38191678648E+02  0.51100000000E-03 0.  1.
         12    1    3    3    0    0 -0.33979132297E+02 -0.22359090823E+02 -0.13240088537E+02  0.42776282196E+02  0.00000000000E+00 0. -1.
</event>
<event>
 7    1  0.2385752E-015  0.9000773E+02  0.7816164E-02  0.1186339E+00
        -11   -1    0    0    0    0  0.00000000000E+00  0.00000000000E+00  0.45593999997E+02  0.45594000000E+02  0.51100000000E-03 0.  1.
         11   -1    0    0    0    0 -0.00000000000E+00 -0.00000000000E+00 -0.45593999997E+02  0.45594000000E+02  0.51100000000E-03 0. -1.
    9900012    2    1    2    0    0 -0.33759411162E+00 -0.97240307496E+00 -0.57749943716E+00  0.90007727521E+02  0.89999988724E+02 0.  0.
        -12    1    1    2    0    0  0.33759411162E+00  0.97240307496E+00  0.57749943716E+00  0.11802724788E+01  0.00000000000E+00 0.  1.
         11    1    3    3    0    0  0.89245408820E+01 -0.16884548809E+01 -0.41852781895E+02  0.42827020238E+02  0.51100000000E-03 0. -1.
        -11    1    3    3    0    0  0.16171776063E+01 -0.63520366552E+01  0.39218204029E+01  0.76383446252E+01  0.51100000000E-03 0.  1.
        -12    1    3    3    0    0 -0.10879312600E+02  0.70680884612E+01  0.37353462055E+02  0.39542362658E+02  0.00000000000E+00 0.  1.
</event>
<event>
 7    1  0.2385752E-015  0.9000779E+02  0.7816164E-02  0.1186339E+00
        -11   -1    0    0    0    0  0.00000000000E+00  0.00000000000E+00  0.45593999997E+02  0.45594000000E+02  0.51100000000E-03 0. -1.
         11   -1    0    0    0    0 -0.00000000000E+00 -0.00000000000E+00 -0.45593999997E+02  0.45594000000E+02  0.51100000000E-03 0.  1.
    9900012    2    1    2    0    0  0.58306290185E+00 -0.46662666987E+00  0.91389066209E+00  0.90007788604E+02  0.90000050614E+02 0.  0.
        -12    1    1    2    0    0 -0.58306290185E+00  0.46662666987E+00 -0.91389066209E+00  0.11802113958E+01  0.00000000000E+00 0.  1.
         11    1    3    3    0    0 -0.21373083397E+01  0.35859225650E+01  0.78549096777E+01  0.88953096566E+01  0.51100000000E-03 0. -1.
        -11    1    3    3    0    0 -0.24818629023E+01  0.24130216724E+02  0.27260789599E+02  0.36490788597E+02  0.51100000000E-03 0.  1.
         12    1    3    3    0    0  0.52022341439E+01 -0.28182765959E+02 -0.34201808615E+02  0.44621690350E+02  0.00000000000E+00 0. -1.
</event>
<event>
 7    1  0.2385752E-015  0.9000777E+02  0.7816164E-02  0.1186339E+00
        -11   -1    0    0    0    0  0.00000000000E+00  0.00000000000E+00  0.45593999997E+02  0.45594000000E+02  0.51100000000E-03 0. -1.
         11   -1    0    0    0    0 -0.00000000000E+00 -0.00000000000E+00 -0.45593999997E+02  0.45594000000E+02  0.51100000000E-03 0.  1.
    9900012    2    1    2    0    0 -0.33427512160E+00 -0.10819778451E+01  0.33246108096E+00  0.90007768546E+02  0.90000030291E+02 0.  0.
        -12    1    1    2    0    0  0.33427512160E+00  0.10819778451E+01 -0.33246108096E+00  0.11802314538E+01  0.00000000000E+00 0.  1.
         11    1    3    3    0    0 -0.34916037700E+01 -0.99185328916E+01 -0.46415257063E+01  0.11494013779E+02  0.51100000000E-03 0. -1.
        -11    1    3    3    0    0  0.51061191955E+01  0.11586896854E+02 -0.35607852295E+02  0.37792165555E+02  0.51100000000E-03 0.  1.
         12    1    3    3    0    0 -0.19487905471E+01 -0.27503418076E+01  0.40581839083E+02  0.40721589213E+02  0.00000000000E+00 0. -1.
</event>
<event>
 7    1  0.3055247E-015  0.9000786E+02  0.7816164E-02  0.1186339E+00
        -11   -1    0    0    0    0  0.00000000000E+00  0.00000000000E+00  0.45593999997E+02  0.45594000000E+02  0.51100000000E-03 0. -1.
         11   -1    0    0    0    0 -0.00000000000E+00 -0.00000000000E+00 -0.45593999997E+02  0.45594000000E+02  0.51100000000E-03 0.  1.
    9900012    2    1    2    0    0 -0.96082632606E+00  0.48172149964E+00  0.48733835494E+00  0.90007855304E+02  0.90000118194E+02 0.  0.
        -12    1    1    2    0    0  0.96082632606E+00 -0.48172149964E+00 -0.48733835494E+00  0.11801446963E+01  0.00000000000E+00 0.  1.
         11    1    3    3    0    0 -0.21375092834E+02  0.13285245129E+02  0.31893773254E+02  0.40627639661E+02  0.51100000000E-03 0. -1.
        -11    1    3    3    0    0  0.75832920080E+01  0.48785279699E+01  0.22141980240E+01  0.92848815816E+01  0.51100000000E-03 0.  1.
        -12    1    3    3    0    0  0.12830974500E+02 -0.17682051599E+02 -0.33620632923E+02  0.40095334061E+02  0.00000000000E+00 0.  1.
</event>
<event>
 7    1  0.2385752E-015  0.9000775E+02  0.7816164E-02  0.1186339E+00
        -11   -1    0    0    0    0  0.00000000000E+00  0.00000000000E+00  0.45593999997E+02  0.45594000000E+02  0.51100000000E-03 0.  1.
         11   -1    0    0    0    0 -0.00000000000E+00 -0.00000000000E+00 -0.45593999997E+02  0.45594000000E+02  0.51100000000E-03 0. -1.
    9900012    2    1    2    0    0  0.81554083343E+00  0.85191827334E+00  0.46050743776E-01  0.90007749066E+02  0.90000010554E+02 0.  0.
        -12    1    1    2    0    0 -0.81554083343E+00 -0.85191827334E+00 -0.46050743776E-01  0.11802509337E+01  0.00000000000E+00 0.  1.
         11    1    3    3    0    0 -0.42630463517E+01 -0.43133581129E+01  0.10664836070E+02  0.12268551303E+02  0.51100000000E-03 0. -1.
        -11    1    3    3    0    0  0.25094252927E+02 -0.23709569463E+02  0.11303770887E+02  0.36326855777E+02  0.51100000000E-03 0.  1.
         12    1    3    3    0    0 -0.20015665742E+02  0.28874845849E+02 -0.21922556214E+02  0.41412341987E+02  0.00000000000E+00 0. -1.
</event>
<event>
 7    1  0.2795378E-015  0.9000773E+02  0.7816164E-02  0.1186339E+00
        -11   -1    0    0    0    0  0.00000000000E+00  0.00000000000E+00  0.45593999997E+02  0.45594000000E+02  0.51100000000E-03 0. -1.
         11   -1    0    0    0    0 -0.00000000000E+00 -0.00000000000E+00 -0.45593999997E+02  0.45594000000E+02  0.51100000000E-03 0.  1.
    9900012    2    1    2    0    0 -0.50295872152E+00  0.10456692753E+00  0.10626129129E+01  0.90007725489E+02  0.89999986666E+02 0.  0.
        -12    1    1    2    0    0  0.50295872152E+00 -0.10456692753E+00 -0.10626129129E+01  0.11802745106E+01  0.00000000000E+00 0.  1.
         11    1    3    3    0    0 -0.82833701925E+01  0.30769326471E+01  0.37275188070E+02  0.38308241700E+02  0.51100000000E-03 0. -1.
        -11    1    3    3    0    0  0.48001785044E+01  0.82862044655E+01  0.35907991085E+01  0.10227254598E+02  0.51100000000E-03 0.  1.
        -12    1    3    3    0    0  0.29802329666E+01 -0.11258570185E+02 -0.39803374266E+02  0.41472229191E+02  0.00000000000E+00 0.  1.
</event>
<event>
 7    1  0.2385752E-015  0.9000777E+02  0.7816164E-02  0.1186339E+00
        -11   -1    0    0    0    0  0.00000000000E+00  0.00000000000E+00  0.45593999997E+02  0.45594000000E+02  0.51100000000E-03 0.  1.
         11   -1    0    0    0    0 -0.00000000000E+00 -0.00000000000E+00 -0.45593999997E+02  0.45594000000E+02  0.51100000000E-03 0. -1.
    9900012    2    1    2    0    0 -0.67210273568E+00 -0.29636693845E+00 -0.92378947289E+00  0.90007770175E+02  0.90000031941E+02 0.  0.
        -12    1    1    2    0    0  0.67210273568E+00  0.29636693845E+00  0.92378947289E+00  0.11802298250E+01  0.00000000000E+00 0.  1.
         11    1    3    3    0    0  0.21899839877E+02  0.97738504688E+01 -0.25367208676E+02  0.34908830057E+02  0.51100000000E-03 0. -1.
        -11    1    3    3    0    0  0.74743057213E+01  0.87558030279E+01 -0.85219840766E+00  0.11543637861E+02  0.51100000000E-03 0.  1.
        -12    1    3    3    0    0 -0.30046248334E+02 -0.18826020435E+02  0.25295617611E+02  0.43555302257E+02  0.00000000000E+00 0.  1.
</event>
<event>
 7    1  0.2385752E-015  0.9000774E+02  0.7816164E-02  0.1186339E+00
        -11   -1    0    0    0    0  0.00000000000E+00  0.00000000000E+00  0.45593999997E+02  0.45594000000E+02  0.51100000000E-03 0.  1.
         11   -1    0    0    0    0 -0.00000000000E+00 -0.00000000000E+00 -0.45593999997E+02  0.45594000000E+02  0.51100000000E-03 0. -1.
    9900012    2    1    2    0    0 -0.12032563319E+00  0.11643701099E+01 -0.15094821861E+00  0.90007736735E+02  0.89999998060E+02 0.  0.
        -12    1    1    2    0    0  0.12032563319E+00 -0.11643701099E+01  0.15094821861E+00  0.11802632654E+01  0.00000000000E+00 0.  1.
         11    1    3    3    0    0  0.34224194762E+01 -0.11876155115E+02 -0.86254399364E+01  0.15071636598E+02  0.51100000000E-03 0. -1.
        -11    1    3    3    0    0  0.14222878279E+02 -0.40779789089E+01  0.35429706329E+02  0.38395107362E+02  0.51100000000E-03 0.  1.
         12    1    3    3    0    0 -0.17765623388E+02  0.17118504134E+02 -0.26955214612E+02  0.36540992774E+02  0.00000000000E+00 0. -1.
</event>
<event>
 7    1  0.2385752E-015  0.9000780E+02  0.7816164E-02  0.1186339E+00
        -11   -1    0    0    0    0  0.00000000000E+00  0.00000000000E+00  0.45593999997E+02  0.45594000000E+02  0.51100000000E-03 0.  1.
         11   -1    0    0    0    0 -0.00000000000E+00 -0.00000000000E+00 -0.45593999997E+02  0.45594000000E+02  0.51100000000E-03 0. -1.
    9900012    2    1    2    0    0  0.79834052021E+00  0.36326793906E+00 -0.78966206727E+00  0.90007797745E+02  0.90000059875E+02 0.  0.
        -12    1    1    2    0    0 -0.79834052021E+00 -0.36326793906E+00  0.78966206727E+00  0.11802022548E+01  0.00000000000E+00 0.  1.
         11    1    3    3    0    0 -0.60433008555E+01  0.37837616731E+02  0.30798931643E-01  0.38317198149E+02  0.51100000000E-03 0. -1.
        -11    1    3    3    0    0 -0.79418073868E+00  0.66449018457E+01 -0.17077728307E+01  0.69066585182E+01  0.51100000000E-03 0.  1.
        -12    1    3    3    0    0  0.76358221144E+01 -0.44119250638E+02  0.88731183182E+00  0.44783941078E+02  0.00000000000E+00 0.  1.
</event>
<event>
 7    1  0.2385752E-015  0.9000779E+02  0.7816164E-02  0.1186339E+00
        -11   -1    0    0    0    0  0.00000000000E+00  0.00000000000E+00  0.45593999997E+02  0.45594000000E+02  0.51100000000E-03 0. -1.
         11   -1    0    0    0    0 -0.00000000000E+00 -0.00000000000E+00 -0.45593999997E+02  0.45594000000E+02  0.51100000000E-03 0.  1.
    9900012    2    1    2    0    0 -0.84496798651E+00  0.74068468188E+00  0.36097957022E+00  0.90007791990E+02  0.90000054044E+02 0.  0.
        -12    1    1    2    0    0  0.84496798651E+00 -0.74068468188E+00 -0.36097957022E+00  0.11802080098E+01  0.00000000000E+00 0.  1.
         11    1    3    3    0    0 -0.21402008417E+02 -0.27789396822E+02  0.66567556501E+01  0.35701665732E+02  0.51100000000E-03 0. -1.
        -11    1    3    3    0    0 -0.10646029272E+02  0.48504219035E+00 -0.62446653482E+01  0.12351884502E+02  0.51100000000E-03 0.  1.
        -12    1    3    3    0    0  0.31203069702E+02  0.28045039314E+02 -0.51110731641E-01  0.41954241755E+02  0.00000000000E+00 0.  1.
</event>
<event>
 7    1  0.2385752E-015  0.9000773E+02  0.7816164E-02  0.1186339E+00
        -11   -1    0    0    0    0  0.00000000000E+00  0.00000000000E+00  0.45593999997E+02  0.45594000000E+02  0.51100000000E-03 0.  1.
         11   -1    0    0    0    0 -0.00000000000E+00 -0.00000000000E+00 -0.45593999997E+02  0.45594000000E+02  0.51100000000E-03 0. -1.
    9900012    2    1    2    0    0  0.47589057341E+00 -0.10382627605E+01  0.29761603753E+00  0.90007730241E+02  0.89999991480E+02 0.  0.
        -12    1    1    2    0    0 -0.47589057341E+00  0.10382627605E+01 -0.29761603753E+00  0.11802697588E+01  0.00000000000E+00 0.  1.
         11    1    3    3    0    0  0.59473031548E+01  0.81681606375E-01 -0.74227556768E+01  0.95118026051E+01  0.51100000000E-03 0. -1.
        -11    1    3    3    0    0  0.48141741143E+01  0.38695849911E+02  0.31962469376E+01  0.39124941757E+02  0.51100000000E-03 0.  1.
         12    1    3    3    0    0 -0.10285586696E+02 -0.39815794278E+02  0.45241247767E+01  0.41370985879E+02  0.00000000000E+00 0. -1.
</event>
<event>
 7    1  0.2385752E-015  0.9000775E+02  0.7816164E-02  0.1186339E+00
        -11   -1    0    0    0    0  0.00000000000E+00  0.00000000000E+00  0.45593999997E+02  0.45594000000E+02  0.51100000000E-03 0.  1.
         11   -1    0    0    0    0 -0.00000000000E+00 -0.00000000000E+00 -0.45593999997E+02  0.45594000000E+02  0.51100000000E-03 0. -1.
    9900012    2    1    2    0    0  0.10290850933E+01 -0.56908172111E+00 -0.10054150560E+00  0.90007754801E+02  0.90000016365E+02 0.  0.
        -12    1    1    2    0    0 -0.10290850933E+01  0.56908172111E+00  0.10054150560E+00  0.11802451987E+01  0.00000000000E+00 0.  1.
         11    1    3    3    0    0 -0.32075315677E+01  0.33732377343E+02 -0.15307753905E+02  0.37181835214E+02  0.51100000000E-03 0. -1.
        -11    1    3    3    0    0  0.11415158566E+02  0.36148752278E+01  0.28857839763E+01  0.12316692633E+02  0.51100000000E-03 0.  1.
        -12    1    3    3    0    0 -0.71785419052E+01 -0.37916334292E+02  0.12321428423E+02  0.40509226954E+02  0.00000000000E+00 0.  1.
</event>
<event>
 7    1  0.2385752E-015  0.9000775E+02  0.7816164E-02  0.1186339E+00
        -11   -1    0    0    0    0  0.00000000000E+00  0.00000000000E+00  0.45593999997E+02  0.45594000000E+02  0.51100000000E-03 0. -1.
         11   -1    0    0    0    0 -0.00000000000E+00 -0.00000000000E+00 -0.45593999997E+02  0.45594000000E+02  0.51100000000E-03 0.  1.
    9900012    2    1    2    0    0 -0.55907943057E+00  0.27078352517E+00  0.10035450067E+01  0.90007747439E+02  0.90000008905E+02 0.  0.
        -12    1    1    2    0    0  0.55907943057E+00 -0.27078352517E+00 -0.10035450067E+01  0.11802525609E+01  0.00000000000E+00 0.  1.
         11    1    3    3    0    0 -0.26445124468E+01 -0.99056761837E+01 -0.25838380318E+02  0.27798161171E+02  0.51100000000E-03 0. -1.
        -11    1    3    3    0    0  0.73501872906E+01  0.28267648667E+02 -0.25142131514E+00  0.29208704649E+02  0.51100000000E-03 0.  1.
         12    1    3    3    0    0 -0.52647542744E+01 -0.18091188958E+02  0.27093346640E+02  0.33000881619E+02  0.00000000000E+00 0. -1.
</event>
<event>
 7    1  0.2385752E-015  0.9000770E+02  0.7816164E-02  0.1186339E+00
        -11   -1    0    0    0    0  0.00000000000E+00  0.00000000000E+00  0.45593999997E+02  0.45594000000E+02  0.51100000000E-03 0.  1.
         11   -1    0    0    0    0 -0.00000000000E+00 -0.00000000000E+00 -0.45593999997E+02  0.45594000000E+02  0.51100000000E-03 0. -1.
    9900012    2    1    2    0    0 -0.30003739047E-02  0.32490432951E+00 -0.11346976773E+01  0.90007698918E+02  0.89999959744E+02 0.  0.
        -12    1    1    2    0    0  0.30003739047E-02 -0.32490432951E+00  0.11346976773E+01  0.11803010821E+01  0.00000000000E+00 0.  1.
         11    1    3    3    0    0 -0.36498203017E+02  0.10248405012E+02 -0.18596638854E+02  0.42225390534E+02  0.51100000000E-03 0. -1.
        -11    1    3    3    0    0 -0.50841010757E+00 -0.63679905814E+01  0.62915759523E+01  0.89662541291E+01  0.51100000000E-03 0.  1.
        -12    1    3    3    0    0  0.37003612751E+02 -0.35555101007E+01  0.11170365224E+02  0.38816054255E+02  0.00000000000E+00 0.  1.
</event>
<event>
 7    1  0.2385752E-015  0.9000884E+02  0.7816164E-02  0.1186337E+00
        -11   -1    0    0    0    0  0.00000000000E+00  0.00000000000E+00  0.45593999997E+02  0.45594000000E+02  0.51100000000E-03 0.  1.
         11   -1    0    0    0    0 -0.00000000000E+00 -0.00000000000E+00 -0.45593999997E+02  0.45594000000E+02  0.51100000000E-03 0. -1.
    9900012    2    1    2    0    0  0.11495784221E+01 -0.89273002838E-02 -0.26233429505E+00  0.90008835242E+02  0.90001111060E+02 0.  0.
        -12    1    1    2    0    0 -0.11495784221E+01  0.89273002838E-02  0.26233429505E+00  0.11791647585E+01  0.00000000000E+00 0.  1.
         11    1    3    3    0    0  0.52871581303E+01 -0.25937795696E+02 -0.25070366981E+02  0.36458834149E+02  0.51100000000E-03 0. -1.
        -11    1    3    3    0    0  0.15379996283E+01 -0.88470267551E+01 -0.20912674736E+01  0.92200176338E+01  0.51100000000E-03 0.  1.
        -12    1    3    3    0    0 -0.56755793364E+01  0.34775895151E+02  0.26899300160E+02  0.44329983459E+02  0.00000000000E+00 0.  1.
</event>
<event>
 7    1  0.2385752E-015  0.9000770E+02  0.7816164E-02  0.1186339E+00
        -11   -1    0    0    0    0  0.00000000000E+00  0.00000000000E+00  0.45593999997E+02  0.45594000000E+02  0.51100000000E-03 0.  1.
         11   -1    0    0    0    0 -0.00000000000E+00 -0.00000000000E+00 -0.45593999997E+02  0.45594000000E+02  0.51100000000E-03 0. -1.
    9900012    2    1    2    0    0 -0.64539367187E-01 -0.28357416748E+00 -0.11439072776E+01  0.90007701945E+02  0.89999962811E+02 0.  0.
        -12    1    1    2    0    0  0.64539367187E-01  0.28357416748E+00  0.11439072776E+01  0.11802980548E+01  0.00000000000E+00 0.  1.
         11    1    3    3    0    0 -0.84541319830E-01 -0.16155386984E+02  0.21516590786E+01  0.16298261039E+02  0.51100000000E-03 0. -1.
        -11    1    3    3    0    0 -0.15843254067E+02  0.23392955377E+02  0.26752050961E+02  0.38909012987E+02  0.51100000000E-03 0.  1.
         12    1    3    3    0    0  0.15863256020E+02 -0.75211425606E+01 -0.30047617317E+02  0.34800427920E+02  0.00000000000E+00 0. -1.
</event>
<event>
 7    1  0.2385752E-015  0.9000773E+02  0.7816164E-02  0.1186339E+00
        -11   -1    0    0    0    0  0.00000000000E+00  0.00000000000E+00  0.45593999997E+02  0.45594000000E+02  0.51100000000E-03 0. -1.
         11   -1    0    0    0    0 -0.00000000000E+00 -0.00000000000E+00 -0.45593999997E+02  0.45594000000E+02  0.51100000000E-03 0.  1.
    9900012    2    1    2    0    0 -0.10520057265E+01 -0.52812788129E+00  0.86020971453E-01  0.90007731084E+02  0.89999992334E+02 0.  0.
        -12    1    1    2    0    0  0.10520057265E+01  0.52812788129E+00 -0.86020971453E-01  0.11802689164E+01  0.00000000000E+00 0.  1.
         11    1    3    3    0    0  0.86456629176E+01  0.29956067173E+02  0.27799089323E+02  0.41772033889E+02  0.51100000000E-03 0. -1.
        -11    1    3    3    0    0  0.60928370567E+01 -0.13047768361E+01 -0.33590733470E+01  0.70787343504E+01  0.51100000000E-03 0.  1.
        -12    1    3    3    0    0 -0.15790505701E+02 -0.29179418219E+02 -0.24353995005E+02  0.41156962844E+02  0.00000000000E+00 0.  1.
</event>
<event>
 7    1  0.2385752E-015  0.9000769E+02  0.7816164E-02  0.1186339E+00
        -11   -1    0    0    0    0  0.00000000000E+00  0.00000000000E+00  0.45593999997E+02  0.45594000000E+02  0.51100000000E-03 0.  1.
         11   -1    0    0    0    0 -0.00000000000E+00 -0.00000000000E+00 -0.45593999997E+02  0.45594000000E+02  0.51100000000E-03 0. -1.
    9900012    2    1    2    0    0  0.46155006315E+00  0.73689250181E+00  0.79818416932E+00  0.90007687758E+02  0.89999948437E+02 0.  0.
        -12    1    1    2    0    0 -0.46155006315E+00 -0.73689250181E+00 -0.79818416932E+00  0.11803122418E+01  0.00000000000E+00 0.  1.
         11    1    3    3    0    0  0.28679946352E+02 -0.36589459283E+01 -0.24802692142E+02  0.38093316288E+02  0.51100000000E-03 0. -1.
        -11    1    3    3    0    0 -0.31761043315E+01  0.56960541839E+01 -0.77877543543E+01  0.10157843774E+02  0.51100000000E-03 0.  1.
        -12    1    3    3    0    0 -0.25042291958E+02 -0.13002157537E+01  0.33388630666E+02  0.41756527696E+02  0.00000000000E+00 0.  1.
</event>
<event>
 7    1  0.2385752E-015  0.9000766E+02  0.7816164E-02  0.1186339E+00
        -11   -1    0    0    0    0  0.00000000000E+00  0.00000000000E+00  0.45593999997E+02  0.45594000000E+02  0.51100000000E-03 0.  1.
         11   -1    0    0    0    0 -0.00000000000E+00 -0.00000000000E+00 -0.45593999997E+02  0.45594000000E+02  0.51100000000E-03 0. -1.
    9900012    2    1    2    0    0  0.12531718120E+00 -0.74462901738E+00 -0.90720466500E+00  0.90007662305E+02  0.89999922648E+02 0.  0.
        -12    1    1    2    0    0 -0.12531718120E+00  0.74462901738E+00  0.90720466500E+00  0.11803376947E+01  0.00000000000E+00 0.  1.
         11    1    3    3    0    0  0.34068104595E+02 -0.12346286893E+02  0.56858947561E+01  0.36679639450E+02  0.51100000000E-03 0. -1.
        -11    1    3    3    0    0  0.66142303614E+01 -0.48395109258E+01  0.26232822910E+01  0.86052611531E+01  0.51100000000E-03 0.  1.
        -12    1    3    3    0    0 -0.40557017775E+02  0.16441168801E+02 -0.92163817121E+01  0.44722761702E+02  0.00000000000E+00 0.  1.
</event>
<event>
 7    1  0.2385752E-015  0.9000792E+02  0.7816164E-02  0.1186339E+00
        -11   -1    0    0    0    0  0.00000000000E+00  0.00000000000E+00  0.45593999997E+02  0.45594000000E+02  0.51100000000E-03 0.  1.
         11   -1    0    0    0    0 -0.00000000000E+00 -0.00000000000E+00 -0.45593999997E+02  0.45594000000E+02  0.51100000000E-03 0. -1.
    9900012    2    1    2    0    0  0.93673180622E+00 -0.70930082318E+00  0.10959335815E+00  0.90007921681E+02  0.90000185447E+02 0.  0.
        -12    1    1    2    0    0 -0.93673180622E+00  0.70930082318E+00 -0.10959335815E+00  0.11800783189E+01  0.00000000000E+00 0.  1.
         11    1    3    3    0    0  0.19485941477E+01 -0.11303398372E+02  0.28029467202E+01  0.11807639243E+02  0.51100000000E-03 0. -1.
        -11    1    3    3    0    0  0.71633926196E+01  0.56482957651E+01  0.36621714647E+02  0.37740792557E+02  0.51100000000E-03 0.  1.
         12    1    3    3    0    0 -0.81752549611E+01  0.49458017836E+01 -0.39315068009E+02  0.40459489882E+02  0.00000000000E+00 0. -1.
</event>
<event>
 7    1  0.2385752E-015  0.9000771E+02  0.7816164E-02  0.1186339E+00
        -11   -1    0    0    0    0  0.00000000000E+00  0.00000000000E+00  0.45593999997E+02  0.45594000000E+02  0.51100000000E-03 0.  1.
         11   -1    0    0    0    0 -0.00000000000E+00 -0.00000000000E+00 -0.45593999997E+02  0.45594000000E+02  0.51100000000E-03 0. -1.
    9900012    2    1    2    0    0  0.19930073874E-01  0.31224661103E+00 -0.11380616472E+01  0.90007712125E+02  0.89999973126E+02 0.  0.
        -12    1    1    2    0    0 -0.19930073874E-01 -0.31224661103E+00  0.11380616472E+01  0.11802878745E+01  0.00000000000E+00 0.  1.
         11    1    3    3    0    0 -0.63545167491E+01  0.74140750770E+01  0.20121669458E+01  0.99698148649E+01  0.51100000000E-03 0. -1.
        -11    1    3    3    0    0 -0.15866213724E+02  0.24761638782E+02  0.19285452719E+02  0.35168226852E+02  0.51100000000E-03 0.  1.
         12    1    3    3    0    0  0.22240660547E+02 -0.31863467248E+02 -0.22435681312E+02  0.44869670408E+02  0.00000000000E+00 0. -1.
</event>
<event>
 7    1  0.2385752E-015  0.9000776E+02  0.7816164E-02  0.1186339E+00
        -11   -1    0    0    0    0  0.00000000000E+00  0.00000000000E+00  0.45593999997E+02  0.45594000000E+02  0.51100000000E-03 0.  1.
         11   -1    0    0    0    0 -0.00000000000E+00 -0.00000000000E+00 -0.45593999997E+02  0.45594000000E+02  0.51100000000E-03 0. -1.
    9900012    2    1    2    0    0 -0.50045825375E+00  0.66774152933E+00 -0.83464235597E+00  0.90007760585E+02  0.90000022225E+02 0.  0.
        -12    1    1    2    0    0  0.50045825375E+00 -0.66774152933E+00  0.83464235597E+00  0.11802394147E+01  0.00000000000E+00 0.  1.
         11    1    3    3    0    0  0.43009808675E+01  0.92305362699E+01 -0.98631754416E+00  0.10231034103E+02  0.51100000000E-03 0. -1.
        -11    1    3    3    0    0  0.17288680539E+02  0.29874418205E+02  0.60851978459E+01  0.35048665751E+02  0.51100000000E-03 0.  1.
         12    1    3    3    0    0 -0.22090119661E+02 -0.38437212945E+02 -0.59335226578E+01  0.44728060731E+02  0.00000000000E+00 0. -1.
</event>
<event>
 7    1  0.2385752E-015  0.9000788E+02  0.7816164E-02  0.1186339E+00
        -11   -1    0    0    0    0  0.00000000000E+00  0.00000000000E+00  0.45593999997E+02  0.45594000000E+02  0.51100000000E-03 0.  1.
         11   -1    0    0    0    0 -0.00000000000E+00 -0.00000000000E+00 -0.45593999997E+02  0.45594000000E+02  0.51100000000E-03 0. -1.
    9900012    2    1    2    0    0 -0.33472464591E+00 -0.99478950028E+00 -0.53947852814E+00  0.90007879743E+02  0.90000142956E+02 0.  0.
        -12    1    1    2    0    0  0.33472464591E+00  0.99478950028E+00  0.53947852814E+00  0.11801202569E+01  0.00000000000E+00 0.  1.
         11    1    3    3    0    0 -0.81035450063E+01 -0.20213955424E+02  0.23584156036E+02  0.32101150319E+02  0.51100000000E-03 0. -1.
        -11    1    3    3    0    0  0.81465009250E+00 -0.15513571029E+02 -0.92168903759E+00  0.15562263710E+02  0.51100000000E-03 0.  1.
         12    1    3    3    0    0  0.69541702679E+01  0.34732736953E+02 -0.23201945527E+02  0.42344465714E+02  0.00000000000E+00 0. -1.
</event>
<event>
 7    1  0.2385752E-015  0.9000779E+02  0.7816164E-02  0.1186339E+00
        -11   -1    0    0    0    0  0.00000000000E+00  0.00000000000E+00  0.45593999997E+02  0.45594000000E+02  0.51100000000E-03 0. -1.
         11   -1    0    0    0    0 -0.00000000000E+00 -0.00000000000E+00 -0.45593999997E+02  0.45594000000E+02  0.51100000000E-03 0.  1.
    9900012    2    1    2    0    0 -0.57470101472E+00  0.10283749940E+01 -0.71176481001E-01  0.90007787106E+02  0.90000049095E+02 0.  0.
        -12    1    1    2    0    0  0.57470101472E+00 -0.10283749940E+01  0.71176481001E-01  0.11802128944E+01  0.00000000000E+00 0.  1.
         11    1    3    3    0    0 -0.14652451798E+02  0.35778944230E+02  0.18747502080E+02  0.42968546966E+02  0.51100000000E-03 0. -1.
        -11    1    3    3    0    0  0.82626972852E+01 -0.34561067088E+01  0.17715800439E+01  0.91299143546E+01  0.51100000000E-03 0.  1.
        -12    1    3    3    0    0  0.58150534978E+01 -0.31294462527E+02 -0.20590258604E+02  0.37909325785E+02  0.00000000000E+00 0.  1.
</event>
<event>
 7    1  0.2385752E-015  0.9000771E+02  0.7816164E-02  0.1186339E+00
        -11   -1    0    0    0    0  0.00000000000E+00  0.00000000000E+00  0.45593999997E+02  0.45594000000E+02  0.51100000000E-03 0. -1.
         11   -1    0    0    0    0 -0.00000000000E+00 -0.00000000000E+00 -0.45593999997E+02  0.45594000000E+02  0.51100000000E-03 0.  1.
    9900012    2    1    2    0    0 -0.88310263256E+00 -0.36397577751E+00 -0.69335127284E+00  0.90007709945E+02  0.89999970916E+02 0.  0.
        -12    1    1    2    0    0  0.88310263256E+00  0.36397577751E+00  0.69335127284E+00  0.11802900549E+01  0.00000000000E+00 0.  1.
         11    1    3    3    0    0  0.24684212953E+02  0.84176400646E+01  0.26802955405E+02  0.37397399001E+02  0.51100000000E-03 0. -1.
        -11    1    3    3    0    0 -0.24162239091E+01 -0.80777084227E+01  0.70687440516E+01  0.11002483995E+02  0.51100000000E-03 0.  1.
        -12    1    3    3    0    0 -0.23151091676E+02 -0.70390741943E+00 -0.34565050729E+02  0.41607826949E+02  0.00000000000E+00 0.  1.
</event>
<event>
 7    1  0.2385752E-015  0.9000775E+02  0.7816164E-02  0.1186339E+00
        -11   -1    0    0    0    0  0.00000000000E+00  0.00000000000E+00  0.45593999997E+02  0.45594000000E+02  0.51100000000E-03 0.  1.
         11   -1    0    0    0    0 -0.00000000000E+00 -0.00000000000E+00 -0.45593999997E+02  0.45594000000E+02  0.51100000000E-03 0. -1.
    9900012    2    1    2    0    0  0.25008780425E+00 -0.71108348838E+00 -0.90819147531E+00  0.90007747742E+02  0.90000009212E+02 0.  0.
        -12    1    1    2    0    0 -0.25008780425E+00  0.71108348838E+00  0.90819147531E+00  0.11802522583E+01  0.00000000000E+00 0.  1.
         11    1    3    3    0    0 -0.50685594918E+01  0.40902712659E+01 -0.68363123795E+01  0.94422339286E+01  0.51100000000E-03 0. -1.
        -11    1    3    3    0    0 -0.50860630393E+01 -0.32746340849E+02 -0.21946105063E+02  0.39746979809E+02  0.51100000000E-03 0.  1.
         12    1    3    3    0    0  0.10404710335E+02  0.27944986094E+02  0.27874225967E+02  0.40818534004E+02  0.00000000000E+00 0. -1.
</event>
<event>
 7    1  0.3256540E-015  0.9000775E+02  0.7816164E-02  0.1186339E+00
        -11   -1    0    0    0    0  0.00000000000E+00  0.00000000000E+00  0.45593999997E+02  0.45594000000E+02  0.51100000000E-03 0.  1.
         11   -1    0    0    0    0 -0.00000000000E+00 -0.00000000000E+00 -0.45593999997E+02  0.45594000000E+02  0.51100000000E-03 0. -1.
    9900012    2    1    2    0    0  0.93533274535E+00  0.65909845703E+00  0.28937671615E+00  0.90007747059E+02  0.90000008520E+02 0.  0.
        -12    1    1    2    0    0 -0.93533274535E+00 -0.65909845703E+00 -0.28937671615E+00  0.11802529409E+01  0.00000000000E+00 0.  1.
         11    1    3    3    0    0 -0.27866832003E+02 -0.28118162706E+02  0.84540748893E+01  0.40480399978E+02  0.51100000000E-03 0. -1.
        -11    1    3    3    0    0  0.19088814891E+00  0.53152450243E+01  0.76262084218E+01  0.92977052603E+01  0.51100000000E-03 0.  1.
        -12    1    3    3    0    0  0.28611276599E+02  0.23462016139E+02 -0.15790906595E+02  0.40229641821E+02  0.00000000000E+00 0.  1.
</event>
<event>
 7    1  0.2385752E-015  0.9000770E+02  0.7816164E-02  0.1186339E+00
        -11   -1    0    0    0    0  0.00000000000E+00  0.00000000000E+00  0.45593999997E+02  0.45594000000E+02  0.51100000000E-03 0. -1.
         11   -1    0    0    0    0 -0.00000000000E+00 -0.00000000000E+00 -0.45593999997E+02  0.45594000000E+02  0.51100000000E-03 0.  1.
    9900012    2    1    2    0    0  0.10751848203E+01 -0.36488607150E+00 -0.32242090620E+00  0.90007695173E+02  0.89999955950E+02 0.  0.
        -12    1    1    2    0    0 -0.10751848203E+01  0.36488607150E+00  0.32242090620E+00  0.11803048266E+01  0.00000000000E+00 0.  1.
         11    1    3    3    0    0 -0.17335377673E+02  0.30141757399E+02 -0.18497369873E+02  0.39385194561E+02  0.51100000000E-03 0. -1.
        -11    1    3    3    0    0  0.86619850403E+01  0.21271345530E+01 -0.42131747797E+01  0.98643564529E+01  0.51100000000E-03 0.  1.
        -12    1    3    3    0    0  0.97485774526E+01 -0.32633778023E+02  0.22388123746E+02  0.40758144159E+02  0.00000000000E+00 0.  1.
</event>
<event>
 7    1  0.2385752E-015  0.9000774E+02  0.7816164E-02  0.1186339E+00
        -11   -1    0    0    0    0  0.00000000000E+00  0.00000000000E+00  0.45593999997E+02  0.45594000000E+02  0.51100000000E-03 0. -1.
         11   -1    0    0    0    0 -0.00000000000E+00 -0.00000000000E+00 -0.45593999997E+02  0.45594000000E+02  0.51100000000E-03 0.  1.
    9900012    2    1    2    0    0  0.36485913785E+00  0.84488245334E+00 -0.73895753348E+00  0.90007742915E+02  0.90000004321E+02 0.  0.
        -12    1    1    2    0    0 -0.36485913785E+00 -0.84488245334E+00  0.73895753348E+00  0.11802570850E+01  0.00000000000E+00 0.  1.
         11    1    3    3    0    0  0.11415329581E+02 -0.18331871963E+01 -0.93977540668E+00  0.11599719946E+02  0.51100000000E-03 0. -1.
        -11    1    3    3    0    0 -0.18786147254E+02 -0.34761711712E+02 -0.49883492544E+01  0.39826869803E+02  0.51100000000E-03 0.  1.
         12    1    3    3    0    0  0.77356768108E+01  0.37439781361E+02  0.51891671276E+01  0.38581153166E+02  0.00000000000E+00 0. -1.
</event>
<event>
 7    1  0.2385752E-015  0.9000769E+02  0.7816164E-02  0.1186339E+00
        -11   -1    0    0    0    0  0.00000000000E+00  0.00000000000E+00  0.45593999997E+02  0.45594000000E+02  0.51100000000E-03 0.  1.
         11   -1    0    0    0    0 -0.00000000000E+00 -0.00000000000E+00 -0.45593999997E+02  0.45594000000E+02  0.51100000000E-03 0. -1.
    9900012    2    1    2    0    0 -0.12938166443E+00  0.43094956389E+00 -0.10911813392E+01  0.90007689085E+02  0.89999949781E+02 0.  0.
        -12    1    1    2    0    0  0.12938166443E+00 -0.43094956389E+00  0.10911813392E+01  0.11803109153E+01  0.00000000000E+00 0.  1.
         11    1    3    3    0    0  0.23695179190E+01  0.58930719259E+01 -0.79192910494E+01  0.10151752700E+02  0.51100000000E-03 0. -1.
        -11    1    3    3    0    0 -0.31001255521E+02 -0.21937778030E+02 -0.14474784727E+02  0.40643121705E+02  0.51100000000E-03 0.  1.
         12    1    3    3    0    0  0.28502355938E+02  0.16475655668E+02  0.21302894437E+02  0.39212814680E+02  0.00000000000E+00 0. -1.
</event>
<event>
 7    1  0.2385752E-015  0.9000769E+02  0.7816164E-02  0.1186339E+00
        -11   -1    0    0    0    0  0.00000000000E+00  0.00000000000E+00  0.45593999997E+02  0.45594000000E+02  0.51100000000E-03 0. -1.
         11   -1    0    0    0    0 -0.00000000000E+00 -0.00000000000E+00 -0.45593999997E+02  0.45594000000E+02  0.51100000000E-03 0.  1.
    9900012    2    1    2    0    0 -0.73940268198E+00 -0.51047182142E+00  0.76539488126E+00  0.90007691934E+02  0.89999952667E+02 0.  0.
        -12    1    1    2    0    0  0.73940268198E+00  0.51047182142E+00 -0.76539488126E+00  0.11803080661E+01  0.00000000000E+00 0.  1.
         11    1    3    3    0    0 -0.16980015884E+02  0.98231566384E+01  0.30816743268E+02  0.36530631143E+02  0.51100000000E-03 0. -1.
        -11    1    3    3    0    0 -0.42248983153E+01  0.23356811730E+01  0.74729008196E+01  0.88965959354E+01  0.51100000000E-03 0.  1.
        -12    1    3    3    0    0  0.20465511518E+02 -0.12669309633E+02 -0.37524249206E+02  0.44580464856E+02  0.00000000000E+00 0.  1.
</event>
<event>
 7    1  0.2385752E-015  0.9000789E+02  0.7816164E-02  0.1186339E+00
        -11   -1    0    0    0    0  0.00000000000E+00  0.00000000000E+00  0.45593999997E+02  0.45594000000E+02  0.51100000000E-03 0.  1.
         11   -1    0    0    0    0 -0.00000000000E+00 -0.00000000000E+00 -0.45593999997E+02  0.45594000000E+02  0.51100000000E-03 0. -1.
    9900012    2    1    2    0    0 -0.96041771031E+00  0.55762620780E+00 -0.39912753456E+00  0.90007893244E+02  0.90000156635E+02 0.  0.
        -12    1    1    2    0    0  0.96041771031E+00 -0.55762620780E+00  0.39912753456E+00  0.11801067557E+01  0.00000000000E+00 0.  1.
         11    1    3    3    0    0 -0.10497727456E+02  0.33091127751E+02 -0.10095484309E+02  0.36154444004E+02  0.51100000000E-03 0. -1.
        -11    1    3    3    0    0 -0.99919945088E+00  0.26751465983E+01 -0.11212549078E+02  0.11570482529E+02  0.51100000000E-03 0.  1.
        -12    1    3    3    0    0  0.10536509196E+02 -0.35208648141E+02  0.20908905852E+02  0.42282966711E+02  0.00000000000E+00 0.  1.
</event>
<event>
 7    1  0.2385752E-015  0.9000774E+02  0.7816164E-02  0.1186339E+00
        -11   -1    0    0    0    0  0.00000000000E+00  0.00000000000E+00  0.45593999997E+02  0.45594000000E+02  0.51100000000E-03 0.  1.
         11   -1    0    0    0    0 -0.00000000000E+00 -0.00000000000E+00 -0.45593999997E+02  0.45594000000E+02  0.51100000000E-03 0. -1.
    9900012    2    1    2    0    0 -0.25014476899E+00 -0.11524809722E+01  0.47312387221E-01  0.90007735937E+02  0.89999997251E+02 0.  0.
        -12    1    1    2    0    0  0.25014476899E+00  0.11524809722E+01 -0.47312387221E-01  0.11802640632E+01  0.00000000000E+00 0.  1.
         11    1    3    3    0    0  0.43458284229E+01 -0.16624673029E+00 -0.57188501626E+01  0.71846440482E+01  0.51100000000E-03 0. -1.
        -11    1    3    3    0    0  0.28884861812E+02 -0.27061279817E+02  0.77814559709E+01  0.40338556798E+02  0.51100000000E-03 0.  1.
         12    1    3    3    0    0 -0.33480835004E+02  0.26075045575E+02 -0.20152934212E+01  0.42484535091E+02  0.00000000000E+00 0. -1.
</event>
<event>
 7    1  0.2385752E-015  0.9000779E+02  0.7816164E-02  0.1186339E+00
        -11   -1    0    0    0    0  0.00000000000E+00  0.00000000000E+00  0.45593999997E+02  0.45594000000E+02  0.51100000000E-03 0.  1.
         11   -1    0    0    0    0 -0.00000000000E+00 -0.00000000000E+00 -0.45593999997E+02  0.45594000000E+02  0.51100000000E-03 0. -1.
    9900012    2    1    2    0    0 -0.10076484306E+01  0.44018960223E-01  0.61287097088E+00  0.90007786521E+02  0.90000048503E+02 0.  0.
        -12    1    1    2    0    0  0.10076484306E+01 -0.44018960223E-01 -0.61287097088E+00  0.11802134788E+01  0.00000000000E+00 0.  1.
         11    1    3    3    0    0 -0.54938798995E+01  0.10846255460E+02 -0.14935461134E+02  0.19258555849E+02  0.51100000000E-03 0. -1.
        -11    1    3    3    0    0 -0.11153273052E+02  0.21818521923E+02  0.23231752909E+02  0.33766221911E+02  0.51100000000E-03 0.  1.
         12    1    3    3    0    0  0.15639504521E+02 -0.32620758423E+02 -0.76834208040E+01  0.36983008761E+02  0.00000000000E+00 0. -1.
</event>
<event>
 7    1  0.2385752E-015  0.9000775E+02  0.7816164E-02  0.1186339E+00
        -11   -1    0    0    0    0  0.00000000000E+00  0.00000000000E+00  0.45593999997E+02  0.45594000000E+02  0.51100000000E-03 0.  1.
         11   -1    0    0    0    0 -0.00000000000E+00 -0.00000000000E+00 -0.45593999997E+02  0.45594000000E+02  0.51100000000E-03 0. -1.
    9900012    2    1    2    0    0  0.72600811691E+00  0.49427698028E+00 -0.78841101880E+00  0.90007750258E+02  0.90000011761E+02 0.  0.
        -12    1    1    2    0    0 -0.72600811691E+00 -0.49427698028E+00  0.78841101880E+00  0.11802497421E+01  0.00000000000E+00 0.  1.
         11    1    3    3    0    0  0.25832482831E+01 -0.15417320853E+02  0.20259924698E+02  0.25589675711E+02  0.51100000000E-03 0. -1.
        -11    1    3    3    0    0 -0.59510144429E+01 -0.18306139348E+02 -0.22889099771E+02  0.29907193104E+02  0.51100000000E-03 0.  1.
         12    1    3    3    0    0  0.40937742767E+01  0.34217737182E+02  0.18407640550E+01  0.34510881443E+02  0.00000000000E+00 0. -1.
</event>
<event>
 7    1  0.2385752E-015  0.9000775E+02  0.7816164E-02  0.1186339E+00
        -11   -1    0    0    0    0  0.00000000000E+00  0.00000000000E+00  0.45593999997E+02  0.45594000000E+02  0.51100000000E-03 0.  1.
         11   -1    0    0    0    0 -0.00000000000E+00 -0.00000000000E+00 -0.45593999997E+02  0.45594000000E+02  0.51100000000E-03 0. -1.
    9900012    2    1    2    0    0 -0.16232984194E+00 -0.11258700028E+01 -0.31474500024E+00  0.90007746359E+02  0.90000007811E+02 0.  0.
        -12    1    1    2    0    0  0.16232984194E+00  0.11258700028E+01  0.31474500024E+00  0.11802536405E+01  0.00000000000E+00 0.  1.
         11    1    3    3    0    0 -0.47013363088E+01 -0.74041526201E+01  0.35169870554E+01  0.94495098983E+01  0.51100000000E-03 0. -1.
        -11    1    3    3    0    0 -0.88668123049E+01 -0.30449696937E+02  0.17288266876E+02  0.36120473084E+02  0.51100000000E-03 0.  1.
         12    1    3    3    0    0  0.13405818772E+02  0.36727979554E+02 -0.21119998932E+02  0.44437763377E+02  0.00000000000E+00 0. -1.
</event>
<event>
 7    1  0.2385752E-015  0.9000773E+02  0.7816164E-02  0.1186339E+00
        -11   -1    0    0    0    0  0.00000000000E+00  0.00000000000E+00  0.45593999997E+02  0.45594000000E+02  0.51100000000E-03 0. -1.
         11   -1    0    0    0    0 -0.00000000000E+00 -0.00000000000E+00 -0.45593999997E+02  0.45594000000E+02  0.51100000000E-03 0.  1.
    9900012    2    1    2    0    0 -0.72061655559E-01  0.34185497751E+00  0.11273738595E+01  0.90007733281E+02  0.89999994561E+02 0.  0.
        -12    1    1    2    0    0  0.72061655559E-01 -0.34185497751E+00 -0.11273738595E+01  0.11802667185E+01  0.00000000000E+00 0.  1.
         11    1    3    3    0    0 -0.19050715800E+01  0.76361897003E+01  0.56334649113E+01  0.96786681952E+01  0.51100000000E-03 0. -1.
        -11    1    3    3    0    0 -0.33226710998E+02  0.71611547950E+00 -0.22481141464E+02  0.40123918887E+02  0.51100000000E-03 0.  1.
         12    1    3    3    0    0  0.35059720922E+02 -0.80104502023E+01  0.17975050412E+02  0.40205146199E+02  0.00000000000E+00 0. -1.
</event>
<event>
 7    1  0.2385752E-015  0.9000763E+02  0.7816164E-02  0.1186339E+00
        -11   -1    0    0    0    0  0.00000000000E+00  0.00000000000E+00  0.45593999997E+02  0.45594000000E+02  0.51100000000E-03 0. -1.
         11   -1    0    0    0    0 -0.00000000000E+00 -0.00000000000E+00 -0.45593999997E+02  0.45594000000E+02  0.51100000000E-03 0.  1.
    9900012    2    1    2    0    0 -0.48974903698E+00  0.46566014264E-01  0.10729625360E+01  0.90007630940E+02  0.89999890869E+02 0.  0.
        -12    1    1    2    0    0  0.48974903698E+00 -0.46566014264E-01 -0.10729625360E+01  0.11803690595E+01  0.00000000000E+00 0.  1.
         11    1    3    3    0    0 -0.58410676369E+00 -0.63926025902E+01 -0.66094423045E+01  0.92136462069E+01  0.51100000000E-03 0. -1.
        -11    1    3    3    0    0  0.70294785032E+01  0.95901612297E+01 -0.35244621008E+02  0.37196344856E+02  0.51100000000E-03 0.  1.
         12    1    3    3    0    0 -0.69351207765E+01 -0.31509926252E+01  0.42927025848E+02  0.43597639877E+02  0.00000000000E+00 0. -1.
</event>
<event>
 7    1  0.2385752E-015  0.9000735E+02  0.7816164E-02  0.1186340E+00
        -11   -1    0    0    0    0  0.00000000000E+00  0.00000000000E+00  0.45593999997E+02  0.45594000000E+02  0.51100000000E-03 0.  1.
         11   -1    0    0    0    0 -0.00000000000E+00 -0.00000000000E+00 -0.45593999997E+02  0.45594000000E+02  0.51100000000E-03 0. -1.
    9900012    2    1    2    0    0 -0.53012652405E+00 -0.44357341716E+00 -0.95714916930E+00  0.90007353550E+02  0.89999609816E+02 0.  0.
        -12    1    1    2    0    0  0.53012652405E+00  0.44357341716E+00  0.95714916930E+00  0.11806464501E+01  0.00000000000E+00 0.  1.
         11    1    3    3    0    0 -0.30117221745E+02  0.38965544652E+01 -0.10238395798E+01  0.30385497035E+02  0.51100000000E-03 0. -1.
        -11    1    3    3    0    0 -0.11658606046E+02  0.38199192317E+01 -0.10634799543E+02  0.16236189191E+02  0.51100000000E-03 0.  1.
        -12    1    3    3    0    0  0.41245701267E+02 -0.81600471140E+01  0.10701489954E+02  0.43385667324E+02  0.00000000000E+00 0.  1.
</event>
<event>
 7    1  0.2385752E-015  0.9000820E+02  0.7816164E-02  0.1186338E+00
        -11   -1    0    0    0    0  0.00000000000E+00  0.00000000000E+00  0.45593999997E+02  0.45594000000E+02  0.51100000000E-03 0. -1.
         11   -1    0    0    0    0 -0.00000000000E+00 -0.00000000000E+00 -0.45593999997E+02  0.45594000000E+02  0.51100000000E-03 0.  1.
    9900012    2    1    2    0    0  0.52106928288E+00  0.10427734730E+01  0.18174873671E+00  0.90008202426E+02  0.90000469896E+02 0.  0.
        -12    1    1    2    0    0 -0.52106928288E+00 -0.10427734730E+01 -0.18174873671E+00  0.11797975745E+01  0.00000000000E+00 0.  1.
         11    1    3    3    0    0  0.26211866058E+02  0.27221291756E+02 -0.49393856641E+01  0.38111129321E+02  0.51100000000E-03 0. -1.
        -11    1    3    3    0    0 -0.18280114210E+00  0.80926996294E+01  0.43025420346E+01  0.91671735977E+01  0.51100000000E-03 0.  1.
        -12    1    3    3    0    0 -0.25507995633E+02 -0.34271217912E+02  0.81859236617E+00  0.42729899507E+02  0.00000000000E+00 0.  1.
</event>
<event>
 7    1  0.2385752E-015  0.9000773E+02  0.7816164E-02  0.1186339E+00
        -11   -1    0    0    0    0  0.00000000000E+00  0.00000000000E+00  0.45593999997E+02  0.45594000000E+02  0.51100000000E-03 0.  1.
         11   -1    0    0    0    0 -0.00000000000E+00 -0.00000000000E+00 -0.45593999997E+02  0.45594000000E+02  0.51100000000E-03 0. -1.
    9900012    2    1    2    0    0  0.10094648481E+01 -0.54410227198E+00 -0.27921911684E+00  0.90007733133E+02  0.89999994410E+02 0.  0.
        -12    1    1    2    0    0 -0.10094648481E+01  0.54410227198E+00  0.27921911684E+00  0.11802668669E+01  0.00000000000E+00 0.  1.
         11    1    3    3    0    0 -0.10818000690E+01 -0.58313686839E+01  0.83651115391E-01  0.59314542809E+01  0.51100000000E-03 0. -1.
        -11    1    3    3    0    0 -0.23700046408E+02 -0.11174867433E+02  0.30776743767E+02  0.40420017553E+02  0.51100000000E-03 0.  1.
         12    1    3    3    0    0  0.25791311325E+02  0.16462133844E+02 -0.31139613999E+02  0.43656261299E+02  0.00000000000E+00 0. -1.
</event>
<event>
 7    1  0.2385752E-015  0.9000772E+02  0.7816164E-02  0.1186339E+00
        -11   -1    0    0    0    0  0.00000000000E+00  0.00000000000E+00  0.45593999997E+02  0.45594000000E+02  0.51100000000E-03 0.  1.
         11   -1    0    0    0    0 -0.00000000000E+00 -0.00000000000E+00 -0.45593999997E+02  0.45594000000E+02  0.51100000000E-03 0. -1.
    9900012    2    1    2    0    0 -0.83666180739E+00  0.39568620452E+00 -0.73245649439E+00  0.90007719072E+02  0.89999980164E+02 0.  0.
        -12    1    1    2    0    0  0.83666180739E+00 -0.39568620452E+00  0.73245649439E+00  0.11802809278E+01  0.00000000000E+00 0.  1.
         11    1    3    3    0    0  0.99132519793E+01 -0.10575587178E+01 -0.20075334958E+01  0.10169620752E+02  0.51100000000E-03 0. -1.
        -11    1    3    3    0    0 -0.31560107101E+02 -0.15666531555E+02 -0.24208391049E+02  0.42749582088E+02  0.51100000000E-03 0.  1.
         12    1    3    3    0    0  0.20810193315E+02  0.17119776477E+02  0.25483468051E+02  0.37088516232E+02  0.00000000000E+00 0. -1.
</event>
<event>
 7    1  0.2385752E-015  0.9000771E+02  0.7816164E-02  0.1186339E+00
        -11   -1    0    0    0    0  0.00000000000E+00  0.00000000000E+00  0.45593999997E+02  0.45594000000E+02  0.51100000000E-03 0.  1.
         11   -1    0    0    0    0 -0.00000000000E+00 -0.00000000000E+00 -0.45593999997E+02  0.45594000000E+02  0.51100000000E-03 0. -1.
    9900012    2    1    2    0    0  0.35775784741E+00  0.57669539028E+00 -0.96566827333E+00  0.90007710432E+02  0.89999971410E+02 0.  0.
        -12    1    1    2    0    0 -0.35775784741E+00 -0.57669539028E+00  0.96566827333E+00  0.11802895682E+01  0.00000000000E+00 0.  1.
         11    1    3    3    0    0  0.83426161078E+01  0.74265370741E+01  0.71142964581E+01  0.13242579461E+02  0.51100000000E-03 0. -1.
        -11    1    3    3    0    0  0.84210073378E+01 -0.16009185237E+02  0.29583185976E+02  0.34675240004E+02  0.51100000000E-03 0.  1.
         12    1    3    3    0    0 -0.16405865598E+02  0.91593435534E+01 -0.37663150708E+02  0.42089890967E+02  0.00000000000E+00 0. -1.
</event>
<event>
 7    1  0.2962108E-015  0.9000781E+02  0.7816164E-02  0.1186339E+00
        -11   -1    0    0    0    0  0.00000000000E+00  0.00000000000E+00  0.45593999997E+02  0.45594000000E+02  0.51100000000E-03 0. -1.
         11   -1    0    0    0    0 -0.00000000000E+00 -0.00000000000E+00 -0.45593999997E+02  0.45594000000E+02  0.51100000000E-03 0.  1.
    9900012    2    1    2    0    0  0.80463555929E+00 -0.66210065049E+00  0.55410720141E+00  0.90007809149E+02  0.90000071430E+02 0.  0.
        -12    1    1    2    0    0 -0.80463555929E+00  0.66210065049E+00 -0.55410720141E+00  0.11801908512E+01  0.00000000000E+00 0.  1.
         11    1    3    3    0    0  0.81094740807E+01 -0.22273959523E+02  0.33234869588E+02  0.40822167991E+02  0.51100000000E-03 0. -1.
        -11    1    3    3    0    0  0.47573958652E+00 -0.69981442765E+01 -0.76982295262E+01  0.10414561420E+02  0.51100000000E-03 0.  1.
        -12    1    3    3    0    0 -0.77805781079E+01  0.28610003149E+02 -0.24982532861E+02  0.38771079738E+02  0.00000000000E+00 0.  1.
</event>
<event>
 7    1  0.2385752E-015  0.9000784E+02  0.7816164E-02  0.1186339E+00
        -11   -1    0    0    0    0  0.00000000000E+00  0.00000000000E+00  0.45593999997E+02  0.45594000000E+02  0.51100000000E-03 0. -1.
         11   -1    0    0    0    0 -0.00000000000E+00 -0.00000000000E+00 -0.45593999997E+02  0.45594000000E+02  0.51100000000E-03 0.  1.
    9900012    2    1    2    0    0  0.14658361702E+00  0.31715377895E-01  0.11705960177E+01  0.90007835749E+02  0.90000098381E+02 0.  0.
        -12    1    1    2    0    0 -0.14658361702E+00 -0.31715377895E-01 -0.11705960177E+01  0.11801642507E+01  0.00000000000E+00 0.  1.
         11    1    3    3    0    0 -0.60838319518E+01  0.36225079886E+01  0.12370936783E+02  0.14253969710E+02  0.51100000000E-03 0. -1.
        -11    1    3    3    0    0 -0.27807133905E+02 -0.54183702885E+01 -0.26130534805E+02  0.38540891039E+02  0.51100000000E-03 0.  1.
         12    1    3    3    0    0  0.34037549473E+02  0.18275776778E+01  0.14930194040E+02  0.37212975001E+02  0.00000000000E+00 0. -1.
</event>
<event>
 7    1  0.2385752E-015  0.9000773E+02  0.7816164E-02  0.1186339E+00
        -11   -1    0    0    0    0  0.00000000000E+00  0.00000000000E+00  0.45593999997E+02  0.45594000000E+02  0.51100000000E-03 0.  1.
         11   -1    0    0    0    0 -0.00000000000E+00 -0.00000000000E+00 -0.45593999997E+02  0.45594000000E+02  0.51100000000E-03 0. -1.
    9900012    2    1    2    0    0  0.99036479996E-01 -0.98000111774E+00 -0.65025931917E+00  0.90007725626E+02  0.89999986805E+02 0.  0.
        -12    1    1    2    0    0 -0.99036479996E-01  0.98000111774E+00  0.65025931917E+00  0.11802743737E+01  0.00000000000E+00 0.  1.
         11    1    3    3    0    0  0.13581701678E+01 -0.85037098822E+01 -0.34166674472E+02  0.35235200478E+02  0.51100000000E-03 0. -1.
        -11    1    3    3    0    0  0.20293518902E+01  0.71203728548E+00 -0.10190990455E+02  0.10415447802E+02  0.51100000000E-03 0.  1.
        -12    1    3    3    0    0 -0.32884855780E+01  0.68116714790E+01  0.43707405608E+02  0.44357077347E+02  0.00000000000E+00 0.  1.
</event>
<event>
 7    1  0.2385752E-015  0.9000769E+02  0.7816164E-02  0.1186339E+00
        -11   -1    0    0    0    0  0.00000000000E+00  0.00000000000E+00  0.45593999997E+02  0.45594000000E+02  0.51100000000E-03 0.  1.
         11   -1    0    0    0    0 -0.00000000000E+00 -0.00000000000E+00 -0.45593999997E+02  0.45594000000E+02  0.51100000000E-03 0. -1.
    9900012    2    1    2    0    0 -0.56192210016E+00 -0.57721848577E+00 -0.86266219472E+00  0.90007693392E+02  0.89999954145E+02 0.  0.
        -12    1    1    2    0    0  0.56192210016E+00  0.57721848577E+00  0.86266219472E+00  0.11803066081E+01  0.00000000000E+00 0.  1.
         11    1    3    3    0    0  0.44961687361E+01 -0.78107580029E+01  0.23207303121E+01  0.93064097979E+01  0.51100000000E-03 0. -1.
        -11    1    3    3    0    0  0.29410522051E+02 -0.20936530228E+02 -0.50129523355E+00  0.36104963683E+02  0.51100000000E-03 0.  1.
         12    1    3    3    0    0 -0.34468612888E+02  0.28170069746E+02 -0.26820972732E+01  0.44596319912E+02  0.00000000000E+00 0. -1.
</event>
<event>
 7    1  0.2711095E-015  0.9000776E+02  0.7816164E-02  0.1186339E+00
        -11   -1    0    0    0    0  0.00000000000E+00  0.00000000000E+00  0.45593999997E+02  0.45594000000E+02  0.51100000000E-03 0.  1.
         11   -1    0    0    0    0 -0.00000000000E+00 -0.00000000000E+00 -0.45593999997E+02  0.45594000000E+02  0.51100000000E-03 0. -1.
    9900012    2    1    2    0    0 -0.55504434957E+00  0.15421994666E+00 -0.10301024542E+01  0.90007758886E+02  0.90000020503E+02 0.  0.
        -12    1    1    2    0    0  0.55504434957E+00 -0.15421994666E+00  0.10301024542E+01  0.11802411144E+01  0.00000000000E+00 0.  1.
         11    1    3    3    0    0 -0.28358927578E+02  0.33050216134E+01 -0.26597464051E+02  0.39020213166E+02  0.51100000000E-03 0. -1.
        -11    1    3    3    0    0 -0.74095851595E+01  0.36337478005E+01  0.48432061204E+01  0.95688411576E+01  0.51100000000E-03 0.  1.
        -12    1    3    3    0    0  0.35213468388E+02 -0.67845494672E+01  0.20724155477E+02  0.41418704562E+02  0.00000000000E+00 0.  1.
</event>
<event>
 7    1  0.2385752E-015  0.9000786E+02  0.7816164E-02  0.1186339E+00
        -11   -1    0    0    0    0  0.00000000000E+00  0.00000000000E+00  0.45593999997E+02  0.45594000000E+02  0.51100000000E-03 0. -1.
         11   -1    0    0    0    0 -0.00000000000E+00 -0.00000000000E+00 -0.45593999997E+02  0.45594000000E+02  0.51100000000E-03 0.  1.
    9900012    2    1    2    0    0 -0.99516505382E-01 -0.11706524793E+01 -0.11139855102E+00  0.90007855772E+02  0.90000118668E+02 0.  0.
        -12    1    1    2    0    0  0.99516505382E-01  0.11706524793E+01  0.11139855102E+00  0.11801442282E+01  0.00000000000E+00 0.  1.
         11    1    3    3    0    0  0.32206370112E+02 -0.21619761842E+02 -0.91192553867E+01  0.39847524352E+02  0.51100000000E-03 0. -1.
        -11    1    3    3    0    0  0.53284639313E+01  0.77880629779E+01  0.35401042336E+01  0.10078630416E+02  0.51100000000E-03 0.  1.
        -12    1    3    3    0    0 -0.37634350549E+02  0.12661046385E+02  0.54677526020E+01  0.40081701004E+02  0.00000000000E+00 0.  1.
</event>
<event>
 7    1  0.2385752E-015  0.9000774E+02  0.7816164E-02  0.1186339E+00
        -11   -1    0    0    0    0  0.00000000000E+00  0.00000000000E+00  0.45593999997E+02  0.45594000000E+02  0.51100000000E-03 0.  1.
         11   -1    0    0    0    0 -0.00000000000E+00 -0.00000000000E+00 -0.45593999997E+02  0.45594000000E+02  0.51100000000E-03 0. -1.
    9900012    2    1    2    0    0 -0.22799234906E+00  0.36716680506E-01 -0.11574482892E+01  0.90007739364E+02  0.90000000724E+02 0.  0.
        -12    1    1    2    0    0  0.22799234906E+00 -0.36716680506E-01  0.11574482892E+01  0.11802606357E+01  0.00000000000E+00 0.  1.
         11    1    3    3    0    0  0.30277657151E+02 -0.19058454146E+02 -0.17050181196E+02  0.39631677684E+02  0.51100000000E-03 0. -1.
        -11    1    3    3    0    0 -0.46540248154E+01 -0.86860293288E+01  0.33672281885E+01  0.10413706277E+02  0.51100000000E-03 0.  1.
        -12    1    3    3    0    0 -0.25851624685E+02  0.27781200155E+02  0.12525504718E+02  0.39962355403E+02  0.00000000000E+00 0.  1.
</event>
<event>
 7    1  0.2385752E-015  0.9000769E+02  0.7816164E-02  0.1186339E+00
        -11   -1    0    0    0    0  0.00000000000E+00  0.00000000000E+00  0.45593999997E+02  0.45594000000E+02  0.51100000000E-03 0. -1.
         11   -1    0    0    0    0 -0.00000000000E+00 -0.00000000000E+00 -0.45593999997E+02  0.45594000000E+02  0.51100000000E-03 0.  1.
    9900012    2    1    2    0    0 -0.30007931951E+00  0.11283182731E+01  0.17316924257E+00  0.90007687622E+02  0.89999948298E+02 0.  0.
        -12    1    1    2    0    0  0.30007931951E+00 -0.11283182731E+01 -0.17316924257E+00  0.11803123782E+01  0.00000000000E+00 0.  1.
         11    1    3    3    0    0  0.13641076669E+02 -0.71750907158E+01  0.35898409988E+02  0.39067335964E+02  0.51100000000E-03 0. -1.
        -11    1    3    3    0    0 -0.61740068289E+01  0.60729338822E+01  0.46050390716E+01  0.98084285884E+01  0.51100000000E-03 0.  1.
        -12    1    3    3    0    0 -0.77671491595E+01  0.22304751067E+01 -0.40330279817E+02  0.41131923069E+02  0.00000000000E+00 0.  1.
</event>
<event>
 7    1  0.2385752E-015  0.9000759E+02  0.7816164E-02  0.1186339E+00
        -11   -1    0    0    0    0  0.00000000000E+00  0.00000000000E+00  0.45593999997E+02  0.45594000000E+02  0.51100000000E-03 0. -1.
         11   -1    0    0    0    0 -0.00000000000E+00 -0.00000000000E+00 -0.45593999997E+02  0.45594000000E+02  0.51100000000E-03 0.  1.
    9900012    2    1    2    0    0  0.15092405575E+00 -0.84813300139E+00  0.80700791982E+00  0.90007589291E+02  0.89999848670E+02 0.  0.
        -12    1    1    2    0    0 -0.15092405575E+00  0.84813300139E+00 -0.80700791982E+00  0.11804107087E+01  0.00000000000E+00 0.  1.
         11    1    3    3    0    0  0.48433976007E+01 -0.56792411603E+00 -0.73403650116E+00  0.49315157879E+01  0.51100000000E-03 0. -1.
        -11    1    3    3    0    0  0.37051495083E+02 -0.16067595310E+02 -0.68180390371E+00  0.40391159476E+02  0.51100000000E-03 0.  1.
         12    1    3    3    0    0 -0.41743968628E+02  0.15787386425E+02  0.22228483247E+01  0.44684914028E+02  0.00000000000E+00 0. -1.
</event>
<event>
 7    1  0.2385752E-015  0.9000768E+02  0.7816164E-02  0.1186339E+00
        -11   -1    0    0    0    0  0.00000000000E+00  0.00000000000E+00  0.45593999997E+02  0.45594000000E+02  0.51100000000E-03 0.  1.
         11   -1    0    0    0    0 -0.00000000000E+00 -0.00000000000E+00 -0.45593999997E+02  0.45594000000E+02  0.51100000000E-03 0. -1.
    9900012    2    1    2    0    0 -0.11285664605E+01 -0.13578405101E+00  0.31788967069E+00  0.90007680803E+02  0.89999941390E+02 0.  0.
        -12    1    1    2    0    0  0.11285664605E+01  0.13578405101E+00 -0.31788967069E+00  0.11803191971E+01  0.00000000000E+00 0.  1.
         11    1    3    3    0    0 -0.26690771475E-01  0.49095875284E+01  0.46123473796E+01  0.67363573768E+01  0.51100000000E-03 0. -1.
        -11    1    3    3    0    0  0.69413494217E+01 -0.70899288306E+01  0.38459784202E+02  0.39719068767E+02  0.51100000000E-03 0.  1.
         12    1    3    3    0    0 -0.80432251107E+01  0.20445572511E+01 -0.42754241911E+02  0.43552254659E+02  0.00000000000E+00 0. -1.
</event>
<event>
 7    1  0.2385752E-015  0.9000777E+02  0.7816164E-02  0.1186339E+00
        -11   -1    0    0    0    0  0.00000000000E+00  0.00000000000E+00  0.45593999997E+02  0.45594000000E+02  0.51100000000E-03 0. -1.
         11   -1    0    0    0    0 -0.00000000000E+00 -0.00000000000E+00 -0.45593999997E+02  0.45594000000E+02  0.51100000000E-03 0.  1.
    9900012    2    1    2    0    0 -0.80089140364E+00  0.23091242232E+00  0.83558221116E+00  0.90007768998E+02  0.90000030748E+02 0.  0.
        -12    1    1    2    0    0  0.80089140364E+00 -0.23091242232E+00 -0.83558221116E+00  0.11802310023E+01  0.00000000000E+00 0.  1.
         11    1    3    3    0    0  0.11993670368E+02  0.17824032036E+02  0.38231037025E+02  0.43853807580E+02  0.51100000000E-03 0. -1.
        -11    1    3    3    0    0  0.21181440518E+01 -0.62032102950E+00  0.27845661612E+00  0.22246057521E+01  0.51100000000E-03 0.  1.
        -12    1    3    3    0    0 -0.14912705824E+02 -0.16972798584E+02 -0.37673911430E+02  0.43929355666E+02  0.00000000000E+00 0.  1.
</event>
<event>
 7    1  0.2385752E-015  0.9000776E+02  0.7816164E-02  0.1186339E+00
        -11   -1    0    0    0    0  0.00000000000E+00  0.00000000000E+00  0.45593999997E+02  0.45594000000E+02  0.51100000000E-03 0. -1.
         11   -1    0    0    0    0 -0.00000000000E+00 -0.00000000000E+00 -0.45593999997E+02  0.45594000000E+02  0.51100000000E-03 0.  1.
    9900012    2    1    2    0    0  0.51816781703E+00  0.88024374259E+00  0.59131199273E+00  0.90007755616E+02  0.90000017190E+02 0.  0.
        -12    1    1    2    0    0 -0.51816781703E+00 -0.88024374259E+00 -0.59131199273E+00  0.11802443839E+01  0.00000000000E+00 0.  1.
         11    1    3    3    0    0 -0.13646424971E+02 -0.40371364727E+02  0.57805114097E+01  0.43005654475E+02  0.51100000000E-03 0. -1.
        -11    1    3    3    0    0 -0.32050442892E+01  0.83210779817E+01  0.18626554026E+01  0.91094529519E+01  0.51100000000E-03 0.  1.
        -12    1    3    3    0    0  0.17369637077E+02  0.32930530488E+02 -0.70518548196E+01  0.37892648189E+02  0.00000000000E+00 0.  1.
</event>
<event>
 7    1  0.2385752E-015  0.9000773E+02  0.7816164E-02  0.1186339E+00
        -11   -1    0    0    0    0  0.00000000000E+00  0.00000000000E+00  0.45593999997E+02  0.45594000000E+02  0.51100000000E-03 0.  1.
         11   -1    0    0    0    0 -0.00000000000E+00 -0.00000000000E+00 -0.45593999997E+02  0.45594000000E+02  0.51100000000E-03 0. -1.
    9900012    2    1    2    0    0  0.11398851058E+01 -0.27117881210E+00 -0.14201238616E+00  0.90007727353E+02  0.89999988554E+02 0.  0.
        -12    1    1    2    0    0 -0.11398851058E+01  0.27117881210E+00  0.14201238616E+00  0.11802726466E+01  0.00000000000E+00 0.  1.
         11    1    3    3    0    0 -0.11247849025E+02 -0.30247297908E+02  0.15660135246E+02  0.35869945283E+02  0.51100000000E-03 0. -1.
        -11    1    3    3    0    0  0.13179459618E+01 -0.37762532430E+01  0.96453991811E+01  0.10441781253E+02  0.51100000000E-03 0.  1.
        -12    1    3    3    0    0  0.11069788169E+02  0.33752372339E+02 -0.25447546814E+02  0.43696000817E+02  0.00000000000E+00 0.  1.
</event>
<event>
 7    1  0.2385752E-015  0.9000757E+02  0.7816164E-02  0.1186339E+00
        -11   -1    0    0    0    0  0.00000000000E+00  0.00000000000E+00  0.45593999997E+02  0.45594000000E+02  0.51100000000E-03 0.  1.
         11   -1    0    0    0    0 -0.00000000000E+00 -0.00000000000E+00 -0.45593999997E+02  0.45594000000E+02  0.51100000000E-03 0. -1.
    9900012    2    1    2    0    0  0.23357911949E+00 -0.10832709358E+01  0.40667195482E+00  0.90007569060E+02  0.89999828171E+02 0.  0.
        -12    1    1    2    0    0 -0.23357911949E+00  0.10832709358E+01 -0.40667195482E+00  0.11804309401E+01  0.00000000000E+00 0.  1.
         11    1    3    3    0    0  0.22561657687E+02  0.10656864568E+02 -0.22358692612E+02  0.33503854937E+02  0.51100000000E-03 0. -1.
        -11    1    3    3    0    0  0.70710600318E+01  0.81611646878E+01 -0.45419134802E+01  0.11714669323E+02  0.51100000000E-03 0.  1.
        -12    1    3    3    0    0 -0.29399138599E+02 -0.19901300192E+02  0.27307278047E+02  0.44789044800E+02  0.00000000000E+00 0.  1.
</event>
<event>
 7    1  0.2385752E-015  0.9000773E+02  0.7816164E-02  0.1186339E+00
        -11   -1    0    0    0    0  0.00000000000E+00  0.00000000000E+00  0.45593999997E+02  0.45594000000E+02  0.51100000000E-03 0. -1.
         11   -1    0    0    0    0 -0.00000000000E+00 -0.00000000000E+00 -0.45593999997E+02  0.45594000000E+02  0.51100000000E-03 0.  1.
    9900012    2    1    2    0    0  0.15480157485E+00  0.11618499105E+01 -0.13848143895E+00  0.90007730602E+02  0.89999991846E+02 0.  0.
        -12    1    1    2    0    0 -0.15480157485E+00 -0.11618499105E+01  0.13848143895E+00  0.11802693977E+01  0.00000000000E+00 0.  1.
         11    1    3    3    0    0  0.34989482448E+02 -0.22067455900E+02  0.40278688441E+01  0.41562726325E+02  0.51100000000E-03 0. -1.
        -11    1    3    3    0    0  0.10158464671E+01  0.96127346678E+01 -0.28315374665E+01  0.10072448388E+02  0.51100000000E-03 0.  1.
        -12    1    3    3    0    0 -0.35850527340E+02  0.13616571143E+02 -0.13348128166E+01  0.38372555890E+02  0.00000000000E+00 0.  1.
</event>
<event>
 7    1  0.2385752E-015  0.9000775E+02  0.7816164E-02  0.1186339E+00
        -11   -1    0    0    0    0  0.00000000000E+00  0.00000000000E+00  0.45593999997E+02  0.45594000000E+02  0.51100000000E-03 0.  1.
         11   -1    0    0    0    0 -0.00000000000E+00 -0.00000000000E+00 -0.45593999997E+02  0.45594000000E+02  0.51100000000E-03 0. -1.
    9900012    2    1    2    0    0 -0.39427115261E+00 -0.10393641550E+01 -0.39655077438E+00  0.90007754218E+02  0.90000015774E+02 0.  0.
        -12    1    1    2    0    0  0.39427115261E+00  0.10393641550E+01  0.39655077438E+00  0.11802457817E+01  0.00000000000E+00 0.  1.
         11    1    3    3    0    0 -0.15794378303E+02 -0.36190742322E+01 -0.35356669116E+02  0.38892854556E+02  0.51100000000E-03 0. -1.
        -11    1    3    3    0    0  0.89842622683E+01 -0.33300687171E+01 -0.45829273041E+01  0.10621183978E+02  0.51100000000E-03 0.  1.
        -12    1    3    3    0    0  0.64158448819E+01  0.59097787943E+01  0.39543045646E+02  0.40493715684E+02  0.00000000000E+00 0.  1.
</event>
<event>
 7    1  0.2385752E-015  0.9000796E+02  0.7816164E-02  0.1186339E+00
        -11   -1    0    0    0    0  0.00000000000E+00  0.00000000000E+00  0.45593999997E+02  0.45594000000E+02  0.51100000000E-03 0.  1.
         11   -1    0    0    0    0 -0.00000000000E+00 -0.00000000000E+00 -0.45593999997E+02  0.45594000000E+02  0.51100000000E-03 0. -1.
    9900012    2    1    2    0    0  0.10630757695E+01 -0.10347722850E+00 -0.50166452081E+00  0.90007955543E+02  0.90000219756E+02 0.  0.
        -12    1    1    2    0    0 -0.10630757695E+01  0.10347722850E+00  0.50166452081E+00  0.11800444567E+01  0.00000000000E+00 0.  1.
         11    1    3    3    0    0  0.99471466754E+01  0.17029791221E+02 -0.21938211758E+01  0.19843698436E+02  0.51100000000E-03 0. -1.
        -11    1    3    3    0    0 -0.11049963578E+02  0.25164247361E+02 -0.25389912403E+01  0.27600498494E+02  0.51100000000E-03 0.  1.
        -12    1    3    3    0    0  0.21658926719E+01 -0.42297515810E+02  0.42311478953E+01  0.42563758614E+02  0.00000000000E+00 0.  1.
</event>
<event>
 7    1  0.2385752E-015  0.9000779E+02  0.7816164E-02  0.1186339E+00
        -11   -1    0    0    0    0  0.00000000000E+00  0.00000000000E+00  0.45593999997E+02  0.45594000000E+02  0.51100000000E-03 0. -1.
         11   -1    0    0    0    0 -0.00000000000E+00 -0.00000000000E+00 -0.45593999997E+02  0.45594000000E+02  0.51100000000E-03 0.  1.
    9900012    2    1    2    0    0  0.17272227176E+00 -0.50240960250E+00  0.10538740414E+01  0.90007788626E+02  0.90000050636E+02 0.  0.
        -12    1    1    2    0    0 -0.17272227176E+00  0.50240960250E+00 -0.10538740414E+01  0.11802113739E+01  0.00000000000E+00 0.  1.
         11    1    3    3    0    0 -0.22572673178E+02 -0.14978193852E+02  0.22250528387E+02  0.35056495535E+02  0.51100000000E-03 0. -1.
        -11    1    3    3    0    0 -0.45953719327E+01 -0.96950033004E+01  0.30300002506E+01  0.11148606818E+02  0.51100000000E-03 0.  1.
        -12    1    3    3    0    0  0.27340767382E+02  0.24170787550E+02 -0.24226654596E+02  0.43802686273E+02  0.00000000000E+00 0.  1.
</event>
<event>
 7    1  0.2385752E-015  0.9000742E+02  0.7816164E-02  0.1186340E+00
        -11   -1    0    0    0    0  0.00000000000E+00  0.00000000000E+00  0.45593999997E+02  0.45594000000E+02  0.51100000000E-03 0.  1.
         11   -1    0    0    0    0 -0.00000000000E+00 -0.00000000000E+00 -0.45593999997E+02  0.45594000000E+02  0.51100000000E-03 0. -1.
    9900012    2    1    2    0    0  0.30196327859E+00  0.93657592149E+00 -0.65224162007E+00  0.90007417343E+02  0.89999674452E+02 0.  0.
        -12    1    1    2    0    0 -0.30196327859E+00 -0.93657592149E+00  0.65224162007E+00  0.11805826567E+01  0.00000000000E+00 0.  1.
         11    1    3    3    0    0 -0.80279083477E+01  0.60795716526E+01 -0.51766106735E+00  0.10083475450E+02  0.51100000000E-03 0. -1.
        -11    1    3    3    0    0 -0.29787371233E+02  0.18475993795E+02 -0.11455493956E+01  0.35070815721E+02  0.51100000000E-03 0.  1.
         12    1    3    3    0    0  0.38117242859E+02 -0.23618989526E+02  0.10109688428E+01  0.44853126172E+02  0.00000000000E+00 0. -1.
</event>
<event>
 7    1  0.2385752E-015  0.9000778E+02  0.7816164E-02  0.1186339E+00
        -11   -1    0    0    0    0  0.00000000000E+00  0.00000000000E+00  0.45593999997E+02  0.45594000000E+02  0.51100000000E-03 0. -1.
         11   -1    0    0    0    0 -0.00000000000E+00 -0.00000000000E+00 -0.45593999997E+02  0.45594000000E+02  0.51100000000E-03 0.  1.
    9900012    2    1    2    0    0  0.22040509158E+00 -0.11222812473E+01  0.29124709348E+00  0.90007780329E+02  0.90000042229E+02 0.  0.
        -12    1    1    2    0    0 -0.22040509158E+00  0.11222812473E+01 -0.29124709348E+00  0.11802196710E+01  0.00000000000E+00 0.  1.
         11    1    3    3    0    0 -0.97876776657E+00 -0.14356711514E+02  0.33199590361E+02  0.36184056602E+02  0.51100000000E-03 0. -1.
        -11    1    3    3    0    0  0.68672891374E+01  0.62996886631E+01  0.77932907772E+01  0.12148296948E+02  0.51100000000E-03 0.  1.
        -12    1    3    3    0    0 -0.56681162792E+01  0.69347416034E+01 -0.40701634044E+02  0.41675426778E+02  0.00000000000E+00 0.  1.
</event>
<event>
 7    1  0.2385752E-015  0.9000775E+02  0.7816164E-02  0.1186339E+00
        -11   -1    0    0    0    0  0.00000000000E+00  0.00000000000E+00  0.45593999997E+02  0.45594000000E+02  0.51100000000E-03 0.  1.
         11   -1    0    0    0    0 -0.00000000000E+00 -0.00000000000E+00 -0.45593999997E+02  0.45594000000E+02  0.51100000000E-03 0. -1.
    9900012    2    1    2    0    0  0.98067225873E+00 -0.22372629697E+00 -0.61742972773E+00  0.90007749601E+02  0.90000011096E+02 0.  0.
        -12    1    1    2    0    0 -0.98067225873E+00  0.22372629697E+00  0.61742972773E+00  0.11802503987E+01  0.00000000000E+00 0.  1.
         11    1    3    3    0    0  0.56862670455E+01 -0.16639250052E+02 -0.35933395956E+02  0.40005089931E+02  0.51100000000E-03 0. -1.
        -11    1    3    3    0    0  0.84384642071E+01  0.60387567108E+01 -0.57967988182E+00  0.10392799902E+02  0.51100000000E-03 0.  1.
        -12    1    3    3    0    0 -0.13144058994E+02  0.10376767045E+02  0.35895646110E+02  0.39609859767E+02  0.00000000000E+00 0.  1.
</event>
<event>
 7    1  0.2385752E-015  0.9000771E+02  0.7816164E-02  0.1186339E+00
        -11   -1    0    0    0    0  0.00000000000E+00  0.00000000000E+00  0.45593999997E+02  0.45594000000E+02  0.51100000000E-03 0. -1.
         11   -1    0    0    0    0 -0.00000000000E+00 -0.00000000000E+00 -0.45593999997E+02  0.45594000000E+02  0.51100000000E-03 0.  1.
    9900012    2    1    2    0    0  0.32813151367E+00 -0.39916721110E+00  0.10611686859E+01  0.90007710318E+02  0.89999971295E+02 0.  0.
        -12    1    1    2    0    0 -0.32813151367E+00  0.39916721110E+00 -0.10611686859E+01  0.11802896816E+01  0.00000000000E+00 0.  1.
         11    1    3    3    0    0 -0.10155325425E+02 -0.20706661077E+00 -0.17874566252E+01  0.10313511163E+02  0.51100000000E-03 0. -1.
        -11    1    3    3    0    0 -0.33261730075E+02  0.99643117684E+01  0.19382467639E+01  0.34776241853E+02  0.51100000000E-03 0.  1.
         12    1    3    3    0    0  0.43745187014E+02 -0.10156412369E+02  0.91037854714E+00  0.44917957302E+02  0.00000000000E+00 0. -1.
</event>
<event>
 7    1  0.2385752E-015  0.9000795E+02  0.7816164E-02  0.1186339E+00
        -11   -1    0    0    0    0  0.00000000000E+00  0.00000000000E+00  0.45593999997E+02  0.45594000000E+02  0.51100000000E-03 0.  1.
         11   -1    0    0    0    0 -0.00000000000E+00 -0.00000000000E+00 -0.45593999997E+02  0.45594000000E+02  0.51100000000E-03 0. -1.
    9900012    2    1    2    0    0  0.74231324924E+00  0.86616276318E-01 -0.91323154346E+00  0.90007947801E+02  0.90000211912E+02 0.  0.
        -12    1    1    2    0    0 -0.74231324924E+00 -0.86616276318E-01  0.91323154346E+00  0.11800521985E+01  0.00000000000E+00 0.  1.
         11    1    3    3    0    0 -0.10343807853E+02  0.18634702754E+01 -0.31691105987E+02  0.33388517208E+02  0.51100000000E-03 0. -1.
        -11    1    3    3    0    0 -0.44451142415E+01 -0.16858821332E+02 -0.17748790045E+01  0.17525098946E+02  0.51100000000E-03 0.  1.
        -12    1    3    3    0    0  0.15531235344E+02  0.15081967332E+02  0.32552753448E+02  0.39094331648E+02  0.00000000000E+00 0.  1.
</event>
<event>
 7    1  0.2385752E-015  0.9000771E+02  0.7816164E-02  0.1186339E+00
        -11   -1    0    0    0    0  0.00000000000E+00  0.00000000000E+00  0.45593999997E+02  0.45594000000E+02  0.51100000000E-03 0. -1.
         11   -1    0    0    0    0 -0.00000000000E+00 -0.00000000000E+00 -0.45593999997E+02  0.45594000000E+02  0.51100000000E-03 0.  1.
    9900012    2    1    2    0    0 -0.31675649738E+00 -0.30569257591E+00  0.10951263617E+01  0.90007710045E+02  0.89999971018E+02 0.  0.
        -12    1    1    2    0    0  0.31675649738E+00  0.30569257591E+00 -0.10951263617E+01  0.11802899549E+01  0.00000000000E+00 0.  1.
         11    1    3    3    0    0  0.32983046206E+02  0.16802309811E+02  0.53272393384E+01  0.37397572532E+02  0.51100000000E-03 0. -1.
        -11    1    3    3    0    0  0.81220037760E+01 -0.22130232914E+01 -0.88824798895E+00  0.84648332634E+01  0.51100000000E-03 0.  1.
        -12    1    3    3    0    0 -0.41421806479E+02 -0.14894979096E+02 -0.33438649878E+01  0.44145304250E+02  0.00000000000E+00 0.  1.
</event>
<event>
 7    1  0.2385752E-015  0.9000741E+02  0.7816164E-02  0.1186340E+00
        -11   -1    0    0    0    0  0.00000000000E+00  0.00000000000E+00  0.45593999997E+02  0.45594000000E+02  0.51100000000E-03 0. -1.
         11   -1    0    0    0    0 -0.00000000000E+00 -0.00000000000E+00 -0.45593999997E+02  0.45594000000E+02  0.51100000000E-03 0.  1.
    9900012    2    1    2    0    0  0.96412406382E+00  0.15647049689E+00  0.66315666578E+00  0.90007409050E+02  0.89999666049E+02 0.  0.
        -12    1    1    2    0    0 -0.96412406382E+00 -0.15647049689E+00 -0.66315666578E+00  0.11805909496E+01  0.00000000000E+00 0.  1.
         11    1    3    3    0    0 -0.19830968764E+02 -0.27721958039E+02 -0.13598905635E+02  0.36697472861E+02  0.51100000000E-03 0. -1.
        -11    1    3    3    0    0 -0.31814167682E+01 -0.59509488157E+01  0.93857666882E+01  0.11559750043E+02  0.51100000000E-03 0.  1.
        -12    1    3    3    0    0  0.23976509596E+02  0.33829377352E+02  0.48762956128E+01  0.41750186147E+02  0.00000000000E+00 0.  1.
</event>
<event>
 7    1  0.2385752E-015  0.9000771E+02  0.7816164E-02  0.1186339E+00
        -11   -1    0    0    0    0  0.00000000000E+00  0.00000000000E+00  0.45593999997E+02  0.45594000000E+02  0.51100000000E-03 0. -1.
         11   -1    0    0    0    0 -0.00000000000E+00 -0.00000000000E+00 -0.45593999997E+02  0.45594000000E+02  0.51100000000E-03 0.  1.
    9900012    2    1    2    0    0  0.91093029535E+00 -0.26336337209E+00  0.70279384911E+00  0.90007714669E+02  0.89999975702E+02 0.  0.
        -12    1    1    2    0    0 -0.91093029535E+00  0.26336337209E+00 -0.70279384911E+00  0.11802853312E+01  0.00000000000E+00 0.  1.
         11    1    3    3    0    0  0.52055863442E+01 -0.13918608690E+02 -0.53736957849E+01  0.15801974677E+02  0.51100000000E-03 0. -1.
        -11    1    3    3    0    0 -0.18879161730E+02 -0.25059600360E+02  0.92582738001E+01  0.32712718503E+02  0.51100000000E-03 0.  1.
         12    1    3    3    0    0  0.14584505682E+02  0.38714845677E+02 -0.31817841660E+01  0.41493021489E+02  0.00000000000E+00 0. -1.
</event>
<event>
 7    1  0.2385752E-015  0.9000773E+02  0.7816164E-02  0.1186339E+00
        -11   -1    0    0    0    0  0.00000000000E+00  0.00000000000E+00  0.45593999997E+02  0.45594000000E+02  0.51100000000E-03 0. -1.
         11   -1    0    0    0    0 -0.00000000000E+00 -0.00000000000E+00 -0.45593999997E+02  0.45594000000E+02  0.51100000000E-03 0.  1.
    9900012    2    1    2    0    0  0.99338127729E-01  0.86494108520E+00  0.79689998664E+00  0.90007728534E+02  0.89999989751E+02 0.  0.
        -12    1    1    2    0    0 -0.99338127729E-01 -0.86494108520E+00 -0.79689998664E+00  0.11802714659E+01  0.00000000000E+00 0.  1.
         11    1    3    3    0    0  0.19603274967E+02  0.94765572031E+01  0.12416968688E+02  0.25065407189E+02  0.51100000000E-03 0. -1.
        -11    1    3    3    0    0  0.20184415523E+02 -0.10789105479E+02  0.18803705351E+01  0.22964128998E+02  0.51100000000E-03 0.  1.
        -12    1    3    3    0    0 -0.39688352363E+02  0.21774893611E+01 -0.13500439236E+02  0.41978192347E+02  0.00000000000E+00 0.  1.
</event>
<event>
 7    1  0.2385752E-015  0.9000772E+02  0.7816164E-02  0.1186339E+00
        -11   -1    0    0    0    0  0.00000000000E+00  0.00000000000E+00  0.45593999997E+02  0.45594000000E+02  0.51100000000E-03 0. -1.
         11   -1    0    0    0    0 -0.00000000000E+00 -0.00000000000E+00 -0.45593999997E+02  0.45594000000E+02  0.51100000000E-03 0.  1.
    9900012    2    1    2    0    0 -0.75966882853E+00  0.24036302499E+00  0.87073837694E+00  0.90007721883E+02  0.89999983012E+02 0.  0.
        -12    1    1    2    0    0  0.75966882853E+00 -0.24036302499E+00 -0.87073837694E+00  0.11802781172E+01  0.00000000000E+00 0.  1.
         11    1    3    3    0    0 -0.10824438550E+02 -0.70911760387E+01 -0.12559164313E+01  0.13001175865E+02  0.51100000000E-03 0. -1.
        -11    1    3    3    0    0 -0.14341809815E+02  0.34136825843E+02  0.12863604876E+02  0.39197993801E+02  0.51100000000E-03 0.  1.
         12    1    3    3    0    0  0.24406579536E+02 -0.26805286779E+02 -0.10736950068E+02  0.37808552217E+02  0.00000000000E+00 0. -1.
</event>
<event>
 7    1  0.2385752E-015  0.9000771E+02  0.7816164E-02  0.1186339E+00
        -11   -1    0    0    0    0  0.00000000000E+00  0.00000000000E+00  0.45593999997E+02  0.45594000000E+02  0.51100000000E-03 0. -1.
         11   -1    0    0    0    0 -0.00000000000E+00 -0.00000000000E+00 -0.45593999997E+02  0.45594000000E+02  0.51100000000E-03 0.  1.
    9900012    2    1    2    0    0 -0.82134974075E+00 -0.79659682560E+00  0.28967933099E+00  0.90007705116E+02  0.89999966023E+02 0.  0.
        -12    1    1    2    0    0  0.82134974075E+00  0.79659682560E+00 -0.28967933099E+00  0.11802948843E+01  0.00000000000E+00 0.  1.
         11    1    3    3    0    0  0.40939068132E+01  0.78928919523E+01 -0.18420525143E+01  0.90802518739E+01  0.51100000000E-03 0. -1.
        -11    1    3    3    0    0 -0.20376912669E+00  0.32095772566E+02 -0.16213092762E+02  0.35958928177E+02  0.51100000000E-03 0.  1.
         12    1    3    3    0    0 -0.47114874272E+01 -0.40785261344E+02  0.18344824607E+02  0.44968525065E+02  0.00000000000E+00 0. -1.
</event>
<event>
 7    1  0.2385752E-015  0.9000776E+02  0.7816164E-02  0.1186339E+00
        -11   -1    0    0    0    0  0.00000000000E+00  0.00000000000E+00  0.45593999997E+02  0.45594000000E+02  0.51100000000E-03 0.  1.
         11   -1    0    0    0    0 -0.00000000000E+00 -0.00000000000E+00 -0.45593999997E+02  0.45594000000E+02  0.51100000000E-03 0. -1.
    9900012    2    1    2    0    0  0.61655566604E-01 -0.11493623883E+01 -0.26102931406E+00  0.90007757817E+02  0.90000019420E+02 0.  0.
        -12    1    1    2    0    0 -0.61655566604E-01  0.11493623883E+01  0.26102931406E+00  0.11802421833E+01  0.00000000000E+00 0.  1.
         11    1    3    3    0    0 -0.14181227515E+01 -0.30668389632E+02 -0.19837795493E+02  0.36552692446E+02  0.51100000000E-03 0. -1.
        -11    1    3    3    0    0  0.11291927621E+02 -0.54094877941E+01  0.65795484176E+00  0.12538065737E+02  0.51100000000E-03 0.  1.
        -12    1    3    3    0    0 -0.98121493025E+01  0.34928515037E+02  0.18918811338E+02  0.40916999634E+02  0.00000000000E+00 0.  1.
</event>
<event>
 7    1  0.2385752E-015  0.9000753E+02  0.7816164E-02  0.1186339E+00
        -11   -1    0    0    0    0  0.00000000000E+00  0.00000000000E+00  0.45593999997E+02  0.45594000000E+02  0.51100000000E-03 0.  1.
         11   -1    0    0    0    0 -0.00000000000E+00 -0.00000000000E+00 -0.45593999997E+02  0.45594000000E+02  0.51100000000E-03 0. -1.
    9900012    2    1    2    0    0  0.95114780652E+00 -0.46710543644E+00 -0.52023811566E+00  0.90007526648E+02  0.89999785199E+02 0.  0.
        -12    1    1    2    0    0 -0.95114780652E+00  0.46710543644E+00  0.52023811566E+00  0.11804733523E+01  0.00000000000E+00 0.  1.
         11    1    3    3    0    0  0.16908574120E+02 -0.30673593312E+02 -0.23404598892E+02  0.42125342194E+02  0.51100000000E-03 0. -1.
        -11    1    3    3    0    0  0.61522296372E+01  0.34488919122E+01  0.18339504506E+01  0.72875345246E+01  0.51100000000E-03 0.  1.
        -12    1    3    3    0    0 -0.22109655951E+02  0.26757595963E+02  0.21050410325E+02  0.40594649929E+02  0.00000000000E+00 0.  1.
</event>
<event>
 7    1  0.2385752E-015  0.9000771E+02  0.7816164E-02  0.1186339E+00
        -11   -1    0    0    0    0  0.00000000000E+00  0.00000000000E+00  0.45593999997E+02  0.45594000000E+02  0.51100000000E-03 0. -1.
         11   -1    0    0    0    0 -0.00000000000E+00 -0.00000000000E+00 -0.45593999997E+02  0.45594000000E+02  0.51100000000E-03 0.  1.
    9900012    2    1    2    0    0  0.30059087980E+00  0.16611156931E+00  0.11292182279E+01  0.90007711164E+02  0.89999972151E+02 0.  0.
        -12    1    1    2    0    0 -0.30059087980E+00 -0.16611156931E+00 -0.11292182279E+01  0.11802888361E+01  0.00000000000E+00 0.  1.
         11    1    3    3    0    0 -0.63821468220E+01  0.84064442253E+01  0.19914404489E+01  0.10740853685E+02  0.51100000000E-03 0. -1.
        -11    1    3    3    0    0 -0.34269063523E+02 -0.15598406089E+02 -0.95009620340E-01  0.37652198002E+02  0.51100000000E-03 0.  1.
         12    1    3    3    0    0  0.40951801225E+02  0.73580734330E+01 -0.76721260065E+00  0.41614659477E+02  0.00000000000E+00 0. -1.
</event>
<event>
 7    1  0.2385752E-015  0.9000773E+02  0.7816164E-02  0.1186339E+00
        -11   -1    0    0    0    0  0.00000000000E+00  0.00000000000E+00  0.45593999997E+02  0.45594000000E+02  0.51100000000E-03 0.  1.
         11   -1    0    0    0    0 -0.00000000000E+00 -0.00000000000E+00 -0.45593999997E+02  0.45594000000E+02  0.51100000000E-03 0. -1.
    9900012    2    1    2    0    0  0.86125505683E+00  0.76418295754E+00  0.25944436406E+00  0.90007725776E+02  0.89999986956E+02 0.  0.
        -12    1    1    2    0    0 -0.86125505683E+00 -0.76418295754E+00 -0.25944436406E+00  0.11802742239E+01  0.00000000000E+00 0.  1.
         11    1    3    3    0    0  0.15028839314E+02 -0.36366293703E+02  0.93150220597E-01  0.39349485461E+02  0.51100000000E-03 0. -1.
        -11    1    3    3    0    0 -0.28647993074E+01 -0.10018643436E+01 -0.92935063977E+01  0.97765059536E+01  0.51100000000E-03 0.  1.
        -12    1    3    3    0    0 -0.11302784950E+02  0.38132341005E+02  0.94598005412E+01  0.40881734361E+02  0.00000000000E+00 0.  1.
</event>
<event>
 7    1  0.2385752E-015  0.9000825E+02  0.7816164E-02  0.1186338E+00
        -11   -1    0    0    0    0  0.00000000000E+00  0.00000000000E+00  0.45593999997E+02  0.45594000000E+02  0.51100000000E-03 0. -1.
         11   -1    0    0    0    0 -0.00000000000E+00 -0.00000000000E+00 -0.45593999997E+02  0.45594000000E+02  0.51100000000E-03 0.  1.
    9900012    2    1    2    0    0 -0.90057994188E-01  0.87614197070E+00 -0.78490492374E+00  0.90008249630E+02  0.90000517724E+02 0.  0.
        -12    1    1    2    0    0  0.90057994188E-01 -0.87614197070E+00  0.78490492374E+00  0.11797503695E+01  0.00000000000E+00 0.  1.
         11    1    3    3    0    0  0.56466838490E+01  0.10973347721E+01  0.45428966600E+01  0.73298766986E+01  0.51100000000E-03 0. -1.
        -11    1    3    3    0    0  0.36068296932E+02 -0.13483673213E+02 -0.49100310616E+01  0.38818035656E+02  0.51100000000E-03 0.  1.
         12    1    3    3    0    0 -0.41805038776E+02  0.13262480412E+02 -0.41777052209E+00  0.43860337275E+02  0.00000000000E+00 0. -1.
</event>
<event>
 7    1  0.2385752E-015  0.9000802E+02  0.7816164E-02  0.1186338E+00
        -11   -1    0    0    0    0  0.00000000000E+00  0.00000000000E+00  0.45593999997E+02  0.45594000000E+02  0.51100000000E-03 0.  1.
         11   -1    0    0    0    0 -0.00000000000E+00 -0.00000000000E+00 -0.45593999997E+02  0.45594000000E+02  0.51100000000E-03 0. -1.
    9900012    2    1    2    0    0  0.10146163671E+01  0.41446378534E+00  0.43718992071E+00  0.90008016259E+02  0.90000281273E+02 0.  0.
        -12    1    1    2    0    0 -0.10146163671E+01 -0.41446378534E+00 -0.43718992071E+00  0.11799837408E+01  0.00000000000E+00 0.  1.
         11    1    3    3    0    0  0.63934222042E+01  0.71609239083E+01 -0.26090125025E+01  0.99479457780E+01  0.51100000000E-03 0. -1.
        -11    1    3    3    0    0  0.17498866582E+02  0.30711933067E+02  0.68445227058E+01  0.36003897785E+02  0.51100000000E-03 0.  1.
         12    1    3    3    0    0 -0.22877672419E+02 -0.37458393190E+02 -0.37983202827E+01  0.44056172696E+02  0.00000000000E+00 0. -1.
</event>
<event>
 7    1  0.2385752E-015  0.9000773E+02  0.7816164E-02  0.1186339E+00
        -11   -1    0    0    0    0  0.00000000000E+00  0.00000000000E+00  0.45593999997E+02  0.45594000000E+02  0.51100000000E-03 0. -1.
         11   -1    0    0    0    0 -0.00000000000E+00 -0.00000000000E+00 -0.45593999997E+02  0.45594000000E+02  0.51100000000E-03 0.  1.
    9900012    2    1    2    0    0 -0.63810480464E+00  0.14096215958E+00  0.98285057443E+00  0.90007727437E+02  0.89999988639E+02 0.  0.
        -12    1    1    2    0    0  0.63810480464E+00 -0.14096215958E+00 -0.98285057443E+00  0.11802725634E+01  0.00000000000E+00 0.  1.
         11    1    3    3    0    0  0.82318074631E+01 -0.38618544267E+02  0.10489408478E+02  0.40855627592E+02  0.51100000000E-03 0. -1.
        -11    1    3    3    0    0 -0.11885452636E+01 -0.98361785601E+00  0.57047821840E+01  0.59097109878E+01  0.51100000000E-03 0.  1.
        -12    1    3    3    0    0 -0.76813670041E+01  0.39743124283E+02 -0.15211340088E+02  0.43242388857E+02  0.00000000000E+00 0.  1.
</event>
<event>
 7    1  0.2385752E-015  0.9000779E+02  0.7816164E-02  0.1186339E+00
        -11   -1    0    0    0    0  0.00000000000E+00  0.00000000000E+00  0.45593999997E+02  0.45594000000E+02  0.51100000000E-03 0.  1.
         11   -1    0    0    0    0 -0.00000000000E+00 -0.00000000000E+00 -0.45593999997E+02  0.45594000000E+02  0.51100000000E-03 0. -1.
    9900012    2    1    2    0    0 -0.13460820269E+00 -0.10546556192E+01 -0.51231599880E+00  0.90007794287E+02  0.90000056371E+02 0.  0.
        -12    1    1    2    0    0  0.13460820269E+00  0.10546556192E+01  0.51231599880E+00  0.11802057134E+01  0.00000000000E+00 0.  1.
         11    1    3    3    0    0 -0.10602016270E+02  0.25928589310E+02 -0.24449832900E+02  0.37181834566E+02  0.51100000000E-03 0. -1.
        -11    1    3    3    0    0 -0.45861062791E+01 -0.90465208604E+01 -0.82135897085E+01  0.13051243873E+02  0.51100000000E-03 0.  1.
        -12    1    3    3    0    0  0.15053514347E+02 -0.17936724069E+02  0.32151106609E+02  0.39774715847E+02  0.00000000000E+00 0.  1.
</event>
<event>
 7    1  0.2385752E-015  0.9000765E+02  0.7816164E-02  0.1186339E+00
        -11   -1    0    0    0    0  0.00000000000E+00  0.00000000000E+00  0.45593999997E+02  0.45594000000E+02  0.51100000000E-03 0.  1.
         11   -1    0    0    0    0 -0.00000000000E+00 -0.00000000000E+00 -0.45593999997E+02  0.45594000000E+02  0.51100000000E-03 0. -1.
    9900012    2    1    2    0    0  0.11067527287E+01 -0.31522859005E+00  0.26260428451E+00  0.90007647647E+02  0.89999907796E+02 0.  0.
        -12    1    1    2    0    0 -0.11067527287E+01  0.31522859005E+00 -0.26260428451E+00  0.11803523528E+01  0.00000000000E+00 0.  1.
         11    1    3    3    0    0  0.16853643589E+02  0.15517856892E+02 -0.21553567782E+02  0.31454816311E+02  0.51100000000E-03 0. -1.
        -11    1    3    3    0    0 -0.18495644799E+02  0.64470165599E+01 -0.80616071160E+01  0.21181180529E+02  0.51100000000E-03 0.  1.
        -12    1    3    3    0    0  0.27487539386E+01 -0.22280102042E+02  0.29877779182E+02  0.37371650808E+02  0.00000000000E+00 0.  1.
</event>
<event>
 7    1  0.2385752E-015  0.9000742E+02  0.7816164E-02  0.1186340E+00
        -11   -1    0    0    0    0  0.00000000000E+00  0.00000000000E+00  0.45593999997E+02  0.45594000000E+02  0.51100000000E-03 0. -1.
         11   -1    0    0    0    0 -0.00000000000E+00 -0.00000000000E+00 -0.45593999997E+02  0.45594000000E+02  0.51100000000E-03 0.  1.
    9900012    2    1    2    0    0 -0.78266154372E+00  0.16598919814E+00  0.86813965377E+00  0.90007416261E+02  0.89999673355E+02 0.  0.
        -12    1    1    2    0    0  0.78266154372E+00 -0.16598919814E+00 -0.86813965377E+00  0.11805837388E+01  0.00000000000E+00 0.  1.
         11    1    3    3    0    0 -0.19491405969E+02  0.13411818095E+02 -0.17163493444E+02  0.29229732786E+02  0.51100000000E-03 0. -1.
        -11    1    3    3    0    0  0.19120465528E+02  0.13339356025E+02 -0.69158261131E+01  0.24317879682E+02  0.51100000000E-03 0.  1.
         12    1    3    3    0    0 -0.41172110254E+00 -0.26585184922E+02  0.24947459211E+02  0.36459803793E+02  0.00000000000E+00 0. -1.
</event>
<event>
 7    1  0.2385752E-015  0.9000772E+02  0.7816164E-02  0.1186339E+00
        -11   -1    0    0    0    0  0.00000000000E+00  0.00000000000E+00  0.45593999997E+02  0.45594000000E+02  0.51100000000E-03 0.  1.
         11   -1    0    0    0    0 -0.00000000000E+00 -0.00000000000E+00 -0.45593999997E+02  0.45594000000E+02  0.51100000000E-03 0. -1.
    9900012    2    1    2    0    0 -0.80119929371E+00  0.78745071452E+00  0.36202058207E+00  0.90007721288E+02  0.89999982409E+02 0.  0.
        -12    1    1    2    0    0  0.80119929371E+00 -0.78745071452E+00 -0.36202058207E+00  0.11802787119E+01  0.00000000000E+00 0.  1.
         11    1    3    3    0    0  0.11304831361E+02  0.28017188841E+01 -0.34792877608E+02  0.36690505221E+02  0.51100000000E-03 0. -1.
        -11    1    3    3    0    0 -0.14701212037E+01  0.79556140386E+01 -0.57281010996E+01  0.99128297450E+01  0.51100000000E-03 0.  1.
        -12    1    3    3    0    0 -0.10635909451E+02 -0.99698822082E+01  0.40882999290E+02  0.43404386323E+02  0.00000000000E+00 0.  1.
</event>
<event>
 7    1  0.2385752E-015  0.9000771E+02  0.7816164E-02  0.1186339E+00
        -11   -1    0    0    0    0  0.00000000000E+00  0.00000000000E+00  0.45593999997E+02  0.45594000000E+02  0.51100000000E-03 0.  1.
         11   -1    0    0    0    0 -0.00000000000E+00 -0.00000000000E+00 -0.45593999997E+02  0.45594000000E+02  0.51100000000E-03 0. -1.
    9900012    2    1    2    0    0  0.10691079515E+01 -0.41801510140E+00 -0.27448990625E+00  0.90007714803E+02  0.89999975839E+02 0.  0.
        -12    1    1    2    0    0 -0.10691079515E+01  0.41801510140E+00  0.27448990625E+00  0.11802851967E+01  0.00000000000E+00 0.  1.
         11    1    3    3    0    0 -0.24731425604E+02  0.16551438414E+02 -0.21572188039E+02  0.36755310134E+02  0.51100000000E-03 0. -1.
        -11    1    3    3    0    0  0.24838079781E+01  0.62474715704E+01 -0.71074632453E+01  0.97834675417E+01  0.51100000000E-03 0.  1.
        -12    1    3    3    0    0  0.23316725577E+02 -0.23216925086E+02  0.28405161378E+02  0.43468937128E+02  0.00000000000E+00 0.  1.
</event>
<event>
 7    1  0.2385752E-015  0.9000763E+02  0.7816164E-02  0.1186339E+00
        -11   -1    0    0    0    0  0.00000000000E+00  0.00000000000E+00  0.45593999997E+02  0.45594000000E+02  0.51100000000E-03 0.  1.
         11   -1    0    0    0    0 -0.00000000000E+00 -0.00000000000E+00 -0.45593999997E+02  0.45594000000E+02  0.51100000000E-03 0. -1.
    9900012    2    1    2    0    0 -0.31016244910E-01  0.19189133135E-01 -0.11798084681E+01  0.90007627918E+02  0.89999887807E+02 0.  0.
        -12    1    1    2    0    0  0.31016244910E-01 -0.19189133135E-01  0.11798084681E+01  0.11803720819E+01  0.00000000000E+00 0.  1.
         11    1    3    3    0    0  0.26461847251E+02  0.13304974307E+02  0.31561827435E+02  0.43282798576E+02  0.51100000000E-03 0. -1.
        -11    1    3    3    0    0 -0.18303279526E+00 -0.55834305157E+01 -0.82520161328E+01  0.99651376229E+01  0.51100000000E-03 0.  1.
        -12    1    3    3    0    0 -0.26309830701E+02 -0.77023546584E+01 -0.24489619770E+02  0.36759691719E+02  0.00000000000E+00 0.  1.
</event>
<event>
 7    1  0.2385752E-015  0.9000766E+02  0.7816164E-02  0.1186339E+00
        -11   -1    0    0    0    0  0.00000000000E+00  0.00000000000E+00  0.45593999997E+02  0.45594000000E+02  0.51100000000E-03 0.  1.
         11   -1    0    0    0    0 -0.00000000000E+00 -0.00000000000E+00 -0.45593999997E+02  0.45594000000E+02  0.51100000000E-03 0. -1.
    9900012    2    1    2    0    0 -0.74723478749E+00 -0.69235088801E+00 -0.59624092923E+00  0.90007655633E+02  0.89999915887E+02 0.  0.
        -12    1    1    2    0    0  0.74723478749E+00  0.69235088801E+00  0.59624092923E+00  0.11803443673E+01  0.00000000000E+00 0.  1.
         11    1    3    3    0    0 -0.40590225241E+01  0.18028107529E+01 -0.37595550442E+02  0.37856983553E+02  0.51100000000E-03 0. -1.
        -11    1    3    3    0    0 -0.94674871864E+01  0.45866055700E+01 -0.18170167223E+01  0.10675758255E+02  0.51100000000E-03 0.  1.
        -12    1    3    3    0    0  0.12779274923E+02 -0.70817672109E+01  0.38816326235E+02  0.41474913825E+02  0.00000000000E+00 0.  1.
</event>
<event>
 7    1  0.2385752E-015  0.9000776E+02  0.7816164E-02  0.1186339E+00
        -11   -1    0    0    0    0  0.00000000000E+00  0.00000000000E+00  0.45593999997E+02  0.45594000000E+02  0.51100000000E-03 0.  1.
         11   -1    0    0    0    0 -0.00000000000E+00 -0.00000000000E+00 -0.45593999997E+02  0.45594000000E+02  0.51100000000E-03 0. -1.
    9900012    2    1    2    0    0 -0.22242508252E+00 -0.26558196298E+00 -0.11282560763E+01  0.90007759147E+02  0.90000020768E+02 0.  0.
        -12    1    1    2    0    0  0.22242508252E+00  0.26558196298E+00  0.11282560763E+01  0.11802408526E+01  0.00000000000E+00 0.  1.
         11    1    3    3    0    0  0.32621413044E+02 -0.34859160002E+01 -0.15834522135E+02  0.36428564216E+02  0.51100000000E-03 0. -1.
        -11    1    3    3    0    0  0.52926257910E+01 -0.74501162089E+01 -0.37627689962E+01  0.98830435630E+01  0.51100000000E-03 0.  1.
        -12    1    3    3    0    0 -0.38136463917E+02  0.10670450246E+02  0.18469035054E+02  0.43696151369E+02  0.00000000000E+00 0.  1.
</event>
<event>
 7    1  0.2385752E-015  0.9000778E+02  0.7816164E-02  0.1186339E+00
        -11   -1    0    0    0    0  0.00000000000E+00  0.00000000000E+00  0.45593999997E+02  0.45594000000E+02  0.51100000000E-03 0. -1.
         11   -1    0    0    0    0 -0.00000000000E+00 -0.00000000000E+00 -0.45593999997E+02  0.45594000000E+02  0.51100000000E-03 0.  1.
    9900012    2    1    2    0    0 -0.10751594487E+01  0.28277816368E+00  0.39621008058E+00  0.90007782326E+02  0.90000044253E+02 0.  0.
        -12    1    1    2    0    0  0.10751594487E+01 -0.28277816368E+00 -0.39621008058E+00  0.11802176740E+01  0.00000000000E+00 0.  1.
         11    1    3    3    0    0  0.84157375091E+01 -0.34876752445E+02 -0.87754843341E+01  0.36935370913E+02  0.51100000000E-03 0. -1.
        -11    1    3    3    0    0 -0.66092431727E+01  0.83104352966E+00 -0.11214071159E+02  0.13043317097E+02  0.51100000000E-03 0.  1.
        -12    1    3    3    0    0 -0.28816537852E+01  0.34328487079E+02  0.20385765574E+02  0.40029094316E+02  0.00000000000E+00 0.  1.
</event>
<event>
 7    1  0.2385752E-015  0.9000880E+02  0.7816164E-02  0.1186337E+00
        -11   -1    0    0    0    0  0.00000000000E+00  0.00000000000E+00  0.45593999997E+02  0.45594000000E+02  0.51100000000E-03 0. -1.
         11   -1    0    0    0    0 -0.00000000000E+00 -0.00000000000E+00 -0.45593999997E+02  0.45594000000E+02  0.51100000000E-03 0.  1.
    9900012    2    1    2    0    0 -0.83926579523E+00  0.57081182307E+00  0.60025988982E+00  0.90008803177E+02  0.90001078572E+02 0.  0.
        -12    1    1    2    0    0  0.83926579523E+00 -0.57081182307E+00 -0.60025988982E+00  0.11791968231E+01  0.00000000000E+00 0.  1.
         11    1    3    3    0    0  0.48638572144E+01 -0.30908239388E+02  0.25221469128E+02  0.40188292752E+02  0.51100000000E-03 0. -1.
        -11    1    3    3    0    0 -0.80047869551E+01 -0.29242093384E+01 -0.73630644446E+01  0.11262430143E+02  0.51100000000E-03 0.  1.
        -12    1    3    3    0    0  0.23016639454E+01  0.34403260549E+02 -0.17258144793E+02  0.38558080282E+02  0.00000000000E+00 0.  1.
</event>
<event>
 7    1  0.2385752E-015  0.9000813E+02  0.7816164E-02  0.1186338E+00
        -11   -1    0    0    0    0  0.00000000000E+00  0.00000000000E+00  0.45593999997E+02  0.45594000000E+02  0.51100000000E-03 0.  1.
         11   -1    0    0    0    0 -0.00000000000E+00 -0.00000000000E+00 -0.45593999997E+02  0.45594000000E+02  0.51100000000E-03 0. -1.
    9900012    2    1    2    0    0 -0.49590875852E-01 -0.11658314139E+01  0.17458014735E+00  0.90008126969E+02  0.90000393445E+02 0.  0.
        -12    1    1    2    0    0  0.49590875852E-01  0.11658314139E+01 -0.17458014735E+00  0.11798730306E+01  0.00000000000E+00 0.  1.
         11    1    3    3    0    0  0.13959003784E+01  0.36825751165E+02  0.16575449385E+01  0.36889455705E+02  0.51100000000E-03 0. -1.
        -11    1    3    3    0    0 -0.68331822036E+01  0.49761008894E+01  0.42074014854E+01  0.94422553773E+01  0.51100000000E-03 0.  1.
        -12    1    3    3    0    0  0.53876909494E+01 -0.42967683468E+02 -0.56903662766E+01  0.43676415887E+02  0.00000000000E+00 0.  1.
</event>
<event>
 7    1  0.2385752E-015  0.9000770E+02  0.7816164E-02  0.1186339E+00
        -11   -1    0    0    0    0  0.00000000000E+00  0.00000000000E+00  0.45593999997E+02  0.45594000000E+02  0.51100000000E-03 0.  1.
         11   -1    0    0    0    0 -0.00000000000E+00 -0.00000000000E+00 -0.45593999997E+02  0.45594000000E+02  0.51100000000E-03 0. -1.
    9900012    2    1    2    0    0  0.41838973288E+00  0.10957101982E+01 -0.13218556931E+00  0.90007701804E+02  0.89999962668E+02 0.  0.
        -12    1    1    2    0    0 -0.41838973288E+00 -0.10957101982E+01  0.13218556931E+00  0.11802981961E+01  0.00000000000E+00 0.  1.
         11    1    3    3    0    0  0.64871370118E+01 -0.29513922808E-01 -0.95527752306E+01  0.11547265155E+02  0.51100000000E-03 0. -1.
        -11    1    3    3    0    0  0.12183907073E+02 -0.29040113191E+02  0.24710830763E+02  0.40030000287E+02  0.51100000000E-03 0.  1.
         12    1    3    3    0    0 -0.18252654352E+02  0.30165337312E+02 -0.15290241102E+02  0.38430436362E+02  0.00000000000E+00 0. -1.
</event>
<event>
 7    1  0.2385752E-015  0.9000777E+02  0.7816164E-02  0.1186339E+00
        -11   -1    0    0    0    0  0.00000000000E+00  0.00000000000E+00  0.45593999997E+02  0.45594000000E+02  0.51100000000E-03 0. -1.
         11   -1    0    0    0    0 -0.00000000000E+00 -0.00000000000E+00 -0.45593999997E+02  0.45594000000E+02  0.51100000000E-03 0.  1.
    9900012    2    1    2    0    0  0.97238275486E+00  0.65383942244E+00 -0.14110214438E+00  0.90007769502E+02  0.90000031260E+02 0.  0.
        -12    1    1    2    0    0 -0.97238275486E+00 -0.65383942244E+00  0.14110214438E+00  0.11802304976E+01  0.00000000000E+00 0.  1.
         11    1    3    3    0    0  0.28389480387E+02 -0.92458649684E+01  0.17302526858E+02  0.34508347563E+02  0.51100000000E-03 0. -1.
        -11    1    3    3    0    0  0.98514481085E+01 -0.64184878201E+01 -0.17237659417E+01  0.11883576272E+02  0.51100000000E-03 0.  1.
        -12    1    3    3    0    0 -0.37268545740E+02  0.16318192211E+02 -0.15719863060E+02  0.43615845667E+02  0.00000000000E+00 0.  1.
</event>
<event>
 7    1  0.2385752E-015  0.9000801E+02  0.7816164E-02  0.1186338E+00
        -11   -1    0    0    0    0  0.00000000000E+00  0.00000000000E+00  0.45593999997E+02  0.45594000000E+02  0.51100000000E-03 0. -1.
         11   -1    0    0    0    0 -0.00000000000E+00 -0.00000000000E+00 -0.45593999997E+02  0.45594000000E+02  0.51100000000E-03 0.  1.
    9900012    2    1    2    0    0  0.32459812185E+00  0.84294216146E+00  0.75924414274E+00  0.90008013942E+02  0.90000278926E+02 0.  0.
        -12    1    1    2    0    0 -0.32459812185E+00 -0.84294216146E+00 -0.75924414274E+00  0.11799860578E+01  0.00000000000E+00 0.  1.
         11    1    3    3    0    0 -0.15853367641E+02 -0.31251722074E+02  0.40548248954E+01  0.35276635375E+02  0.51100000000E-03 0. -1.
        -11    1    3    3    0    0  0.16905432310E+01 -0.89721538977E+01 -0.62809195937E+01  0.11081851523E+02  0.51100000000E-03 0.  1.
        -12    1    3    3    0    0  0.14487422532E+02  0.41066818133E+02  0.29853388411E+01  0.43649527044E+02  0.00000000000E+00 0.  1.
</event>
<event>
 7    1  0.2385752E-015  0.9000777E+02  0.7816164E-02  0.1186339E+00
        -11   -1    0    0    0    0  0.00000000000E+00  0.00000000000E+00  0.45593999997E+02  0.45594000000E+02  0.51100000000E-03 0. -1.
         11   -1    0    0    0    0 -0.00000000000E+00 -0.00000000000E+00 -0.45593999997E+02  0.45594000000E+02  0.51100000000E-03 0.  1.
    9900012    2    1    2    0    0 -0.83242754961E+00 -0.64965069922E+00  0.52722098403E+00  0.90007769674E+02  0.90000031434E+02 0.  0.
        -12    1    1    2    0    0  0.83242754961E+00  0.64965069922E+00 -0.52722098403E+00  0.11802303260E+01  0.00000000000E+00 0.  1.
         11    1    3    3    0    0 -0.61114142075E+01  0.33916960787E+01 -0.73572615224E+01  0.10148018687E+02  0.51100000000E-03 0. -1.
        -11    1    3    3    0    0 -0.22438365037E+02 -0.18218863804E+02  0.30010148373E+02  0.41665528072E+02  0.51100000000E-03 0.  1.
         12    1    3    3    0    0  0.27717351695E+02  0.14177517026E+02 -0.22125665867E+02  0.38194222915E+02  0.00000000000E+00 0. -1.
</event>
<event>
 8    1  0.2385752E-015  0.9000785E+02  0.7816164E-02  0.1186339E+00
        -11   -1    0    0    0    0  0.00000000000E+00  0.00000000000E+00  0.45593999997E+02  0.45594000000E+02  0.51100000000E-03 0. -1.
         11   -1    0    0    0    0 -0.00000000000E+00 -0.00000000000E+00 -0.45593999997E+02  0.45594000000E+02  0.51100000000E-03 0.  1.
    9900012    2    1    2    0    0 -0.53478983968E+00 -0.29967002528E+00  0.10084421041E+01  0.90007848411E+02  0.90000111210E+02 0.  0.
         23    2    3    3    0    0  0.97071414366E+00 -0.26338545099E+02  0.37407637833E+00  0.63917774106E+02  0.58229551515E+02 0.  0.
        -12    1    1    2    0    0  0.53478983968E+00  0.29967002528E+00 -0.10084421041E+01  0.11801515894E+01  0.00000000000E+00 0.  1.
         11    1    4    4    0    0 -0.48436894402E+01 -0.28427801381E+00  0.26276928582E+02  0.26721136154E+02  0.51100000000E-03 0. -1.
        -11    1    4    4    0    0  0.58144035839E+01 -0.26054267085E+02 -0.25902852204E+02  0.37196637952E+02  0.51100000000E-03 0.  1.
         12    1    3    3    0    0 -0.15055039833E+01  0.26038875074E+02  0.63436572572E+00  0.26090074304E+02  0.00000000000E+00 0. -1.
</event>
<event>
 7    1  0.2385752E-015  0.9000772E+02  0.7816164E-02  0.1186339E+00
        -11   -1    0    0    0    0  0.00000000000E+00  0.00000000000E+00  0.45593999997E+02  0.45594000000E+02  0.51100000000E-03 0. -1.
         11   -1    0    0    0    0 -0.00000000000E+00 -0.00000000000E+00 -0.45593999997E+02  0.45594000000E+02  0.51100000000E-03 0.  1.
    9900012    2    1    2    0    0  0.11619067528E+01  0.11415439260E+00 -0.17318090962E+00  0.90007724543E+02  0.89999985707E+02 0.  0.
        -12    1    1    2    0    0 -0.11619067528E+01 -0.11415439260E+00  0.17318090962E+00  0.11802754573E+01  0.00000000000E+00 0.  1.
         11    1    3    3    0    0  0.48651398626E+01 -0.35113971217E+02 -0.12719619424E+02  0.37662305812E+02  0.51100000000E-03 0. -1.
        -11    1    3    3    0    0 -0.40446433501E+01 -0.70812096698E+01  0.43696661287E+01  0.92518458998E+01  0.51100000000E-03 0.  1.
        -12    1    3    3    0    0  0.34141024029E+00  0.42309335279E+02  0.81767723855E+01  0.43093572831E+02  0.00000000000E+00 0.  1.
</event>
<event>
 7    1  0.2385752E-015  0.9000781E+02  0.7816164E-02  0.1186339E+00
        -11   -1    0    0    0    0  0.00000000000E+00  0.00000000000E+00  0.45593999997E+02  0.45594000000E+02  0.51100000000E-03 0.  1.
         11   -1    0    0    0    0 -0.00000000000E+00 -0.00000000000E+00 -0.45593999997E+02  0.45594000000E+02  0.51100000000E-03 0. -1.
    9900012    2    1    2    0    0 -0.30581110436E+00  0.10008522457E+01  0.54554544979E+00  0.90007811249E+02  0.90000073558E+02 0.  0.
        -12    1    1    2    0    0  0.30581110436E+00 -0.10008522457E+01 -0.54554544979E+00  0.11801887506E+01  0.00000000000E+00 0.  1.
         11    1    3    3    0    0  0.40237195911E+01 -0.42674489739E+01 -0.81286473588E+01  0.10023789116E+02  0.51100000000E-03 0. -1.
        -11    1    3    3    0    0 -0.43869218567E+01 -0.36316510492E+02  0.11384046111E+02  0.38310971324E+02  0.51100000000E-03 0.  1.
         12    1    3    3    0    0  0.57391161275E-01  0.41584811712E+02 -0.27098533019E+01  0.41673050809E+02  0.00000000000E+00 0. -1.
</event>
<event>
 7    1  0.2385752E-015  0.9000785E+02  0.7816164E-02  0.1186339E+00
        -11   -1    0    0    0    0  0.00000000000E+00  0.00000000000E+00  0.45593999997E+02  0.45594000000E+02  0.51100000000E-03 0.  1.
         11   -1    0    0    0    0 -0.00000000000E+00 -0.00000000000E+00 -0.45593999997E+02  0.45594000000E+02  0.51100000000E-03 0. -1.
    9900012    2    1    2    0    0 -0.57651122650E+00 -0.31552878339E+00 -0.98022139207E+00  0.90007848491E+02  0.90000111291E+02 0.  0.
        -12    1    1    2    0    0  0.57651122650E+00  0.31552878339E+00  0.98022139207E+00  0.11801515093E+01  0.00000000000E+00 0.  1.
         11    1    3    3    0    0  0.55293209535E+00  0.95793839116E+01  0.31123288887E+01  0.10087463576E+02  0.51100000000E-03 0. -1.
        -11    1    3    3    0    0  0.16777653309E+02  0.28286869263E+02 -0.15316525449E+02  0.36279919727E+02  0.51100000000E-03 0.  1.
         12    1    3    3    0    0 -0.17907096631E+02 -0.38181781958E+02  0.11223975168E+02  0.43640465188E+02  0.00000000000E+00 0. -1.
</event>
<event>
 7    1  0.3619874E-015  0.9000777E+02  0.7816164E-02  0.1186339E+00
        -11   -1    0    0    0    0  0.00000000000E+00  0.00000000000E+00  0.45593999997E+02  0.45594000000E+02  0.51100000000E-03 0.  1.
         11   -1    0    0    0    0 -0.00000000000E+00 -0.00000000000E+00 -0.45593999997E+02  0.45594000000E+02  0.51100000000E-03 0. -1.
    9900012    2    1    2    0    0  0.68490765142E+00 -0.80537965583E+00  0.52459638627E+00  0.90007772798E+02  0.90000034598E+02 0.  0.
        -12    1    1    2    0    0 -0.68490765142E+00  0.80537965583E+00 -0.52459638627E+00  0.11802272025E+01  0.00000000000E+00 0.  1.
         11    1    3    3    0    0  0.31427804177E+02  0.11424990219E+02 -0.16793267157E+02  0.37419929169E+02  0.51100000000E-03 0. -1.
        -11    1    3    3    0    0  0.61790908421E+00  0.25781685181E+01 -0.87880096848E+01  0.91792090631E+01  0.51100000000E-03 0.  1.
        -12    1    3    3    0    0 -0.31360805610E+02 -0.14808538393E+02  0.26105873229E+02  0.43408634566E+02  0.00000000000E+00 0.  1.
</event>
<event>
 7    1  0.2385752E-015  0.9000780E+02  0.7816164E-02  0.1186339E+00
        -11   -1    0    0    0    0  0.00000000000E+00  0.00000000000E+00  0.45593999997E+02  0.45594000000E+02  0.51100000000E-03 0.  1.
         11   -1    0    0    0    0 -0.00000000000E+00 -0.00000000000E+00 -0.45593999997E+02  0.45594000000E+02  0.51100000000E-03 0. -1.
    9900012    2    1    2    0    0 -0.85140870732E+00 -0.61153234813E+00 -0.54221436741E+00  0.90007802974E+02  0.90000065173E+02 0.  0.
        -12    1    1    2    0    0  0.85140870732E+00  0.61153234813E+00  0.54221436741E+00  0.11801970259E+01  0.00000000000E+00 0.  1.
         11    1    3    3    0    0 -0.13337386135E+01 -0.71617473092E+01  0.25688949827E+01  0.77245520843E+01  0.51100000000E-03 0. -1.
        -11    1    3    3    0    0  0.34273825691E+02 -0.16684410428E+02 -0.12680448566E+02  0.40172857192E+02  0.51100000000E-03 0.  1.
         12    1    3    3    0    0 -0.33791495785E+02  0.23234625390E+02  0.95693392160E+01  0.42110393698E+02  0.00000000000E+00 0. -1.
</event>
<event>
 7    1  0.2385752E-015  0.9000775E+02  0.7816164E-02  0.1186339E+00
        -11   -1    0    0    0    0  0.00000000000E+00  0.00000000000E+00  0.45593999997E+02  0.45594000000E+02  0.51100000000E-03 0. -1.
         11   -1    0    0    0    0 -0.00000000000E+00 -0.00000000000E+00 -0.45593999997E+02  0.45594000000E+02  0.51100000000E-03 0.  1.
    9900012    2    1    2    0    0  0.91356752147E+00  0.20294087056E+00  0.71917171990E+00  0.90007746393E+02  0.90000007846E+02 0.  0.
        -12    1    1    2    0    0 -0.91356752147E+00 -0.20294087056E+00 -0.71917171990E+00  0.11802536066E+01  0.00000000000E+00 0.  1.
         11    1    3    3    0    0  0.94163050704E+00  0.62477022379E+01  0.73867583215E+01  0.97203214981E+01  0.51100000000E-03 0. -1.
        -11    1    3    3    0    0 -0.32944206681E+02 -0.24639839011E+02  0.30526573481E+01  0.41252407657E+02  0.51100000000E-03 0.  1.
         12    1    3    3    0    0  0.32916143695E+02  0.18595077644E+02 -0.97202439498E+01  0.39035017238E+02  0.00000000000E+00 0. -1.
</event>
<event>
 7    1  0.2385752E-015  0.9000772E+02  0.7816164E-02  0.1186339E+00
        -11   -1    0    0    0    0  0.00000000000E+00  0.00000000000E+00  0.45593999997E+02  0.45594000000E+02  0.51100000000E-03 0.  1.
         11   -1    0    0    0    0 -0.00000000000E+00 -0.00000000000E+00 -0.45593999997E+02  0.45594000000E+02  0.51100000000E-03 0. -1.
    9900012    2    1    2    0    0 -0.32947728109E+00 -0.11324915107E+01 -0.44274298445E-01  0.90007723543E+02  0.89999984694E+02 0.  0.
        -12    1    1    2    0    0  0.32947728109E+00  0.11324915107E+01  0.44274298445E-01  0.11802764566E+01  0.00000000000E+00 0.  1.
         11    1    3    3    0    0  0.52071418925E+01  0.57006472918E+01 -0.71274081020E+01  0.10507694930E+02  0.51100000000E-03 0. -1.
        -11    1    3    3    0    0  0.37877189463E-01  0.35976825326E+02  0.20324513495E+01  0.36034209495E+02  0.51100000000E-03 0.  1.
         12    1    3    3    0    0 -0.55744963630E+01 -0.42809964128E+02  0.50506824540E+01  0.43465819118E+02  0.00000000000E+00 0. -1.
</event>
<event>
 7    1  0.2385752E-015  0.9000775E+02  0.7816164E-02  0.1186339E+00
        -11   -1    0    0    0    0  0.00000000000E+00  0.00000000000E+00  0.45593999997E+02  0.45594000000E+02  0.51100000000E-03 0.  1.
         11   -1    0    0    0    0 -0.00000000000E+00 -0.00000000000E+00 -0.45593999997E+02  0.45594000000E+02  0.51100000000E-03 0. -1.
    9900012    2    1    2    0    0 -0.25207622384E+00 -0.71226331097E+00 -0.90670935869E+00  0.90007752862E+02  0.90000014399E+02 0.  0.
        -12    1    1    2    0    0  0.25207622384E+00  0.71226331097E+00  0.90670935869E+00  0.11802471385E+01  0.00000000000E+00 0.  1.
         11    1    3    3    0    0  0.26825435329E+02  0.16633663020E+02 -0.17069650222E+02  0.35883919588E+02  0.51100000000E-03 0. -1.
        -11    1    3    3    0    0  0.44817405664E+01 -0.79216312919E+00 -0.92801680302E+01  0.10336103708E+02  0.51100000000E-03 0.  1.
        -12    1    3    3    0    0 -0.31559252119E+02 -0.16553763201E+02  0.25443108893E+02  0.43787729566E+02  0.00000000000E+00 0.  1.
</event>
<event>
 7    1  0.2385752E-015  0.9000781E+02  0.7816164E-02  0.1186339E+00
        -11   -1    0    0    0    0  0.00000000000E+00  0.00000000000E+00  0.45593999997E+02  0.45594000000E+02  0.51100000000E-03 0.  1.
         11   -1    0    0    0    0 -0.00000000000E+00 -0.00000000000E+00 -0.45593999997E+02  0.45594000000E+02  0.51100000000E-03 0. -1.
    9900012    2    1    2    0    0  0.93803031156E-01  0.12836725475E+00 -0.11694304432E+01  0.90007811573E+02  0.90000073886E+02 0.  0.
        -12    1    1    2    0    0 -0.93803031156E-01 -0.12836725475E+00  0.11694304432E+01  0.11801884266E+01  0.00000000000E+00 0.  1.
         11    1    3    3    0    0 -0.13981416840E+02  0.30124092361E+02 -0.24852188037E+02  0.41479780712E+02  0.51100000000E-03 0. -1.
        -11    1    3    3    0    0 -0.69494721288E+01 -0.20696776500E+01  0.56666394860E+01  0.92026915503E+01  0.51100000000E-03 0.  1.
        -12    1    3    3    0    0  0.21024692000E+02 -0.27926047456E+02  0.18016118108E+02  0.39325339311E+02  0.00000000000E+00 0.  1.
</event>
<event>
 7    1  0.2385752E-015  0.9000739E+02  0.7816164E-02  0.1186340E+00
        -11   -1    0    0    0    0  0.00000000000E+00  0.00000000000E+00  0.45593999997E+02  0.45594000000E+02  0.51100000000E-03 0.  1.
         11   -1    0    0    0    0 -0.00000000000E+00 -0.00000000000E+00 -0.45593999997E+02  0.45594000000E+02  0.51100000000E-03 0. -1.
    9900012    2    1    2    0    0 -0.60672262995E-01  0.11497949683E+01 -0.26100276103E+00  0.90007393362E+02  0.89999650154E+02 0.  0.
        -12    1    1    2    0    0  0.60672262995E-01 -0.11497949683E+01  0.26100276103E+00  0.11806066381E+01  0.00000000000E+00 0.  1.
         11    1    3    3    0    0  0.77301443316E+01 -0.10731996635E+01 -0.78099265983E+01  0.11040916748E+02  0.51100000000E-03 0. -1.
        -11    1    3    3    0    0  0.31866723807E+02 -0.10037954172E+02  0.15287312618E+02  0.36741673036E+02  0.51100000000E-03 0.  1.
         12    1    3    3    0    0 -0.39657540402E+02  0.12260948803E+02 -0.77383887806E+01  0.42224803578E+02  0.00000000000E+00 0. -1.
</event>
<event>
 7    1  0.2385752E-015  0.9000770E+02  0.7816164E-02  0.1186339E+00
        -11   -1    0    0    0    0  0.00000000000E+00  0.00000000000E+00  0.45593999997E+02  0.45594000000E+02  0.51100000000E-03 0. -1.
         11   -1    0    0    0    0 -0.00000000000E+00 -0.00000000000E+00 -0.45593999997E+02  0.45594000000E+02  0.51100000000E-03 0.  1.
    9900012    2    1    2    0    0  0.44488016082E+00  0.81766752087E+00  0.72568202985E+00  0.90007697945E+02  0.89999958758E+02 0.  0.
        -12    1    1    2    0    0 -0.44488016082E+00 -0.81766752087E+00 -0.72568202985E+00  0.11803020548E+01  0.00000000000E+00 0.  1.
         11    1    3    3    0    0 -0.66775599870E+00  0.14780308048E+02  0.32856814781E+02  0.36034340314E+02  0.51100000000E-03 0. -1.
        -11    1    3    3    0    0 -0.30214011100E+01  0.13768015356E+02 -0.49942258944E+01  0.14954243680E+02  0.51100000000E-03 0.  1.
        -12    1    3    3    0    0  0.41340372695E+01 -0.27730655882E+02 -0.27136906856E+02  0.39019113951E+02  0.00000000000E+00 0.  1.
</event>
<event>
 7    1  0.3154520E-015  0.9000779E+02  0.7816164E-02  0.1186339E+00
        -11   -1    0    0    0    0  0.00000000000E+00  0.00000000000E+00  0.45593999997E+02  0.45594000000E+02  0.51100000000E-03 0. -1.
         11   -1    0    0    0    0 -0.00000000000E+00 -0.00000000000E+00 -0.45593999997E+02  0.45594000000E+02  0.51100000000E-03 0.  1.
    9900012    2    1    2    0    0  0.64285292537E+00  0.55972394371E+00  0.81630528815E+00  0.90007785994E+02  0.90000047969E+02 0.  0.
        -12    1    1    2    0    0 -0.64285292537E+00 -0.55972394371E+00 -0.81630528815E+00  0.11802140061E+01  0.00000000000E+00 0.  1.
         11    1    3    3    0    0 -0.27115250894E+02 -0.64036423698E+01  0.25359358877E+02  0.37674136348E+02  0.51100000000E-03 0. -1.
        -11    1    3    3    0    0 -0.87610572914E+01  0.50266196503E+00 -0.22371561976E+01  0.90561394660E+01  0.51100000000E-03 0.  1.
        -12    1    3    3    0    0  0.36519161111E+02  0.64607043485E+01 -0.22305897391E+02  0.43277510180E+02  0.00000000000E+00 0.  1.
</event>
<event>
 7    1  0.2385752E-015  0.9000780E+02  0.7816164E-02  0.1186339E+00
        -11   -1    0    0    0    0  0.00000000000E+00  0.00000000000E+00  0.45593999997E+02  0.45594000000E+02  0.51100000000E-03 0.  1.
         11   -1    0    0    0    0 -0.00000000000E+00 -0.00000000000E+00 -0.45593999997E+02  0.45594000000E+02  0.51100000000E-03 0. -1.
    9900012    2    1    2    0    0  0.98584577119E+00 -0.64775658801E+00 -0.37254268576E-01  0.90007801558E+02  0.90000063739E+02 0.  0.
        -12    1    1    2    0    0 -0.98584577119E+00  0.64775658801E+00  0.37254268576E-01  0.11801984420E+01  0.00000000000E+00 0.  1.
         11    1    3    3    0    0  0.92380627554E+01  0.40961918133E+01  0.72177057031E+00  0.10131216307E+02  0.51100000000E-03 0. -1.
        -11    1    3    3    0    0 -0.14376661143E+02  0.69939087694E+01  0.36762122004E+02  0.40088112453E+02  0.51100000000E-03 0.  1.
         12    1    3    3    0    0  0.61244441593E+01 -0.11737857171E+02 -0.37521146843E+02  0.39788472798E+02  0.00000000000E+00 0. -1.
</event>
<event>
 7    1  0.2385752E-015  0.9000776E+02  0.7816164E-02  0.1186339E+00
        -11   -1    0    0    0    0  0.00000000000E+00  0.00000000000E+00  0.45593999997E+02  0.45594000000E+02  0.51100000000E-03 0.  1.
         11   -1    0    0    0    0 -0.00000000000E+00 -0.00000000000E+00 -0.45593999997E+02  0.45594000000E+02  0.51100000000E-03 0. -1.
    9900012    2    1    2    0    0  0.74050222256E-01  0.22940399725E+00 -0.11553635327E+01  0.90007756584E+02  0.90000018170E+02 0.  0.
        -12    1    1    2    0    0 -0.74050222256E-01 -0.22940399725E+00  0.11553635327E+01  0.11802434164E+01  0.00000000000E+00 0.  1.
         11    1    3    3    0    0 -0.88090912543E+01 -0.31636865927E+02 -0.18288130968E+02  0.37589188725E+02  0.51100000000E-03 0. -1.
        -11    1    3    3    0    0  0.80193588802E+00 -0.84134076239E+01  0.26240695508E+01  0.88495350320E+01  0.51100000000E-03 0.  1.
        -12    1    3    3    0    0  0.80812055885E+01  0.40279677548E+02  0.14508697885E+02  0.43569032827E+02  0.00000000000E+00 0.  1.
</event>
<event>
 7    1  0.2385752E-015  0.9000775E+02  0.7816164E-02  0.1186339E+00
        -11   -1    0    0    0    0  0.00000000000E+00  0.00000000000E+00  0.45593999997E+02  0.45594000000E+02  0.51100000000E-03 0. -1.
         11   -1    0    0    0    0 -0.00000000000E+00 -0.00000000000E+00 -0.45593999997E+02  0.45594000000E+02  0.51100000000E-03 0.  1.
    9900012    2    1    2    0    0  0.51020859737E+00 -0.45705858961E+00  0.96113610651E+00  0.90007746645E+02  0.90000008101E+02 0.  0.
        -12    1    1    2    0    0 -0.51020859737E+00  0.45705858961E+00 -0.96113610651E+00  0.11802533552E+01  0.00000000000E+00 0.  1.
         11    1    3    3    0    0 -0.58294601782E+01 -0.27125410900E+02  0.25714006870E+02  0.37828305170E+02  0.51100000000E-03 0. -1.
        -11    1    3    3    0    0 -0.19698115372E+01 -0.84717507975E+01 -0.97824419602E+01  0.13089953783E+02  0.51100000000E-03 0.  1.
        -12    1    3    3    0    0  0.83094803127E+01  0.35140103108E+02 -0.14970428803E+02  0.39089487692E+02  0.00000000000E+00 0.  1.
</event>
<event>
 7    1  0.2385752E-015  0.9000707E+02  0.7816164E-02  0.1186340E+00
        -11   -1    0    0    0    0  0.00000000000E+00  0.00000000000E+00  0.45593999997E+02  0.45594000000E+02  0.51100000000E-03 0. -1.
         11   -1    0    0    0    0 -0.00000000000E+00 -0.00000000000E+00 -0.45593999997E+02  0.45594000000E+02  0.51100000000E-03 0.  1.
    9900012    2    1    2    0    0 -0.44001734185E+00  0.10951740878E+01 -0.39820665424E-01  0.90007065104E+02  0.89999317561E+02 0.  0.
        -12    1    1    2    0    0  0.44001734185E+00 -0.10951740878E+01  0.39820665424E-01  0.11809348962E+01  0.00000000000E+00 0.  1.
         11    1    3    3    0    0 -0.95466942689E+00  0.69949448188E+01  0.51968601875E+01  0.87662992649E+01  0.51100000000E-03 0. -1.
        -11    1    3    3    0    0 -0.39914034596E+02 -0.33531938532E+01 -0.71455168996E+01  0.40687006265E+02  0.51100000000E-03 0.  1.
         12    1    3    3    0    0  0.40428686681E+02 -0.25465768778E+01  0.19088360466E+01  0.40553759574E+02  0.00000000000E+00 0. -1.
</event>
<event>
 7    1  0.2385752E-015  0.9000774E+02  0.7816164E-02  0.1186339E+00
        -11   -1    0    0    0    0  0.00000000000E+00  0.00000000000E+00  0.45593999997E+02  0.45594000000E+02  0.51100000000E-03 0. -1.
         11   -1    0    0    0    0 -0.00000000000E+00 -0.00000000000E+00 -0.45593999997E+02  0.45594000000E+02  0.51100000000E-03 0.  1.
    9900012    2    1    2    0    0  0.57636673371E+00 -0.55819511461E+00 -0.86557790088E+00  0.90007743460E+02  0.90000004874E+02 0.  0.
        -12    1    1    2    0    0 -0.57636673371E+00  0.55819511461E+00  0.86557790088E+00  0.11802565400E+01  0.00000000000E+00 0.  1.
         11    1    3    3    0    0 -0.21721587344E+02  0.91981995687E+01  0.32990314625E+02  0.40556073421E+02  0.51100000000E-03 0. -1.
        -11    1    3    3    0    0  0.96452627807E+01 -0.66776441490E+01  0.14503586549E+01  0.11820556923E+02  0.51100000000E-03 0.  1.
        -12    1    3    3    0    0  0.12652691297E+02 -0.30787505343E+01 -0.35306251180E+02  0.37631113116E+02  0.00000000000E+00 0.  1.
</event>
<event>
 7    1  0.2385752E-015  0.9000780E+02  0.7816164E-02  0.1186339E+00
        -11   -1    0    0    0    0  0.00000000000E+00  0.00000000000E+00  0.45593999997E+02  0.45594000000E+02  0.51100000000E-03 0.  1.
         11   -1    0    0    0    0 -0.00000000000E+00 -0.00000000000E+00 -0.45593999997E+02  0.45594000000E+02  0.51100000000E-03 0. -1.
    9900012    2    1    2    0    0 -0.76543313322E+00  0.89762081127E+00  0.35512008168E-01  0.90007799972E+02  0.90000062132E+02 0.  0.
        -12    1    1    2    0    0  0.76543313322E+00 -0.89762081127E+00 -0.35512008168E-01  0.11802000275E+01  0.00000000000E+00 0.  1.
         11    1    3    3    0    0 -0.48982792135E+01  0.40587607640E+01 -0.34002265374E+01  0.72130589184E+01  0.51100000000E-03 0. -1.
        -11    1    3    3    0    0 -0.31187799678E+02  0.19979771626E+02 -0.10206875796E+02  0.38419401827E+02  0.51100000000E-03 0.  1.
         12    1    3    3    0    0  0.35320645758E+02 -0.23140911579E+02  0.13642614341E+02  0.44375339227E+02  0.00000000000E+00 0. -1.
</event>
<event>
 7    1  0.2385752E-015  0.9000779E+02  0.7816164E-02  0.1186339E+00
        -11   -1    0    0    0    0  0.00000000000E+00  0.00000000000E+00  0.45593999997E+02  0.45594000000E+02  0.51100000000E-03 0. -1.
         11   -1    0    0    0    0 -0.00000000000E+00 -0.00000000000E+00 -0.45593999997E+02  0.45594000000E+02  0.51100000000E-03 0.  1.
    9900012    2    1    2    0    0  0.39781693426E-01  0.33479309958E+00  0.11310331763E+01  0.90007786016E+02  0.90000047991E+02 0.  0.
        -12    1    1    2    0    0 -0.39781693426E-01 -0.33479309958E+00 -0.11310331763E+01  0.11802139843E+01  0.00000000000E+00 0.  1.
         11    1    3    3    0    0  0.43590638085E+01 -0.26828496312E+02  0.18648574954E+02  0.32962691027E+02  0.51100000000E-03 0. -1.
        -11    1    3    3    0    0 -0.15138147720E+01 -0.72007281071E+01  0.10359527339E+02  0.12706766992E+02  0.51100000000E-03 0.  1.
        -12    1    3    3    0    0 -0.28054673430E+01  0.34364017519E+02 -0.27877069117E+02  0.44338327997E+02  0.00000000000E+00 0.  1.
</event>
<event>
 7    1  0.2385752E-015  0.9000770E+02  0.7816164E-02  0.1186339E+00
        -11   -1    0    0    0    0  0.00000000000E+00  0.00000000000E+00  0.45593999997E+02  0.45594000000E+02  0.51100000000E-03 0.  1.
         11   -1    0    0    0    0 -0.00000000000E+00 -0.00000000000E+00 -0.45593999997E+02  0.45594000000E+02  0.51100000000E-03 0. -1.
    9900012    2    1    2    0    0 -0.77101902343E+00 -0.18743902691E+00  0.87378862475E+00  0.90007699071E+02  0.89999959898E+02 0.  0.
        -12    1    1    2    0    0  0.77101902343E+00  0.18743902691E+00 -0.87378862475E+00  0.11803009294E+01  0.00000000000E+00 0.  1.
         11    1    3    3    0    0 -0.90222491995E+01 -0.65034231039E+01  0.84883585158E+00  0.11154192721E+02  0.51100000000E-03 0. -1.
        -11    1    3    3    0    0 -0.74297333520E+01 -0.34141601199E+02  0.45169431243E+01  0.35231415606E+02  0.51100000000E-03 0.  1.
         12    1    3    3    0    0  0.15680963528E+02  0.40457585276E+02 -0.44919903511E+01  0.43622090744E+02  0.00000000000E+00 0. -1.
</event>
<event>
 7    1  0.2385752E-015  0.9000775E+02  0.7816164E-02  0.1186339E+00
        -11   -1    0    0    0    0  0.00000000000E+00  0.00000000000E+00  0.45593999997E+02  0.45594000000E+02  0.51100000000E-03 0. -1.
         11   -1    0    0    0    0 -0.00000000000E+00 -0.00000000000E+00 -0.45593999997E+02  0.45594000000E+02  0.51100000000E-03 0.  1.
    9900012    2    1    2    0    0  0.18637749361E+00  0.67227721652E+00  0.95199217515E+00  0.90007753277E+02  0.90000014820E+02 0.  0.
        -12    1    1    2    0    0 -0.18637749361E+00 -0.67227721652E+00 -0.95199217515E+00  0.11802467232E+01  0.00000000000E+00 0.  1.
         11    1    3    3    0    0 -0.70437305429E+01 -0.66610407003E+01  0.22584080499E+01  0.99540951550E+01  0.51100000000E-03 0. -1.
        -11    1    3    3    0    0 -0.23183925473E+02 -0.99930362817E+01 -0.26748611106E+02  0.36781019165E+02  0.51100000000E-03 0.  1.
         12    1    3    3    0    0  0.30414033509E+02  0.17326354199E+02  0.25442195231E+02  0.43272638957E+02  0.00000000000E+00 0. -1.
</event>
<event>
 7    1  0.2385752E-015  0.9000773E+02  0.7816164E-02  0.1186339E+00
        -11   -1    0    0    0    0  0.00000000000E+00  0.00000000000E+00  0.45593999997E+02  0.45594000000E+02  0.51100000000E-03 0.  1.
         11   -1    0    0    0    0 -0.00000000000E+00 -0.00000000000E+00 -0.45593999997E+02  0.45594000000E+02  0.51100000000E-03 0. -1.
    9900012    2    1    2    0    0 -0.92702050488E+00  0.12400912182E+00 -0.71993094633E+00  0.90007726368E+02  0.89999987556E+02 0.  0.
        -12    1    1    2    0    0  0.92702050488E+00 -0.12400912182E+00  0.71993094633E+00  0.11802736319E+01  0.00000000000E+00 0.  1.
         11    1    3    3    0    0  0.60743478812E+01 -0.11501644134E+01 -0.34974308504E+02  0.35516514975E+02  0.51100000000E-03 0. -1.
        -11    1    3    3    0    0 -0.25590582779E+00  0.26506559335E+01 -0.96703155760E+01  0.10030277577E+02  0.51100000000E-03 0.  1.
        -12    1    3    3    0    0 -0.67454625583E+01 -0.13764823983E+01  0.43924693134E+02  0.44460933816E+02  0.00000000000E+00 0.  1.
</event>
<event>
 7    1  0.2385752E-015  0.9000776E+02  0.7816164E-02  0.1186339E+00
        -11   -1    0    0    0    0  0.00000000000E+00  0.00000000000E+00  0.45593999997E+02  0.45594000000E+02  0.51100000000E-03 0.  1.
         11   -1    0    0    0    0 -0.00000000000E+00 -0.00000000000E+00 -0.45593999997E+02  0.45594000000E+02  0.51100000000E-03 0. -1.
    9900012    2    1    2    0    0  0.62429620740E+00  0.99406107344E+00 -0.12271775165E+00  0.90007761542E+02  0.90000023194E+02 0.  0.
        -12    1    1    2    0    0 -0.62429620740E+00 -0.99406107344E+00  0.12271775165E+00  0.11802384585E+01  0.00000000000E+00 0.  1.
         11    1    3    3    0    0 -0.17738368273E+01  0.62962142053E+01  0.67422498150E+01  0.93939737725E+01  0.51100000000E-03 0. -1.
        -11    1    3    3    0    0  0.17860250031E+02  0.79659171465E+01  0.31556213309E+02  0.37124640952E+02  0.51100000000E-03 0.  1.
         12    1    3    3    0    0 -0.15462116996E+02 -0.13268070278E+02 -0.38421180876E+02  0.43489146817E+02  0.00000000000E+00 0. -1.
</event>
<event>
 7    1  0.2385752E-015  0.9000772E+02  0.7816164E-02  0.1186339E+00
        -11   -1    0    0    0    0  0.00000000000E+00  0.00000000000E+00  0.45593999997E+02  0.45594000000E+02  0.51100000000E-03 0. -1.
         11   -1    0    0    0    0 -0.00000000000E+00 -0.00000000000E+00 -0.45593999997E+02  0.45594000000E+02  0.51100000000E-03 0.  1.
    9900012    2    1    2    0    0 -0.93929705581E+00  0.50547757470E+00  0.50523754042E+00  0.90007723969E+02  0.89999985125E+02 0.  0.
        -12    1    1    2    0    0  0.93929705581E+00 -0.50547757470E+00 -0.50523754042E+00  0.11802760312E+01  0.00000000000E+00 0.  1.
         11    1    3    3    0    0  0.36131415443E+01  0.58857925891E+01 -0.56815988020E+01  0.89430370361E+01  0.51100000000E-03 0. -1.
        -11    1    3    3    0    0 -0.39627257290E+01 -0.39026707841E+02 -0.14201148482E+02  0.41718817560E+02  0.51100000000E-03 0.  1.
         12    1    3    3    0    0 -0.58971287119E+00  0.33646392827E+02  0.20387984825E+02  0.39345869373E+02  0.00000000000E+00 0. -1.
</event>
<event>
 7    1  0.2385752E-015  0.9000772E+02  0.7816164E-02  0.1186339E+00
        -11   -1    0    0    0    0  0.00000000000E+00  0.00000000000E+00  0.45593999997E+02  0.45594000000E+02  0.51100000000E-03 0. -1.
         11   -1    0    0    0    0 -0.00000000000E+00 -0.00000000000E+00 -0.45593999997E+02  0.45594000000E+02  0.51100000000E-03 0.  1.
    9900012    2    1    2    0    0 -0.45539865222E+00  0.10695381861E+01  0.20434103892E+00  0.90007722438E+02  0.89999983574E+02 0.  0.
        -12    1    1    2    0    0  0.45539865222E+00 -0.10695381861E+01 -0.20434103892E+00  0.11802775623E+01  0.00000000000E+00 0.  1.
         11    1    3    3    0    0  0.43121661278E+01 -0.18473597355E+02 -0.31670509775E+01  0.19232753004E+02  0.51100000000E-03 0. -1.
        -11    1    3    3    0    0  0.30784668383E+02  0.88552738737E+01  0.88883689603E+01  0.33243266775E+02  0.51100000000E-03 0.  1.
         12    1    3    3    0    0 -0.35552233163E+02  0.10687861668E+02 -0.55169769438E+01  0.37531702659E+02  0.00000000000E+00 0. -1.
</event>
<event>
 7    1  0.2385752E-015  0.9000769E+02  0.7816164E-02  0.1186339E+00
        -11   -1    0    0    0    0  0.00000000000E+00  0.00000000000E+00  0.45593999997E+02  0.45594000000E+02  0.51100000000E-03 0. -1.
         11   -1    0    0    0    0 -0.00000000000E+00 -0.00000000000E+00 -0.45593999997E+02  0.45594000000E+02  0.51100000000E-03 0.  1.
    9900012    2    1    2    0    0  0.75260750670E+00 -0.73673124814E+00 -0.53285241614E+00  0.90007693816E+02  0.89999954574E+02 0.  0.
        -12    1    1    2    0    0 -0.75260750670E+00  0.73673124814E+00  0.53285241614E+00  0.11803061842E+01  0.00000000000E+00 0.  1.
         11    1    3    3    0    0  0.66008047724E+01 -0.73904824688E+01  0.16373096226E+01  0.10043437550E+02  0.51100000000E-03 0. -1.
        -11    1    3    3    0    0  0.24415091286E+01 -0.33945869735E+02  0.12127358458E+02  0.36129708860E+02  0.51100000000E-03 0.  1.
         12    1    3    3    0    0 -0.82897063944E+01  0.40599620956E+02 -0.14297520497E+02  0.43834547405E+02  0.00000000000E+00 0. -1.
</event>
<event>
 7    1  0.2385752E-015  0.9000776E+02  0.7816164E-02  0.1186339E+00
        -11   -1    0    0    0    0  0.00000000000E+00  0.00000000000E+00  0.45593999997E+02  0.45594000000E+02  0.51100000000E-03 0.  1.
         11   -1    0    0    0    0 -0.00000000000E+00 -0.00000000000E+00 -0.45593999997E+02  0.45594000000E+02  0.51100000000E-03 0. -1.
    9900012    2    1    2    0    0  0.91144354186E+00 -0.30595293483E+00 -0.68456822726E+00  0.90007758420E+02  0.90000020032E+02 0.  0.
        -12    1    1    2    0    0 -0.91144354186E+00  0.30595293483E+00  0.68456822726E+00  0.11802415795E+01  0.00000000000E+00 0.  1.
         11    1    3    3    0    0 -0.29346678239E+02  0.23403992628E+02 -0.18483507635E+02  0.41840344756E+02  0.51100000000E-03 0. -1.
        -11    1    3    3    0    0 -0.25466123256E+01 -0.65820628660E+01  0.61756684741E+01  0.93780417610E+01  0.51100000000E-03 0.  1.
        -12    1    3    3    0    0  0.32804734106E+02 -0.17127882697E+02  0.11623270933E+02  0.38789371903E+02  0.00000000000E+00 0.  1.
</event>
<event>
 7    1  0.2385752E-015  0.9000777E+02  0.7816164E-02  0.1186339E+00
        -11   -1    0    0    0    0  0.00000000000E+00  0.00000000000E+00  0.45593999997E+02  0.45594000000E+02  0.51100000000E-03 0.  1.
         11   -1    0    0    0    0 -0.00000000000E+00 -0.00000000000E+00 -0.45593999997E+02  0.45594000000E+02  0.51100000000E-03 0. -1.
    9900012    2    1    2    0    0 -0.22426185629E-01  0.61110759112E-01 -0.11784332970E+01  0.90007770152E+02  0.90000031918E+02 0.  0.
        -12    1    1    2    0    0  0.22426185629E-01 -0.61110759112E-01  0.11784332970E+01  0.11802298481E+01  0.00000000000E+00 0.  1.
         11    1    3    3    0    0 -0.21379097140E+02 -0.77600905685E+01 -0.77330941923E+01  0.24022604900E+02  0.51100000000E-03 0. -1.
        -11    1    3    3    0    0 -0.99674182564E+01  0.22461435383E+02  0.16981936874E+02  0.29870582291E+02  0.51100000000E-03 0.  1.
         12    1    3    3    0    0  0.31324089211E+02 -0.14640234055E+02 -0.10427275979E+02  0.36114582960E+02  0.00000000000E+00 0. -1.
</event>
<event>
 7    1  0.2385752E-015  0.9000784E+02  0.7816164E-02  0.1186339E+00
        -11   -1    0    0    0    0  0.00000000000E+00  0.00000000000E+00  0.45593999997E+02  0.45594000000E+02  0.51100000000E-03 0. -1.
         11   -1    0    0    0    0 -0.00000000000E+00 -0.00000000000E+00 -0.45593999997E+02  0.45594000000E+02  0.51100000000E-03 0.  1.
    9900012    2    1    2    0    0  0.11441919170E+01 -0.46008211810E-01 -0.28546530743E+00  0.90007838003E+02  0.90000100664E+02 0.  0.
        -12    1    1    2    0    0 -0.11441919170E+01  0.46008211810E-01  0.28546530743E+00  0.11801619975E+01  0.00000000000E+00 0.  1.
         11    1    3    3    0    0 -0.29976423745E+01  0.57558835058E+01  0.43507875967E+01  0.78131560660E+01  0.51100000000E-03 0. -1.
        -11    1    3    3    0    0 -0.16233817656E+02  0.32704376640E+02  0.68321693185E+01  0.37145546502E+02  0.51100000000E-03 0.  1.
         12    1    3    3    0    0  0.20375651948E+02 -0.38506268357E+02 -0.11468422223E+02  0.45049135434E+02  0.00000000000E+00 0. -1.
</event>
<event>
 7    1  0.2385752E-015  0.9000773E+02  0.7816164E-02  0.1186339E+00
        -11   -1    0    0    0    0  0.00000000000E+00  0.00000000000E+00  0.45593999997E+02  0.45594000000E+02  0.51100000000E-03 0. -1.
         11   -1    0    0    0    0 -0.00000000000E+00 -0.00000000000E+00 -0.45593999997E+02  0.45594000000E+02  0.51100000000E-03 0.  1.
    9900012    2    1    2    0    0  0.68878027665E+00 -0.58510437682E-01  0.95665748695E+00  0.90007730841E+02  0.89999992088E+02 0.  0.
        -12    1    1    2    0    0 -0.68878027665E+00  0.58510437682E-01 -0.95665748695E+00  0.11802691592E+01  0.00000000000E+00 0.  1.
         11    1    3    3    0    0 -0.77558079834E+00 -0.94076433170E+01  0.15708730648E+01  0.95693741071E+01  0.51100000000E-03 0. -1.
        -11    1    3    3    0    0  0.11743008277E+02 -0.11300922698E+02 -0.35243859896E+02  0.38829611868E+02  0.51100000000E-03 0.  1.
         12    1    3    3    0    0 -0.10278647202E+02  0.20650055577E+02  0.34629644318E+02  0.41608744865E+02  0.00000000000E+00 0. -1.
</event>
<event>
 7    1  0.2385752E-015  0.9000773E+02  0.7816164E-02  0.1186339E+00
        -11   -1    0    0    0    0  0.00000000000E+00  0.00000000000E+00  0.45593999997E+02  0.45594000000E+02  0.51100000000E-03 0.  1.
         11   -1    0    0    0    0 -0.00000000000E+00 -0.00000000000E+00 -0.45593999997E+02  0.45594000000E+02  0.51100000000E-03 0. -1.
    9900012    2    1    2    0    0 -0.98000741198E+00  0.31007286509E+00 -0.58006323003E+00  0.90007731785E+02  0.89999993044E+02 0.  0.
        -12    1    1    2    0    0  0.98000741198E+00 -0.31007286509E+00  0.58006323003E+00  0.11802682153E+01  0.00000000000E+00 0.  1.
         11    1    3    3    0    0  0.26978004832E+02 -0.98118635086E+01 -0.70822715191E+01  0.29567617090E+02  0.51100000000E-03 0. -1.
        -11    1    3    3    0    0  0.29917810531E+01 -0.40861165249E+01 -0.17862497487E+02  0.18566526839E+02  0.51100000000E-03 0.  1.
        -12    1    3    3    0    0 -0.30949793298E+02  0.14208052899E+02  0.24364705776E+02  0.41873587856E+02  0.00000000000E+00 0.  1.
</event>
<event>
 7    1  0.2385752E-015  0.9000775E+02  0.7816164E-02  0.1186339E+00
        -11   -1    0    0    0    0  0.00000000000E+00  0.00000000000E+00  0.45593999997E+02  0.45594000000E+02  0.51100000000E-03 0.  1.
         11   -1    0    0    0    0 -0.00000000000E+00 -0.00000000000E+00 -0.45593999997E+02  0.45594000000E+02  0.51100000000E-03 0. -1.
    9900012    2    1    2    0    0  0.11292233214E+01 -0.29464443811E+00  0.17615423998E+00  0.90007749615E+02  0.90000011110E+02 0.  0.
        -12    1    1    2    0    0 -0.11292233214E+01  0.29464443811E+00 -0.17615423998E+00  0.11802503848E+01  0.00000000000E+00 0.  1.
         11    1    3    3    0    0 -0.26569823884E+02 -0.19990166909E+02  0.22381403507E+02  0.40081037131E+02  0.51100000000E-03 0. -1.
        -11    1    3    3    0    0  0.33382743575E+01 -0.68742572878E+01 -0.83218941429E+01  0.11298380916E+02  0.51100000000E-03 0.  1.
        -12    1    3    3    0    0  0.24360772848E+02  0.26569779759E+02 -0.13883355124E+02  0.38628331568E+02  0.00000000000E+00 0.  1.
</event>
<event>
 7    1  0.2385752E-015  0.9000774E+02  0.7816164E-02  0.1186339E+00
        -11   -1    0    0    0    0  0.00000000000E+00  0.00000000000E+00  0.45593999997E+02  0.45594000000E+02  0.51100000000E-03 0.  1.
         11   -1    0    0    0    0 -0.00000000000E+00 -0.00000000000E+00 -0.45593999997E+02  0.45594000000E+02  0.51100000000E-03 0. -1.
    9900012    2    1    2    0    0 -0.69287756021E+00 -0.91706938216E+00 -0.26815520266E+00  0.90007744613E+02  0.90000006042E+02 0.  0.
        -12    1    1    2    0    0  0.69287756021E+00  0.91706938216E+00  0.26815520266E+00  0.11802553867E+01  0.00000000000E+00 0.  1.
         11    1    3    3    0    0 -0.82523512612E+01 -0.30396619021E+01 -0.55306088215E+00  0.88117377638E+01  0.51100000000E-03 0. -1.
        -11    1    3    3    0    0 -0.62989045961E+01 -0.23566019133E+02  0.30586790393E+02  0.39122694229E+02  0.51100000000E-03 0.  1.
         12    1    3    3    0    0  0.13858378297E+02  0.25688611653E+02 -0.30301884714E+02  0.42073312621E+02  0.00000000000E+00 0. -1.
</event>
<event>
 7    1  0.2385752E-015  0.9000774E+02  0.7816164E-02  0.1186339E+00
        -11   -1    0    0    0    0  0.00000000000E+00  0.00000000000E+00  0.45593999997E+02  0.45594000000E+02  0.51100000000E-03 0.  1.
         11   -1    0    0    0    0 -0.00000000000E+00 -0.00000000000E+00 -0.45593999997E+02  0.45594000000E+02  0.51100000000E-03 0. -1.
    9900012    2    1    2    0    0  0.23738354342E+00  0.92434856825E+00 -0.69443087239E+00  0.90007743478E+02  0.90000004891E+02 0.  0.
        -12    1    1    2    0    0 -0.23738354342E+00 -0.92434856825E+00  0.69443087239E+00  0.11802565225E+01  0.00000000000E+00 0.  1.
         11    1    3    3    0    0  0.68866371619E+01 -0.43929314813E+01 -0.36283377998E+01  0.89380341155E+01  0.51100000000E-03 0. -1.
        -11    1    3    3    0    0  0.26673114073E+02 -0.11035197923E+02 -0.22051908185E+02  0.36325160184E+02  0.51100000000E-03 0.  1.
         12    1    3    3    0    0 -0.33322367691E+02  0.16352477972E+02  0.24985815112E+02  0.44744549178E+02  0.00000000000E+00 0. -1.
</event>
<event>
 7    1  0.2385752E-015  0.9000771E+02  0.7816164E-02  0.1186339E+00
        -11   -1    0    0    0    0  0.00000000000E+00  0.00000000000E+00  0.45593999997E+02  0.45594000000E+02  0.51100000000E-03 0.  1.
         11   -1    0    0    0    0 -0.00000000000E+00 -0.00000000000E+00 -0.45593999997E+02  0.45594000000E+02  0.51100000000E-03 0. -1.
    9900012    2    1    2    0    0 -0.44575336512E+00  0.68609249762E+00 -0.85068462649E+00  0.90007710497E+02  0.89999971475E+02 0.  0.
        -12    1    1    2    0    0  0.44575336512E+00 -0.68609249762E+00  0.85068462649E+00  0.11802895033E+01  0.00000000000E+00 0.  1.
         11    1    3    3    0    0  0.15515862908E+02  0.13011244257E+02 -0.35413968015E+02  0.40794406599E+02  0.51100000000E-03 0. -1.
        -11    1    3    3    0    0 -0.80787942595E+01  0.67217168333E+01  0.20368885530E+01  0.10705013270E+02  0.51100000000E-03 0.  1.
        -12    1    3    3    0    0 -0.78828220140E+01 -0.19046868593E+02  0.32526394835E+02  0.38508290628E+02  0.00000000000E+00 0.  1.
</event>
<event>
 7    1  0.2385752E-015  0.9000771E+02  0.7816164E-02  0.1186339E+00
        -11   -1    0    0    0    0  0.00000000000E+00  0.00000000000E+00  0.45593999997E+02  0.45594000000E+02  0.51100000000E-03 0.  1.
         11   -1    0    0    0    0 -0.00000000000E+00 -0.00000000000E+00 -0.45593999997E+02  0.45594000000E+02  0.51100000000E-03 0. -1.
    9900012    2    1    2    0    0  0.10699591307E+01  0.39949115423E+00 -0.29780957760E+00  0.90007705008E+02  0.89999965914E+02 0.  0.
        -12    1    1    2    0    0 -0.10699591307E+01 -0.39949115423E+00  0.29780957760E+00  0.11802949921E+01  0.00000000000E+00 0.  1.
         11    1    3    3    0    0 -0.85093727115E+01 -0.17985418493E+02  0.37641305337E+02  0.42576432096E+02  0.51100000000E-03 0. -1.
        -11    1    3    3    0    0  0.28179286274E+00 -0.40078547645E+01 -0.75731322519E+01  0.85729014573E+01  0.51100000000E-03 0.  1.
        -12    1    3    3    0    0  0.92975389795E+01  0.22392764412E+02 -0.30365982662E+02  0.38858371455E+02  0.00000000000E+00 0.  1.
</event>
<event>
 7    1  0.2385752E-015  0.9000765E+02  0.7816164E-02  0.1186339E+00
        -11   -1    0    0    0    0  0.00000000000E+00  0.00000000000E+00  0.45593999997E+02  0.45594000000E+02  0.51100000000E-03 0. -1.
         11   -1    0    0    0    0 -0.00000000000E+00 -0.00000000000E+00 -0.45593999997E+02  0.45594000000E+02  0.51100000000E-03 0.  1.
    9900012    2    1    2    0    0 -0.94546575311E+00 -0.52169579248E+00  0.47659871554E+00  0.90007653303E+02  0.89999913526E+02 0.  0.
        -12    1    1    2    0    0  0.94546575311E+00  0.52169579248E+00 -0.47659871554E+00  0.11803466973E+01  0.00000000000E+00 0.  1.
         11    1    3    3    0    0 -0.11918493794E+02 -0.21574275097E+02 -0.24986189979E+02  0.35097144189E+02  0.51100000000E-03 0. -1.
        -11    1    3    3    0    0 -0.54012777295E+01 -0.43653750227E+01 -0.74723548189E+01  0.10201293398E+02  0.51100000000E-03 0.  1.
        -12    1    3    3    0    0  0.16374305770E+02  0.25417954327E+02  0.32935143514E+02  0.44709215716E+02  0.00000000000E+00 0.  1.
</event>
<event>
 7    1  0.2385752E-015  0.9000771E+02  0.7816164E-02  0.1186339E+00
        -11   -1    0    0    0    0  0.00000000000E+00  0.00000000000E+00  0.45593999997E+02  0.45594000000E+02  0.51100000000E-03 0.  1.
         11   -1    0    0    0    0 -0.00000000000E+00 -0.00000000000E+00 -0.45593999997E+02  0.45594000000E+02  0.51100000000E-03 0. -1.
    9900012    2    1    2    0    0  0.20296188890E+00  0.91399385623E+00 -0.71868969841E+00  0.90007706316E+02  0.89999967240E+02 0.  0.
        -12    1    1    2    0    0 -0.20296188890E+00 -0.91399385623E+00  0.71868969841E+00  0.11802936839E+01  0.00000000000E+00 0.  1.
         11    1    3    3    0    0 -0.81840135535E+01 -0.32876520534E+01  0.61755147248E+01  0.10766787647E+02  0.51100000000E-03 0. -1.
        -11    1    3    3    0    0  0.30118421306E+02  0.84740515710E+01  0.25249964584E+02  0.40205591200E+02  0.51100000000E-03 0.  1.
         12    1    3    3    0    0 -0.21731445863E+02 -0.42724056614E+01 -0.32144169007E+02  0.39035327469E+02  0.00000000000E+00 0. -1.
</event>
<event>
 7    1  0.2385752E-015  0.9000790E+02  0.7816164E-02  0.1186339E+00
        -11   -1    0    0    0    0  0.00000000000E+00  0.00000000000E+00  0.45593999997E+02  0.45594000000E+02  0.51100000000E-03 0. -1.
         11   -1    0    0    0    0 -0.00000000000E+00 -0.00000000000E+00 -0.45593999997E+02  0.45594000000E+02  0.51100000000E-03 0.  1.
    9900012    2    1    2    0    0 -0.28060568858E+00  0.81422831284E+00  0.80680348405E+00  0.90007898665E+02  0.90000162128E+02 0.  0.
        -12    1    1    2    0    0  0.28060568858E+00 -0.81422831284E+00 -0.80680348405E+00  0.11801013345E+01  0.00000000000E+00 0.  1.
         11    1    3    3    0    0 -0.76757715383E+01 -0.52556629929E+01  0.59838743316E+00  0.93218844653E+01  0.51100000000E-03 0. -1.
        -11    1    3    3    0    0 -0.28040923627E+02 -0.20759408293E+02  0.73887156459E+01  0.35662859528E+02  0.51100000000E-03 0.  1.
         12    1    3    3    0    0  0.35436089477E+02  0.26829299599E+02 -0.71802995951E+01  0.45023154672E+02  0.00000000000E+00 0. -1.
</event>
<event>
 7    1  0.2385752E-015  0.9000765E+02  0.7816164E-02  0.1186339E+00
        -11   -1    0    0    0    0  0.00000000000E+00  0.00000000000E+00  0.45593999997E+02  0.45594000000E+02  0.51100000000E-03 0.  1.
         11   -1    0    0    0    0 -0.00000000000E+00 -0.00000000000E+00 -0.45593999997E+02  0.45594000000E+02  0.51100000000E-03 0. -1.
    9900012    2    1    2    0    0  0.69144989328E+00 -0.83698396806E+00 -0.46323777679E+00  0.90007646512E+02  0.89999906646E+02 0.  0.
        -12    1    1    2    0    0 -0.69144989328E+00  0.83698396806E+00  0.46323777679E+00  0.11803534875E+01  0.00000000000E+00 0.  1.
         11    1    3    3    0    0  0.17783462082E+02 -0.34119771015E+02 -0.15825509628E+02  0.41603570195E+02  0.51100000000E-03 0. -1.
        -11    1    3    3    0    0 -0.90858411282E+01 -0.22981549597E+01  0.21619027765E+01  0.96181000775E+01  0.51100000000E-03 0.  1.
        -12    1    3    3    0    0 -0.80061710604E+01  0.35580942007E+02  0.13200369075E+02  0.38785976240E+02  0.00000000000E+00 0.  1.
</event>
<event>
 7    1  0.2385752E-015  0.9000769E+02  0.7816164E-02  0.1186339E+00
        -11   -1    0    0    0    0  0.00000000000E+00  0.00000000000E+00  0.45593999997E+02  0.45594000000E+02  0.51100000000E-03 0. -1.
         11   -1    0    0    0    0 -0.00000000000E+00 -0.00000000000E+00 -0.45593999997E+02  0.45594000000E+02  0.51100000000E-03 0.  1.
    9900012    2    1    2    0    0  0.42352714942E-01 -0.22079040369E-01  0.11793403166E+01  0.90007692913E+02  0.89999953660E+02 0.  0.
        -12    1    1    2    0    0 -0.42352714942E-01  0.22079040369E-01 -0.11793403166E+01  0.11803070866E+01  0.00000000000E+00 0.  1.
         11    1    3    3    0    0 -0.37006134346E+02 -0.16946106104E+02  0.24117047459E+01  0.40773040252E+02  0.51100000000E-03 0. -1.
        -11    1    3    3    0    0 -0.38687250749E+00  0.72948257551E+01 -0.70419194089E+01  0.10146565052E+02  0.51100000000E-03 0.  1.
        -12    1    3    3    0    0  0.37435359569E+02  0.96292013087E+01  0.58095549795E+01  0.39088087609E+02  0.00000000000E+00 0.  1.
</event>
<event>
 7    1  0.2385752E-015  0.9000765E+02  0.7816164E-02  0.1186339E+00
        -11   -1    0    0    0    0  0.00000000000E+00  0.00000000000E+00  0.45593999997E+02  0.45594000000E+02  0.51100000000E-03 0.  1.
         11   -1    0    0    0    0 -0.00000000000E+00 -0.00000000000E+00 -0.45593999997E+02  0.45594000000E+02  0.51100000000E-03 0. -1.
    9900012    2    1    2    0    0 -0.31171442953E+00 -0.10479341350E+01 -0.44486474267E+00  0.90007645614E+02  0.89999905736E+02 0.  0.
        -12    1    1    2    0    0  0.31171442953E+00  0.10479341350E+01  0.44486474267E+00  0.11803543859E+01  0.00000000000E+00 0.  1.
         11    1    3    3    0    0 -0.26437671403E+02 -0.24683524511E+02  0.69204218898E+01  0.36825522276E+02  0.51100000000E-03 0. -1.
        -11    1    3    3    0    0 -0.13612476849E+01 -0.95003318367E+01 -0.19041392966E+01  0.97844288024E+01  0.51100000000E-03 0.  1.
        -12    1    3    3    0    0  0.27487204658E+02  0.33135922213E+02 -0.54611473359E+01  0.43397694536E+02  0.00000000000E+00 0.  1.
</event>
<event>
 7    1  0.2385752E-015  0.9000777E+02  0.7816164E-02  0.1186339E+00
        -11   -1    0    0    0    0  0.00000000000E+00  0.00000000000E+00  0.45593999997E+02  0.45594000000E+02  0.51100000000E-03 0.  1.
         11   -1    0    0    0    0 -0.00000000000E+00 -0.00000000000E+00 -0.45593999997E+02  0.45594000000E+02  0.51100000000E-03 0. -1.
    9900012    2    1    2    0    0  0.71232061610E+00 -0.85319464692E+00 -0.39698309913E+00  0.90007772333E+02  0.90000034127E+02 0.  0.
        -12    1    1    2    0    0 -0.71232061610E+00  0.85319464692E+00  0.39698309913E+00  0.11802276673E+01  0.00000000000E+00 0.  1.
         11    1    3    3    0    0 -0.71565509680E+01  0.23988438983E+02  0.76278345792E+01  0.26169548854E+02  0.51100000000E-03 0. -1.
        -11    1    3    3    0    0  0.13033477681E+02 -0.64880783971E+01  0.23119163307E+02  0.27321464347E+02  0.51100000000E-03 0.  1.
         12    1    3    3    0    0 -0.51646060973E+01 -0.18353555233E+02 -0.31143980986E+02  0.36516759132E+02  0.00000000000E+00 0. -1.
</event>
<event>
 7    1  0.2385752E-015  0.9000780E+02  0.7816164E-02  0.1186339E+00
        -11   -1    0    0    0    0  0.00000000000E+00  0.00000000000E+00  0.45593999997E+02  0.45594000000E+02  0.51100000000E-03 0. -1.
         11   -1    0    0    0    0 -0.00000000000E+00 -0.00000000000E+00 -0.45593999997E+02  0.45594000000E+02  0.51100000000E-03 0.  1.
    9900012    2    1    2    0    0  0.62009688431E+00  0.99998181655E+00 -0.91609705353E-01  0.90007798273E+02  0.90000060410E+02 0.  0.
        -12    1    1    2    0    0 -0.62009688431E+00 -0.99998181655E+00  0.91609705353E-01  0.11802017275E+01  0.00000000000E+00 0.  1.
         11    1    3    3    0    0  0.25226395576E+02  0.72029943639E+01  0.25644193526E+02  0.36686221166E+02  0.51100000000E-03 0. -1.
        -11    1    3    3    0    0  0.21977534575E+01  0.11409391992E+02  0.86762698413E+00  0.11651485860E+02  0.51100000000E-03 0.  1.
        -12    1    3    3    0    0 -0.26804052149E+02 -0.17612404540E+02 -0.26603430216E+02  0.41670091247E+02  0.00000000000E+00 0.  1.
</event>
<event>
 7    1  0.2385752E-015  0.9000774E+02  0.7816164E-02  0.1186339E+00
        -11   -1    0    0    0    0  0.00000000000E+00  0.00000000000E+00  0.45593999997E+02  0.45594000000E+02  0.51100000000E-03 0. -1.
         11   -1    0    0    0    0 -0.00000000000E+00 -0.00000000000E+00 -0.45593999997E+02  0.45594000000E+02  0.51100000000E-03 0.  1.
    9900012    2    1    2    0    0 -0.91958690452E+00 -0.58760325746E+00  0.44954194286E+00  0.90007743409E+02  0.90000004822E+02 0.  0.
        -12    1    1    2    0    0  0.91958690452E+00  0.58760325746E+00 -0.44954194286E+00  0.11802565914E+01  0.00000000000E+00 0.  1.
         11    1    3    3    0    0  0.28273790318E+01 -0.74864012628E+01  0.46966186923E+01  0.92789279262E+01  0.51100000000E-03 0. -1.
        -11    1    3    3    0    0  0.37031757079E+02 -0.62097300350E+01 -0.50538796594E+01  0.37887378893E+02  0.51100000000E-03 0.  1.
         12    1    3    3    0    0 -0.40778723015E+02  0.13108528040E+02  0.80680290998E+00  0.42841436590E+02  0.00000000000E+00 0. -1.
</event>
<event>
 7    1  0.2385752E-015  0.9000774E+02  0.7816164E-02  0.1186339E+00
        -11   -1    0    0    0    0  0.00000000000E+00  0.00000000000E+00  0.45593999997E+02  0.45594000000E+02  0.51100000000E-03 0.  1.
         11   -1    0    0    0    0 -0.00000000000E+00 -0.00000000000E+00 -0.45593999997E+02  0.45594000000E+02  0.51100000000E-03 0. -1.
    9900012    2    1    2    0    0 -0.28223991290E+00 -0.75813540064E+00 -0.85941646807E+00  0.90007735064E+02  0.89999996367E+02 0.  0.
        -12    1    1    2    0    0  0.28223991290E+00  0.75813540064E+00  0.85941646807E+00  0.11802649362E+01  0.00000000000E+00 0.  1.
         11    1    3    3    0    0 -0.18791301935E+02 -0.13385697150E+02 -0.25908732470E+02  0.34692251802E+02  0.51100000000E-03 0. -1.
        -11    1    3    3    0    0 -0.94094337695E+01 -0.82676969181E+01  0.25637570822E+00  0.12528287391E+02  0.51100000000E-03 0.  1.
        -12    1    3    3    0    0  0.27918495791E+02  0.20895258668E+02  0.24792940294E+02  0.42787195871E+02  0.00000000000E+00 0.  1.
</event>
<event>
 7    1  0.2385752E-015  0.9000760E+02  0.7816164E-02  0.1186339E+00
        -11   -1    0    0    0    0  0.00000000000E+00  0.00000000000E+00  0.45593999997E+02  0.45594000000E+02  0.51100000000E-03 0.  1.
         11   -1    0    0    0    0 -0.00000000000E+00 -0.00000000000E+00 -0.45593999997E+02  0.45594000000E+02  0.51100000000E-03 0. -1.
    9900012    2    1    2    0    0 -0.80456451196E+00 -0.86369213325E+00 -0.66581693512E-02  0.90007604945E+02  0.89999864530E+02 0.  0.
        -12    1    1    2    0    0  0.80456451196E+00  0.86369213325E+00  0.66581693512E-02  0.11803950551E+01  0.00000000000E+00 0.  1.
         11    1    3    3    0    0  0.36242786472E+02  0.58224272280E+01 -0.67630914578E+01  0.37325321652E+02  0.51100000000E-03 0. -1.
        -11    1    3    3    0    0 -0.44970541050E+01  0.11239975699E+02 -0.58454784140E+01  0.13443592061E+02  0.51100000000E-03 0.  1.
        -12    1    3    3    0    0 -0.32550296879E+02 -0.17926095061E+02  0.12601911702E+02  0.39238691232E+02  0.00000000000E+00 0.  1.
</event>
<event>
 7    1  0.2385752E-015  0.9000776E+02  0.7816164E-02  0.1186339E+00
        -11   -1    0    0    0    0  0.00000000000E+00  0.00000000000E+00  0.45593999997E+02  0.45594000000E+02  0.51100000000E-03 0. -1.
         11   -1    0    0    0    0 -0.00000000000E+00 -0.00000000000E+00 -0.45593999997E+02  0.45594000000E+02  0.51100000000E-03 0.  1.
    9900012    2    1    2    0    0  0.28442766129E+00 -0.11439808858E+01  0.58191131232E-01  0.90007755293E+02  0.90000016862E+02 0.  0.
        -12    1    1    2    0    0 -0.28442766129E+00  0.11439808858E+01 -0.58191131232E-01  0.11802447074E+01  0.00000000000E+00 0.  1.
         11    1    3    3    0    0 -0.45080136049E+01  0.28200276759E+01  0.66847067749E+01  0.85416653928E+01  0.51100000000E-03 0. -1.
        -11    1    3    3    0    0  0.86915210670E+01  0.32029933282E+02 -0.24343517466E+02  0.41159033120E+02  0.51100000000E-03 0.  1.
         12    1    3    3    0    0 -0.38990798008E+01 -0.35993941843E+02  0.17717001822E+02  0.40307056780E+02  0.00000000000E+00 0. -1.
</event>
<event>
 7    1  0.2385752E-015  0.9000766E+02  0.7816164E-02  0.1186339E+00
        -11   -1    0    0    0    0  0.00000000000E+00  0.00000000000E+00  0.45593999997E+02  0.45594000000E+02  0.51100000000E-03 0. -1.
         11   -1    0    0    0    0 -0.00000000000E+00 -0.00000000000E+00 -0.45593999997E+02  0.45594000000E+02  0.51100000000E-03 0.  1.
    9900012    2    1    2    0    0 -0.83784178296E+00 -0.25988261860E+00  0.78974438338E+00  0.90007655127E+02  0.89999915374E+02 0.  0.
        -12    1    1    2    0    0  0.83784178296E+00  0.25988261860E+00 -0.78974438338E+00  0.11803448733E+01  0.00000000000E+00 0.  1.
         11    1    3    3    0    0 -0.31495334459E+01 -0.38168111489E+02  0.41428012032E+00  0.38300077334E+02  0.51100000000E-03 0. -1.
        -11    1    3    3    0    0  0.99179645681E+00 -0.35451265166E+01  0.86635253576E+01  0.94131957439E+01  0.51100000000E-03 0.  1.
        -12    1    3    3    0    0  0.13198952061E+01  0.41453355387E+02 -0.82880610945E+01  0.42294382049E+02  0.00000000000E+00 0.  1.
</event>
<event>
 7    1  0.2385752E-015  0.9000769E+02  0.7816164E-02  0.1186339E+00
        -11   -1    0    0    0    0  0.00000000000E+00  0.00000000000E+00  0.45593999997E+02  0.45594000000E+02  0.51100000000E-03 0. -1.
         11   -1    0    0    0    0 -0.00000000000E+00 -0.00000000000E+00 -0.45593999997E+02  0.45594000000E+02  0.51100000000E-03 0.  1.
    9900012    2    1    2    0    0  0.25754044629E+00  0.25008013504E+00 -0.11243959160E+01  0.90007689307E+02  0.89999950006E+02 0.  0.
        -12    1    1    2    0    0 -0.25754044629E+00 -0.25008013504E+00  0.11243959160E+01  0.11803106927E+01  0.00000000000E+00 0.  1.
         11    1    3    3    0    0 -0.22980295770E+02 -0.22762763993E+02  0.14373758693E+02  0.35395513240E+02  0.51100000000E-03 0. -1.
        -11    1    3    3    0    0  0.90764544238E+01 -0.11663292010E+02 -0.61464832191E+01  0.16006050782E+02  0.51100000000E-03 0.  1.
         12    1    3    3    0    0  0.14161381793E+02  0.34676136138E+02 -0.93516713895E+01  0.38606125285E+02  0.00000000000E+00 0. -1.
</event>
<event>
 7    1  0.2385752E-015  0.9000778E+02  0.7816164E-02  0.1186339E+00
        -11   -1    0    0    0    0  0.00000000000E+00  0.00000000000E+00  0.45593999997E+02  0.45594000000E+02  0.51100000000E-03 0.  1.
         11   -1    0    0    0    0 -0.00000000000E+00 -0.00000000000E+00 -0.45593999997E+02  0.45594000000E+02  0.51100000000E-03 0. -1.
    9900012    2    1    2    0    0 -0.60108646118E+00  0.26044783426E+00 -0.98172882417E+00  0.90007775660E+02  0.90000037499E+02 0.  0.
        -12    1    1    2    0    0  0.60108646118E+00 -0.26044783426E+00  0.98172882417E+00  0.11802243399E+01  0.00000000000E+00 0.  1.
         11    1    3    3    0    0  0.25050245893E+02 -0.75802869939E+01 -0.23818080439E+02  0.35387519357E+02  0.51100000000E-03 0. -1.
        -11    1    3    3    0    0  0.80544840998E+01 -0.77794501417E+00 -0.54716039718E+01  0.97682323295E+01  0.51100000000E-03 0.  1.
        -12    1    3    3    0    0 -0.33705816454E+02  0.86186798423E+01  0.28307955586E+02  0.44852023974E+02  0.00000000000E+00 0.  1.
</event>
<event>
 7    1  0.2385752E-015  0.9000771E+02  0.7816164E-02  0.1186339E+00
        -11   -1    0    0    0    0  0.00000000000E+00  0.00000000000E+00  0.45593999997E+02  0.45594000000E+02  0.51100000000E-03 0.  1.
         11   -1    0    0    0    0 -0.00000000000E+00 -0.00000000000E+00 -0.45593999997E+02  0.45594000000E+02  0.51100000000E-03 0. -1.
    9900012    2    1    2    0    0  0.11709640066E+01 -0.13890812681E+00 -0.51353121527E-01  0.90007707953E+02  0.89999968898E+02 0.  0.
        -12    1    1    2    0    0 -0.11709640066E+01  0.13890812681E+00  0.51353121527E-01  0.11802920468E+01  0.00000000000E+00 0.  1.
         11    1    3    3    0    0 -0.64498091814E+01 -0.21755932231E+00  0.58232001422E+01  0.86923547266E+01  0.51100000000E-03 0. -1.
        -11    1    3    3    0    0 -0.22805474678E+01  0.37380332832E+02 -0.17032738583E+02  0.41141273234E+02  0.51100000000E-03 0.  1.
         12    1    3    3    0    0  0.99013206559E+01 -0.37301681637E+02  0.11158185319E+02  0.40174079993E+02  0.00000000000E+00 0. -1.
</event>
<event>
 7    1  0.2385752E-015  0.9000770E+02  0.7816164E-02  0.1186339E+00
        -11   -1    0    0    0    0  0.00000000000E+00  0.00000000000E+00  0.45593999997E+02  0.45594000000E+02  0.51100000000E-03 0.  1.
         11   -1    0    0    0    0 -0.00000000000E+00 -0.00000000000E+00 -0.45593999997E+02  0.45594000000E+02  0.51100000000E-03 0. -1.
    9900012    2    1    2    0    0 -0.78378963161E+00  0.36783376965E+00  0.80216891255E+00  0.90007702227E+02  0.89999963096E+02 0.  0.
        -12    1    1    2    0    0  0.78378963161E+00 -0.36783376965E+00 -0.80216891255E+00  0.11802977730E+01  0.00000000000E+00 0.  1.
         11    1    3    3    0    0 -0.57395708665E+01 -0.30010989753E+01  0.75375765662E+01  0.99380244286E+01  0.51100000000E-03 0. -1.
        -11    1    3    3    0    0 -0.17162716205E+02 -0.26885280799E+02  0.16563397999E+02  0.35940552371E+02  0.51100000000E-03 0.  1.
         12    1    3    3    0    0  0.22118497440E+02  0.30254213544E+02 -0.23298805653E+02  0.44129125428E+02  0.00000000000E+00 0. -1.
</event>
<event>
 7    1  0.2385752E-015  0.9000779E+02  0.7816164E-02  0.1186339E+00
        -11   -1    0    0    0    0  0.00000000000E+00  0.00000000000E+00  0.45593999997E+02  0.45594000000E+02  0.51100000000E-03 0.  1.
         11   -1    0    0    0    0 -0.00000000000E+00 -0.00000000000E+00 -0.45593999997E+02  0.45594000000E+02  0.51100000000E-03 0. -1.
    9900012    2    1    2    0    0 -0.10595332310E+01  0.61024833667E-01 -0.51628736507E+00  0.90007793518E+02  0.90000055592E+02 0.  0.
        -12    1    1    2    0    0  0.10595332310E+01 -0.61024833667E-01  0.51628736507E+00  0.11802064824E+01  0.00000000000E+00 0.  1.
         11    1    3    3    0    0  0.15382790180E+02  0.25957074008E+02 -0.18810463218E+02  0.35556060686E+02  0.51100000000E-03 0. -1.
        -11    1    3    3    0    0 -0.17170563549E+00  0.86048086640E+01 -0.48058588537E+01  0.98574081052E+01  0.51100000000E-03 0.  1.
        -12    1    3    3    0    0 -0.16270617775E+02 -0.34500857838E+02  0.23100034707E+02  0.44594324726E+02  0.00000000000E+00 0.  1.
</event>
<event>
 7    1  0.2385752E-015  0.9000748E+02  0.7816164E-02  0.1186340E+00
        -11   -1    0    0    0    0  0.00000000000E+00  0.00000000000E+00  0.45593999997E+02  0.45594000000E+02  0.51100000000E-03 0. -1.
         11   -1    0    0    0    0 -0.00000000000E+00 -0.00000000000E+00 -0.45593999997E+02  0.45594000000E+02  0.51100000000E-03 0.  1.
    9900012    2    1    2    0    0 -0.39238446962E+00  0.75372751531E+00  0.81948693196E+00  0.90007479110E+02  0.89999737034E+02 0.  0.
        -12    1    1    2    0    0  0.39238446962E+00 -0.75372751531E+00 -0.81948693196E+00  0.11805208897E+01  0.00000000000E+00 0.  1.
         11    1    3    3    0    0  0.16234514426E+02 -0.18864788513E+02  0.30739585083E+02  0.39552013800E+02  0.51100000000E-03 0. -1.
        -11    1    3    3    0    0 -0.15202026719E+01 -0.77815793215E+01 -0.12669097885E+01  0.80292623306E+01  0.51100000000E-03 0.  1.
        -12    1    3    3    0    0 -0.15106696223E+02  0.27400095350E+02 -0.28653188363E+02  0.42426202980E+02  0.00000000000E+00 0.  1.
</event>
<event>
 7    1  0.2385752E-015  0.9000779E+02  0.7816164E-02  0.1186339E+00
        -11   -1    0    0    0    0  0.00000000000E+00  0.00000000000E+00  0.45593999997E+02  0.45594000000E+02  0.51100000000E-03 0. -1.
         11   -1    0    0    0    0 -0.00000000000E+00 -0.00000000000E+00 -0.45593999997E+02  0.45594000000E+02  0.51100000000E-03 0.  1.
    9900012    2    1    2    0    0  0.87142174605E+00 -0.77695841785E+00  0.17278635967E+00  0.90007790117E+02  0.90000052146E+02 0.  0.
        -12    1    1    2    0    0 -0.87142174605E+00  0.77695841785E+00 -0.17278635967E+00  0.11802098833E+01  0.00000000000E+00 0.  1.
         11    1    3    3    0    0 -0.29787832606E+02  0.17724358333E+02  0.72679360485E+01  0.35415967364E+02  0.51100000000E-03 0. -1.
        -11    1    3    3    0    0 -0.66082085161E+01  0.62373085815E+01  0.97344140202E+00  0.91389291800E+01  0.51100000000E-03 0.  1.
        -12    1    3    3    0    0  0.37267462868E+02 -0.24738625332E+02 -0.80685910908E+01  0.45452893573E+02  0.00000000000E+00 0.  1.
</event>
<event>
 7    1  0.2385752E-015  0.9000774E+02  0.7816164E-02  0.1186339E+00
        -11   -1    0    0    0    0  0.00000000000E+00  0.00000000000E+00  0.45593999997E+02  0.45594000000E+02  0.51100000000E-03 0.  1.
         11   -1    0    0    0    0 -0.00000000000E+00 -0.00000000000E+00 -0.45593999997E+02  0.45594000000E+02  0.51100000000E-03 0. -1.
    9900012    2    1    2    0    0 -0.15703678915E+00 -0.21502633461E+00 -0.11498296187E+01  0.90007743659E+02  0.90000005076E+02 0.  0.
        -12    1    1    2    0    0  0.15703678915E+00  0.21502633461E+00  0.11498296187E+01  0.11802563407E+01  0.00000000000E+00 0.  1.
         11    1    3    3    0    0  0.10755874547E+01  0.25319903600E+02 -0.99148781164E+01  0.27213217652E+02  0.51100000000E-03 0. -1.
        -11    1    3    3    0    0 -0.20755673002E+02 -0.13618578310E+02 -0.15644819157E+02  0.29343210521E+02  0.51100000000E-03 0.  1.
         12    1    3    3    0    0  0.19523048758E+02 -0.11916351624E+02  0.24409867655E+02  0.33451315486E+02  0.00000000000E+00 0. -1.
</event>
<event>
 7    1  0.2385752E-015  0.9000782E+02  0.7816164E-02  0.1186339E+00
        -11   -1    0    0    0    0  0.00000000000E+00  0.00000000000E+00  0.45593999997E+02  0.45594000000E+02  0.51100000000E-03 0.  1.
         11   -1    0    0    0    0 -0.00000000000E+00 -0.00000000000E+00 -0.45593999997E+02  0.45594000000E+02  0.51100000000E-03 0. -1.
    9900012    2    1    2    0    0 -0.33893638673E+00  0.78084826412E+00  0.81745406693E+00  0.90007816524E+02  0.90000078902E+02 0.  0.
        -12    1    1    2    0    0  0.33893638673E+00 -0.78084826412E+00 -0.81745406693E+00  0.11801834761E+01  0.00000000000E+00 0.  1.
         11    1    3    3    0    0  0.84113326373E+01  0.24233191450E+02 -0.22637571314E+02  0.34211952880E+02  0.51100000000E-03 0. -1.
        -11    1    3    3    0    0  0.11062045262E+02  0.37707179906E+01 -0.39989686726E+01  0.12352283604E+02  0.51100000000E-03 0.  1.
        -12    1    3    3    0    0 -0.19812314286E+02 -0.27223061176E+02  0.27453994054E+02  0.43443580040E+02  0.00000000000E+00 0.  1.
</event>
<event>
 7    1  0.2385752E-015  0.9000773E+02  0.7816164E-02  0.1186339E+00
        -11   -1    0    0    0    0  0.00000000000E+00  0.00000000000E+00  0.45593999997E+02  0.45594000000E+02  0.51100000000E-03 0.  1.
         11   -1    0    0    0    0 -0.00000000000E+00 -0.00000000000E+00 -0.45593999997E+02  0.45594000000E+02  0.51100000000E-03 0. -1.
    9900012    2    1    2    0    0 -0.66283491519E+00 -0.74495996931E+00 -0.63144703182E+00  0.90007728491E+02  0.89999989707E+02 0.  0.
        -12    1    1    2    0    0  0.66283491519E+00  0.74495996931E+00  0.63144703182E+00  0.11802715089E+01  0.00000000000E+00 0.  1.
         11    1    3    3    0    0 -0.24005704837E+01 -0.39357817894E+01  0.67064927502E-01  0.46105981072E+01  0.51100000000E-03 0. -1.
        -11    1    3    3    0    0 -0.35326912629E+02 -0.14732726993E+02  0.15308885489E+02  0.41223852024E+02  0.51100000000E-03 0.  1.
         12    1    3    3    0    0  0.37064648197E+02  0.17923548813E+02 -0.16007397448E+02  0.44173278360E+02  0.00000000000E+00 0. -1.
</event>
<event>
 7    1  0.2385752E-015  0.9000766E+02  0.7816164E-02  0.1186339E+00
        -11   -1    0    0    0    0  0.00000000000E+00  0.00000000000E+00  0.45593999997E+02  0.45594000000E+02  0.51100000000E-03 0. -1.
         11   -1    0    0    0    0 -0.00000000000E+00 -0.00000000000E+00 -0.45593999997E+02  0.45594000000E+02  0.51100000000E-03 0.  1.
    9900012    2    1    2    0    0  0.42102542495E+00 -0.82020960331E+00  0.73702069481E+00  0.90007658648E+02  0.89999918942E+02 0.  0.
        -12    1    1    2    0    0 -0.42102542495E+00  0.82020960331E+00 -0.73702069481E+00  0.11803413516E+01  0.00000000000E+00 0.  1.
         11    1    3    3    0    0  0.16979174372E+02  0.24590287021E+02 -0.20440551551E+02  0.36204843959E+02  0.51100000000E-03 0. -1.
        -11    1    3    3    0    0 -0.45173019647E+01  0.21234259424E+01 -0.95793502740E+01  0.10801801086E+02  0.51100000000E-03 0.  1.
        -12    1    3    3    0    0 -0.12040846982E+02 -0.27533922567E+02  0.30756922520E+02  0.43001013603E+02  0.00000000000E+00 0.  1.
</event>
<event>
 7    1  0.2385752E-015  0.9000781E+02  0.7816164E-02  0.1186339E+00
        -11   -1    0    0    0    0  0.00000000000E+00  0.00000000000E+00  0.45593999997E+02  0.45594000000E+02  0.51100000000E-03 0.  1.
         11   -1    0    0    0    0 -0.00000000000E+00 -0.00000000000E+00 -0.45593999997E+02  0.45594000000E+02  0.51100000000E-03 0. -1.
    9900012    2    1    2    0    0  0.10414836359E+01  0.55438128521E+00  0.28782924111E-01  0.90007807122E+02  0.90000069376E+02 0.  0.
        -12    1    1    2    0    0 -0.10414836359E+01 -0.55438128521E+00 -0.28782924111E-01  0.11801928783E+01  0.00000000000E+00 0.  1.
         11    1    3    3    0    0 -0.64506609970E+01  0.34511280483E+00  0.67873294640E+01  0.93700571855E+01  0.51100000000E-03 0. -1.
        -11    1    3    3    0    0 -0.15566093689E+02  0.16300535120E+02  0.27990759541E+02  0.35937352962E+02  0.51100000000E-03 0.  1.
         12    1    3    3    0    0  0.23058238322E+02 -0.16091266639E+02 -0.34749306081E+02  0.44700396975E+02  0.00000000000E+00 0. -1.
</event>
<event>
 7    1  0.2385752E-015  0.9000768E+02  0.7816164E-02  0.1186339E+00
        -11   -1    0    0    0    0  0.00000000000E+00  0.00000000000E+00  0.45593999997E+02  0.45594000000E+02  0.51100000000E-03 0.  1.
         11   -1    0    0    0    0 -0.00000000000E+00 -0.00000000000E+00 -0.45593999997E+02  0.45594000000E+02  0.51100000000E-03 0. -1.
    9900012    2    1    2    0    0  0.39365423543E+00  0.10532180618E+01 -0.35906643188E+00  0.90007677737E+02  0.89999938283E+02 0.  0.
        -12    1    1    2    0    0 -0.39365423543E+00 -0.10532180618E+01  0.35906643188E+00  0.11803222633E+01  0.00000000000E+00 0.  1.
         11    1    3    3    0    0 -0.68740324091E+01  0.32613363006E+01  0.89862783576E+01  0.11774626746E+02  0.51100000000E-03 0. -1.
        -11    1    3    3    0    0 -0.13785016438E+02 -0.23172286541E+02  0.22180393578E+02  0.34913484519E+02  0.51100000000E-03 0.  1.
         12    1    3    3    0    0  0.21052703082E+02  0.20964168303E+02 -0.31525738367E+02  0.43319566472E+02  0.00000000000E+00 0. -1.
</event>
<event>
 7    1  0.2385752E-015  0.9000777E+02  0.7816164E-02  0.1186339E+00
        -11   -1    0    0    0    0  0.00000000000E+00  0.00000000000E+00  0.45593999997E+02  0.45594000000E+02  0.51100000000E-03 0.  1.
         11   -1    0    0    0    0 -0.00000000000E+00 -0.00000000000E+00 -0.45593999997E+02  0.45594000000E+02  0.51100000000E-03 0. -1.
    9900012    2    1    2    0    0  0.82362927390E+00  0.68081287346E-01 -0.84257518238E+00  0.90007774098E+02  0.90000035916E+02 0.  0.
        -12    1    1    2    0    0 -0.82362927390E+00 -0.68081287346E-01  0.84257518238E+00  0.11802259023E+01  0.00000000000E+00 0.  1.
         11    1    3    3    0    0  0.18721723167E+01 -0.14558657976E+02 -0.21445445531E+02  0.25987818022E+02  0.51100000000E-03 0. -1.
        -11    1    3    3    0    0  0.13594945518E+02 -0.57869405488E+01 -0.14600026311E+02  0.20771903935E+02  0.51100000000E-03 0.  1.
        -12    1    3    3    0    0 -0.14643488561E+02  0.20413679812E+02  0.35202896660E+02  0.43248052140E+02  0.00000000000E+00 0.  1.
</event>
<event>
 7    1  0.2385752E-015  0.9000775E+02  0.7816164E-02  0.1186339E+00
        -11   -1    0    0    0    0  0.00000000000E+00  0.00000000000E+00  0.45593999997E+02  0.45594000000E+02  0.51100000000E-03 0. -1.
         11   -1    0    0    0    0 -0.00000000000E+00 -0.00000000000E+00 -0.45593999997E+02  0.45594000000E+02  0.51100000000E-03 0.  1.
    9900012    2    1    2    0    0  0.61822710852E+00 -0.42998862606E+00  0.90879245580E+00  0.90007746339E+02  0.90000007791E+02 0.  0.
        -12    1    1    2    0    0 -0.61822710852E+00  0.42998862606E+00 -0.90879245580E+00  0.11802536609E+01  0.00000000000E+00 0.  1.
         11    1    3    3    0    0  0.15966864974E+01  0.34960033216E+01  0.96005699007E+01  0.10341295358E+02  0.51100000000E-03 0. -1.
        -11    1    3    3    0    0 -0.25132269704E+01  0.28395266379E+02 -0.29637092522E+02  0.41121341369E+02  0.51100000000E-03 0.  1.
         12    1    3    3    0    0  0.15347675815E+01 -0.32321258327E+02  0.20945315078E+02  0.38545109612E+02  0.00000000000E+00 0. -1.
</event>
<event>
 7    1  0.2385752E-015  0.9000728E+02  0.7816164E-02  0.1186340E+00
        -11   -1    0    0    0    0  0.00000000000E+00  0.00000000000E+00  0.45593999997E+02  0.45594000000E+02  0.51100000000E-03 0. -1.
         11   -1    0    0    0    0 -0.00000000000E+00 -0.00000000000E+00 -0.45593999997E+02  0.45594000000E+02  0.51100000000E-03 0.  1.
    9900012    2    1    2    0    0 -0.13994973958E+00  0.79235256943E+00  0.86411600662E+00  0.90007277765E+02  0.89999533030E+02 0.  0.
        -12    1    1    2    0    0  0.13994973958E+00 -0.79235256943E+00 -0.86411600662E+00  0.11807222352E+01  0.00000000000E+00 0.  1.
         11    1    3    3    0    0  0.22201887055E+01 -0.85621099821E+01 -0.35494768226E+01  0.95308840728E+01  0.51100000000E-03 0. -1.
        -11    1    3    3    0    0  0.22773236031E+02  0.28937674958E+01 -0.29748168281E+02  0.37575892351E+02  0.51100000000E-03 0.  1.
         12    1    3    3    0    0 -0.25133374476E+02  0.64606950558E+01  0.34161761110E+02  0.42900501341E+02  0.00000000000E+00 0. -1.
</event>
<event>
 7    1  0.2385752E-015  0.9000770E+02  0.7816164E-02  0.1186339E+00
        -11   -1    0    0    0    0  0.00000000000E+00  0.00000000000E+00  0.45593999997E+02  0.45594000000E+02  0.51100000000E-03 0.  1.
         11   -1    0    0    0    0 -0.00000000000E+00 -0.00000000000E+00 -0.45593999997E+02  0.45594000000E+02  0.51100000000E-03 0. -1.
    9900012    2    1    2    0    0 -0.39349000694E+00  0.15153556613E+00 -0.11024068858E+01  0.90007704124E+02  0.89999965018E+02 0.  0.
        -12    1    1    2    0    0  0.39349000694E+00 -0.15153556613E+00  0.11024068858E+01  0.11802958761E+01  0.00000000000E+00 0.  1.
         11    1    3    3    0    0 -0.15934761444E+02 -0.22959106553E+02 -0.14793335428E+02  0.31620878694E+02  0.51100000000E-03 0. -1.
        -11    1    3    3    0    0 -0.14815940782E+02 -0.38239810052E+01 -0.72548111589E+00  0.15318657092E+02  0.51100000000E-03 0.  1.
        -12    1    3    3    0    0  0.30357212219E+02  0.26934623125E+02  0.14416409658E+02  0.43068168338E+02  0.00000000000E+00 0.  1.
</event>
<event>
 7    1  0.2385752E-015  0.9000772E+02  0.7816164E-02  0.1186339E+00
        -11   -1    0    0    0    0  0.00000000000E+00  0.00000000000E+00  0.45593999997E+02  0.45594000000E+02  0.51100000000E-03 0. -1.
         11   -1    0    0    0    0 -0.00000000000E+00 -0.00000000000E+00 -0.45593999997E+02  0.45594000000E+02  0.51100000000E-03 0.  1.
    9900012    2    1    2    0    0  0.97692513426E+00  0.63120656591E+00 -0.20066679335E+00  0.90007715454E+02  0.89999976498E+02 0.  0.
        -12    1    1    2    0    0 -0.97692513426E+00 -0.63120656591E+00  0.20066679335E+00  0.11802845457E+01  0.00000000000E+00 0.  1.
         11    1    3    3    0    0  0.13862507043E+02 -0.34754213647E+02  0.91534374341E+01  0.38520252918E+02  0.51100000000E-03 0. -1.
        -11    1    3    3    0    0 -0.41193866960E+01 -0.37060570625E+01  0.63762701100E+01  0.84475455890E+01  0.51100000000E-03 0.  1.
        -12    1    3    3    0    0 -0.87661952132E+01  0.39091477275E+02 -0.15730374337E+02  0.43039916948E+02  0.00000000000E+00 0.  1.
</event>
<event>
 7    1  0.2385752E-015  0.9000769E+02  0.7816164E-02  0.1186339E+00
        -11   -1    0    0    0    0  0.00000000000E+00  0.00000000000E+00  0.45593999997E+02  0.45594000000E+02  0.51100000000E-03 0.  1.
         11   -1    0    0    0    0 -0.00000000000E+00 -0.00000000000E+00 -0.45593999997E+02  0.45594000000E+02  0.51100000000E-03 0. -1.
    9900012    2    1    2    0    0  0.83627359621E+00 -0.72498370880E+00 -0.41008190073E+00  0.90007694077E+02  0.89999954839E+02 0.  0.
        -12    1    1    2    0    0 -0.83627359621E+00  0.72498370880E+00  0.41008190073E+00  0.11803059227E+01  0.00000000000E+00 0.  1.
         11    1    3    3    0    0  0.11704986137E+02 -0.15095250216E+01 -0.35369802462E+02  0.37286838063E+02  0.51100000000E-03 0. -1.
        -11    1    3    3    0    0 -0.91530114572E+01 -0.13801034572E+01 -0.64098676674E+01  0.11259161073E+02  0.51100000000E-03 0.  1.
        -12    1    3    3    0    0 -0.17157010838E+01  0.21646447700E+01  0.41369588229E+02  0.41461694941E+02  0.00000000000E+00 0.  1.
</event>
<event>
 7    1  0.2385752E-015  0.9000789E+02  0.7816164E-02  0.1186339E+00
        -11   -1    0    0    0    0  0.00000000000E+00  0.00000000000E+00  0.45593999997E+02  0.45594000000E+02  0.51100000000E-03 0.  1.
         11   -1    0    0    0    0 -0.00000000000E+00 -0.00000000000E+00 -0.45593999997E+02  0.45594000000E+02  0.51100000000E-03 0. -1.
    9900012    2    1    2    0    0 -0.95988602455E+00  0.63765863161E+00 -0.25429789377E+00  0.90007891052E+02  0.90000154414E+02 0.  0.
        -12    1    1    2    0    0  0.95988602455E+00 -0.63765863161E+00  0.25429789377E+00  0.11801089481E+01  0.00000000000E+00 0.  1.
         11    1    3    3    0    0  0.39525364784E+01  0.13495761390E+02  0.89709415188E+01  0.16680405034E+02  0.51100000000E-03 0. -1.
        -11    1    3    3    0    0 -0.36024551663E+02  0.15128660391E+01  0.46489162172E+01  0.36354772843E+02  0.51100000000E-03 0.  1.
         12    1    3    3    0    0  0.31112129160E+02 -0.14370968797E+02 -0.13874155630E+02  0.36972713175E+02  0.00000000000E+00 0. -1.
</event>
<event>
 7    1  0.2385752E-015  0.9000783E+02  0.7816164E-02  0.1186339E+00
        -11   -1    0    0    0    0  0.00000000000E+00  0.00000000000E+00  0.45593999997E+02  0.45594000000E+02  0.51100000000E-03 0. -1.
         11   -1    0    0    0    0 -0.00000000000E+00 -0.00000000000E+00 -0.45593999997E+02  0.45594000000E+02  0.51100000000E-03 0.  1.
    9900012    2    1    2    0    0  0.27052603461E+00  0.70357367144E+00  0.90808153161E+00  0.90007825303E+02  0.90000087797E+02 0.  0.
        -12    1    1    2    0    0 -0.27052603461E+00 -0.70357367144E+00 -0.90808153161E+00  0.11801746966E+01  0.00000000000E+00 0.  1.
         11    1    3    3    0    0  0.48582262280E+01 -0.56124003510E+01 -0.15612899999E+02  0.17287684819E+02  0.51100000000E-03 0. -1.
        -11    1    3    3    0    0 -0.10334358766E+02 -0.29017931024E+02  0.20041677366E+02  0.36749260182E+02  0.51100000000E-03 0.  1.
         12    1    3    3    0    0  0.57466585725E+01  0.35333905046E+02 -0.35206958352E+01  0.35970880302E+02  0.00000000000E+00 0. -1.
</event>
<event>
 7    1  0.2385752E-015  0.9000768E+02  0.7816164E-02  0.1186339E+00
        -11   -1    0    0    0    0  0.00000000000E+00  0.00000000000E+00  0.45593999997E+02  0.45594000000E+02  0.51100000000E-03 0. -1.
         11   -1    0    0    0    0 -0.00000000000E+00 -0.00000000000E+00 -0.45593999997E+02  0.45594000000E+02  0.51100000000E-03 0.  1.
    9900012    2    1    2    0    0 -0.11754048830E+01  0.26366215546E-01 -0.10432928571E+00  0.90007679528E+02  0.89999940098E+02 0.  0.
        -12    1    1    2    0    0  0.11754048830E+01 -0.26366215546E-01  0.10432928571E+00  0.11803204718E+01  0.00000000000E+00 0.  1.
         11    1    3    3    0    0  0.23453678376E+02 -0.23717474894E+01  0.29554969368E+02  0.37804714390E+02  0.51100000000E-03 0. -1.
        -11    1    3    3    0    0 -0.23012192031E+01  0.48499591969E+01  0.72348615335E+01  0.90089364357E+01  0.51100000000E-03 0.  1.
        -12    1    3    3    0    0 -0.22327864056E+02 -0.24518454919E+01 -0.36894160187E+02  0.43194028702E+02  0.00000000000E+00 0.  1.
</event>
<event>
 7    1  0.2385752E-015  0.9000783E+02  0.7816164E-02  0.1186339E+00
        -11   -1    0    0    0    0  0.00000000000E+00  0.00000000000E+00  0.45593999997E+02  0.45594000000E+02  0.51100000000E-03 0. -1.
         11   -1    0    0    0    0 -0.00000000000E+00 -0.00000000000E+00 -0.45593999997E+02  0.45594000000E+02  0.51100000000E-03 0.  1.
    9900012    2    1    2    0    0 -0.19926663596E+00  0.26402943024E+00  0.11328676130E+01  0.90007827233E+02  0.90000089752E+02 0.  0.
        -12    1    1    2    0    0  0.19926663596E+00 -0.26402943024E+00 -0.11328676130E+01  0.11801727673E+01  0.00000000000E+00 0.  1.
         11    1    3    3    0    0  0.14830874424E+02 -0.20986861533E+02  0.24503928434E+02  0.35508389180E+02  0.51100000000E-03 0. -1.
        -11    1    3    3    0    0  0.82110929268E+01 -0.80896878135E+01 -0.80265963548E+01  0.14046043759E+02  0.51100000000E-03 0.  1.
        -12    1    3    3    0    0 -0.23241233987E+02  0.29340578776E+02 -0.15344464466E+02  0.40453394294E+02  0.00000000000E+00 0.  1.
</event>
<event>
 7    1  0.2385752E-015  0.9000767E+02  0.7816164E-02  0.1186339E+00
        -11   -1    0    0    0    0  0.00000000000E+00  0.00000000000E+00  0.45593999997E+02  0.45594000000E+02  0.51100000000E-03 0. -1.
         11   -1    0    0    0    0 -0.00000000000E+00 -0.00000000000E+00 -0.45593999997E+02  0.45594000000E+02  0.51100000000E-03 0.  1.
    9900012    2    1    2    0    0  0.10324701050E+01  0.52879829389E+00 -0.21809960669E+00  0.90007665475E+02  0.89999925859E+02 0.  0.
        -12    1    1    2    0    0 -0.10324701050E+01 -0.52879829389E+00  0.21809960669E+00  0.11803345254E+01  0.00000000000E+00 0.  1.
         11    1    3    3    0    0  0.50342969997E+01  0.18482002416E+01 -0.95434971358E+01  0.10947069391E+02  0.51100000000E-03 0. -1.
        -11    1    3    3    0    0 -0.37926798688E+02  0.15027158700E+02  0.63342241357E+01  0.41284136820E+02  0.51100000000E-03 0.  1.
         12    1    3    3    0    0  0.33924971793E+02 -0.16346560648E+02  0.29911733935E+01  0.37776459263E+02  0.00000000000E+00 0. -1.
</event>
<event>
 7    1  0.2385752E-015  0.9000775E+02  0.7816164E-02  0.1186339E+00
        -11   -1    0    0    0    0  0.00000000000E+00  0.00000000000E+00  0.45593999997E+02  0.45594000000E+02  0.51100000000E-03 0. -1.
         11   -1    0    0    0    0 -0.00000000000E+00 -0.00000000000E+00 -0.45593999997E+02  0.45594000000E+02  0.51100000000E-03 0.  1.
    9900012    2    1    2    0    0 -0.84680552829E-01 -0.50617845195E+00  0.10628273124E+01  0.90007750316E+02  0.90000011820E+02 0.  0.
        -12    1    1    2    0    0  0.84680552829E-01  0.50617845195E+00 -0.10628273124E+01  0.11802496843E+01  0.00000000000E+00 0.  1.
         11    1    3    3    0    0  0.61046847607E+01 -0.74158126671E+01 -0.21632234849E+01  0.98458615493E+01  0.51100000000E-03 0. -1.
        -11    1    3    3    0    0 -0.39979274426E+02  0.16572609385E+02  0.98838408275E+01  0.44392387582E+02  0.51100000000E-03 0.  1.
         12    1    3    3    0    0  0.33789909112E+02 -0.96629751699E+01 -0.66577900301E+01  0.35769501185E+02  0.00000000000E+00 0. -1.
</event>
<event>
 7    1  0.2385752E-015  0.9000768E+02  0.7816164E-02  0.1186339E+00
        -11   -1    0    0    0    0  0.00000000000E+00  0.00000000000E+00  0.45593999997E+02  0.45594000000E+02  0.51100000000E-03 0. -1.
         11   -1    0    0    0    0 -0.00000000000E+00 -0.00000000000E+00 -0.45593999997E+02  0.45594000000E+02  0.51100000000E-03 0.  1.
    9900012    2    1    2    0    0  0.29642587586E+00  0.50630590332E+00  0.10241837087E+01  0.90007675368E+02  0.89999935883E+02 0.  0.
        -12    1    1    2    0    0 -0.29642587586E+00 -0.50630590332E+00 -0.10241837087E+01  0.11803246320E+01  0.00000000000E+00 0.  1.
         11    1    3    3    0    0  0.53571845722E+01  0.44197929605E+01 -0.61474323651E+01  0.92749620645E+01  0.51100000000E-03 0. -1.
        -11    1    3    3    0    0  0.23538218321E+02  0.33318852506E+01 -0.26742899965E+02  0.35781725501E+02  0.51100000000E-03 0.  1.
         12    1    3    3    0    0 -0.28598977017E+02 -0.72453723078E+01  0.33914516038E+02  0.44950987803E+02  0.00000000000E+00 0. -1.
</event>
<event>
 7    1  0.2385752E-015  0.9000772E+02  0.7816164E-02  0.1186339E+00
        -11   -1    0    0    0    0  0.00000000000E+00  0.00000000000E+00  0.45593999997E+02  0.45594000000E+02  0.51100000000E-03 0.  1.
         11   -1    0    0    0    0 -0.00000000000E+00 -0.00000000000E+00 -0.45593999997E+02  0.45594000000E+02  0.51100000000E-03 0. -1.
    9900012    2    1    2    0    0  0.10122186282E+01  0.32336859655E+00 -0.51372827976E+00  0.90007715905E+02  0.89999976955E+02 0.  0.
        -12    1    1    2    0    0 -0.10122186282E+01 -0.32336859655E+00  0.51372827976E+00  0.11802840954E+01  0.00000000000E+00 0.  1.
         11    1    3    3    0    0 -0.13416477849E+02 -0.51166043815E+01 -0.25516921631E+02  0.29279597129E+02  0.51100000000E-03 0. -1.
        -11    1    3    3    0    0 -0.17294649952E+02  0.11609454156E+02  0.18290789005E+02  0.27720701749E+02  0.51100000000E-03 0.  1.
        -12    1    3    3    0    0  0.31723346429E+02 -0.61694811778E+01  0.67124043458E+01  0.33007417027E+02  0.00000000000E+00 0.  1.
</event>
<event>
 7    1  0.2385752E-015  0.9000772E+02  0.7816164E-02  0.1186339E+00
        -11   -1    0    0    0    0  0.00000000000E+00  0.00000000000E+00  0.45593999997E+02  0.45594000000E+02  0.51100000000E-03 0.  1.
         11   -1    0    0    0    0 -0.00000000000E+00 -0.00000000000E+00 -0.45593999997E+02  0.45594000000E+02  0.51100000000E-03 0. -1.
    9900012    2    1    2    0    0 -0.42826705401E+00  0.10885682090E+01  0.15707387842E+00  0.90007717992E+02  0.89999979069E+02 0.  0.
        -12    1    1    2    0    0  0.42826705401E+00 -0.10885682090E+01 -0.15707387842E+00  0.11802820081E+01  0.00000000000E+00 0.  1.
         11    1    3    3    0    0  0.19317600938E+02 -0.25063818843E+02 -0.25285911250E+02  0.40506073977E+02  0.51100000000E-03 0. -1.
        -11    1    3    3    0    0 -0.40373852375E+01 -0.56144990145E+01  0.55082493495E+01  0.88410344359E+01  0.51100000000E-03 0.  1.
        -12    1    3    3    0    0 -0.15708482755E+02  0.31766886066E+02  0.19934735779E+02  0.40660609579E+02  0.00000000000E+00 0.  1.
</event>
<event>
 7    1  0.2385752E-015  0.9000776E+02  0.7816164E-02  0.1186339E+00
        -11   -1    0    0    0    0  0.00000000000E+00  0.00000000000E+00  0.45593999997E+02  0.45594000000E+02  0.51100000000E-03 0.  1.
         11   -1    0    0    0    0 -0.00000000000E+00 -0.00000000000E+00 -0.45593999997E+02  0.45594000000E+02  0.51100000000E-03 0. -1.
    9900012    2    1    2    0    0 -0.10708961618E+01 -0.80079000747E-01 -0.48961900597E+00  0.90007763580E+02  0.90000025259E+02 0.  0.
        -12    1    1    2    0    0  0.10708961618E+01  0.80079000747E-01  0.48961900597E+00  0.11802364198E+01  0.00000000000E+00 0.  1.
         11    1    3    3    0    0  0.33175444239E+02  0.72850237986E+01  0.10645254625E+02  0.35594987267E+02  0.51100000000E-03 0. -1.
        -11    1    3    3    0    0  0.79998556985E+01 -0.21168766905E+01  0.40520632187E+01  0.92140151242E+01  0.51100000000E-03 0.  1.
        -12    1    3    3    0    0 -0.42246196099E+02 -0.52482261088E+01 -0.15186936850E+02  0.45198761189E+02  0.00000000000E+00 0.  1.
</event>
<event>
 7    1  0.2385752E-015  0.9000772E+02  0.7816164E-02  0.1186339E+00
        -11   -1    0    0    0    0  0.00000000000E+00  0.00000000000E+00  0.45593999997E+02  0.45594000000E+02  0.51100000000E-03 0.  1.
         11   -1    0    0    0    0 -0.00000000000E+00 -0.00000000000E+00 -0.45593999997E+02  0.45594000000E+02  0.51100000000E-03 0. -1.
    9900012    2    1    2    0    0 -0.61999426377E+00  0.10022246591E+00 -0.99930862003E+00  0.90007722428E+02  0.89999983564E+02 0.  0.
        -12    1    1    2    0    0  0.61999426377E+00 -0.10022246591E+00  0.99930862003E+00  0.11802775724E+01  0.00000000000E+00 0.  1.
         11    1    3    3    0    0 -0.65350739462E+01  0.17032285434E+00 -0.59645553684E+01  0.88494136733E+01  0.51100000000E-03 0. -1.
        -11    1    3    3    0    0  0.10976562167E+02 -0.33772869512E+02  0.23285727020E+02  0.42465476745E+02  0.51100000000E-03 0.  1.
         12    1    3    3    0    0 -0.50614824846E+01  0.33702769123E+02 -0.18320480271E+02  0.38692832009E+02  0.00000000000E+00 0. -1.
</event>
<event>
 7    1  0.2385752E-015  0.9000776E+02  0.7816164E-02  0.1186339E+00
        -11   -1    0    0    0    0  0.00000000000E+00  0.00000000000E+00  0.45593999997E+02  0.45594000000E+02  0.51100000000E-03 0.  1.
         11   -1    0    0    0    0 -0.00000000000E+00 -0.00000000000E+00 -0.45593999997E+02  0.45594000000E+02  0.51100000000E-03 0. -1.
    9900012    2    1    2    0    0 -0.27577246390E+00  0.79423231988E-01 -0.11448226927E+01  0.90007755322E+02  0.90000016893E+02 0.  0.
        -12    1    1    2    0    0  0.27577246390E+00 -0.79423231988E-01  0.11448226927E+01  0.11802446777E+01  0.00000000000E+00 0.  1.
         11    1    3    3    0    0  0.17984612165E+02  0.21464358721E+02 -0.23800386912E+02  0.36750828392E+02  0.51100000000E-03 0. -1.
        -11    1    3    3    0    0 -0.12717616166E+01 -0.54728773847E+00 -0.10488593139E+02  0.10579578809E+02  0.51100000000E-03 0.  1.
        -12    1    3    3    0    0 -0.16988623012E+02 -0.20837647751E+02  0.33144157359E+02  0.42677348121E+02  0.00000000000E+00 0.  1.
</event>
<event>
 7    1  0.2385752E-015  0.9000770E+02  0.7816164E-02  0.1186339E+00
        -11   -1    0    0    0    0  0.00000000000E+00  0.00000000000E+00  0.45593999997E+02  0.45594000000E+02  0.51100000000E-03 0.  1.
         11   -1    0    0    0    0 -0.00000000000E+00 -0.00000000000E+00 -0.45593999997E+02  0.45594000000E+02  0.51100000000E-03 0. -1.
    9900012    2    1    2    0    0  0.12059142945E+00  0.82230377606E+00 -0.83808641571E+00  0.90007697228E+02  0.89999958032E+02 0.  0.
        -12    1    1    2    0    0 -0.12059142945E+00 -0.82230377606E+00  0.83808641571E+00  0.11803027718E+01  0.00000000000E+00 0.  1.
         11    1    3    3    0    0 -0.18086240733E+02 -0.34871375973E+02 -0.14247864124E+02  0.41786679677E+02  0.51100000000E-03 0. -1.
        -11    1    3    3    0    0  0.84813285430E+01 -0.33341593406E+00  0.53826341526E+01  0.10050713941E+02  0.51100000000E-03 0.  1.
        -12    1    3    3    0    0  0.97255036193E+01  0.36027095683E+02  0.80271435561E+01  0.38170303610E+02  0.00000000000E+00 0.  1.
</event>
<event>
 7    1  0.2385752E-015  0.9000845E+02  0.7816164E-02  0.1186338E+00
        -11   -1    0    0    0    0  0.00000000000E+00  0.00000000000E+00  0.45593999997E+02  0.45594000000E+02  0.51100000000E-03 0.  1.
         11   -1    0    0    0    0 -0.00000000000E+00 -0.00000000000E+00 -0.45593999997E+02  0.45594000000E+02  0.51100000000E-03 0. -1.
    9900012    2    1    2    0    0 -0.42007971147E+00  0.69428821788E-01 -0.11000269655E+01  0.90008446419E+02  0.90000717109E+02 0.  0.
        -12    1    1    2    0    0  0.42007971147E+00 -0.69428821788E-01  0.11000269655E+01  0.11795535809E+01  0.00000000000E+00 0.  1.
         11    1    3    3    0    0 -0.38232832658E+01 -0.63168469501E+00 -0.70005597087E+01  0.80015221665E+01  0.51100000000E-03 0. -1.
        -11    1    3    3    0    0 -0.39914092165E+01 -0.26790419186E+02 -0.27173907854E+02  0.38367684007E+02  0.51100000000E-03 0.  1.
         12    1    3    3    0    0  0.73946127708E+01  0.27491532703E+02  0.33074440597E+02  0.43639240246E+02  0.00000000000E+00 0. -1.
</event>
<event>
 7    1  0.2385752E-015  0.9000776E+02  0.7816164E-02  0.1186339E+00
        -11   -1    0    0    0    0  0.00000000000E+00  0.00000000000E+00  0.45593999997E+02  0.45594000000E+02  0.51100000000E-03 0. -1.
         11   -1    0    0    0    0 -0.00000000000E+00 -0.00000000000E+00 -0.45593999997E+02  0.45594000000E+02  0.51100000000E-03 0.  1.
    9900012    2    1    2    0    0  0.10460985199E+01  0.45817543117E+00  0.29786447135E+00  0.90007758464E+02  0.90000020076E+02 0.  0.
        -12    1    1    2    0    0 -0.10460985199E+01 -0.45817543117E+00 -0.29786447135E+00  0.11802415356E+01  0.00000000000E+00 0.  1.
         11    1    3    3    0    0 -0.47441068427E+01 -0.73394708781E+01 -0.46582956141E+01  0.99032368848E+01  0.51100000000E-03 0. -1.
        -11    1    3    3    0    0 -0.16340714568E+02 -0.15021054785E+01 -0.32042818358E+02  0.36000242806E+02  0.51100000000E-03 0.  1.
         12    1    3    3    0    0  0.22130919931E+02  0.92997517878E+01  0.36998978444E+02  0.44104278774E+02  0.00000000000E+00 0. -1.
</event>
<event>
 7    1  0.2385752E-015  0.9000776E+02  0.7816164E-02  0.1186339E+00
        -11   -1    0    0    0    0  0.00000000000E+00  0.00000000000E+00  0.45593999997E+02  0.45594000000E+02  0.51100000000E-03 0.  1.
         11   -1    0    0    0    0 -0.00000000000E+00 -0.00000000000E+00 -0.45593999997E+02  0.45594000000E+02  0.51100000000E-03 0. -1.
    9900012    2    1    2    0    0  0.10158031646E+01  0.39137052148E+00 -0.45601387960E+00  0.90007756122E+02  0.90000017702E+02 0.  0.
        -12    1    1    2    0    0 -0.10158031646E+01 -0.39137052148E+00  0.45601387960E+00  0.11802438785E+01  0.00000000000E+00 0.  1.
         11    1    3    3    0    0  0.69422452087E+01 -0.33201557251E+01  0.51705497409E+01  0.92710726165E+01  0.51100000000E-03 0. -1.
        -11    1    3    3    0    0  0.17518476596E+02 -0.20783949192E+02  0.23580340805E+02  0.35984747311E+02  0.51100000000E-03 0.  1.
         12    1    3    3    0    0 -0.23444918641E+02  0.24495475438E+02 -0.29206904426E+02  0.44751936194E+02  0.00000000000E+00 0. -1.
</event>
<event>
 7    1  0.2385752E-015  0.9000802E+02  0.7816164E-02  0.1186338E+00
        -11   -1    0    0    0    0  0.00000000000E+00  0.00000000000E+00  0.45593999997E+02  0.45594000000E+02  0.51100000000E-03 0. -1.
         11   -1    0    0    0    0 -0.00000000000E+00 -0.00000000000E+00 -0.45593999997E+02  0.45594000000E+02  0.51100000000E-03 0.  1.
    9900012    2    1    2    0    0  0.66818879971E+00 -0.92859893406E+00  0.28908543237E+00  0.90008024306E+02  0.90000289426E+02 0.  0.
        -12    1    1    2    0    0 -0.66818879971E+00  0.92859893406E+00 -0.28908543237E+00  0.11799756945E+01  0.00000000000E+00 0.  1.
         11    1    3    3    0    0 -0.55284729704E+01 -0.67465438997E+01  0.56453302477E+01  0.10389880742E+02  0.51100000000E-03 0. -1.
        -11    1    3    3    0    0  0.40689542940E+01 -0.14542708178E+00 -0.42118393064E+02  0.42314732336E+02  0.51100000000E-03 0.  1.
         12    1    3    3    0    0  0.21277074761E+01  0.59633720474E+01  0.36762148249E+02  0.37303411227E+02  0.00000000000E+00 0. -1.
</event>
<event>
 7    1  0.2385752E-015  0.9000775E+02  0.7816164E-02  0.1186339E+00
        -11   -1    0    0    0    0  0.00000000000E+00  0.00000000000E+00  0.45593999997E+02  0.45594000000E+02  0.51100000000E-03 0.  1.
         11   -1    0    0    0    0 -0.00000000000E+00 -0.00000000000E+00 -0.45593999997E+02  0.45594000000E+02  0.51100000000E-03 0. -1.
    9900012    2    1    2    0    0 -0.76247412846E+00  0.31892326372E+00 -0.84256211498E+00  0.90007750127E+02  0.90000011629E+02 0.  0.
        -12    1    1    2    0    0  0.76247412846E+00 -0.31892326372E+00  0.84256211498E+00  0.11802498728E+01  0.00000000000E+00 0.  1.
         11    1    3    3    0    0  0.37819614359E+02  0.65893889661E+01  0.17559596387E+02  0.42214721398E+02  0.51100000000E-03 0. -1.
        -11    1    3    3    0    0 -0.63989396237E+01  0.67061703674E+01 -0.54564833265E+01  0.10756038298E+02  0.51100000000E-03 0.  1.
        -12    1    3    3    0    0 -0.32183148864E+02 -0.12976636070E+02 -0.12945675176E+02  0.37036990431E+02  0.00000000000E+00 0.  1.
</event>
<event>
 7    1  0.2385752E-015  0.9000759E+02  0.7816164E-02  0.1186339E+00
        -11   -1    0    0    0    0  0.00000000000E+00  0.00000000000E+00  0.45593999997E+02  0.45594000000E+02  0.51100000000E-03 0. -1.
         11   -1    0    0    0    0 -0.00000000000E+00 -0.00000000000E+00 -0.45593999997E+02  0.45594000000E+02  0.51100000000E-03 0.  1.
    9900012    2    1    2    0    0  0.18503202711E+00 -0.11372652769E+01  0.25645070758E+00  0.90007586460E+02  0.89999845801E+02 0.  0.
        -12    1    1    2    0    0 -0.18503202711E+00  0.11372652769E+01 -0.25645070758E+00  0.11804135405E+01  0.00000000000E+00 0.  1.
         11    1    3    3    0    0  0.87421014335E+00 -0.42450584287E+01 -0.79918674156E+01  0.90914635504E+01  0.51100000000E-03 0. -1.
        -11    1    3    3    0    0  0.10697920034E+02 -0.25748484653E+02 -0.23546467879E+02  0.36494740783E+02  0.51100000000E-03 0.  1.
         12    1    3    3    0    0 -0.11387098150E+02  0.28856277805E+02  0.31794786002E+02  0.44421382126E+02  0.00000000000E+00 0. -1.
</event>
<event>
 7    1  0.2385752E-015  0.9000781E+02  0.7816164E-02  0.1186339E+00
        -11   -1    0    0    0    0  0.00000000000E+00  0.00000000000E+00  0.45593999997E+02  0.45594000000E+02  0.51100000000E-03 0. -1.
         11   -1    0    0    0    0 -0.00000000000E+00 -0.00000000000E+00 -0.45593999997E+02  0.45594000000E+02  0.51100000000E-03 0.  1.
    9900012    2    1    2    0    0  0.25951374592E+00  0.74404185956E+00  0.87857458273E+00  0.90007814010E+02  0.90000076355E+02 0.  0.
        -12    1    1    2    0    0 -0.25951374592E+00 -0.74404185956E+00 -0.87857458273E+00  0.11801859898E+01  0.00000000000E+00 0.  1.
         11    1    3    3    0    0  0.86577525426E+01 -0.99624465882E+00  0.34163117207E+01  0.93605752250E+01  0.51100000000E-03 0. -1.
        -11    1    3    3    0    0  0.13494796060E+02 -0.34873411013E+02 -0.58960217563E+01  0.37855348225E+02  0.51100000000E-03 0.  1.
         12    1    3    3    0    0 -0.21893034857E+02  0.36613697531E+02  0.33582846183E+01  0.42791890561E+02  0.00000000000E+00 0. -1.
</event>
<event>
 7    1  0.2385752E-015  0.9000762E+02  0.7816164E-02  0.1186339E+00
        -11   -1    0    0    0    0  0.00000000000E+00  0.00000000000E+00  0.45593999997E+02  0.45594000000E+02  0.51100000000E-03 0. -1.
         11   -1    0    0    0    0 -0.00000000000E+00 -0.00000000000E+00 -0.45593999997E+02  0.45594000000E+02  0.51100000000E-03 0.  1.
    9900012    2    1    2    0    0 -0.10743664274E+01 -0.46054231714E+00  0.16413323224E+00  0.90007617789E+02  0.89999877544E+02 0.  0.
        -12    1    1    2    0    0  0.10743664274E+01  0.46054231714E+00 -0.16413323224E+00  0.11803822110E+01  0.00000000000E+00 0.  1.
         11    1    3    3    0    0  0.83598765146E+01 -0.24569045644E+02  0.29014653641E+02  0.38927826363E+02  0.51100000000E-03 0. -1.
        -11    1    3    3    0    0  0.74492949976E+01 -0.32510834433E+01 -0.38118195019E+00  0.81367585350E+01  0.51100000000E-03 0.  1.
        -12    1    3    3    0    0 -0.16883537940E+02  0.27359586770E+02 -0.28469338458E+02  0.42943032891E+02  0.00000000000E+00 0.  1.
</event>
<event>
 7    1  0.2385752E-015  0.9000775E+02  0.7816164E-02  0.1186339E+00
        -11   -1    0    0    0    0  0.00000000000E+00  0.00000000000E+00  0.45593999997E+02  0.45594000000E+02  0.51100000000E-03 0.  1.
         11   -1    0    0    0    0 -0.00000000000E+00 -0.00000000000E+00 -0.45593999997E+02  0.45594000000E+02  0.51100000000E-03 0. -1.
    9900012    2    1    2    0    0  0.49136469192E+00  0.55306754506E-01 -0.10716732546E+01  0.90007753559E+02  0.90000015106E+02 0.  0.
        -12    1    1    2    0    0 -0.49136469192E+00 -0.55306754506E-01  0.10716732546E+01  0.11802464413E+01  0.00000000000E+00 0.  1.
         11    1    3    3    0    0  0.32575780657E+02 -0.18743356728E+02 -0.99582058260E+01  0.38880081924E+02  0.51100000000E-03 0. -1.
        -11    1    3    3    0    0  0.44689133039E+01  0.79767082867E+01 -0.51620588573E+01  0.10499805385E+02  0.51100000000E-03 0.  1.
        -12    1    3    3    0    0 -0.36553329269E+02  0.10821955195E+02  0.14048591429E+02  0.40627866250E+02  0.00000000000E+00 0.  1.
</event>
<event>
 7    1  0.2385752E-015  0.9000791E+02  0.7816164E-02  0.1186339E+00
        -11   -1    0    0    0    0  0.00000000000E+00  0.00000000000E+00  0.45593999997E+02  0.45594000000E+02  0.51100000000E-03 0. -1.
         11   -1    0    0    0    0 -0.00000000000E+00 -0.00000000000E+00 -0.45593999997E+02  0.45594000000E+02  0.51100000000E-03 0.  1.
    9900012    2    1    2    0    0 -0.10968904142E+01  0.52978739896E-01  0.43200762201E+00  0.90007912752E+02  0.90000176400E+02 0.  0.
        -12    1    1    2    0    0  0.10968904142E+01 -0.52978739896E-01 -0.43200762201E+00  0.11800872481E+01  0.00000000000E+00 0.  1.
         11    1    3    3    0    0 -0.25653247144E+02 -0.21990818747E+02  0.82574605973E+01  0.34783197869E+02  0.51100000000E-03 0. -1.
        -11    1    3    3    0    0 -0.80277256269E+01 -0.72729261870E+01 -0.18071089841E+01  0.10982052504E+02  0.51100000000E-03 0.  1.
        -12    1    3    3    0    0  0.32584082357E+02  0.29316723674E+02 -0.60183439912E+01  0.44242662379E+02  0.00000000000E+00 0.  1.
</event>
<event>
 7    1  0.2385752E-015  0.9000773E+02  0.7816164E-02  0.1186339E+00
        -11   -1    0    0    0    0  0.00000000000E+00  0.00000000000E+00  0.45593999997E+02  0.45594000000E+02  0.51100000000E-03 0. -1.
         11   -1    0    0    0    0 -0.00000000000E+00 -0.00000000000E+00 -0.45593999997E+02  0.45594000000E+02  0.51100000000E-03 0.  1.
    9900012    2    1    2    0    0  0.61721971985E+00  0.31162194608E+00  0.95654290238E+00  0.90007727682E+02  0.89999988888E+02 0.  0.
        -12    1    1    2    0    0 -0.61721971985E+00 -0.31162194608E+00 -0.95654290238E+00  0.11802723177E+01  0.00000000000E+00 0.  1.
         11    1    3    3    0    0  0.83311046943E+01  0.87508652790E+01 -0.58843644013E+01  0.13439147786E+02  0.51100000000E-03 0. -1.
        -11    1    3    3    0    0  0.27985031285E+01 -0.95288555423E+01 -0.33461123284E+02  0.34903831872E+02  0.51100000000E-03 0.  1.
         12    1    3    3    0    0 -0.10512388103E+02  0.10896122095E+01  0.40302030587E+02  0.41664748023E+02  0.00000000000E+00 0. -1.
</event>
<event>
 7    1  0.2385752E-015  0.9000864E+02  0.7816164E-02  0.1186337E+00
        -11   -1    0    0    0    0  0.00000000000E+00  0.00000000000E+00  0.45593999997E+02  0.45594000000E+02  0.51100000000E-03 0.  1.
         11   -1    0    0    0    0 -0.00000000000E+00 -0.00000000000E+00 -0.45593999997E+02  0.45594000000E+02  0.51100000000E-03 0. -1.
    9900012    2    1    2    0    0  0.87603315016E-01  0.16066465500E+00 -0.11650732329E+01  0.90008642925E+02  0.90000916207E+02 0.  0.
        -12    1    1    2    0    0 -0.87603315016E-01 -0.16066465500E+00  0.11650732329E+01  0.11793570749E+01  0.00000000000E+00 0.  1.
         11    1    3    3    0    0  0.71868547500E+01  0.75601198648E+01  0.13298488508E+01  0.10515454902E+02  0.51100000000E-03 0. -1.
        -11    1    3    3    0    0 -0.12760546921E+02  0.28864910401E+02  0.19118220825E+02  0.36898793719E+02  0.51100000000E-03 0.  1.
         12    1    3    3    0    0  0.56612954857E+01 -0.36264365611E+02 -0.21613142909E+02  0.42594394304E+02  0.00000000000E+00 0. -1.
</event>
<event>
 7    1  0.2385752E-015  0.9000773E+02  0.7816164E-02  0.1186339E+00
        -11   -1    0    0    0    0  0.00000000000E+00  0.00000000000E+00  0.45593999997E+02  0.45594000000E+02  0.51100000000E-03 0.  1.
         11   -1    0    0    0    0 -0.00000000000E+00 -0.00000000000E+00 -0.45593999997E+02  0.45594000000E+02  0.51100000000E-03 0. -1.
    9900012    2    1    2    0    0  0.97138712149E-01  0.12740439147E+00 -0.11693470207E+01  0.90007728733E+02  0.89999989952E+02 0.  0.
        -12    1    1    2    0    0 -0.97138712149E-01 -0.12740439147E+00  0.11693470207E+01  0.11802712668E+01  0.00000000000E+00 0.  1.
         11    1    3    3    0    0 -0.15563838501E+02  0.17687384674E+02 -0.18525603101E+02  0.29971229804E+02  0.51100000000E-03 0. -1.
        -11    1    3    3    0    0 -0.59972120075E+01 -0.22804701658E+02 -0.92512574055E+01  0.25329957233E+02  0.51100000000E-03 0.  1.
        -12    1    3    3    0    0  0.21658189221E+02  0.52447213753E+01  0.26607513485E+02  0.34706541696E+02  0.00000000000E+00 0.  1.
</event>
<event>
 7    1  0.2385752E-015  0.9000774E+02  0.7816164E-02  0.1186339E+00
        -11   -1    0    0    0    0  0.00000000000E+00  0.00000000000E+00  0.45593999997E+02  0.45594000000E+02  0.51100000000E-03 0.  1.
         11   -1    0    0    0    0 -0.00000000000E+00 -0.00000000000E+00 -0.45593999997E+02  0.45594000000E+02  0.51100000000E-03 0. -1.
    9900012    2    1    2    0    0  0.73167304188E+00  0.42651245702E+00 -0.82204973733E+00  0.90007735586E+02  0.89999996896E+02 0.  0.
        -12    1    1    2    0    0 -0.73167304188E+00 -0.42651245702E+00  0.82204973733E+00  0.11802644140E+01  0.00000000000E+00 0.  1.
         11    1    3    3    0    0  0.14746718041E+02  0.28744971340E+02 -0.19917122808E+02  0.37953008465E+02  0.51100000000E-03 0. -1.
        -11    1    3    3    0    0  0.24087531981E+01  0.39625233613E+01 -0.62980734858E+01  0.78210877282E+01  0.51100000000E-03 0.  1.
        -12    1    3    3    0    0 -0.16423798197E+02 -0.32280982245E+02  0.25393146556E+02  0.44233639393E+02  0.00000000000E+00 0.  1.
</event>
<event>
 7    1  0.2385752E-015  0.9000773E+02  0.7816164E-02  0.1186339E+00
        -11   -1    0    0    0    0  0.00000000000E+00  0.00000000000E+00  0.45593999997E+02  0.45594000000E+02  0.51100000000E-03 0.  1.
         11   -1    0    0    0    0 -0.00000000000E+00 -0.00000000000E+00 -0.45593999997E+02  0.45594000000E+02  0.51100000000E-03 0. -1.
    9900012    2    1    2    0    0 -0.44162869718E+00 -0.47582357108E+00 -0.98569820516E+00  0.90007726757E+02  0.89999987950E+02 0.  0.
        -12    1    1    2    0    0  0.44162869718E+00  0.47582357108E+00  0.98569820516E+00  0.11802732432E+01  0.00000000000E+00 0.  1.
         11    1    3    3    0    0  0.35471120934E+01 -0.76441260936E+01  0.73206784500E+01  0.11162750609E+02  0.51100000000E-03 0. -1.
        -11    1    3    3    0    0 -0.24751463149E+01  0.64079432649E+01  0.34918070296E+02  0.35587353366E+02  0.51100000000E-03 0.  1.
         12    1    3    3    0    0 -0.15135944757E+01  0.76035925762E+00 -0.43224446951E+02  0.43257622781E+02  0.00000000000E+00 0. -1.
</event>
<event>
 7    1  0.2385752E-015  0.9000784E+02  0.7816164E-02  0.1186339E+00
        -11   -1    0    0    0    0  0.00000000000E+00  0.00000000000E+00  0.45593999997E+02  0.45594000000E+02  0.51100000000E-03 0.  1.
         11   -1    0    0    0    0 -0.00000000000E+00 -0.00000000000E+00 -0.45593999997E+02  0.45594000000E+02  0.51100000000E-03 0. -1.
    9900012    2    1    2    0    0  0.14397892900E+00  0.10044415729E+01 -0.60260838670E+00  0.90007843369E+02  0.90000106102E+02 0.  0.
        -12    1    1    2    0    0 -0.14397892900E+00 -0.10044415729E+01  0.60260838670E+00  0.11801566307E+01  0.00000000000E+00 0.  1.
         11    1    3    3    0    0  0.82713290790E+01 -0.38474840991E+01  0.56025688483E+00  0.91395791295E+01  0.51100000000E-03 0. -1.
        -11    1    3    3    0    0  0.34424834194E+02  0.12368422406E+02  0.59985276539E+01  0.37067902778E+02  0.51100000000E-03 0.  1.
         12    1    3    3    0    0 -0.42552184344E+02 -0.75164967336E+01 -0.71613929255E+01  0.43800361462E+02  0.00000000000E+00 0. -1.
</event>
<event>
 7    1  0.2385752E-015  0.9000771E+02  0.7816164E-02  0.1186339E+00
        -11   -1    0    0    0    0  0.00000000000E+00  0.00000000000E+00  0.45593999997E+02  0.45594000000E+02  0.51100000000E-03 0.  1.
         11   -1    0    0    0    0 -0.00000000000E+00 -0.00000000000E+00 -0.45593999997E+02  0.45594000000E+02  0.51100000000E-03 0. -1.
    9900012    2    1    2    0    0 -0.11195655205E+01  0.19751356940E+00 -0.31724254746E+00  0.90007711307E+02  0.89999972296E+02 0.  0.
        -12    1    1    2    0    0  0.11195655205E+01 -0.19751356940E+00  0.31724254746E+00  0.11802886930E+01  0.00000000000E+00 0.  1.
         11    1    3    3    0    0 -0.40447277711E+01 -0.69774293734E+00 -0.15531990552E+01  0.43885186015E+01  0.51100000000E-03 0. -1.
        -11    1    3    3    0    0 -0.34268602558E+02 -0.18007555581E+02 -0.14054143153E+02  0.41184076040E+02  0.51100000000E-03 0.  1.
         12    1    3    3    0    0  0.37193764808E+02  0.18902812087E+02  0.15290099661E+02  0.44435116665E+02  0.00000000000E+00 0. -1.
</event>
<event>
 7    1  0.2385752E-015  0.9000774E+02  0.7816164E-02  0.1186339E+00
        -11   -1    0    0    0    0  0.00000000000E+00  0.00000000000E+00  0.45593999997E+02  0.45594000000E+02  0.51100000000E-03 0.  1.
         11   -1    0    0    0    0 -0.00000000000E+00 -0.00000000000E+00 -0.45593999997E+02  0.45594000000E+02  0.51100000000E-03 0. -1.
    9900012    2    1    2    0    0 -0.30292098570E+00 -0.52341915644E+00 -0.10135460303E+01  0.90007743972E+02  0.90000005392E+02 0.  0.
        -12    1    1    2    0    0  0.30292098570E+00  0.52341915644E+00  0.10135460303E+01  0.11802560283E+01  0.00000000000E+00 0.  1.
         11    1    3    3    0    0 -0.98542214052E+01  0.34031024322E+02 -0.10175278844E+01  0.35443640603E+02  0.51100000000E-03 0. -1.
        -11    1    3    3    0    0  0.95218174720E+00  0.91657261222E+01 -0.35261964767E+01  0.98666735672E+01  0.51100000000E-03 0.  1.
        -12    1    3    3    0    0  0.85991186723E+01 -0.43720169601E+02  0.35301783308E+01  0.44697429802E+02  0.00000000000E+00 0.  1.
</event>
<event>
 7    1  0.2385752E-015  0.9000772E+02  0.7816164E-02  0.1186339E+00
        -11   -1    0    0    0    0  0.00000000000E+00  0.00000000000E+00  0.45593999997E+02  0.45594000000E+02  0.51100000000E-03 0.  1.
         11   -1    0    0    0    0 -0.00000000000E+00 -0.00000000000E+00 -0.45593999997E+02  0.45594000000E+02  0.51100000000E-03 0. -1.
    9900012    2    1    2    0    0 -0.11020960269E+01  0.37421764000E+00  0.19596486626E+00  0.90007721760E+02  0.89999982887E+02 0.  0.
        -12    1    1    2    0    0  0.11020960269E+01 -0.37421764000E+00 -0.19596486626E+00  0.11802782398E+01  0.00000000000E+00 0.  1.
         11    1    3    3    0    0  0.25431001320E+02  0.10778382042E+02 -0.25152593086E+02  0.37357225363E+02  0.51100000000E-03 0. -1.
        -11    1    3    3    0    0  0.26558469628E+01 -0.20032684885E+01 -0.73217131399E+01  0.80420203488E+01  0.51100000000E-03 0.  1.
        -12    1    3    3    0    0 -0.29188944310E+02 -0.84008959138E+01  0.32670271092E+02  0.44608476048E+02  0.00000000000E+00 0.  1.
</event>
<event>
 7    1  0.2385752E-015  0.9000834E+02  0.7816164E-02  0.1186338E+00
        -11   -1    0    0    0    0  0.00000000000E+00  0.00000000000E+00  0.45593999997E+02  0.45594000000E+02  0.51100000000E-03 0.  1.
         11   -1    0    0    0    0 -0.00000000000E+00 -0.00000000000E+00 -0.45593999997E+02  0.45594000000E+02  0.51100000000E-03 0. -1.
    9900012    2    1    2    0    0  0.10129184835E+00 -0.88681088693E+00 -0.77130415641E+00  0.90008337468E+02  0.90000606721E+02 0.  0.
        -12    1    1    2    0    0 -0.10129184835E+00  0.88681088693E+00  0.77130415641E+00  0.11796625320E+01  0.00000000000E+00 0.  1.
         11    1    3    3    0    0  0.29797298264E+02 -0.27341924465E+02 -0.61212455622E+01  0.40901460423E+02  0.51100000000E-03 0. -1.
        -11    1    3    3    0    0 -0.37661951763E+01  0.55815057508E+00 -0.89830802432E+01  0.97566125826E+01  0.51100000000E-03 0.  1.
        -12    1    3    3    0    0 -0.25929811239E+02  0.25896963003E+02  0.14333021649E+02  0.39350264462E+02  0.00000000000E+00 0.  1.
</event>
<event>
 7    1  0.2385752E-015  0.9000763E+02  0.7816164E-02  0.1186339E+00
        -11   -1    0    0    0    0  0.00000000000E+00  0.00000000000E+00  0.45593999997E+02  0.45594000000E+02  0.51100000000E-03 0. -1.
         11   -1    0    0    0    0 -0.00000000000E+00 -0.00000000000E+00 -0.45593999997E+02  0.45594000000E+02  0.51100000000E-03 0.  1.
    9900012    2    1    2    0    0 -0.65482522908E+00  0.89580949927E+00  0.40250755830E+00  0.90007625875E+02  0.89999885737E+02 0.  0.
        -12    1    1    2    0    0  0.65482522908E+00 -0.89580949927E+00 -0.40250755830E+00  0.11803741246E+01  0.00000000000E+00 0.  1.
         11    1    3    3    0    0 -0.11827438866E+02 -0.34037212944E+02  0.61837631810E+00  0.36038903488E+02  0.51100000000E-03 0. -1.
        -11    1    3    3    0    0 -0.51339255268E+01 -0.67489241260E+01  0.32395434366E+01  0.90774341150E+01  0.51100000000E-03 0.  1.
        -12    1    3    3    0    0  0.16306539163E+02  0.41681946569E+02 -0.34554121964E+01  0.44891288272E+02  0.00000000000E+00 0.  1.
</event>
<event>
 7    1  0.2385752E-015  0.9000771E+02  0.7816164E-02  0.1186339E+00
        -11   -1    0    0    0    0  0.00000000000E+00  0.00000000000E+00  0.45593999997E+02  0.45594000000E+02  0.51100000000E-03 0.  1.
         11   -1    0    0    0    0 -0.00000000000E+00 -0.00000000000E+00 -0.45593999997E+02  0.45594000000E+02  0.51100000000E-03 0. -1.
    9900012    2    1    2    0    0  0.93160254926E+00 -0.56478873777E+00 -0.45410808990E+00  0.90007710296E+02  0.89999971272E+02 0.  0.
        -12    1    1    2    0    0 -0.93160254926E+00  0.56478873777E+00  0.45410808990E+00  0.11802897040E+01  0.00000000000E+00 0.  1.
         11    1    3    3    0    0  0.15376538618E+01  0.96119714355E+00  0.76252562145E+01  0.78379086462E+01  0.51100000000E-03 0. -1.
        -11    1    3    3    0    0  0.20582380942E+02  0.81114872334E+01  0.30159334356E+02  0.37403423365E+02  0.51100000000E-03 0.  1.
         12    1    3    3    0    0 -0.21188432254E+02 -0.96374731148E+01 -0.38238698661E+02  0.44766378284E+02  0.00000000000E+00 0. -1.
</event>
<event>
 7    1  0.2385752E-015  0.9000775E+02  0.7816164E-02  0.1186339E+00
        -11   -1    0    0    0    0  0.00000000000E+00  0.00000000000E+00  0.45593999997E+02  0.45594000000E+02  0.51100000000E-03 0. -1.
         11   -1    0    0    0    0 -0.00000000000E+00 -0.00000000000E+00 -0.45593999997E+02  0.45594000000E+02  0.51100000000E-03 0.  1.
    9900012    2    1    2    0    0  0.31383432663E+00  0.55544269577E+00  0.99296955235E+00  0.90007747017E+02  0.90000008477E+02 0.  0.
        -12    1    1    2    0    0 -0.31383432663E+00 -0.55544269577E+00 -0.99296955235E+00  0.11802529834E+01  0.00000000000E+00 0.  1.
         11    1    3    3    0    0 -0.65625535379E+01  0.60122148342E+01 -0.65553819905E+01  0.11053816963E+02  0.51100000000E-03 0. -1.
        -11    1    3    3    0    0 -0.28840275959E+02  0.12632532704E+02 -0.12866651398E+02  0.34013131558E+02  0.51100000000E-03 0.  1.
         12    1    3    3    0    0  0.35716663823E+02 -0.18089304842E+02  0.20415002941E+02  0.44940798496E+02  0.00000000000E+00 0. -1.
</event>
<event>
 7    1  0.2385752E-015  0.9000775E+02  0.7816164E-02  0.1186339E+00
        -11   -1    0    0    0    0  0.00000000000E+00  0.00000000000E+00  0.45593999997E+02  0.45594000000E+02  0.51100000000E-03 0.  1.
         11   -1    0    0    0    0 -0.00000000000E+00 -0.00000000000E+00 -0.45593999997E+02  0.45594000000E+02  0.51100000000E-03 0. -1.
    9900012    2    1    2    0    0 -0.16432996821E+00  0.71286769209E+00  0.92618280037E+00  0.90007746102E+02  0.90000007550E+02 0.  0.
        -12    1    1    2    0    0  0.16432996821E+00 -0.71286769209E+00 -0.92618280037E+00  0.11802538984E+01  0.00000000000E+00 0.  1.
         11    1    3    3    0    0  0.48868352450E+01 -0.56838019704E+01  0.45434222016E+01  0.87652409615E+01  0.51100000000E-03 0. -1.
        -11    1    3    3    0    0 -0.41733880624E+02 -0.20342408372E+01 -0.10252842170E+02  0.43022967128E+02  0.51100000000E-03 0.  1.
         12    1    3    3    0    0  0.36682715411E+02  0.84309104997E+01  0.66356027684E+01  0.38219538012E+02  0.00000000000E+00 0. -1.
</event>
<event>
 7    1  0.2385752E-015  0.9000769E+02  0.7816164E-02  0.1186339E+00
        -11   -1    0    0    0    0  0.00000000000E+00  0.00000000000E+00  0.45593999997E+02  0.45594000000E+02  0.51100000000E-03 0.  1.
         11   -1    0    0    0    0 -0.00000000000E+00 -0.00000000000E+00 -0.45593999997E+02  0.45594000000E+02  0.51100000000E-03 0. -1.
    9900012    2    1    2    0    0  0.74679409053E+00 -0.13424741631E-01 -0.91391687913E+00  0.90007692540E+02  0.89999953282E+02 0.  0.
        -12    1    1    2    0    0 -0.74679409053E+00  0.13424741631E-01  0.91391687913E+00  0.11803074596E+01  0.00000000000E+00 0.  1.
         11    1    3    3    0    0  0.30917393434E+02 -0.20007459653E+02 -0.15229414880E+02  0.39851207465E+02  0.51100000000E-03 0. -1.
        -11    1    3    3    0    0 -0.26597101464E+01 -0.74253424585E+01 -0.18234874038E+01  0.80953613423E+01  0.51100000000E-03 0.  1.
        -12    1    3    3    0    0 -0.27510889197E+02  0.27419377370E+02  0.16138985405E+02  0.42061123733E+02  0.00000000000E+00 0.  1.
</event>
<event>
 7    1  0.2385752E-015  0.9000776E+02  0.7816164E-02  0.1186339E+00
        -11   -1    0    0    0    0  0.00000000000E+00  0.00000000000E+00  0.45593999997E+02  0.45594000000E+02  0.51100000000E-03 0.  1.
         11   -1    0    0    0    0 -0.00000000000E+00 -0.00000000000E+00 -0.45593999997E+02  0.45594000000E+02  0.51100000000E-03 0. -1.
    9900012    2    1    2    0    0  0.61517347894E-01 -0.11785606943E+01 -0.13669617914E-01  0.90007755723E+02  0.90000017299E+02 0.  0.
        -12    1    1    2    0    0 -0.61517347894E-01  0.11785606943E+01  0.13669617914E-01  0.11802442767E+01  0.00000000000E+00 0.  1.
         11    1    3    3    0    0  0.11094319276E+02  0.37365892903E+02 -0.96028478075E+01  0.40143599227E+02  0.51100000000E-03 0. -1.
        -11    1    3    3    0    0 -0.29494274853E+01  0.24431942808E+01  0.70338490395E+01  0.80089545732E+01  0.51100000000E-03 0.  1.
        -12    1    3    3    0    0 -0.80833744432E+01 -0.40987647878E+02  0.25553291501E+01  0.41855201923E+02  0.00000000000E+00 0.  1.
</event>
<event>
 7    1  0.2385752E-015  0.9000773E+02  0.7816164E-02  0.1186339E+00
        -11   -1    0    0    0    0  0.00000000000E+00  0.00000000000E+00  0.45593999997E+02  0.45594000000E+02  0.51100000000E-03 0.  1.
         11   -1    0    0    0    0 -0.00000000000E+00 -0.00000000000E+00 -0.45593999997E+02  0.45594000000E+02  0.51100000000E-03 0. -1.
    9900012    2    1    2    0    0  0.92941668507E+00 -0.56388751934E-01 -0.72528558536E+00  0.90007731282E+02  0.89999992535E+02 0.  0.
        -12    1    1    2    0    0 -0.92941668507E+00  0.56388751934E-01  0.72528558536E+00  0.11802687178E+01  0.00000000000E+00 0.  1.
         11    1    3    3    0    0 -0.58928075666E+01 -0.23182059370E+00  0.61337448899E+01  0.85089216967E+01  0.51100000000E-03 0. -1.
        -11    1    3    3    0    0  0.40120182277E+02 -0.17198638359E+02 -0.38149476701E+01  0.43817530890E+02  0.51100000000E-03 0.  1.
         12    1    3    3    0    0 -0.33297958025E+02  0.17374070201E+02 -0.30440828052E+01  0.37681278695E+02  0.00000000000E+00 0. -1.
</event>
<event>
 7    1  0.2385752E-015  0.9000773E+02  0.7816164E-02  0.1186339E+00
        -11   -1    0    0    0    0  0.00000000000E+00  0.00000000000E+00  0.45593999997E+02  0.45594000000E+02  0.51100000000E-03 0.  1.
         11   -1    0    0    0    0 -0.00000000000E+00 -0.00000000000E+00 -0.45593999997E+02  0.45594000000E+02  0.51100000000E-03 0. -1.
    9900012    2    1    2    0    0  0.92975072590E+00  0.20214304711E+00  0.69837492180E+00  0.90007734879E+02  0.89999996180E+02 0.  0.
        -12    1    1    2    0    0 -0.92975072590E+00 -0.20214304711E+00 -0.69837492180E+00  0.11802651207E+01  0.00000000000E+00 0.  1.
         11    1    3    3    0    0  0.19050684341E+02 -0.76850968117E+01  0.28916096586E+01  0.20744895603E+02  0.51100000000E-03 0. -1.
        -11    1    3    3    0    0  0.54235990671E+01 -0.17244332552E+01  0.28694293518E+02  0.29253231918E+02  0.51100000000E-03 0.  1.
         12    1    3    3    0    0 -0.23544532683E+02  0.96116731140E+01 -0.30887528255E+02  0.40009607359E+02  0.00000000000E+00 0. -1.
</event>
<event>
 7    1  0.2385752E-015  0.9000772E+02  0.7816164E-02  0.1186339E+00
        -11   -1    0    0    0    0  0.00000000000E+00  0.00000000000E+00  0.45593999997E+02  0.45594000000E+02  0.51100000000E-03 0. -1.
         11   -1    0    0    0    0 -0.00000000000E+00 -0.00000000000E+00 -0.45593999997E+02  0.45594000000E+02  0.51100000000E-03 0.  1.
    9900012    2    1    2    0    0 -0.20968902747E-01 -0.10505338639E+01 -0.53759629032E+00  0.90007715769E+02  0.89999976817E+02 0.  0.
        -12    1    1    2    0    0  0.20968902747E-01  0.10505338639E+01  0.53759629032E+00  0.11802842308E+01  0.00000000000E+00 0.  1.
         11    1    3    3    0    0 -0.13309642355E+02  0.32915529830E+02  0.43817444417E+01  0.35773990108E+02  0.51100000000E-03 0. -1.
        -11    1    3    3    0    0  0.63109468521E+01  0.86687928379E+01 -0.22006982175E+01  0.10946190769E+02  0.51100000000E-03 0.  1.
        -12    1    3    3    0    0  0.69777266000E+01 -0.42634856532E+02 -0.27186425146E+01  0.43287534893E+02  0.00000000000E+00 0.  1.
</event>
<event>
 7    1  0.2385752E-015  0.9000771E+02  0.7816164E-02  0.1186339E+00
        -11   -1    0    0    0    0  0.00000000000E+00  0.00000000000E+00  0.45593999997E+02  0.45594000000E+02  0.51100000000E-03 0. -1.
         11   -1    0    0    0    0 -0.00000000000E+00 -0.00000000000E+00 -0.45593999997E+02  0.45594000000E+02  0.51100000000E-03 0.  1.
    9900012    2    1    2    0    0  0.11206054540E+01 -0.33517062334E+00 -0.15804079306E+00  0.90007714940E+02  0.89999975977E+02 0.  0.
        -12    1    1    2    0    0 -0.11206054540E+01  0.33517062334E+00  0.15804079306E+00  0.11802850599E+01  0.00000000000E+00 0.  1.
         11    1    3    3    0    0  0.44798183851E+01 -0.10082689511E+01 -0.59609236662E+01  0.75244926910E+01  0.51100000000E-03 0. -1.
        -11    1    3    3    0    0  0.19475182063E+01 -0.99542341687E+01 -0.36843107781E+02  0.38213795889E+02  0.51100000000E-03 0.  1.
         12    1    3    3    0    0 -0.53067311373E+01  0.10627332497E+02  0.42645990654E+02  0.44269426360E+02  0.00000000000E+00 0. -1.
</event>
<event>
 7    1  0.2385752E-015  0.9000785E+02  0.7816164E-02  0.1186339E+00
        -11   -1    0    0    0    0  0.00000000000E+00  0.00000000000E+00  0.45593999997E+02  0.45594000000E+02  0.51100000000E-03 0. -1.
         11   -1    0    0    0    0 -0.00000000000E+00 -0.00000000000E+00 -0.45593999997E+02  0.45594000000E+02  0.51100000000E-03 0.  1.
    9900012    2    1    2    0    0 -0.10723483264E+01 -0.26156288439E+00  0.41762272347E+00  0.90007849664E+02  0.90000112480E+02 0.  0.
        -12    1    1    2    0    0  0.10723483264E+01  0.26156288439E+00 -0.41762272347E+00  0.11801503357E+01  0.00000000000E+00 0.  1.
         11    1    3    3    0    0  0.37344821544E+01  0.30529783492E+01 -0.77948871514E+01  0.91666405911E+01  0.51100000000E-03 0. -1.
        -11    1    3    3    0    0  0.10351626911E+02 -0.34340445201E+02 -0.15374833593E+02  0.39023170868E+02  0.51100000000E-03 0.  1.
         12    1    3    3    0    0 -0.15158457392E+02  0.31025903968E+02  0.23587343467E+02  0.41818038205E+02  0.00000000000E+00 0. -1.
</event>
<event>
 7    1  0.2385752E-015  0.9000776E+02  0.7816164E-02  0.1186339E+00
        -11   -1    0    0    0    0  0.00000000000E+00  0.00000000000E+00  0.45593999997E+02  0.45594000000E+02  0.51100000000E-03 0.  1.
         11   -1    0    0    0    0 -0.00000000000E+00 -0.00000000000E+00 -0.45593999997E+02  0.45594000000E+02  0.51100000000E-03 0. -1.
    9900012    2    1    2    0    0 -0.10222250588E+01 -0.23168921074E+00 -0.54253184137E+00  0.90007760719E+02  0.90000022361E+02 0.  0.
        -12    1    1    2    0    0  0.10222250588E+01  0.23168921074E+00  0.54253184137E+00  0.11802392809E+01  0.00000000000E+00 0.  1.
         11    1    3    3    0    0 -0.98773886290E+01  0.95146648450E-01  0.21071060622E+01  0.10100086892E+02  0.51100000000E-03 0. -1.
        -11    1    3    3    0    0 -0.51595714933E+01  0.37264274592E+02  0.78669917508E+01  0.38433538717E+02  0.51100000000E-03 0.  1.
         12    1    3    3    0    0  0.14014735063E+02 -0.37591110451E+02 -0.10516629654E+02  0.41474135110E+02  0.00000000000E+00 0. -1.
</event>
<event>
 7    1  0.2385752E-015  0.9000788E+02  0.7816164E-02  0.1186339E+00
        -11   -1    0    0    0    0  0.00000000000E+00  0.00000000000E+00  0.45593999997E+02  0.45594000000E+02  0.51100000000E-03 0. -1.
         11   -1    0    0    0    0 -0.00000000000E+00 -0.00000000000E+00 -0.45593999997E+02  0.45594000000E+02  0.51100000000E-03 0.  1.
    9900012    2    1    2    0    0  0.58298561871E+00  0.71426486514E-01  0.10235803941E+01  0.90007876787E+02  0.90000139960E+02 0.  0.
        -12    1    1    2    0    0 -0.58298561871E+00 -0.71426486514E-01 -0.10235803941E+01  0.11801232130E+01  0.00000000000E+00 0.  1.
         11    1    3    3    0    0 -0.13169469920E+02 -0.84278407502E+01  0.24446249517E+02  0.29018658711E+02  0.51100000000E-03 0. -1.
        -11    1    3    3    0    0  0.13576707350E+02  0.15872448274E+02  0.12483718485E+02  0.24333204149E+02  0.51100000000E-03 0.  1.
        -12    1    3    3    0    0  0.17574818838E+00 -0.73731810369E+01 -0.35906387608E+02  0.36656013928E+02  0.00000000000E+00 0.  1.
</event>
<event>
 7    1  0.2385752E-015  0.9000702E+02  0.7816164E-02  0.1186340E+00
        -11   -1    0    0    0    0  0.00000000000E+00  0.00000000000E+00  0.45593999997E+02  0.45594000000E+02  0.51100000000E-03 0. -1.
         11   -1    0    0    0    0 -0.00000000000E+00 -0.00000000000E+00 -0.45593999997E+02  0.45594000000E+02  0.51100000000E-03 0.  1.
    9900012    2    1    2    0    0 -0.45232918378E+00  0.92462330971E+00 -0.57894124834E+00  0.90007024588E+02  0.89999276509E+02 0.  0.
        -12    1    1    2    0    0  0.45232918378E+00 -0.92462330971E+00  0.57894124834E+00  0.11809754123E+01  0.00000000000E+00 0.  1.
         11    1    3    3    0    0  0.31486288374E+02 -0.46917905997E+01  0.13706508041E+02  0.34659307805E+02  0.51100000000E-03 0. -1.
        -11    1    3    3    0    0  0.90896017074E+01 -0.57560435710E+01 -0.13049197811E+01  0.10837698680E+02  0.51100000000E-03 0.  1.
        -12    1    3    3    0    0 -0.41028219265E+02  0.11372457480E+02 -0.12980529508E+02  0.44510018103E+02  0.00000000000E+00 0.  1.
</event>
<event>
 7    1  0.2385752E-015  0.9000772E+02  0.7816164E-02  0.1186339E+00
        -11   -1    0    0    0    0  0.00000000000E+00  0.00000000000E+00  0.45593999997E+02  0.45594000000E+02  0.51100000000E-03 0.  1.
         11   -1    0    0    0    0 -0.00000000000E+00 -0.00000000000E+00 -0.45593999997E+02  0.45594000000E+02  0.51100000000E-03 0. -1.
    9900012    2    1    2    0    0 -0.89282485881E+00 -0.56914136439E+00 -0.52154343125E+00  0.90007717969E+02  0.89999979047E+02 0.  0.
        -12    1    1    2    0    0  0.89282485881E+00  0.56914136439E+00  0.52154343125E+00  0.11802820306E+01  0.00000000000E+00 0.  1.
         11    1    3    3    0    0  0.20737157134E+01 -0.50277238797E+01 -0.88587222033E+01  0.10394963377E+02  0.51100000000E-03 0. -1.
        -11    1    3    3    0    0 -0.70723439595E+01 -0.34960769170E+02 -0.83127890551E+01  0.36624798868E+02  0.51100000000E-03 0.  1.
         12    1    3    3    0    0  0.41058033874E+01  0.39419351685E+02  0.16649967827E+02  0.42987955724E+02  0.00000000000E+00 0. -1.
</event>
<event>
 7    1  0.2385752E-015  0.9000764E+02  0.7816164E-02  0.1186339E+00
        -11   -1    0    0    0    0  0.00000000000E+00  0.00000000000E+00  0.45593999997E+02  0.45594000000E+02  0.51100000000E-03 0. -1.
         11   -1    0    0    0    0 -0.00000000000E+00 -0.00000000000E+00 -0.45593999997E+02  0.45594000000E+02  0.51100000000E-03 0.  1.
    9900012    2    1    2    0    0 -0.67096176334E+00  0.64986559683E+00  0.72161902921E+00  0.90007640307E+02  0.89999900359E+02 0.  0.
        -12    1    1    2    0    0  0.67096176334E+00 -0.64986559683E+00 -0.72161902921E+00  0.11803596931E+01  0.00000000000E+00 0.  1.
         11    1    3    3    0    0 -0.13923721840E+02 -0.25707292816E+02  0.24186332827E+02  0.37943558474E+02  0.51100000000E-03 0. -1.
        -11    1    3    3    0    0  0.52258294490E+01 -0.37873857978E+01  0.62482047417E+01  0.89829642862E+01  0.51100000000E-03 0.  1.
        -12    1    3    3    0    0  0.80269306279E+01  0.30144544211E+02 -0.29712918539E+02  0.43081117547E+02  0.00000000000E+00 0.  1.
</event>
<event>
 7    1  0.2385752E-015  0.9000832E+02  0.7816164E-02  0.1186338E+00
        -11   -1    0    0    0    0  0.00000000000E+00  0.00000000000E+00  0.45593999997E+02  0.45594000000E+02  0.51100000000E-03 0.  1.
         11   -1    0    0    0    0 -0.00000000000E+00 -0.00000000000E+00 -0.45593999997E+02  0.45594000000E+02  0.51100000000E-03 0. -1.
    9900012    2    1    2    0    0 -0.65164257857E-01 -0.28315482690E+00 -0.11433394617E+01  0.90008318619E+02  0.90000587623E+02 0.  0.
        -12    1    1    2    0    0  0.65164257857E-01  0.28315482690E+00  0.11433394617E+01  0.11796813812E+01  0.00000000000E+00 0.  1.
         11    1    3    3    0    0 -0.37250077428E+02 -0.14926429423E+02 -0.13594580883E+02  0.42369555029E+02  0.51100000000E-03 0. -1.
        -11    1    3    3    0    0  0.17383561195E+01  0.29533630388E+01  0.96141514192E+01  0.10206671495E+02  0.51100000000E-03 0.  1.
        -12    1    3    3    0    0  0.35446557050E+02  0.11689911557E+02  0.28370900025E+01  0.37432092095E+02  0.00000000000E+00 0.  1.
</event>
<event>
 7    1  0.2385752E-015  0.9000774E+02  0.7816164E-02  0.1186339E+00
        -11   -1    0    0    0    0  0.00000000000E+00  0.00000000000E+00  0.45593999997E+02  0.45594000000E+02  0.51100000000E-03 0.  1.
         11   -1    0    0    0    0 -0.00000000000E+00 -0.00000000000E+00 -0.45593999997E+02  0.45594000000E+02  0.51100000000E-03 0. -1.
    9900012    2    1    2    0    0  0.24448502713E+00 -0.76996295914E+00 -0.86045829393E+00  0.90007743942E+02  0.90000005362E+02 0.  0.
        -12    1    1    2    0    0 -0.24448502713E+00  0.76996295914E+00  0.86045829393E+00  0.11802560580E+01  0.00000000000E+00 0.  1.
         11    1    3    3    0    0 -0.12303234955E+02 -0.21262588635E+02 -0.31211848021E+02  0.39719601244E+02  0.51100000000E-03 0. -1.
        -11    1    3    3    0    0 -0.10468713672E+02  0.71615844204E+01  0.52894935493E+01  0.13742670761E+02  0.51100000000E-03 0.  1.
        -12    1    3    3    0    0  0.23016433655E+02  0.13331041256E+02  0.25061896177E+02  0.36545471938E+02  0.00000000000E+00 0.  1.
</event>
<event>
 7    1  0.2385752E-015  0.9000779E+02  0.7816164E-02  0.1186339E+00
        -11   -1    0    0    0    0  0.00000000000E+00  0.00000000000E+00  0.45593999997E+02  0.45594000000E+02  0.51100000000E-03 0. -1.
         11   -1    0    0    0    0 -0.00000000000E+00 -0.00000000000E+00 -0.45593999997E+02  0.45594000000E+02  0.51100000000E-03 0.  1.
    9900012    2    1    2    0    0  0.69667996869E+00 -0.76688599379E+00 -0.56516575662E+00  0.90007792629E+02  0.90000054692E+02 0.  0.
        -12    1    1    2    0    0 -0.69667996869E+00  0.76688599379E+00  0.56516575662E+00  0.11802073711E+01  0.00000000000E+00 0.  1.
         11    1    3    3    0    0  0.88549893710E+01  0.37897282557E+02  0.13983590848E+02  0.41354028524E+02  0.51100000000E-03 0. -1.
        -11    1    3    3    0    0  0.75815632974E+01 -0.67638278510E+01  0.15788965506E+00  0.10161417157E+02  0.51100000000E-03 0.  1.
        -12    1    3    3    0    0 -0.15739872700E+02 -0.31900340699E+02 -0.14706646259E+02  0.38492346948E+02  0.00000000000E+00 0.  1.
</event>
<event>
 7    1  0.2385752E-015  0.9000777E+02  0.7816164E-02  0.1186339E+00
        -11   -1    0    0    0    0  0.00000000000E+00  0.00000000000E+00  0.45593999997E+02  0.45594000000E+02  0.51100000000E-03 0.  1.
         11   -1    0    0    0    0 -0.00000000000E+00 -0.00000000000E+00 -0.45593999997E+02  0.45594000000E+02  0.51100000000E-03 0. -1.
    9900012    2    1    2    0    0  0.34616330770E+00  0.77297322835E+00 -0.82195971103E+00  0.90007773575E+02  0.90000035386E+02 0.  0.
        -12    1    1    2    0    0 -0.34616330770E+00 -0.77297322835E+00  0.82195971103E+00  0.11802264248E+01  0.00000000000E+00 0.  1.
         11    1    3    3    0    0  0.37281631315E+01  0.59589178943E+01  0.72821500893E+01  0.10121146822E+02  0.51100000000E-03 0. -1.
        -11    1    3    3    0    0  0.36947109542E+02 -0.31442999174E+01  0.50374653115E+01  0.37421271792E+02  0.51100000000E-03 0.  1.
         12    1    3    3    0    0 -0.40329109366E+02 -0.20416447485E+01 -0.13141575112E+02  0.42465354961E+02  0.00000000000E+00 0. -1.
</event>
<event>
 7    1  0.2385752E-015  0.9000746E+02  0.7816164E-02  0.1186340E+00
        -11   -1    0    0    0    0  0.00000000000E+00  0.00000000000E+00  0.45593999997E+02  0.45594000000E+02  0.51100000000E-03 0. -1.
         11   -1    0    0    0    0 -0.00000000000E+00 -0.00000000000E+00 -0.45593999997E+02  0.45594000000E+02  0.51100000000E-03 0.  1.
    9900012    2    1    2    0    0  0.57474292169E+00  0.10284544903E+01 -0.74953280556E-01  0.90007463656E+02  0.89999721376E+02 0.  0.
        -12    1    1    2    0    0 -0.57474292169E+00 -0.10284544903E+01  0.74953280556E-01  0.11805363437E+01  0.00000000000E+00 0.  1.
         11    1    3    3    0    0 -0.26377159989E+02  0.11985407378E+02  0.19756763451E+02  0.35067567087E+02  0.51100000000E-03 0. -1.
        -11    1    3    3    0    0 -0.24655755605E+01  0.10629030955E+02  0.37009502239E+01  0.11521822543E+02  0.51100000000E-03 0.  1.
        -12    1    3    3    0    0  0.29417478471E+02 -0.21585983843E+02 -0.23532666956E+02  0.43418074026E+02  0.00000000000E+00 0.  1.
</event>
<event>
 7    1  0.4260936E-015  0.9000777E+02  0.7816164E-02  0.1186339E+00
        -11   -1    0    0    0    0  0.00000000000E+00  0.00000000000E+00  0.45593999997E+02  0.45594000000E+02  0.51100000000E-03 0. -1.
         11   -1    0    0    0    0 -0.00000000000E+00 -0.00000000000E+00 -0.45593999997E+02  0.45594000000E+02  0.51100000000E-03 0.  1.
    9900012    2    1    2    0    0  0.72535599369E+00  0.31328913912E+00  0.87672764051E+00  0.90007770040E+02  0.90000031805E+02 0.  0.
        -12    1    1    2    0    0 -0.72535599369E+00 -0.31328913912E+00 -0.87672764051E+00  0.11802299598E+01  0.00000000000E+00 0.  1.
         11    1    3    3    0    0 -0.27485384433E+02 -0.22789295339E+02  0.18064073966E+02  0.40013861448E+02  0.51100000000E-03 0. -1.
        -11    1    3    3    0    0  0.33504473246E+01 -0.68162142149E+01 -0.54973303144E+01  0.93758687248E+01  0.51100000000E-03 0.  1.
        -12    1    3    3    0    0  0.24860293102E+02  0.29918798693E+02 -0.11690016012E+02  0.40618039867E+02  0.00000000000E+00 0.  1.
</event>
<event>
 7    1  0.2385752E-015  0.9000774E+02  0.7816164E-02  0.1186339E+00
        -11   -1    0    0    0    0  0.00000000000E+00  0.00000000000E+00  0.45593999997E+02  0.45594000000E+02  0.51100000000E-03 0.  1.
         11   -1    0    0    0    0 -0.00000000000E+00 -0.00000000000E+00 -0.45593999997E+02  0.45594000000E+02  0.51100000000E-03 0. -1.
    9900012    2    1    2    0    0  0.92803694280E+00 -0.20812184844E+00  0.69889623699E+00  0.90007735953E+02  0.89999997267E+02 0.  0.
        -12    1    1    2    0    0 -0.92803694280E+00  0.20812184844E+00 -0.69889623699E+00  0.11802640472E+01  0.00000000000E+00 0.  1.
         11    1    3    3    0    0  0.44832921176E+01 -0.72824592460E+01  0.35602995158E+01  0.92633608256E+01  0.51100000000E-03 0. -1.
        -11    1    3    3    0    0  0.65938523225E+01 -0.24736411051E+02  0.26088711552E+02  0.36551194109E+02  0.51100000000E-03 0.  1.
         12    1    3    3    0    0 -0.10149107497E+02  0.31810748448E+02 -0.28950114830E+02  0.44193181018E+02  0.00000000000E+00 0. -1.
</event>
<event>
 7    1  0.2385752E-015  0.9000778E+02  0.7816164E-02  0.1186339E+00
        -11   -1    0    0    0    0  0.00000000000E+00  0.00000000000E+00  0.45593999997E+02  0.45594000000E+02  0.51100000000E-03 0.  1.
         11   -1    0    0    0    0 -0.00000000000E+00 -0.00000000000E+00 -0.45593999997E+02  0.45594000000E+02  0.51100000000E-03 0. -1.
    9900012    2    1    2    0    0  0.95091771078E+00  0.64125972508E+00  0.27833136264E+00  0.90007776769E+02  0.90000038622E+02 0.  0.
        -12    1    1    2    0    0 -0.95091771078E+00 -0.64125972508E+00 -0.27833136264E+00  0.11802232310E+01  0.00000000000E+00 0.  1.
         11    1    3    3    0    0 -0.30010538307E+02  0.26424222148E+02 -0.12687826816E+02  0.41950600415E+02  0.51100000000E-03 0. -1.
        -11    1    3    3    0    0  0.49396514579E+01  0.23103382213E+01  0.76530182541E+01  0.93971542437E+01  0.51100000000E-03 0.  1.
        -12    1    3    3    0    0  0.26021804560E+02 -0.28093300644E+02  0.53131399248E+01  0.38660022110E+02  0.00000000000E+00 0.  1.
</event>
<event>
 7    1  0.2385752E-015  0.9000795E+02  0.7816164E-02  0.1186339E+00
        -11   -1    0    0    0    0  0.00000000000E+00  0.00000000000E+00  0.45593999997E+02  0.45594000000E+02  0.51100000000E-03 0. -1.
         11   -1    0    0    0    0 -0.00000000000E+00 -0.00000000000E+00 -0.45593999997E+02  0.45594000000E+02  0.51100000000E-03 0.  1.
    9900012    2    1    2    0    0  0.11108625228E+01  0.86058193325E-01 -0.38871918978E+00  0.90007947389E+02  0.90000211494E+02 0.  0.
        -12    1    1    2    0    0 -0.11108625228E+01 -0.86058193325E-01  0.38871918978E+00  0.11800526114E+01  0.00000000000E+00 0.  1.
         11    1    3    3    0    0  0.46290200146E+01  0.25119684049E+02  0.86856443160E+00  0.25557401226E+02  0.51100000000E-03 0. -1.
        -11    1    3    3    0    0  0.14068449941E+02  0.14925683427E+02  0.23424369979E+01  0.20644232145E+02  0.51100000000E-03 0.  1.
        -12    1    3    3    0    0 -0.17586607432E+02 -0.39959309282E+02 -0.35997206193E+01  0.43806314018E+02  0.00000000000E+00 0.  1.
</event>
<event>
 7    1  0.2385752E-015  0.9000653E+02  0.7816164E-02  0.1186341E+00
        -11   -1    0    0    0    0  0.00000000000E+00  0.00000000000E+00  0.45593999997E+02  0.45594000000E+02  0.51100000000E-03 0.  1.
         11   -1    0    0    0    0 -0.00000000000E+00 -0.00000000000E+00 -0.45593999997E+02  0.45594000000E+02  0.51100000000E-03 0. -1.
    9900012    2    1    2    0    0  0.10631175083E+01 -0.26410815048E+00 -0.44261258777E+00  0.90006527252E+02  0.89998772603E+02 0.  0.
        -12    1    1    2    0    0 -0.10631175083E+01  0.26410815048E+00  0.44261258777E+00  0.11814727481E+01  0.00000000000E+00 0.  1.
         11    1    3    3    0    0  0.14074802272E+02 -0.16932952022E+02 -0.34264648492E+02  0.40729486366E+02  0.51100000000E-03 0. -1.
        -11    1    3    3    0    0 -0.53239110974E+01 -0.75985754913E+01  0.40993454599E+01  0.10143323535E+02  0.51100000000E-03 0.  1.
        -12    1    3    3    0    0 -0.76877736659E+01  0.24267419363E+02  0.29722690444E+02  0.39133717351E+02  0.00000000000E+00 0.  1.
</event>
<event>
 7    1  0.2405929E-015  0.9000777E+02  0.7816164E-02  0.1186339E+00
        -11   -1    0    0    0    0  0.00000000000E+00  0.00000000000E+00  0.45593999997E+02  0.45594000000E+02  0.51100000000E-03 0.  1.
         11   -1    0    0    0    0 -0.00000000000E+00 -0.00000000000E+00 -0.45593999997E+02  0.45594000000E+02  0.51100000000E-03 0. -1.
    9900012    2    1    2    0    0 -0.61655334441E+00  0.67396701996E+00 -0.74737710143E+00  0.90007770318E+02  0.90000032086E+02 0.  0.
        -12    1    1    2    0    0  0.61655334441E+00 -0.67396701996E+00  0.74737710143E+00  0.11802296820E+01  0.00000000000E+00 0.  1.
         11    1    3    3    0    0 -0.12341215106E+02 -0.43979181780E+01 -0.37554848827E+02  0.39774538907E+02  0.51100000000E-03 0. -1.
        -11    1    3    3    0    0  0.96542960946E+01 -0.35845069878E+01 -0.19376290205E+01  0.10478956528E+02  0.51100000000E-03 0.  1.
        -12    1    3    3    0    0  0.20703656674E+01  0.86563921858E+01  0.38745100746E+02  0.39754274883E+02  0.00000000000E+00 0.  1.
</event>
<event>
 7    1  0.2385752E-015  0.9000774E+02  0.7816164E-02  0.1186339E+00
        -11   -1    0    0    0    0  0.00000000000E+00  0.00000000000E+00  0.45593999997E+02  0.45594000000E+02  0.51100000000E-03 0.  1.
         11   -1    0    0    0    0 -0.00000000000E+00 -0.00000000000E+00 -0.45593999997E+02  0.45594000000E+02  0.51100000000E-03 0. -1.
    9900012    2    1    2    0    0 -0.65636803615E+00  0.38915554316E+00  0.90042130583E+00  0.90007737502E+02  0.89999998837E+02 0.  0.
        -12    1    1    2    0    0  0.65636803615E+00 -0.38915554316E+00 -0.90042130583E+00  0.11802624978E+01  0.00000000000E+00 0.  1.
         11    1    3    3    0    0  0.29678178355E+01  0.16833871457E+01  0.76257808690E+01  0.83542964462E+01  0.51100000000E-03 0. -1.
        -11    1    3    3    0    0 -0.35917685105E+02  0.16862069990E+02 -0.17060813740E+02  0.43191212919E+02  0.51100000000E-03 0.  1.
         12    1    3    3    0    0  0.32293499233E+02 -0.18156301593E+02  0.10335454176E+02  0.38462228137E+02  0.00000000000E+00 0. -1.
</event>
<event>
 7    1  0.2385752E-015  0.9000793E+02  0.7816164E-02  0.1186339E+00
        -11   -1    0    0    0    0  0.00000000000E+00  0.00000000000E+00  0.45593999997E+02  0.45594000000E+02  0.51100000000E-03 0.  1.
         11   -1    0    0    0    0 -0.00000000000E+00 -0.00000000000E+00 -0.45593999997E+02  0.45594000000E+02  0.51100000000E-03 0. -1.
    9900012    2    1    2    0    0 -0.20949711114E-01  0.11791943223E+01  0.40265379563E-01  0.90007932442E+02  0.90000196350E+02 0.  0.
        -12    1    1    2    0    0  0.20949711114E-01 -0.11791943223E+01 -0.40265379563E-01  0.11800675578E+01  0.00000000000E+00 0.  1.
         11    1    3    3    0    0  0.39630431653E+01 -0.38297558795E+01 -0.86738314406E+01  0.10276579847E+02  0.51100000000E-03 0. -1.
        -11    1    3    3    0    0  0.34591415842E+02 -0.10381479560E+01  0.18826729166E+02  0.39396567522E+02  0.51100000000E-03 0.  1.
         12    1    3    3    0    0 -0.38575408719E+02  0.60470981578E+01 -0.10112632346E+02  0.40334785073E+02  0.00000000000E+00 0. -1.
</event>
<event>
 7    1  0.2385752E-015  0.9000760E+02  0.7816164E-02  0.1186339E+00
        -11   -1    0    0    0    0  0.00000000000E+00  0.00000000000E+00  0.45593999997E+02  0.45594000000E+02  0.51100000000E-03 0.  1.
         11   -1    0    0    0    0 -0.00000000000E+00 -0.00000000000E+00 -0.45593999997E+02  0.45594000000E+02  0.51100000000E-03 0. -1.
    9900012    2    1    2    0    0  0.11465026128E+01  0.28044045189E+00  0.15298379383E-01  0.90007597895E+02  0.89999857387E+02 0.  0.
        -12    1    1    2    0    0 -0.11465026128E+01 -0.28044045189E+00 -0.15298379383E-01  0.11804021046E+01  0.00000000000E+00 0.  1.
         11    1    3    3    0    0 -0.10458299840E+01 -0.96482203623E+00  0.94769487320E+01  0.95831727234E+01  0.51100000000E-03 0. -1.
        -11    1    3    3    0    0 -0.32742485970E+02 -0.94314511750E+01  0.14185476616E+02  0.36908676566E+02  0.51100000000E-03 0.  1.
         12    1    3    3    0    0  0.34934818567E+02  0.10676713663E+02 -0.23647126968E+02  0.43515748606E+02  0.00000000000E+00 0. -1.
</event>
<event>
 7    1  0.2385752E-015  0.9000770E+02  0.7816164E-02  0.1186339E+00
        -11   -1    0    0    0    0  0.00000000000E+00  0.00000000000E+00  0.45593999997E+02  0.45594000000E+02  0.51100000000E-03 0. -1.
         11   -1    0    0    0    0 -0.00000000000E+00 -0.00000000000E+00 -0.45593999997E+02  0.45594000000E+02  0.51100000000E-03 0.  1.
    9900012    2    1    2    0    0 -0.22636226861E+00 -0.35090235399E+00  0.11039605781E+01  0.90007702878E+02  0.89999963756E+02 0.  0.
        -12    1    1    2    0    0  0.22636226861E+00  0.35090235399E+00 -0.11039605781E+01  0.11802971222E+01  0.00000000000E+00 0.  1.
         11    1    3    3    0    0 -0.41786972274E+02  0.62289480672E+00 -0.61127536857E+01  0.42236297277E+02  0.51100000000E-03 0. -1.
        -11    1    3    3    0    0  0.10818325122E+02 -0.21358019289E+01 -0.78303190150E+01  0.13524485368E+02  0.51100000000E-03 0.  1.
        -12    1    3    3    0    0  0.30742284883E+02  0.11620047682E+01  0.15047033279E+02  0.34246920233E+02  0.00000000000E+00 0.  1.
</event>
<event>
 7    1  0.2385752E-015  0.9000838E+02  0.7816164E-02  0.1186338E+00
        -11   -1    0    0    0    0  0.00000000000E+00  0.00000000000E+00  0.45593999997E+02  0.45594000000E+02  0.51100000000E-03 0.  1.
         11   -1    0    0    0    0 -0.00000000000E+00 -0.00000000000E+00 -0.45593999997E+02  0.45594000000E+02  0.51100000000E-03 0. -1.
    9900012    2    1    2    0    0 -0.73034463145E+00  0.15427195741E+00 -0.91339436824E+00  0.90008384643E+02  0.90000654518E+02 0.  0.
        -12    1    1    2    0    0  0.73034463145E+00 -0.15427195741E+00  0.91339436824E+00  0.11796153566E+01  0.00000000000E+00 0.  1.
         11    1    3    3    0    0  0.16856205969E+01  0.28898108543E+01  0.12018933705E+02  0.12475860341E+02  0.51100000000E-03 0. -1.
        -11    1    3    3    0    0  0.22936922744E+00  0.17119476747E+01  0.32128822905E+02  0.32175217740E+02  0.51100000000E-03 0.  1.
         12    1    3    3    0    0 -0.26453344558E+01 -0.44474865715E+01 -0.45061150978E+02  0.45357306563E+02  0.00000000000E+00 0. -1.
</event>
<event>
 7    1  0.2385752E-015  0.9000759E+02  0.7816164E-02  0.1186339E+00
        -11   -1    0    0    0    0  0.00000000000E+00  0.00000000000E+00  0.45593999997E+02  0.45594000000E+02  0.51100000000E-03 0.  1.
         11   -1    0    0    0    0 -0.00000000000E+00 -0.00000000000E+00 -0.45593999997E+02  0.45594000000E+02  0.51100000000E-03 0. -1.
    9900012    2    1    2    0    0  0.64490259570E+00  0.36529690981E+00 -0.91870684723E+00  0.90007591824E+02  0.89999851236E+02 0.  0.
        -12    1    1    2    0    0 -0.64490259570E+00 -0.36529690981E+00  0.91870684723E+00  0.11804081758E+01  0.00000000000E+00 0.  1.
         11    1    3    3    0    0  0.66241970067E+01  0.19039921393E+02 -0.16587228882E+02  0.26106220617E+02  0.51100000000E-03 0. -1.
        -11    1    3    3    0    0  0.81394747122E+01  0.15039983215E+02 -0.94618695916E+01  0.19544286125E+02  0.51100000000E-03 0.  1.
        -12    1    3    3    0    0 -0.14118769123E+02 -0.33714607698E+02  0.25130391627E+02  0.44357085083E+02  0.00000000000E+00 0.  1.
</event>
<event>
 7    1  0.2385752E-015  0.9000772E+02  0.7816164E-02  0.1186339E+00
        -11   -1    0    0    0    0  0.00000000000E+00  0.00000000000E+00  0.45593999997E+02  0.45594000000E+02  0.51100000000E-03 0. -1.
         11   -1    0    0    0    0 -0.00000000000E+00 -0.00000000000E+00 -0.45593999997E+02  0.45594000000E+02  0.51100000000E-03 0.  1.
    9900012    2    1    2    0    0  0.67740936370E+00  0.94892276652E+00  0.18364504968E+00  0.90007718946E+02  0.89999980036E+02 0.  0.
        -12    1    1    2    0    0 -0.67740936370E+00 -0.94892276652E+00 -0.18364504968E+00  0.11802810543E+01  0.00000000000E+00 0.  1.
         11    1    3    3    0    0 -0.90257805762E+01  0.11546214195E+01  0.14462184627E+00  0.91004824801E+01  0.51100000000E-03 0. -1.
        -11    1    3    3    0    0  0.13741075793E+02 -0.29198542027E+02 -0.26222347905E+02  0.41581047971E+02  0.51100000000E-03 0.  1.
         12    1    3    3    0    0 -0.40378858533E+01  0.28992843374E+02  0.26261371108E+02  0.39326188495E+02  0.00000000000E+00 0. -1.
</event>
<event>
 7    1  0.2385752E-015  0.9000789E+02  0.7816164E-02  0.1186339E+00
        -11   -1    0    0    0    0  0.00000000000E+00  0.00000000000E+00  0.45593999997E+02  0.45594000000E+02  0.51100000000E-03 0.  1.
         11   -1    0    0    0    0 -0.00000000000E+00 -0.00000000000E+00 -0.45593999997E+02  0.45594000000E+02  0.51100000000E-03 0. -1.
    9900012    2    1    2    0    0  0.52358755301E+00 -0.83842650419E+00 -0.64464276084E+00  0.90007886778E+02  0.90000150083E+02 0.  0.
        -12    1    1    2    0    0 -0.52358755301E+00  0.83842650419E+00  0.64464276084E+00  0.11801132224E+01  0.00000000000E+00 0.  1.
         11    1    3    3    0    0 -0.37360115636E+02 -0.15839845584E+02  0.24460336080E+01  0.40652946131E+02  0.51100000000E-03 0. -1.
        -11    1    3    3    0    0  0.15618904312E+01  0.21591961621E+01  0.86733933705E+01  0.90735540229E+01  0.51100000000E-03 0.  1.
        -12    1    3    3    0    0  0.36321812758E+02  0.12842222918E+02 -0.11764069739E+02  0.40281386624E+02  0.00000000000E+00 0.  1.
</event>
<event>
 7    1  0.2385752E-015  0.9000774E+02  0.7816164E-02  0.1186339E+00
        -11   -1    0    0    0    0  0.00000000000E+00  0.00000000000E+00  0.45593999997E+02  0.45594000000E+02  0.51100000000E-03 0. -1.
         11   -1    0    0    0    0 -0.00000000000E+00 -0.00000000000E+00 -0.45593999997E+02  0.45594000000E+02  0.51100000000E-03 0.  1.
    9900012    2    1    2    0    0 -0.44503222235E+00  0.98070964737E+00  0.48288465322E+00  0.90007736182E+02  0.89999997500E+02 0.  0.
        -12    1    1    2    0    0  0.44503222235E+00 -0.98070964737E+00 -0.48288465322E+00  0.11802638178E+01  0.00000000000E+00 0.  1.
         11    1    3    3    0    0  0.84728189182E+01 -0.31242870240E+00 -0.27874132292E+01  0.89250179208E+01  0.51100000000E-03 0. -1.
        -11    1    3    3    0    0 -0.31389202135E+02 -0.15073656906E+02 -0.23881355677E+02  0.42223409294E+02  0.51100000000E-03 0.  1.
         12    1    3    3    0    0  0.22471350994E+02  0.16366795256E+02  0.27151653559E+02  0.38859308968E+02  0.00000000000E+00 0. -1.
</event>
<event>
 7    1  0.2385752E-015  0.9000753E+02  0.7816164E-02  0.1186339E+00
        -11   -1    0    0    0    0  0.00000000000E+00  0.00000000000E+00  0.45593999997E+02  0.45594000000E+02  0.51100000000E-03 0.  1.
         11   -1    0    0    0    0 -0.00000000000E+00 -0.00000000000E+00 -0.45593999997E+02  0.45594000000E+02  0.51100000000E-03 0. -1.
    9900012    2    1    2    0    0  0.16973532964E+00 -0.64889419680E+00 -0.97140407128E+00  0.90007534147E+02  0.89999792797E+02 0.  0.
        -12    1    1    2    0    0 -0.16973532964E+00  0.64889419680E+00  0.97140407128E+00  0.11804658532E+01  0.00000000000E+00 0.  1.
         11    1    3    3    0    0  0.31920394100E+01  0.79125632563E+01  0.42327594427E+01  0.95243910903E+01  0.51100000000E-03 0. -1.
        -11    1    3    3    0    0  0.27883420716E+02  0.22775997260E+02 -0.57888451919E+01  0.36465626705E+02  0.51100000000E-03 0.  1.
         12    1    3    3    0    0 -0.30905724797E+02 -0.31337454714E+02  0.58468167790E+00  0.44017516352E+02  0.00000000000E+00 0. -1.
</event>
<event>
 7    1  0.2385752E-015  0.9000774E+02  0.7816164E-02  0.1186339E+00
        -11   -1    0    0    0    0  0.00000000000E+00  0.00000000000E+00  0.45593999997E+02  0.45594000000E+02  0.51100000000E-03 0.  1.
         11   -1    0    0    0    0 -0.00000000000E+00 -0.00000000000E+00 -0.45593999997E+02  0.45594000000E+02  0.51100000000E-03 0. -1.
    9900012    2    1    2    0    0  0.78475183047E+00 -0.98131649583E-01 -0.87609323606E+00  0.90007743835E+02  0.90000005254E+02 0.  0.
        -12    1    1    2    0    0 -0.78475183047E+00  0.98131649583E-01  0.87609323606E+00  0.11802561647E+01  0.00000000000E+00 0.  1.
         11    1    3    3    0    0 -0.17502483214E+02 -0.64809711142E+00 -0.34437374941E+02  0.38635343166E+02  0.51100000000E-03 0. -1.
        -11    1    3    3    0    0 -0.70304120782E+01 -0.44540911784E+01 -0.84225665164E+00  0.83651072165E+01  0.51100000000E-03 0.  1.
        -12    1    3    3    0    0  0.25317647122E+02  0.50040566403E+01  0.34403538356E+02  0.43007293452E+02  0.00000000000E+00 0.  1.
</event>
<event>
 7    1  0.2385752E-015  0.9000772E+02  0.7816164E-02  0.1186339E+00
        -11   -1    0    0    0    0  0.00000000000E+00  0.00000000000E+00  0.45593999997E+02  0.45594000000E+02  0.51100000000E-03 0.  1.
         11   -1    0    0    0    0 -0.00000000000E+00 -0.00000000000E+00 -0.45593999997E+02  0.45594000000E+02  0.51100000000E-03 0. -1.
    9900012    2    1    2    0    0 -0.48167785643E+00  0.91220114168E+00 -0.57352036134E+00  0.90007724572E+02  0.89999985737E+02 0.  0.
        -12    1    1    2    0    0  0.48167785643E+00 -0.91220114168E+00  0.57352036134E+00  0.11802754277E+01  0.00000000000E+00 0.  1.
         11    1    3    3    0    0  0.57385666789E+01  0.70398671197E+01  0.50744983158E+01  0.10403913207E+02  0.51100000000E-03 0. -1.
        -11    1    3    3    0    0  0.15162550984E+02 -0.18706052691E+02  0.28554166844E+02  0.37351838028E+02  0.51100000000E-03 0.  1.
         12    1    3    3    0    0 -0.21382795519E+02  0.12578386713E+02 -0.34202185521E+02  0.42251973338E+02  0.00000000000E+00 0. -1.
</event>
<event>
 7    1  0.2385752E-015  0.9000781E+02  0.7816164E-02  0.1186339E+00
        -11   -1    0    0    0    0  0.00000000000E+00  0.00000000000E+00  0.45593999997E+02  0.45594000000E+02  0.51100000000E-03 0. -1.
         11   -1    0    0    0    0 -0.00000000000E+00 -0.00000000000E+00 -0.45593999997E+02  0.45594000000E+02  0.51100000000E-03 0.  1.
    9900012    2    1    2    0    0 -0.22672986553E+00 -0.75285702737E+00  0.88013920688E+00  0.90007811388E+02  0.90000073699E+02 0.  0.
        -12    1    1    2    0    0  0.22672986553E+00  0.75285702737E+00 -0.88013920688E+00  0.11801886116E+01  0.00000000000E+00 0.  1.
         11    1    3    3    0    0 -0.34923847856E+02  0.81528505429E+01 -0.34128280523E+01  0.36024873582E+02  0.51100000000E-03 0. -1.
        -11    1    3    3    0    0  0.39205349910E+00  0.11241536989E+02 -0.61928948731E+01  0.12840475341E+02  0.51100000000E-03 0.  1.
        -12    1    3    3    0    0  0.34305064491E+02 -0.20147244559E+02  0.10485862132E+02  0.41142462465E+02  0.00000000000E+00 0.  1.
</event>
<event>
 7    1  0.2385752E-015  0.9000779E+02  0.7816164E-02  0.1186339E+00
        -11   -1    0    0    0    0  0.00000000000E+00  0.00000000000E+00  0.45593999997E+02  0.45594000000E+02  0.51100000000E-03 0. -1.
         11   -1    0    0    0    0 -0.00000000000E+00 -0.00000000000E+00 -0.45593999997E+02  0.45594000000E+02  0.51100000000E-03 0.  1.
    9900012    2    1    2    0    0 -0.50037408639E+00 -0.45536876293E+00  0.96703605826E+00  0.90007790834E+02  0.90000052873E+02 0.  0.
        -12    1    1    2    0    0  0.50037408639E+00  0.45536876293E+00 -0.96703605826E+00  0.11802091656E+01  0.00000000000E+00 0.  1.
         11    1    3    3    0    0 -0.34366329769E+02 -0.97354773155E+01 -0.40968274181E+01  0.35952859908E+02  0.51100000000E-03 0. -1.
        -11    1    3    3    0    0 -0.83169806505E+01  0.49210429151E+01  0.64604400075E+01  0.11624375934E+02  0.51100000000E-03 0.  1.
        -12    1    3    3    0    0  0.42182936334E+02  0.43590656375E+01 -0.13965765312E+01  0.42430554992E+02  0.00000000000E+00 0.  1.
</event>
<event>
 8    1  0.2385752E-015  0.9000776E+02  0.7816164E-02  0.1186339E+00
        -11   -1    0    0    0    0  0.00000000000E+00  0.00000000000E+00  0.45593999997E+02  0.45594000000E+02  0.51100000000E-03 0.  1.
         11   -1    0    0    0    0 -0.00000000000E+00 -0.00000000000E+00 -0.45593999997E+02  0.45594000000E+02  0.51100000000E-03 0. -1.
    9900012    2    1    2    0    0 -0.80958438873E-02  0.11732164951E+01 -0.12828513996E+00  0.90007762920E+02  0.90000024591E+02 0.  0.
         23    2    3    3    0    0 -0.25129158880E+02  0.93972687657E+01 -0.10936025886E+02  0.61450625392E+02  0.54192244949E+02 0.  0.
        -12    1    1    2    0    0  0.80958438873E-02 -0.11732164951E+01  0.12828513996E+00  0.11802370796E+01  0.00000000000E+00 0.  1.
         11    1    4    4    0    0 -0.11443696616E+02  0.30705517328E+02  0.23493859141E+01  0.32852802028E+02  0.51100000000E-03 0. -1.
        -11    1    4    4    0    0 -0.13685462264E+02 -0.21308248563E+02 -0.13285411800E+02  0.28597823364E+02  0.51100000000E-03 0.  1.
        -12    1    3    3    0    0  0.25121063036E+02 -0.82240522706E+01  0.10807740746E+02  0.28557137529E+02  0.00000000000E+00 0.  1.
</event>
<event>
 7    1  0.2385752E-015  0.9000772E+02  0.7816164E-02  0.1186339E+00
        -11   -1    0    0    0    0  0.00000000000E+00  0.00000000000E+00  0.45593999997E+02  0.45594000000E+02  0.51100000000E-03 0.  1.
         11   -1    0    0    0    0 -0.00000000000E+00 -0.00000000000E+00 -0.45593999997E+02  0.45594000000E+02  0.51100000000E-03 0. -1.
    9900012    2    1    2    0    0 -0.34569237974E+00  0.70230364773E+00  0.88335477036E+00  0.90007724911E+02  0.89999986080E+02 0.  0.
        -12    1    1    2    0    0  0.34569237974E+00 -0.70230364773E+00 -0.88335477036E+00  0.11802750888E+01  0.00000000000E+00 0.  1.
         11    1    3    3    0    0  0.88636941086E+01 -0.22101252091E+01  0.15856160871E+01  0.92716721970E+01  0.51100000000E-03 0. -1.
        -11    1    3    3    0    0  0.89371273828E+01  0.12403574452E+02  0.35774320358E+02  0.38904021673E+02  0.51100000000E-03 0.  1.
         12    1    3    3    0    0 -0.18146513871E+02 -0.94911455948E+01 -0.36476581674E+02  0.41832031041E+02  0.00000000000E+00 0. -1.
</event>
<event>
 7    1  0.2385752E-015  0.9000738E+02  0.7816164E-02  0.1186340E+00
        -11   -1    0    0    0    0  0.00000000000E+00  0.00000000000E+00  0.45593999997E+02  0.45594000000E+02  0.51100000000E-03 0.  1.
         11   -1    0    0    0    0 -0.00000000000E+00 -0.00000000000E+00 -0.45593999997E+02  0.45594000000E+02  0.51100000000E-03 0. -1.
    9900012    2    1    2    0    0  0.92334990981E+00  0.37087049979E-01 -0.73478101674E+00  0.90007384208E+02  0.89999640879E+02 0.  0.
        -12    1    1    2    0    0 -0.92334990981E+00 -0.37087049979E-01  0.73478101674E+00  0.11806157918E+01  0.00000000000E+00 0.  1.
         11    1    3    3    0    0  0.41886691691E+01  0.59226032753E+01 -0.40281923419E+01  0.82975003928E+01  0.51100000000E-03 0. -1.
        -11    1    3    3    0    0 -0.63093324467E+01  0.35154150110E+02  0.15280280866E+02  0.38847251248E+02  0.51100000000E-03 0.  1.
         12    1    3    3    0    0  0.30440131874E+01 -0.41039666336E+02 -0.11986869541E+02  0.42862632568E+02  0.00000000000E+00 0. -1.
</event>
<event>
 7    1  0.2385752E-015  0.9000772E+02  0.7816164E-02  0.1186339E+00
        -11   -1    0    0    0    0  0.00000000000E+00  0.00000000000E+00  0.45593999997E+02  0.45594000000E+02  0.51100000000E-03 0.  1.
         11   -1    0    0    0    0 -0.00000000000E+00 -0.00000000000E+00 -0.45593999997E+02  0.45594000000E+02  0.51100000000E-03 0. -1.
    9900012    2    1    2    0    0  0.88697670704E+00  0.75934163581E+00 -0.17245358210E+00  0.90007717137E+02  0.89999978203E+02 0.  0.
        -12    1    1    2    0    0 -0.88697670704E+00 -0.75934163581E+00  0.17245358210E+00  0.11802828630E+01  0.00000000000E+00 0.  1.
         11    1    3    3    0    0 -0.32385722247E+02 -0.15920986226E+02 -0.14424134603E+01  0.36116386373E+02  0.51100000000E-03 0. -1.
        -11    1    3    3    0    0 -0.70602468324E+01 -0.34941647642E+01  0.37528683608E+01  0.87258405857E+01  0.51100000000E-03 0.  1.
        -12    1    3    3    0    0  0.40332945786E+02  0.20174492626E+02 -0.24829084825E+01  0.45165490178E+02  0.00000000000E+00 0.  1.
</event>
<event>
 7    1  0.2385752E-015  0.9000769E+02  0.7816164E-02  0.1186339E+00
        -11   -1    0    0    0    0  0.00000000000E+00  0.00000000000E+00  0.45593999997E+02  0.45594000000E+02  0.51100000000E-03 0.  1.
         11   -1    0    0    0    0 -0.00000000000E+00 -0.00000000000E+00 -0.45593999997E+02  0.45594000000E+02  0.51100000000E-03 0. -1.
    9900012    2    1    2    0    0 -0.77605110108E+00  0.49745748907E+00 -0.73717027664E+00  0.90007686787E+02  0.89999947452E+02 0.  0.
        -12    1    1    2    0    0  0.77605110108E+00 -0.49745748907E+00  0.73717027664E+00  0.11803132134E+01  0.00000000000E+00 0.  1.
         11    1    3    3    0    0 -0.28389760106E+01 -0.26674479149E+01 -0.36238142754E+02  0.36446921046E+02  0.51100000000E-03 0. -1.
        -11    1    3    3    0    0  0.99811506572E+01 -0.13257124268E+01 -0.55606346978E+01  0.11502240668E+02  0.51100000000E-03 0.  1.
        -12    1    3    3    0    0 -0.79182257477E+01  0.44906178308E+01  0.41061607175E+02  0.42058525073E+02  0.00000000000E+00 0.  1.
</event>
<event>
 7    1  0.2385752E-015  0.9000750E+02  0.7816164E-02  0.1186340E+00
        -11   -1    0    0    0    0  0.00000000000E+00  0.00000000000E+00  0.45593999997E+02  0.45594000000E+02  0.51100000000E-03 0. -1.
         11   -1    0    0    0    0 -0.00000000000E+00 -0.00000000000E+00 -0.45593999997E+02  0.45594000000E+02  0.51100000000E-03 0.  1.
    9900012    2    1    2    0    0 -0.10845822405E+01  0.40565942673E+00  0.22955179784E+00  0.90007503395E+02  0.89999761639E+02 0.  0.
        -12    1    1    2    0    0  0.10845822405E+01 -0.40565942673E+00 -0.22955179784E+00  0.11804966051E+01  0.00000000000E+00 0.  1.
         11    1    3    3    0    0  0.26266886378E+02 -0.10764398791E+02  0.22177637182E+02  0.36023175770E+02  0.51100000000E-03 0. -1.
        -11    1    3    3    0    0  0.64542634749E+01 -0.21250335002E+01  0.52645380223E+01  0.85958504658E+01  0.51100000000E-03 0.  1.
        -12    1    3    3    0    0 -0.33805732093E+02  0.13295091718E+02 -0.27212623407E+02  0.45388477159E+02  0.00000000000E+00 0.  1.
</event>
<event>
 7    1  0.2385752E-015  0.9000774E+02  0.7816164E-02  0.1186339E+00
        -11   -1    0    0    0    0  0.00000000000E+00  0.00000000000E+00  0.45593999997E+02  0.45594000000E+02  0.51100000000E-03 0.  1.
         11   -1    0    0    0    0 -0.00000000000E+00 -0.00000000000E+00 -0.45593999997E+02  0.45594000000E+02  0.51100000000E-03 0. -1.
    9900012    2    1    2    0    0 -0.37599315506E+00 -0.88488401782E+00 -0.68455330517E+00  0.90007744178E+02  0.90000005601E+02 0.  0.
        -12    1    1    2    0    0  0.37599315506E+00  0.88488401782E+00  0.68455330517E+00  0.11802558220E+01  0.00000000000E+00 0.  1.
         11    1    3    3    0    0  0.28207219431E+02  0.20963553634E+02 -0.25994100650E+02  0.43712825096E+02  0.51100000000E-03 0. -1.
        -11    1    3    3    0    0 -0.63963888099E+00 -0.44846906830E+01  0.78165402136E+01  0.90343726729E+01  0.51100000000E-03 0.  1.
        -12    1    3    3    0    0 -0.27943573705E+02 -0.17363746969E+02  0.17493007131E+02  0.37260546409E+02  0.00000000000E+00 0.  1.
</event>
<event>
 7    1  0.2385752E-015  0.9000771E+02  0.7816164E-02  0.1186339E+00
        -11   -1    0    0    0    0  0.00000000000E+00  0.00000000000E+00  0.45593999997E+02  0.45594000000E+02  0.51100000000E-03 0.  1.
         11   -1    0    0    0    0 -0.00000000000E+00 -0.00000000000E+00 -0.45593999997E+02  0.45594000000E+02  0.51100000000E-03 0. -1.
    9900012    2    1    2    0    0  0.42744455966E+00  0.10744235511E+01  0.23660178101E+00  0.90007713924E+02  0.89999974948E+02 0.  0.
        -12    1    1    2    0    0 -0.42744455966E+00 -0.10744235511E+01 -0.23660178101E+00  0.11802860761E+01  0.00000000000E+00 0.  1.
         11    1    3    3    0    0  0.43716773447E+01  0.93016280096E+01 -0.60387265417E+01  0.11920489291E+02  0.51100000000E-03 0. -1.
        -11    1    3    3    0    0 -0.13832368047E+02 -0.35462603739E+02 -0.16248333058E+02  0.41387667211E+02  0.51100000000E-03 0.  1.
         12    1    3    3    0    0  0.98881352620E+01  0.27235399281E+02  0.22523661381E+02  0.36699557421E+02  0.00000000000E+00 0. -1.
</event>
<event>
 7    1  0.2385752E-015  0.9000782E+02  0.7816164E-02  0.1186339E+00
        -11   -1    0    0    0    0  0.00000000000E+00  0.00000000000E+00  0.45593999997E+02  0.45594000000E+02  0.51100000000E-03 0.  1.
         11   -1    0    0    0    0 -0.00000000000E+00 -0.00000000000E+00 -0.45593999997E+02  0.45594000000E+02  0.51100000000E-03 0. -1.
    9900012    2    1    2    0    0 -0.68013801020E+00  0.88718482357E+00 -0.37832820670E+00  0.90007823379E+02  0.90000085848E+02 0.  0.
        -12    1    1    2    0    0  0.68013801020E+00 -0.88718482357E+00  0.37832820670E+00  0.11801766207E+01  0.00000000000E+00 0.  1.
         11    1    3    3    0    0  0.61920830985E+01 -0.14076277364E+02 -0.14732361569E+02  0.21296148835E+02  0.51100000000E-03 0. -1.
        -11    1    3    3    0    0 -0.52150704560E+01 -0.21703495514E+02  0.21865666409E+02  0.31246536531E+02  0.51100000000E-03 0.  1.
         12    1    3    3    0    0 -0.16571506528E+01  0.36666957701E+02 -0.75116330473E+01  0.37465138014E+02  0.00000000000E+00 0. -1.
</event>
<event>
 7    1  0.2385752E-015  0.9000773E+02  0.7816164E-02  0.1186339E+00
        -11   -1    0    0    0    0  0.00000000000E+00  0.00000000000E+00  0.45593999997E+02  0.45594000000E+02  0.51100000000E-03 0. -1.
         11   -1    0    0    0    0 -0.00000000000E+00 -0.00000000000E+00 -0.45593999997E+02  0.45594000000E+02  0.51100000000E-03 0.  1.
    9900012    2    1    2    0    0  0.23351073442E+00  0.40529489039E+00  0.10836292693E+01  0.90007727318E+02  0.89999988518E+02 0.  0.
        -12    1    1    2    0    0 -0.23351073442E+00 -0.40529489039E+00 -0.10836292693E+01  0.11802726823E+01  0.00000000000E+00 0.  1.
         11    1    3    3    0    0  0.88895740628E+01 -0.65175395005E+00 -0.54271440362E+01  0.10435669738E+02  0.51100000000E-03 0. -1.
        -11    1    3    3    0    0  0.60405827202E+01 -0.27451070803E+02 -0.22746724137E+02  0.36158863188E+02  0.51100000000E-03 0.  1.
         12    1    3    3    0    0 -0.14696646049E+02  0.28508119644E+02  0.29257497442E+02  0.43413194392E+02  0.00000000000E+00 0. -1.
</event>
<event>
 7    1  0.2385752E-015  0.9000771E+02  0.7816164E-02  0.1186339E+00
        -11   -1    0    0    0    0  0.00000000000E+00  0.00000000000E+00  0.45593999997E+02  0.45594000000E+02  0.51100000000E-03 0.  1.
         11   -1    0    0    0    0 -0.00000000000E+00 -0.00000000000E+00 -0.45593999997E+02  0.45594000000E+02  0.51100000000E-03 0. -1.
    9900012    2    1    2    0    0 -0.46592870433E+00 -0.71439527614E+00 -0.81586228335E+00  0.90007711292E+02  0.89999972281E+02 0.  0.
        -12    1    1    2    0    0  0.46592870433E+00  0.71439527614E+00  0.81586228335E+00  0.11802887077E+01  0.00000000000E+00 0.  1.
         11    1    3    3    0    0 -0.31557643058E+01  0.80107514677E+01  0.27207347810E+01  0.90295839019E+01  0.51100000000E-03 0. -1.
        -11    1    3    3    0    0 -0.14744032865E+02  0.78010956527E+01  0.33159444388E+02  0.37118625390E+02  0.51100000000E-03 0.  1.
         12    1    3    3    0    0  0.17433868466E+02 -0.16526242397E+02 -0.36696041452E+02  0.43859502000E+02  0.00000000000E+00 0. -1.
</event>
<event>
 7    1  0.2385752E-015  0.9000780E+02  0.7816164E-02  0.1186339E+00
        -11   -1    0    0    0    0  0.00000000000E+00  0.00000000000E+00  0.45593999997E+02  0.45594000000E+02  0.51100000000E-03 0.  1.
         11   -1    0    0    0    0 -0.00000000000E+00 -0.00000000000E+00 -0.45593999997E+02  0.45594000000E+02  0.51100000000E-03 0. -1.
    9900012    2    1    2    0    0  0.77310638697E+00 -0.88496578615E+00  0.10965081501E+00  0.90007796107E+02  0.90000058215E+02 0.  0.
        -12    1    1    2    0    0 -0.77310638697E+00  0.88496578615E+00 -0.10965081501E+00  0.11802038932E+01  0.00000000000E+00 0.  1.
         11    1    3    3    0    0 -0.55553387466E+01  0.14113118414E+02 -0.36175679769E+02  0.39226543398E+02  0.51100000000E-03 0. -1.
        -11    1    3    3    0    0 -0.74778775878E+01  0.21904832878E+01 -0.59371715848E+00  0.78146894101E+01  0.51100000000E-03 0.  1.
        -12    1    3    3    0    0  0.13806322721E+02 -0.17188567488E+02  0.36879047742E+02  0.42966563299E+02  0.00000000000E+00 0.  1.
</event>
<event>
 7    1  0.2385752E-015  0.9000774E+02  0.7816164E-02  0.1186339E+00
        -11   -1    0    0    0    0  0.00000000000E+00  0.00000000000E+00  0.45593999997E+02  0.45594000000E+02  0.51100000000E-03 0.  1.
         11   -1    0    0    0    0 -0.00000000000E+00 -0.00000000000E+00 -0.45593999997E+02  0.45594000000E+02  0.51100000000E-03 0. -1.
    9900012    2    1    2    0    0 -0.59643429613E-02  0.11086224092E+01 -0.40487944735E+00  0.90007743000E+02  0.90000004407E+02 0.  0.
        -12    1    1    2    0    0  0.59643429613E-02 -0.11086224092E+01  0.40487944735E+00  0.11802570001E+01  0.00000000000E+00 0.  1.
         11    1    3    3    0    0 -0.16793513632E+02  0.11827553143E+02 -0.30454041265E+02  0.36733659539E+02  0.51100000000E-03 0. -1.
        -11    1    3    3    0    0 -0.95316709876E+01 -0.64362772632E+00 -0.28359118959E+01  0.99654104284E+01  0.51100000000E-03 0.  1.
        -12    1    3    3    0    0  0.26319220277E+02 -0.10075303008E+02  0.32885073714E+02  0.43308673033E+02  0.00000000000E+00 0.  1.
</event>
<event>
 7    1  0.2385752E-015  0.9000735E+02  0.7816164E-02  0.1186340E+00
        -11   -1    0    0    0    0  0.00000000000E+00  0.00000000000E+00  0.45593999997E+02  0.45594000000E+02  0.51100000000E-03 0.  1.
         11   -1    0    0    0    0 -0.00000000000E+00 -0.00000000000E+00 -0.45593999997E+02  0.45594000000E+02  0.51100000000E-03 0. -1.
    9900012    2    1    2    0    0 -0.11180371265E+01  0.33436183098E+00  0.17923228789E+00  0.90007352270E+02  0.89999608519E+02 0.  0.
        -12    1    1    2    0    0  0.11180371265E+01 -0.33436183098E+00 -0.17923228789E+00  0.11806477304E+01  0.00000000000E+00 0.  1.
         11    1    3    3    0    0  0.16255368107E+02  0.19448177037E+02 -0.26036272975E+02  0.36336704488E+02  0.51100000000E-03 0. -1.
        -11    1    3    3    0    0  0.10264233170E+01 -0.11021225656E+01 -0.95126688826E+01  0.96311519823E+01  0.51100000000E-03 0.  1.
        -12    1    3    3    0    0 -0.18399828551E+02 -0.18011692641E+02  0.35728174145E+02  0.44039495799E+02  0.00000000000E+00 0.  1.
</event>
<event>
 7    1  0.2385752E-015  0.9000786E+02  0.7816164E-02  0.1186339E+00
        -11   -1    0    0    0    0  0.00000000000E+00  0.00000000000E+00  0.45593999997E+02  0.45594000000E+02  0.51100000000E-03 0. -1.
         11   -1    0    0    0    0 -0.00000000000E+00 -0.00000000000E+00 -0.45593999997E+02  0.45594000000E+02  0.51100000000E-03 0.  1.
    9900012    2    1    2    0    0  0.10061539232E+00 -0.10448158081E+01 -0.53941691694E+00  0.90007858424E+02  0.90000121355E+02 0.  0.
        -12    1    1    2    0    0 -0.10061539232E+00  0.10448158081E+01  0.53941691694E+00  0.11801415764E+01  0.00000000000E+00 0.  1.
         11    1    3    3    0    0  0.18244786978E+02  0.92690840880E+01  0.31425295256E+02  0.37501164701E+02  0.51100000000E-03 0. -1.
        -11    1    3    3    0    0  0.57435801799E+01  0.13329510644E+01  0.44773374447E+01  0.74035142114E+01  0.51100000000E-03 0.  1.
        -12    1    3    3    0    0 -0.23887751765E+02 -0.11646850961E+02 -0.36442049618E+02  0.45103179512E+02  0.00000000000E+00 0.  1.
</event>
<event>
 7    1  0.2385752E-015  0.9000779E+02  0.7816164E-02  0.1186339E+00
        -11   -1    0    0    0    0  0.00000000000E+00  0.00000000000E+00  0.45593999997E+02  0.45594000000E+02  0.51100000000E-03 0. -1.
         11   -1    0    0    0    0 -0.00000000000E+00 -0.00000000000E+00 -0.45593999997E+02  0.45594000000E+02  0.51100000000E-03 0.  1.
    9900012    2    1    2    0    0 -0.58884678437E+00 -0.56388257776E-01  0.10212560306E+01  0.90007794911E+02  0.90000057004E+02 0.  0.
        -12    1    1    2    0    0  0.58884678437E+00  0.56388257776E-01 -0.10212560306E+01  0.11802050886E+01  0.00000000000E+00 0.  1.
         11    1    3    3    0    0 -0.27992862065E+02  0.19568567640E+02  0.17558629632E+02  0.38403575887E+02  0.51100000000E-03 0. -1.
        -11    1    3    3    0    0  0.19447986695E+01  0.95479851602E+01 -0.61231743558E+01  0.11508237351E+02  0.51100000000E-03 0.  1.
        -12    1    3    3    0    0  0.25459216611E+02 -0.29172941058E+02 -0.10414199245E+02  0.40095981673E+02  0.00000000000E+00 0.  1.
</event>
<event>
 7    1  0.2385752E-015  0.9000754E+02  0.7816164E-02  0.1186339E+00
        -11   -1    0    0    0    0  0.00000000000E+00  0.00000000000E+00  0.45593999997E+02  0.45594000000E+02  0.51100000000E-03 0. -1.
         11   -1    0    0    0    0 -0.00000000000E+00 -0.00000000000E+00 -0.45593999997E+02  0.45594000000E+02  0.51100000000E-03 0.  1.
    9900012    2    1    2    0    0 -0.92811488493E+00  0.51544769166E+00 -0.51615144915E+00  0.90007535735E+02  0.89999794406E+02 0.  0.
        -12    1    1    2    0    0  0.92811488493E+00 -0.51544769166E+00  0.51615144915E+00  0.11804642650E+01  0.00000000000E+00 0.  1.
         11    1    3    3    0    0 -0.30279207043E+02  0.14938279566E+02  0.11234760279E+02  0.35583738061E+02  0.51100000000E-03 0. -1.
        -11    1    3    3    0    0 -0.56926428551E+01  0.76292696199E+01  0.37241129696E+01  0.10221592600E+02  0.51100000000E-03 0.  1.
        -12    1    3    3    0    0  0.35043735014E+02 -0.22052101495E+02 -0.15475024698E+02  0.44202205074E+02  0.00000000000E+00 0.  1.
</event>
<event>
 7    1  0.2385752E-015  0.9000775E+02  0.7816164E-02  0.1186339E+00
        -11   -1    0    0    0    0  0.00000000000E+00  0.00000000000E+00  0.45593999997E+02  0.45594000000E+02  0.51100000000E-03 0.  1.
         11   -1    0    0    0    0 -0.00000000000E+00 -0.00000000000E+00 -0.45593999997E+02  0.45594000000E+02  0.51100000000E-03 0. -1.
    9900012    2    1    2    0    0 -0.78399459877E+00 -0.12482163360E+00 -0.87336164752E+00  0.90007750646E+02  0.90000012154E+02 0.  0.
        -12    1    1    2    0    0  0.78399459877E+00  0.12482163360E+00  0.87336164752E+00  0.11802493544E+01  0.00000000000E+00 0.  1.
         11    1    3    3    0    0 -0.63007952959E+01 -0.53675427553E+01 -0.64062084932E+01  0.10466615695E+02  0.51100000000E-03 0. -1.
        -11    1    3    3    0    0 -0.13800735680E+02 -0.32945521472E+02 -0.32025770730E+01  0.35862573675E+02  0.51100000000E-03 0.  1.
         12    1    3    3    0    0  0.19317536377E+02  0.38188242594E+02  0.87354239187E+01  0.43678561276E+02  0.00000000000E+00 0. -1.
</event>
<event>
 7    1  0.2385752E-015  0.9000774E+02  0.7816164E-02  0.1186339E+00
        -11   -1    0    0    0    0  0.00000000000E+00  0.00000000000E+00  0.45593999997E+02  0.45594000000E+02  0.51100000000E-03 0.  1.
         11   -1    0    0    0    0 -0.00000000000E+00 -0.00000000000E+00 -0.45593999997E+02  0.45594000000E+02  0.51100000000E-03 0. -1.
    9900012    2    1    2    0    0  0.35435316094E+00  0.59226048236E+00 -0.95743223716E+00  0.90007739380E+02  0.90000000740E+02 0.  0.
        -12    1    1    2    0    0 -0.35435316094E+00 -0.59226048236E+00  0.95743223716E+00  0.11802606197E+01  0.00000000000E+00 0.  1.
         11    1    3    3    0    0  0.16940629354E+02 -0.16734536522E+02 -0.31206297540E+02  0.39253823278E+02  0.51100000000E-03 0. -1.
        -11    1    3    3    0    0  0.49313390762E+01 -0.33604407179E+01 -0.24759849874E+01  0.64607405784E+01  0.51100000000E-03 0.  1.
        -12    1    3    3    0    0 -0.21517615269E+02  0.20687237723E+02  0.32724850290E+02  0.44293175524E+02  0.00000000000E+00 0.  1.
</event>
<event>
 7    1  0.2850721E-015  0.9000777E+02  0.7816164E-02  0.1186339E+00
        -11   -1    0    0    0    0  0.00000000000E+00  0.00000000000E+00  0.45593999997E+02  0.45594000000E+02  0.51100000000E-03 0.  1.
         11   -1    0    0    0    0 -0.00000000000E+00 -0.00000000000E+00 -0.45593999997E+02  0.45594000000E+02  0.51100000000E-03 0. -1.
    9900012    2    1    2    0    0  0.74228108185E+00 -0.91518455979E+00 -0.66351959153E-01  0.90007768427E+02  0.90000030170E+02 0.  0.
        -12    1    1    2    0    0 -0.74228108185E+00  0.91518455979E+00  0.66351959153E-01  0.11802315728E+01  0.00000000000E+00 0.  1.
         11    1    3    3    0    0  0.31448854694E+02  0.67940864517E+01 -0.18635132796E+02  0.37181423411E+02  0.51100000000E-03 0. -1.
        -11    1    3    3    0    0  0.65444563498E+01 -0.69202677485E+01 -0.27309846365E+01  0.99084959491E+01  0.51100000000E-03 0.  1.
        -12    1    3    3    0    0 -0.37251029962E+02 -0.78900326291E+00  0.21299765473E+02  0.42917849067E+02  0.00000000000E+00 0.  1.
</event>
<event>
 7    1  0.2385752E-015  0.9000784E+02  0.7816164E-02  0.1186339E+00
        -11   -1    0    0    0    0  0.00000000000E+00  0.00000000000E+00  0.45593999997E+02  0.45594000000E+02  0.51100000000E-03 0. -1.
         11   -1    0    0    0    0 -0.00000000000E+00 -0.00000000000E+00 -0.45593999997E+02  0.45594000000E+02  0.51100000000E-03 0.  1.
    9900012    2    1    2    0    0  0.11015127249E+01  0.99604348362E-01 -0.41172478113E+00  0.90007843822E+02  0.90000106560E+02 0.  0.
        -12    1    1    2    0    0 -0.11015127249E+01 -0.99604348362E-01  0.41172478113E+00  0.11801561781E+01  0.00000000000E+00 0.  1.
         11    1    3    3    0    0 -0.85536787423E+01 -0.29846367002E+02  0.23219119842E+02  0.38769815188E+02  0.51100000000E-03 0. -1.
        -11    1    3    3    0    0  0.64512996647E+01  0.70262732583E+01  0.77195401098E+01  0.12271066907E+02  0.51100000000E-03 0.  1.
        -12    1    3    3    0    0  0.32038918026E+01  0.22919698092E+02 -0.31350384733E+02  0.38966961727E+02  0.00000000000E+00 0.  1.
</event>
<event>
 7    1  0.2385752E-015  0.9000787E+02  0.7816164E-02  0.1186339E+00
        -11   -1    0    0    0    0  0.00000000000E+00  0.00000000000E+00  0.45593999997E+02  0.45594000000E+02  0.51100000000E-03 0.  1.
         11   -1    0    0    0    0 -0.00000000000E+00 -0.00000000000E+00 -0.45593999997E+02  0.45594000000E+02  0.51100000000E-03 0. -1.
    9900012    2    1    2    0    0 -0.11414860946E+01  0.17911722829E+00 -0.24008275889E+00  0.90007867288E+02  0.90000130337E+02 0.  0.
        -12    1    1    2    0    0  0.11414860946E+01 -0.17911722829E+00  0.24008275889E+00  0.11801327115E+01  0.00000000000E+00 0.  1.
         11    1    3    3    0    0 -0.10024814852E+02 -0.34607034758E+01 -0.43504722652E+01  0.11462983493E+02  0.51100000000E-03 0. -1.
        -11    1    3    3    0    0  0.20032787099E+02 -0.13341736547E+02  0.34454247132E+02  0.42028676386E+02  0.51100000000E-03 0.  1.
         12    1    3    3    0    0 -0.11149458342E+02  0.16981557252E+02 -0.30343857626E+02  0.36516207410E+02  0.00000000000E+00 0. -1.
</event>
<event>
 7    1  0.2385752E-015  0.9000773E+02  0.7816164E-02  0.1186339E+00
        -11   -1    0    0    0    0  0.00000000000E+00  0.00000000000E+00  0.45593999997E+02  0.45594000000E+02  0.51100000000E-03 0.  1.
         11   -1    0    0    0    0 -0.00000000000E+00 -0.00000000000E+00 -0.45593999997E+02  0.45594000000E+02  0.51100000000E-03 0. -1.
    9900012    2    1    2    0    0  0.94932496514E+00  0.41437971606E+00 -0.56578934248E+00  0.90007726295E+02  0.89999987482E+02 0.  0.
        -12    1    1    2    0    0 -0.94932496514E+00 -0.41437971606E+00  0.56578934248E+00  0.11802737049E+01  0.00000000000E+00 0.  1.
         11    1    3    3    0    0 -0.38086639713E-01  0.10304850262E+01 -0.10186471494E+02  0.10238532694E+02  0.51100000000E-03 0. -1.
        -11    1    3    3    0    0 -0.21320038341E+02  0.29914779941E+02  0.18199860841E+02  0.40996012350E+02  0.51100000000E-03 0.  1.
         12    1    3    3    0    0  0.22307449946E+02 -0.30530885251E+02 -0.85791786895E+01  0.38773181250E+02  0.00000000000E+00 0. -1.
</event>
<event>
 7    1  0.2385752E-015  0.9000779E+02  0.7816164E-02  0.1186339E+00
        -11   -1    0    0    0    0  0.00000000000E+00  0.00000000000E+00  0.45593999997E+02  0.45594000000E+02  0.51100000000E-03 0.  1.
         11   -1    0    0    0    0 -0.00000000000E+00 -0.00000000000E+00 -0.45593999997E+02  0.45594000000E+02  0.51100000000E-03 0. -1.
    9900012    2    1    2    0    0 -0.10565363345E+01  0.27631469248E+00 -0.44752315444E+00  0.90007789930E+02  0.90000051957E+02 0.  0.
        -12    1    1    2    0    0  0.10565363345E+01 -0.27631469248E+00  0.44752315444E+00  0.11802100699E+01  0.00000000000E+00 0.  1.
         11    1    3    3    0    0  0.25494116003E+02 -0.61770015680E+01  0.21015169810E+02  0.33611644731E+02  0.51100000000E-03 0. -1.
        -11    1    3    3    0    0  0.86969238515E+01  0.12160428586E+02 -0.43237353457E+00  0.14956585674E+02  0.51100000000E-03 0.  1.
        -12    1    3    3    0    0 -0.35247576189E+02 -0.57071123259E+01 -0.21030319430E+02  0.41439559525E+02  0.00000000000E+00 0.  1.
</event>
<event>
 7    1  0.2385752E-015  0.9000798E+02  0.7816164E-02  0.1186339E+00
        -11   -1    0    0    0    0  0.00000000000E+00  0.00000000000E+00  0.45593999997E+02  0.45594000000E+02  0.51100000000E-03 0.  1.
         11   -1    0    0    0    0 -0.00000000000E+00 -0.00000000000E+00 -0.45593999997E+02  0.45594000000E+02  0.51100000000E-03 0. -1.
    9900012    2    1    2    0    0 -0.56065265048E+00  0.20588736022E+00 -0.10177033913E+01  0.90007982546E+02  0.90000247115E+02 0.  0.
        -12    1    1    2    0    0  0.56065265048E+00 -0.20588736022E+00  0.10177033913E+01  0.11800174542E+01  0.00000000000E+00 0.  1.
         11    1    3    3    0    0  0.11183166237E+02 -0.13993690834E+01  0.96380250465E+01  0.14829462835E+02  0.51100000000E-03 0. -1.
        -11    1    3    3    0    0  0.40627401512E+01  0.23904606228E+02  0.21897607938E+02  0.32671720036E+02  0.51100000000E-03 0.  1.
         12    1    3    3    0    0 -0.15806559039E+02 -0.22299349784E+02 -0.32553336375E+02  0.42506799675E+02  0.00000000000E+00 0. -1.
</event>
<event>
 7    1  0.2385752E-015  0.9000754E+02  0.7816164E-02  0.1186339E+00
        -11   -1    0    0    0    0  0.00000000000E+00  0.00000000000E+00  0.45593999997E+02  0.45594000000E+02  0.51100000000E-03 0.  1.
         11   -1    0    0    0    0 -0.00000000000E+00 -0.00000000000E+00 -0.45593999997E+02  0.45594000000E+02  0.51100000000E-03 0. -1.
    9900012    2    1    2    0    0  0.86277924098E+00 -0.39750362219E+00 -0.70077945707E+00  0.90007538651E+02  0.89999797361E+02 0.  0.
        -12    1    1    2    0    0 -0.86277924098E+00  0.39750362219E+00  0.70077945707E+00  0.11804613487E+01  0.00000000000E+00 0.  1.
         11    1    3    3    0    0  0.34135294744E+01 -0.51443918243E+01 -0.73434111192E+01  0.95938854403E+01  0.51100000000E-03 0. -1.
        -11    1    3    3    0    0  0.12979374993E+02 -0.27812551149E+02  0.25323117807E+02  0.39790230866E+02  0.51100000000E-03 0.  1.
         12    1    3    3    0    0 -0.15530125226E+02  0.32559439351E+02 -0.18680486145E+02  0.40623422345E+02  0.00000000000E+00 0. -1.
</event>
<event>
 7    1  0.3530405E-015  0.9000774E+02  0.7816164E-02  0.1186339E+00
        -11   -1    0    0    0    0  0.00000000000E+00  0.00000000000E+00  0.45593999997E+02  0.45594000000E+02  0.51100000000E-03 0. -1.
         11   -1    0    0    0    0 -0.00000000000E+00 -0.00000000000E+00 -0.45593999997E+02  0.45594000000E+02  0.51100000000E-03 0.  1.
    9900012    2    1    2    0    0  0.35002381484E+00 -0.10517902279E+01  0.40525912780E+00  0.90007739726E+02  0.90000001090E+02 0.  0.
        -12    1    1    2    0    0 -0.35002381484E+00  0.10517902279E+01 -0.40525912780E+00  0.11802602743E+01  0.00000000000E+00 0.  1.
         11    1    3    3    0    0  0.73472133747E+01  0.13219578147E+02  0.38837443108E+02  0.41678361030E+02  0.51100000000E-03 0. -1.
        -11    1    3    3    0    0  0.77183257050E+01  0.39756299640E-01 -0.53322562868E+01  0.93812093901E+01  0.51100000000E-03 0.  1.
        -12    1    3    3    0    0 -0.14715515265E+02 -0.14311124674E+02 -0.33099927693E+02  0.38948169305E+02  0.00000000000E+00 0.  1.
</event>
<event>
 7    1  0.2385752E-015  0.9000768E+02  0.7816164E-02  0.1186339E+00
        -11   -1    0    0    0    0  0.00000000000E+00  0.00000000000E+00  0.45593999997E+02  0.45594000000E+02  0.51100000000E-03 0. -1.
         11   -1    0    0    0    0 -0.00000000000E+00 -0.00000000000E+00 -0.45593999997E+02  0.45594000000E+02  0.51100000000E-03 0.  1.
    9900012    2    1    2    0    0  0.10244205129E+01 -0.42350069858E+00  0.40541810303E+00  0.90007680523E+02  0.89999941106E+02 0.  0.
        -12    1    1    2    0    0 -0.10244205129E+01  0.42350069858E+00 -0.40541810303E+00  0.11803194768E+01  0.00000000000E+00 0.  1.
         11    1    3    3    0    0  0.32852237356E+02  0.16472116055E+02  0.74803827749E+01  0.37504082889E+02  0.51100000000E-03 0. -1.
        -11    1    3    3    0    0  0.66344736226E+01 -0.12561530700E+01  0.59378949643E+01  0.89918161487E+01  0.51100000000E-03 0.  1.
        -12    1    3    3    0    0 -0.38462290466E+02 -0.15639463683E+02 -0.13012859636E+02  0.43511781486E+02  0.00000000000E+00 0.  1.
</event>
<event>
 7    1  0.2385752E-015  0.9000872E+02  0.7816164E-02  0.1186337E+00
        -11   -1    0    0    0    0  0.00000000000E+00  0.00000000000E+00  0.45593999997E+02  0.45594000000E+02  0.51100000000E-03 0. -1.
         11   -1    0    0    0    0 -0.00000000000E+00 -0.00000000000E+00 -0.45593999997E+02  0.45594000000E+02  0.51100000000E-03 0.  1.
    9900012    2    1    2    0    0 -0.65548393563E+00  0.32918639418E+00  0.92340615165E+00  0.90008719799E+02  0.90000994095E+02 0.  0.
        -12    1    1    2    0    0  0.65548393563E+00 -0.32918639418E+00 -0.92340615165E+00  0.11792802012E+01  0.00000000000E+00 0.  1.
         11    1    3    3    0    0  0.10978936124E+01 -0.74359312919E+01  0.74763614778E+01  0.10601623733E+02  0.51100000000E-03 0. -1.
        -11    1    3    3    0    0  0.20478940568E+02 -0.21016127180E+02 -0.25071276902E+02  0.38595770936E+02  0.51100000000E-03 0.  1.
         12    1    3    3    0    0 -0.22232318116E+02  0.28781244866E+02  0.18518321575E+02  0.40811325130E+02  0.00000000000E+00 0. -1.
</event>
<event>
 7    1  0.2385752E-015  0.9000783E+02  0.7816164E-02  0.1186339E+00
        -11   -1    0    0    0    0  0.00000000000E+00  0.00000000000E+00  0.45593999997E+02  0.45594000000E+02  0.51100000000E-03 0.  1.
         11   -1    0    0    0    0 -0.00000000000E+00 -0.00000000000E+00 -0.45593999997E+02  0.45594000000E+02  0.51100000000E-03 0. -1.
    9900012    2    1    2    0    0  0.42956197950E+00 -0.46061161483E+00 -0.99805041298E+00  0.90007834257E+02  0.90000096869E+02 0.  0.
        -12    1    1    2    0    0 -0.42956197950E+00  0.46061161483E+00  0.99805041298E+00  0.11801657429E+01  0.00000000000E+00 0.  1.
         11    1    3    3    0    0 -0.39189899925E+01 -0.55401757488E+01 -0.31061898569E+01  0.74632731142E+01  0.51100000000E-03 0. -1.
        -11    1    3    3    0    0 -0.31526883643E+02  0.12794304046E+02  0.22280267486E+02  0.40670000342E+02  0.51100000000E-03 0.  1.
         12    1    3    3    0    0  0.35875435615E+02 -0.77147399123E+01 -0.20172128042E+02  0.41874560801E+02  0.00000000000E+00 0. -1.
</event>
<event>
 7    1  0.2385752E-015  0.9000775E+02  0.7816164E-02  0.1186339E+00
        -11   -1    0    0    0    0  0.00000000000E+00  0.00000000000E+00  0.45593999997E+02  0.45594000000E+02  0.51100000000E-03 0. -1.
         11   -1    0    0    0    0 -0.00000000000E+00 -0.00000000000E+00 -0.45593999997E+02  0.45594000000E+02  0.51100000000E-03 0.  1.
    9900012    2    1    2    0    0  0.50375752554E+00  0.67122195618E+00  0.82986478093E+00  0.90007751673E+02  0.90000013195E+02 0.  0.
        -12    1    1    2    0    0 -0.50375752554E+00 -0.67122195618E+00 -0.82986478093E+00  0.11802483271E+01  0.00000000000E+00 0.  1.
         11    1    3    3    0    0 -0.16924831286E+02 -0.26541084301E+01  0.30760253288E+02  0.35209194654E+02  0.51100000000E-03 0. -1.
        -11    1    3    3    0    0 -0.11383562149E+02 -0.74639831472E+01 -0.30636648763E+01  0.13952869754E+02  0.51100000000E-03 0.  1.
        -12    1    3    3    0    0  0.28812150961E+02  0.10789313534E+02 -0.26866723630E+02  0.40845687265E+02  0.00000000000E+00 0.  1.
</event>
<event>
 7    1  0.2385752E-015  0.9000778E+02  0.7816164E-02  0.1186339E+00
        -11   -1    0    0    0    0  0.00000000000E+00  0.00000000000E+00  0.45593999997E+02  0.45594000000E+02  0.51100000000E-03 0.  1.
         11   -1    0    0    0    0 -0.00000000000E+00 -0.00000000000E+00 -0.45593999997E+02  0.45594000000E+02  0.51100000000E-03 0. -1.
    9900012    2    1    2    0    0 -0.80050754371E+00 -0.23191506346E-01 -0.86693464774E+00  0.90007777200E+02  0.90000039059E+02 0.  0.
        -12    1    1    2    0    0  0.80050754371E+00  0.23191506346E-01  0.86693464774E+00  0.11802227997E+01  0.00000000000E+00 0.  1.
         11    1    3    3    0    0  0.16002828400E+01  0.38870228321E+01  0.96096597493E+01  0.10488823214E+02  0.51100000000E-03 0. -1.
        -11    1    3    3    0    0 -0.12394808680E+01 -0.53727495961E+01  0.34281408788E+02  0.34722006564E+02  0.51100000000E-03 0.  1.
         12    1    3    3    0    0 -0.11613095157E+01  0.14625352576E+01 -0.44758003185E+02  0.44796947422E+02  0.00000000000E+00 0. -1.
</event>
<event>
 7    1  0.2385752E-015  0.9000801E+02  0.7816164E-02  0.1186338E+00
        -11   -1    0    0    0    0  0.00000000000E+00  0.00000000000E+00  0.45593999997E+02  0.45594000000E+02  0.51100000000E-03 0.  1.
         11   -1    0    0    0    0 -0.00000000000E+00 -0.00000000000E+00 -0.45593999997E+02  0.45594000000E+02  0.51100000000E-03 0. -1.
    9900012    2    1    2    0    0 -0.64660303545E+00  0.29437293811E+00 -0.94213285996E+00  0.90008014730E+02  0.90000279724E+02 0.  0.
        -12    1    1    2    0    0  0.64660303545E+00 -0.29437293811E+00  0.94213285996E+00  0.11799852702E+01  0.00000000000E+00 0.  1.
         11    1    3    3    0    0  0.27640710034E+01  0.81800172215E+01 -0.58246234292E+00  0.86540183093E+01  0.51100000000E-03 0. -1.
        -11    1    3    3    0    0  0.34828848768E+02  0.20907869579E+01  0.16244927783E+02  0.38487891285E+02  0.51100000000E-03 0.  1.
         12    1    3    3    0    0 -0.38239522807E+02 -0.99764312413E+01 -0.16604598300E+02  0.42866105136E+02  0.00000000000E+00 0. -1.
</event>
<event>
 7    1  0.2385752E-015  0.9000769E+02  0.7816164E-02  0.1186339E+00
        -11   -1    0    0    0    0  0.00000000000E+00  0.00000000000E+00  0.45593999997E+02  0.45594000000E+02  0.51100000000E-03 0. -1.
         11   -1    0    0    0    0 -0.00000000000E+00 -0.00000000000E+00 -0.45593999997E+02  0.45594000000E+02  0.51100000000E-03 0.  1.
    9900012    2    1    2    0    0 -0.86371035974E+00  0.63441779080E+00  0.49462939376E+00  0.90007686586E+02  0.89999947249E+02 0.  0.
        -12    1    1    2    0    0  0.86371035974E+00 -0.63441779080E+00 -0.49462939376E+00  0.11803134143E+01  0.00000000000E+00 0.  1.
         11    1    3    3    0    0  0.89785091119E+00 -0.54497931866E-01 -0.11044231485E+02  0.11080801218E+02  0.51100000000E-03 0. -1.
        -11    1    3    3    0    0 -0.12005428141E+02 -0.28303531068E+02 -0.18548663749E+02  0.35906449322E+02  0.51100000000E-03 0.  1.
         12    1    3    3    0    0  0.10243866870E+02  0.28992446791E+02  0.30087524627E+02  0.43020436046E+02  0.00000000000E+00 0. -1.
</event>
<event>
 7    1  0.2385752E-015  0.9000781E+02  0.7816164E-02  0.1186339E+00
        -11   -1    0    0    0    0  0.00000000000E+00  0.00000000000E+00  0.45593999997E+02  0.45594000000E+02  0.51100000000E-03 0. -1.
         11   -1    0    0    0    0 -0.00000000000E+00 -0.00000000000E+00 -0.45593999997E+02  0.45594000000E+02  0.51100000000E-03 0.  1.
    9900012    2    1    2    0    0  0.37891724601E+00  0.10713380882E+01  0.31860592889E+00  0.90007807932E+02  0.90000070197E+02 0.  0.
        -12    1    1    2    0    0 -0.37891724601E+00 -0.10713380882E+01 -0.31860592889E+00  0.11801920676E+01  0.00000000000E+00 0.  1.
         11    1    3    3    0    0 -0.63852129096E+01  0.62222524899E+01 -0.32925799896E+01  0.95041282187E+01  0.51100000000E-03 0. -1.
        -11    1    3    3    0    0 -0.25426189777E+02 -0.31259130094E+01 -0.26157018529E+02  0.36612184820E+02  0.51100000000E-03 0.  1.
         12    1    3    3    0    0  0.32190319933E+02 -0.20250013924E+01  0.29768204447E+02  0.43891494894E+02  0.00000000000E+00 0. -1.
</event>
<event>
 7    1  0.2385752E-015  0.9000774E+02  0.7816164E-02  0.1186339E+00
        -11   -1    0    0    0    0  0.00000000000E+00  0.00000000000E+00  0.45593999997E+02  0.45594000000E+02  0.51100000000E-03 0. -1.
         11   -1    0    0    0    0 -0.00000000000E+00 -0.00000000000E+00 -0.45593999997E+02  0.45594000000E+02  0.51100000000E-03 0.  1.
    9900012    2    1    2    0    0  0.95132355170E+00  0.34616061573E+00 -0.60677064751E+00  0.90007739736E+02  0.90000001101E+02 0.  0.
        -12    1    1    2    0    0 -0.95132355170E+00 -0.34616061573E+00  0.60677064751E+00  0.11802602639E+01  0.00000000000E+00 0.  1.
         11    1    3    3    0    0  0.62188790420E+01  0.73254542590E+01  0.37084888544E+02  0.38309603172E+02  0.51100000000E-03 0. -1.
        -11    1    3    3    0    0 -0.70856992867E+01 -0.67886398641E+01  0.35355749013E+01  0.10430390967E+02  0.51100000000E-03 0.  1.
        -12    1    3    3    0    0  0.18181437964E+01 -0.19065377914E+00 -0.41227234092E+02  0.41267745597E+02  0.00000000000E+00 0.  1.
</event>
<event>
 7    1  0.2385752E-015  0.9000775E+02  0.7816164E-02  0.1186339E+00
        -11   -1    0    0    0    0  0.00000000000E+00  0.00000000000E+00  0.45593999997E+02  0.45594000000E+02  0.51100000000E-03 0.  1.
         11   -1    0    0    0    0 -0.00000000000E+00 -0.00000000000E+00 -0.45593999997E+02  0.45594000000E+02  0.51100000000E-03 0. -1.
    9900012    2    1    2    0    0 -0.62233265629E+00 -0.17226304936E+00 -0.98794101565E+00  0.90007745814E+02  0.90000007259E+02 0.  0.
        -12    1    1    2    0    0  0.62233265629E+00  0.17226304936E+00  0.98794101565E+00  0.11802541860E+01  0.00000000000E+00 0.  1.
         11    1    3    3    0    0  0.12464052967E+02  0.11372771262E+02  0.26937546499E+02  0.31785593501E+02  0.51100000000E-03 0. -1.
        -11    1    3    3    0    0 -0.16087828637E+02  0.14858055787E+02 -0.35940204861E+01  0.22192274231E+02  0.51100000000E-03 0.  1.
        -12    1    3    3    0    0  0.30014430134E+01 -0.26403090098E+02 -0.24331467028E+02  0.36029878083E+02  0.00000000000E+00 0.  1.
</event>
<event>
 7    1  0.2385752E-015  0.9000784E+02  0.7816164E-02  0.1186339E+00
        -11   -1    0    0    0    0  0.00000000000E+00  0.00000000000E+00  0.45593999997E+02  0.45594000000E+02  0.51100000000E-03 0.  1.
         11   -1    0    0    0    0 -0.00000000000E+00 -0.00000000000E+00 -0.45593999997E+02  0.45594000000E+02  0.51100000000E-03 0. -1.
    9900012    2    1    2    0    0  0.54074544395E-01  0.98703908706E-01 -0.11747820490E+01  0.90007839257E+02  0.90000101935E+02 0.  0.
        -12    1    1    2    0    0 -0.54074544395E-01 -0.98703908706E-01  0.11747820490E+01  0.11801607435E+01  0.00000000000E+00 0.  1.
         11    1    3    3    0    0  0.51780030674E+01  0.33678531416E+01  0.78317891309E+01  0.99745211315E+01  0.51100000000E-03 0. -1.
        -11    1    3    3    0    0  0.15476678567E+02  0.23532632433E+01  0.30975190464E+02  0.34706308532E+02  0.51100000000E-03 0.  1.
         12    1    3    3    0    0 -0.20600607090E+02 -0.56224124762E+01 -0.39981761644E+02  0.45327009593E+02  0.00000000000E+00 0. -1.
</event>
<event>
 7    1  0.3006198E-015  0.9000767E+02  0.7816164E-02  0.1186339E+00
        -11   -1    0    0    0    0  0.00000000000E+00  0.00000000000E+00  0.45593999997E+02  0.45594000000E+02  0.51100000000E-03 0. -1.
         11   -1    0    0    0    0 -0.00000000000E+00 -0.00000000000E+00 -0.45593999997E+02  0.45594000000E+02  0.51100000000E-03 0.  1.
    9900012    2    1    2    0    0  0.53301799941E+00  0.99900964781E+00  0.33324448839E+00  0.90007669388E+02  0.89999929824E+02 0.  0.
        -12    1    1    2    0    0 -0.53301799941E+00 -0.99900964781E+00 -0.33324448839E+00  0.11803306118E+01  0.00000000000E+00 0.  1.
         11    1    3    3    0    0  0.22594910645E+02 -0.27406981891E+02  0.71098047073E+01  0.36224604438E+02  0.51100000000E-03 0. -1.
        -11    1    3    3    0    0  0.24521539099E+01 -0.86125334745E+01 -0.11906810839E+01  0.90336323454E+01  0.51100000000E-03 0.  1.
        -12    1    3    3    0    0 -0.24514046556E+02  0.37018525014E+02 -0.55858791351E+01  0.44749432605E+02  0.00000000000E+00 0.  1.
</event>
<event>
 7    1  0.2385752E-015  0.9000756E+02  0.7816164E-02  0.1186339E+00
        -11   -1    0    0    0    0  0.00000000000E+00  0.00000000000E+00  0.45593999997E+02  0.45594000000E+02  0.51100000000E-03 0.  1.
         11   -1    0    0    0    0 -0.00000000000E+00 -0.00000000000E+00 -0.45593999997E+02  0.45594000000E+02  0.51100000000E-03 0. -1.
    9900012    2    1    2    0    0  0.88741332909E+00 -0.10602469304E+00 -0.77117159172E+00  0.90007555475E+02  0.89999814407E+02 0.  0.
        -12    1    1    2    0    0 -0.88741332909E+00  0.10602469304E+00  0.77117159172E+00  0.11804445248E+01  0.00000000000E+00 0.  1.
         11    1    3    3    0    0  0.18203064069E+02 -0.37563313770E+02  0.31272100209E+01  0.41858494068E+02  0.51100000000E-03 0. -1.
        -11    1    3    3    0    0  0.23119444991E+01  0.65972043610E+01 -0.88112710984E+01  0.11247519343E+02  0.51100000000E-03 0.  1.
        -12    1    3    3    0    0 -0.19627595239E+02  0.30860084716E+02  0.49128894858E+01  0.36901542063E+02  0.00000000000E+00 0.  1.
</event>
<event>
 7    1  0.2385752E-015  0.9000774E+02  0.7816164E-02  0.1186339E+00
        -11   -1    0    0    0    0  0.00000000000E+00  0.00000000000E+00  0.45593999997E+02  0.45594000000E+02  0.51100000000E-03 0.  1.
         11   -1    0    0    0    0 -0.00000000000E+00 -0.00000000000E+00 -0.45593999997E+02  0.45594000000E+02  0.51100000000E-03 0. -1.
    9900012    2    1    2    0    0 -0.10627801615E+01  0.35443315495E+00 -0.37133442993E+00  0.90007739947E+02  0.90000001315E+02 0.  0.
        -12    1    1    2    0    0  0.10627801615E+01 -0.35443315495E+00  0.37133442993E+00  0.11802600526E+01  0.00000000000E+00 0.  1.
         11    1    3    3    0    0  0.75336058732E+01  0.53216215764E+01 -0.46815293884E+00  0.92354773072E+01  0.51100000000E-03 0. -1.
        -11    1    3    3    0    0 -0.20352461499E+01 -0.24770132584E+02  0.33304261472E+02  0.41555691879E+02  0.51100000000E-03 0.  1.
         12    1    3    3    0    0 -0.65611398849E+01  0.19802944162E+02 -0.33207442963E+02  0.39216570761E+02  0.00000000000E+00 0. -1.
</event>
<event>
 7    1  0.2385752E-015  0.9000771E+02  0.7816164E-02  0.1186339E+00
        -11   -1    0    0    0    0  0.00000000000E+00  0.00000000000E+00  0.45593999997E+02  0.45594000000E+02  0.51100000000E-03 0. -1.
         11   -1    0    0    0    0 -0.00000000000E+00 -0.00000000000E+00 -0.45593999997E+02  0.45594000000E+02  0.51100000000E-03 0.  1.
    9900012    2    1    2    0    0  0.57009891193E+00  0.87609312836E+00 -0.54821180443E+00  0.90007708459E+02  0.89999969411E+02 0.  0.
        -12    1    1    2    0    0 -0.57009891193E+00 -0.87609312836E+00  0.54821180443E+00  0.11802915409E+01  0.00000000000E+00 0.  1.
         11    1    3    3    0    0 -0.27597427347E+01  0.33286606403E+02 -0.47618343663E+01  0.33738544909E+02  0.51100000000E-03 0. -1.
        -11    1    3    3    0    0 -0.34440416894E+01  0.11184912932E+02 -0.14337047686E+01  0.11790640783E+02  0.51100000000E-03 0.  1.
        -12    1    3    3    0    0  0.67738833360E+01 -0.43595426206E+02  0.56473273304E+01  0.44478522767E+02  0.00000000000E+00 0.  1.
</event>
<event>
 7    1  0.2385752E-015  0.9000770E+02  0.7816164E-02  0.1186339E+00
        -11   -1    0    0    0    0  0.00000000000E+00  0.00000000000E+00  0.45593999997E+02  0.45594000000E+02  0.51100000000E-03 0.  1.
         11   -1    0    0    0    0 -0.00000000000E+00 -0.00000000000E+00 -0.45593999997E+02  0.45594000000E+02  0.51100000000E-03 0. -1.
    9900012    2    1    2    0    0  0.67204358271E+00 -0.93606885029E+00 -0.25542157644E+00  0.90007700186E+02  0.89999961028E+02 0.  0.
        -12    1    1    2    0    0 -0.67204358271E+00  0.93606885029E+00  0.25542157644E+00  0.11802998141E+01  0.00000000000E+00 0.  1.
         11    1    3    3    0    0 -0.74301080693E+01  0.16707764877E+02 -0.31382079587E+02  0.36320666742E+02  0.51100000000E-03 0. -1.
        -11    1    3    3    0    0 -0.54086774469E+01 -0.56436397407E+01 -0.76307280551E+01  0.10923940322E+02  0.51100000000E-03 0.  1.
        -12    1    3    3    0    0  0.13510829099E+02 -0.12000193987E+02  0.38757386066E+02  0.42763093122E+02  0.00000000000E+00 0.  1.
</event>
<event>
 7    1  0.2385752E-015  0.9000777E+02  0.7816164E-02  0.1186339E+00
        -11   -1    0    0    0    0  0.00000000000E+00  0.00000000000E+00  0.45593999997E+02  0.45594000000E+02  0.51100000000E-03 0.  1.
         11   -1    0    0    0    0 -0.00000000000E+00 -0.00000000000E+00 -0.45593999997E+02  0.45594000000E+02  0.51100000000E-03 0. -1.
    9900012    2    1    2    0    0 -0.29942857871E+00  0.50083741151E+00 -0.10258899116E+01  0.90007768795E+02  0.90000030543E+02 0.  0.
        -12    1    1    2    0    0  0.29942857871E+00 -0.50083741151E+00  0.10258899116E+01  0.11802312049E+01  0.00000000000E+00 0.  1.
         11    1    3    3    0    0 -0.39286653275E+01  0.42028295602E+01  0.64167204873E+01  0.86181488523E+01  0.51100000000E-03 0. -1.
        -11    1    3    3    0    0 -0.11578691035E+02  0.34818126639E+02  0.73343656468E+01  0.37418724570E+02  0.51100000000E-03 0.  1.
         12    1    3    3    0    0  0.15207927783E+02 -0.38520118787E+02 -0.14776976046E+02  0.43970895373E+02  0.00000000000E+00 0. -1.
</event>
<event>
 7    1  0.2385752E-015  0.9000783E+02  0.7816164E-02  0.1186339E+00
        -11   -1    0    0    0    0  0.00000000000E+00  0.00000000000E+00  0.45593999997E+02  0.45594000000E+02  0.51100000000E-03 0. -1.
         11   -1    0    0    0    0 -0.00000000000E+00 -0.00000000000E+00 -0.45593999997E+02  0.45594000000E+02  0.51100000000E-03 0.  1.
    9900012    2    1    2    0    0  0.10725498661E+01  0.47562858354E+00  0.12731862510E+00  0.90007832301E+02  0.90000094888E+02 0.  0.
        -12    1    1    2    0    0 -0.10725498661E+01 -0.47562858354E+00 -0.12731862510E+00  0.11801676987E+01  0.00000000000E+00 0.  1.
         11    1    3    3    0    0 -0.29187129503E+02  0.18475857074E+02 -0.91579199133E+01  0.35736722298E+02  0.51100000000E-03 0. -1.
        -11    1    3    3    0    0  0.54193974384E+01 -0.86723527686E+00 -0.14721145969E+02  0.15710954921E+02  0.51100000000E-03 0.  1.
        -12    1    3    3    0    0  0.24840281930E+02 -0.17132993214E+02  0.24006384507E+02  0.38560155082E+02  0.00000000000E+00 0.  1.
</event>
<event>
 7    1  0.2385752E-015  0.9000774E+02  0.7816164E-02  0.1186339E+00
        -11   -1    0    0    0    0  0.00000000000E+00  0.00000000000E+00  0.45593999997E+02  0.45594000000E+02  0.51100000000E-03 0. -1.
         11   -1    0    0    0    0 -0.00000000000E+00 -0.00000000000E+00 -0.45593999997E+02  0.45594000000E+02  0.51100000000E-03 0.  1.
    9900012    2    1    2    0    0  0.67132777300E+00 -0.17042866186E+00  0.95565641664E+00  0.90007743208E+02  0.90000004619E+02 0.  0.
        -12    1    1    2    0    0 -0.67132777300E+00  0.17042866186E+00 -0.95565641664E+00  0.11802567917E+01  0.00000000000E+00 0.  1.
         11    1    3    3    0    0  0.29210698806E+02 -0.24723522232E+02  0.16487089109E+01  0.38304513019E+02  0.51100000000E-03 0. -1.
        -11    1    3    3    0    0  0.84350546138E+01  0.57682168531E+01  0.20696174777E+00  0.10220827042E+02  0.51100000000E-03 0.  1.
        -12    1    3    3    0    0 -0.36974425647E+02  0.18784876717E+02 -0.90001424207E+00  0.41482403147E+02  0.00000000000E+00 0.  1.
</event>
<event>
 7    1  0.2385752E-015  0.9000774E+02  0.7816164E-02  0.1186339E+00
        -11   -1    0    0    0    0  0.00000000000E+00  0.00000000000E+00  0.45593999997E+02  0.45594000000E+02  0.51100000000E-03 0.  1.
         11   -1    0    0    0    0 -0.00000000000E+00 -0.00000000000E+00 -0.45593999997E+02  0.45594000000E+02  0.51100000000E-03 0. -1.
    9900012    2    1    2    0    0  0.44254066989E+00 -0.10911468519E+01  0.80983773910E-01  0.90007744914E+02  0.90000006347E+02 0.  0.
        -12    1    1    2    0    0 -0.44254066989E+00  0.10911468519E+01 -0.80983773910E-01  0.11802550862E+01  0.00000000000E+00 0.  1.
         11    1    3    3    0    0 -0.31475728031E+01 -0.57790110298E+00  0.91478518251E+01  0.96914589980E+01  0.51100000000E-03 0. -1.
        -11    1    3    3    0    0 -0.10313904033E+02  0.59330523446E+01  0.33247245238E+02  0.35312278923E+02  0.51100000000E-03 0.  1.
         12    1    3    3    0    0  0.13904017506E+02 -0.64462980935E+01 -0.42314113290E+02  0.45004006993E+02  0.00000000000E+00 0. -1.
</event>
<event>
 7    1  0.2385752E-015  0.9000773E+02  0.7816164E-02  0.1186339E+00
        -11   -1    0    0    0    0  0.00000000000E+00  0.00000000000E+00  0.45593999997E+02  0.45594000000E+02  0.51100000000E-03 0.  1.
         11   -1    0    0    0    0 -0.00000000000E+00 -0.00000000000E+00 -0.45593999997E+02  0.45594000000E+02  0.51100000000E-03 0. -1.
    9900012    2    1    2    0    0 -0.11568454084E+00 -0.40759732169E+00 -0.11015945376E+01  0.90007733498E+02  0.89999994781E+02 0.  0.
        -12    1    1    2    0    0  0.11568454084E+00  0.40759732169E+00  0.11015945376E+01  0.11802665016E+01  0.00000000000E+00 0.  1.
         11    1    3    3    0    0  0.66669587159E+01 -0.20699591920E+01 -0.38093509476E+02  0.38727877996E+02  0.51100000000E-03 0. -1.
        -11    1    3    3    0    0  0.89542367219E+01  0.18223934003E+01 -0.18922172944E+01  0.93316643493E+01  0.51100000000E-03 0.  1.
        -12    1    3    3    0    0 -0.15736879979E+02 -0.16003152992E+00  0.38884132233E+02  0.41948191154E+02  0.00000000000E+00 0.  1.
</event>
<event>
 7    1  0.2385752E-015  0.9000773E+02  0.7816164E-02  0.1186339E+00
        -11   -1    0    0    0    0  0.00000000000E+00  0.00000000000E+00  0.45593999997E+02  0.45594000000E+02  0.51100000000E-03 0.  1.
         11   -1    0    0    0    0 -0.00000000000E+00 -0.00000000000E+00 -0.45593999997E+02  0.45594000000E+02  0.51100000000E-03 0. -1.
    9900012    2    1    2    0    0  0.64897161954E+00  0.33162105533E+00 -0.92838674136E+00  0.90007729426E+02  0.89999990654E+02 0.  0.
        -12    1    1    2    0    0 -0.64897161954E+00 -0.33162105533E+00  0.92838674136E+00  0.11802705744E+01  0.00000000000E+00 0.  1.
         11    1    3    3    0    0  0.17234879204E+02  0.16679505305E+02 -0.92210150172E+01  0.25695798813E+02  0.51100000000E-03 0. -1.
        -11    1    3    3    0    0  0.17549351326E+02  0.88071470703E+01 -0.42561665710E+01  0.20091304727E+02  0.51100000000E-03 0.  1.
        -12    1    3    3    0    0 -0.34135258911E+02 -0.25155031320E+02  0.12548794847E+02  0.44220625886E+02  0.00000000000E+00 0.  1.
</event>
<event>
 7    1  0.2385752E-015  0.9000764E+02  0.7816164E-02  0.1186339E+00
        -11   -1    0    0    0    0  0.00000000000E+00  0.00000000000E+00  0.45593999997E+02  0.45594000000E+02  0.51100000000E-03 0.  1.
         11   -1    0    0    0    0 -0.00000000000E+00 -0.00000000000E+00 -0.45593999997E+02  0.45594000000E+02  0.51100000000E-03 0. -1.
    9900012    2    1    2    0    0  0.50229592435E+00  0.10632693035E+01  0.10199250878E+00  0.90007641885E+02  0.89999901958E+02 0.  0.
        -12    1    1    2    0    0 -0.50229592435E+00 -0.10632693035E+01 -0.10199250878E+00  0.11803581148E+01  0.00000000000E+00 0.  1.
         11    1    3    3    0    0 -0.81283604635E+01  0.95733031080E+00 -0.57231087861E+01  0.99870265639E+01  0.51100000000E-03 0. -1.
        -11    1    3    3    0    0 -0.14218260463E+02  0.45793413790E+01  0.37697974951E+02  0.40549557503E+02  0.51100000000E-03 0.  1.
         12    1    3    3    0    0  0.22848916851E+02 -0.44734023863E+01 -0.31872873656E+02  0.39471057818E+02  0.00000000000E+00 0. -1.
</event>
<event>
 7    1  0.2385752E-015  0.9000751E+02  0.7816164E-02  0.1186340E+00
        -11   -1    0    0    0    0  0.00000000000E+00  0.00000000000E+00  0.45593999997E+02  0.45594000000E+02  0.51100000000E-03 0.  1.
         11   -1    0    0    0    0 -0.00000000000E+00 -0.00000000000E+00 -0.45593999997E+02  0.45594000000E+02  0.51100000000E-03 0. -1.
    9900012    2    1    2    0    0 -0.50984219712E+00 -0.10556257730E+01 -0.13883069843E+00  0.90007509085E+02  0.89999767404E+02 0.  0.
        -12    1    1    2    0    0  0.50984219712E+00  0.10556257730E+01  0.13883069843E+00  0.11804909154E+01  0.00000000000E+00 0.  1.
         11    1    3    3    0    0 -0.10246490261E+02  0.40291640311E+02 -0.24770297644E+01  0.41647839300E+02  0.51100000000E-03 0. -1.
        -11    1    3    3    0    0  0.60169343602E-01 -0.76500204700E+01  0.98829497996E+01  0.12497965056E+02  0.51100000000E-03 0.  1.
        -12    1    3    3    0    0  0.96764787206E+01 -0.33697245614E+02 -0.75447507336E+01  0.35861704729E+02  0.00000000000E+00 0.  1.
</event>
<event>
 7    1  0.2385752E-015  0.9000771E+02  0.7816164E-02  0.1186339E+00
        -11   -1    0    0    0    0  0.00000000000E+00  0.00000000000E+00  0.45593999997E+02  0.45594000000E+02  0.51100000000E-03 0.  1.
         11   -1    0    0    0    0 -0.00000000000E+00 -0.00000000000E+00 -0.45593999997E+02  0.45594000000E+02  0.51100000000E-03 0. -1.
    9900012    2    1    2    0    0  0.41575402194E+00 -0.11039060504E+01 -0.40192652239E-01  0.90007713838E+02  0.89999974861E+02 0.  0.
        -12    1    1    2    0    0 -0.41575402194E+00  0.11039060504E+01  0.40192652239E-01  0.11802861620E+01  0.00000000000E+00 0.  1.
         11    1    3    3    0    0  0.71492646595E+01  0.26424309250E+01  0.57045828911E+01  0.95203304873E+01  0.51100000000E-03 0. -1.
        -11    1    3    3    0    0  0.14515323780E+02 -0.25102577644E+02  0.24379310112E+02  0.37883832839E+02  0.51100000000E-03 0.  1.
         12    1    3    3    0    0 -0.21248834418E+02  0.21356240668E+02 -0.30124085656E+02  0.42603550511E+02  0.00000000000E+00 0. -1.
</event>
<event>
 7    1  0.2385752E-015  0.9000746E+02  0.7816164E-02  0.1186340E+00
        -11   -1    0    0    0    0  0.00000000000E+00  0.00000000000E+00  0.45593999997E+02  0.45594000000E+02  0.51100000000E-03 0. -1.
         11   -1    0    0    0    0 -0.00000000000E+00 -0.00000000000E+00 -0.45593999997E+02  0.45594000000E+02  0.51100000000E-03 0.  1.
    9900012    2    1    2    0    0 -0.53834415036E+00  0.66043350058E+00  0.81712393199E+00  0.90007458449E+02  0.89999716100E+02 0.  0.
        -12    1    1    2    0    0  0.53834415036E+00 -0.66043350058E+00 -0.81712393199E+00  0.11805415508E+01  0.00000000000E+00 0.  1.
         11    1    3    3    0    0 -0.22270773425E+00 -0.79306948045E+01 -0.15662552238E+01  0.80869446953E+01  0.51100000000E-03 0. -1.
        -11    1    3    3    0    0  0.15096992020E+02 -0.33579361306E+02 -0.15511878324E+01  0.36849679208E+02  0.51100000000E-03 0.  1.
         12    1    3    3    0    0 -0.15412628436E+02  0.42170489611E+02  0.39345669882E+01  0.45070834546E+02  0.00000000000E+00 0. -1.
</event>
<event>
 7    1  0.2385752E-015  0.9000704E+02  0.7816164E-02  0.1186340E+00
        -11   -1    0    0    0    0  0.00000000000E+00  0.00000000000E+00  0.45593999997E+02  0.45594000000E+02  0.51100000000E-03 0.  1.
         11   -1    0    0    0    0 -0.00000000000E+00 -0.00000000000E+00 -0.45593999997E+02  0.45594000000E+02  0.51100000000E-03 0. -1.
    9900012    2    1    2    0    0  0.73003771425E+00  0.70100557386E+00 -0.60852637894E+00  0.90007039276E+02  0.89999291391E+02 0.  0.
        -12    1    1    2    0    0 -0.73003771425E+00 -0.70100557386E+00  0.60852637894E+00  0.11809607244E+01  0.00000000000E+00 0.  1.
         11    1    3    3    0    0 -0.15033583409E+02  0.32302247478E+02 -0.87895712570E+01  0.36697416604E+02  0.51100000000E-03 0. -1.
        -11    1    3    3    0    0 -0.88613639111E+01 -0.14026744021E+00 -0.62350560327E+01  0.10836021840E+02  0.51100000000E-03 0.  1.
        -12    1    3    3    0    0  0.24624985034E+02 -0.31460974464E+02  0.14416100911E+02  0.42473600832E+02  0.00000000000E+00 0.  1.
</event>
<event>
 7    1  0.2385752E-015  0.9000774E+02  0.7816164E-02  0.1186339E+00
        -11   -1    0    0    0    0  0.00000000000E+00  0.00000000000E+00  0.45593999997E+02  0.45594000000E+02  0.51100000000E-03 0.  1.
         11   -1    0    0    0    0 -0.00000000000E+00 -0.00000000000E+00 -0.45593999997E+02  0.45594000000E+02  0.51100000000E-03 0. -1.
    9900012    2    1    2    0    0  0.62536822016E+00  0.10008923618E+01 -0.11515436917E-01  0.90007744292E+02  0.90000005717E+02 0.  0.
        -12    1    1    2    0    0 -0.62536822016E+00 -0.10008923618E+01  0.11515436917E-01  0.11802557079E+01  0.00000000000E+00 0.  1.
         11    1    3    3    0    0 -0.41367560911E+02 -0.37504956683E+00 -0.77944957471E+01  0.42097148622E+02  0.51100000000E-03 0. -1.
        -11    1    3    3    0    0  0.51568078235E+01  0.77739021589E+01 -0.13439207484E+01  0.94250912432E+01  0.51100000000E-03 0.  1.
        -12    1    3    3    0    0  0.36836121307E+02 -0.63979602302E+01  0.91269010586E+01  0.38485504427E+02  0.00000000000E+00 0.  1.
</event>
<event>
 7    1  0.2436584E-015  0.9000816E+02  0.7816164E-02  0.1186338E+00
        -11   -1    0    0    0    0  0.00000000000E+00  0.00000000000E+00  0.45593999997E+02  0.45594000000E+02  0.51100000000E-03 0.  1.
         11   -1    0    0    0    0 -0.00000000000E+00 -0.00000000000E+00 -0.45593999997E+02  0.45594000000E+02  0.51100000000E-03 0. -1.
    9900012    2    1    2    0    0  0.25224532402E+00 -0.95752656405E+00 -0.64151242569E+00  0.90008159750E+02  0.90000426657E+02 0.  0.
        -12    1    1    2    0    0 -0.25224532402E+00  0.95752656405E+00  0.64151242569E+00  0.11798402505E+01  0.00000000000E+00 0.  1.
         11    1    3    3    0    0 -0.76113547926E+01 -0.25072102904E+02 -0.25610145287E+02  0.36639085793E+02  0.51100000000E-03 0. -1.
        -11    1    3    3    0    0 -0.56159243424E+01 -0.39872358807E+01 -0.62173208534E+01  0.92785631993E+01  0.51100000000E-03 0.  1.
        -12    1    3    3    0    0  0.13479524459E+02  0.28101812221E+02  0.31185953715E+02  0.44090510758E+02  0.00000000000E+00 0.  1.
</event>
<event>
 7    1  0.2385752E-015  0.9000785E+02  0.7816164E-02  0.1186339E+00
        -11   -1    0    0    0    0  0.00000000000E+00  0.00000000000E+00  0.45593999997E+02  0.45594000000E+02  0.51100000000E-03 0.  1.
         11   -1    0    0    0    0 -0.00000000000E+00 -0.00000000000E+00 -0.45593999997E+02  0.45594000000E+02  0.51100000000E-03 0. -1.
    9900012    2    1    2    0    0  0.11425206845E+01 -0.29432627698E+00  0.27649325847E-01  0.90007853417E+02  0.90000116282E+02 0.  0.
        -12    1    1    2    0    0 -0.11425206845E+01  0.29432627698E+00 -0.27649325847E-01  0.11801465828E+01  0.00000000000E+00 0.  1.
         11    1    3    3    0    0 -0.27466870452E+01 -0.36110811776E+01 -0.37797385472E+02  0.38068708223E+02  0.51100000000E-03 0. -1.
        -11    1    3    3    0    0 -0.27287916721E+01 -0.68515731926E+01 -0.40000857475E+01  0.83899371542E+01  0.51100000000E-03 0.  1.
        -12    1    3    3    0    0  0.66179994018E+01  0.10168328093E+02  0.41825120545E+02  0.43549208040E+02  0.00000000000E+00 0.  1.
</event>
<event>
 7    1  0.2385752E-015  0.9000813E+02  0.7816164E-02  0.1186338E+00
        -11   -1    0    0    0    0  0.00000000000E+00  0.00000000000E+00  0.45593999997E+02  0.45594000000E+02  0.51100000000E-03 0.  1.
         11   -1    0    0    0    0 -0.00000000000E+00 -0.00000000000E+00 -0.45593999997E+02  0.45594000000E+02  0.51100000000E-03 0. -1.
    9900012    2    1    2    0    0 -0.31600436487E+00  0.63205323382E+00 -0.94485547629E+00  0.90008126312E+02  0.90000392778E+02 0.  0.
        -12    1    1    2    0    0  0.31600436487E+00 -0.63205323382E+00  0.94485547629E+00  0.11798736882E+01  0.00000000000E+00 0.  1.
         11    1    3    3    0    0 -0.26188126554E+02 -0.22898541301E+02 -0.77698633917E+01  0.35644521929E+02  0.51100000000E-03 0. -1.
        -11    1    3    3    0    0 -0.89991777484E+01 -0.36211590527E+01  0.20132582072E+01  0.99071288425E+01  0.51100000000E-03 0.  1.
        -12    1    3    3    0    0  0.34871299938E+02  0.27151753588E+02  0.48117497082E+01  0.44456475541E+02  0.00000000000E+00 0.  1.
</event>
<event>
 7    1  0.2385752E-015  0.9000779E+02  0.7816164E-02  0.1186339E+00
        -11   -1    0    0    0    0  0.00000000000E+00  0.00000000000E+00  0.45593999997E+02  0.45594000000E+02  0.51100000000E-03 0. -1.
         11   -1    0    0    0    0 -0.00000000000E+00 -0.00000000000E+00 -0.45593999997E+02  0.45594000000E+02  0.51100000000E-03 0.  1.
    9900012    2    1    2    0    0 -0.10908509632E+01 -0.38858438142E+00  0.22790852213E+00  0.90007789875E+02  0.90000051901E+02 0.  0.
        -12    1    1    2    0    0  0.10908509632E+01  0.38858438142E+00 -0.22790852213E+00  0.11802101253E+01  0.00000000000E+00 0.  1.
         11    1    3    3    0    0 -0.16591040458E+01 -0.64534140356E+01 -0.68647323397E+01  0.95668035052E+01  0.51100000000E-03 0. -1.
        -11    1    3    3    0    0  0.16272917030E+02  0.61627794363E+01 -0.33041550591E+02  0.37343429740E+02  0.51100000000E-03 0.  1.
         12    1    3    3    0    0 -0.15704663947E+02 -0.97949782160E-01  0.40134191453E+02  0.43097556629E+02  0.00000000000E+00 0. -1.
</event>
<event>
 7    1  0.2385752E-015  0.9000774E+02  0.7816164E-02  0.1186339E+00
        -11   -1    0    0    0    0  0.00000000000E+00  0.00000000000E+00  0.45593999997E+02  0.45594000000E+02  0.51100000000E-03 0.  1.
         11   -1    0    0    0    0 -0.00000000000E+00 -0.00000000000E+00 -0.45593999997E+02  0.45594000000E+02  0.51100000000E-03 0. -1.
    9900012    2    1    2    0    0  0.10034477011E+01  0.49374566608E+00 -0.37726794749E+00  0.90007735972E+02  0.89999997287E+02 0.  0.
        -12    1    1    2    0    0 -0.10034477011E+01 -0.49374566608E+00  0.37726794749E+00  0.11802640280E+01  0.00000000000E+00 0.  1.
         11    1    3    3    0    0 -0.93273101769E+01  0.14656537625E+01 -0.93392312051E+00  0.94878379384E+01  0.51100000000E-03 0. -1.
        -11    1    3    3    0    0  0.59004969059E+01  0.39429535390E+02  0.75752123984E+00  0.39875781667E+02  0.51100000000E-03 0.  1.
         12    1    3    3    0    0  0.44302609721E+01 -0.40401443487E+02 -0.20086606683E+00  0.40644116367E+02  0.00000000000E+00 0. -1.
</event>
<event>
 7    1  0.2721656E-015  0.9000771E+02  0.7816164E-02  0.1186339E+00
        -11   -1    0    0    0    0  0.00000000000E+00  0.00000000000E+00  0.45593999997E+02  0.45594000000E+02  0.51100000000E-03 0. -1.
         11   -1    0    0    0    0 -0.00000000000E+00 -0.00000000000E+00 -0.45593999997E+02  0.45594000000E+02  0.51100000000E-03 0.  1.
    9900012    2    1    2    0    0 -0.72013265379E+00  0.65451535218E+00  0.66790339242E+00  0.90007713456E+02  0.89999974473E+02 0.  0.
        -12    1    1    2    0    0  0.72013265379E+00 -0.65451535218E+00 -0.66790339242E+00  0.11802865444E+01  0.00000000000E+00 0.  1.
         11    1    3    3    0    0 -0.82771786072E+01 -0.29439036597E+02  0.23046461778E+02  0.38292400842E+02  0.51100000000E-03 0. -1.
        -11    1    3    3    0    0  0.82894245255E+01 -0.50018781018E+01  0.69738946087E+00  0.97066830499E+01  0.51100000000E-03 0.  1.
        -12    1    3    3    0    0 -0.73237857209E+00  0.35095430051E+02 -0.23075947846E+02  0.42008629564E+02  0.00000000000E+00 0.  1.
</event>
<event>
 7    1  0.2385752E-015  0.9000781E+02  0.7816164E-02  0.1186339E+00
        -11   -1    0    0    0    0  0.00000000000E+00  0.00000000000E+00  0.45593999997E+02  0.45594000000E+02  0.51100000000E-03 0.  1.
         11   -1    0    0    0    0 -0.00000000000E+00 -0.00000000000E+00 -0.45593999997E+02  0.45594000000E+02  0.51100000000E-03 0. -1.
    9900012    2    1    2    0    0  0.18831014480E+00  0.48296260309E+00 -0.10602543104E+01  0.90007808156E+02  0.90000070423E+02 0.  0.
        -12    1    1    2    0    0 -0.18831014480E+00 -0.48296260309E+00  0.10602543104E+01  0.11801918443E+01  0.00000000000E+00 0.  1.
         11    1    3    3    0    0 -0.21503854145E+01 -0.19939444752E+01 -0.99112023388E+01  0.10335952015E+02  0.51100000000E-03 0. -1.
        -11    1    3    3    0    0 -0.34405163138E+02 -0.13711237756E+02 -0.46128820688E+01  0.37322807673E+02  0.51100000000E-03 0.  1.
         12    1    3    3    0    0  0.36743858698E+02  0.16188144834E+02  0.13463830097E+02  0.42349048467E+02  0.00000000000E+00 0. -1.
</event>
<event>
 7    1  0.2385752E-015  0.9000770E+02  0.7816164E-02  0.1186339E+00
        -11   -1    0    0    0    0  0.00000000000E+00  0.00000000000E+00  0.45593999997E+02  0.45594000000E+02  0.51100000000E-03 0.  1.
         11   -1    0    0    0    0 -0.00000000000E+00 -0.00000000000E+00 -0.45593999997E+02  0.45594000000E+02  0.51100000000E-03 0. -1.
    9900012    2    1    2    0    0 -0.53693900903E+00  0.86150773496E+00 -0.60217828921E+00  0.90007695900E+02  0.89999956686E+02 0.  0.
        -12    1    1    2    0    0  0.53693900903E+00 -0.86150773496E+00  0.60217828921E+00  0.11803041001E+01  0.00000000000E+00 0.  1.
         11    1    3    3    0    0 -0.11538339281E+01  0.53268064660E+01  0.51219177441E+01  0.74793209249E+01  0.51100000000E-03 0. -1.
        -11    1    3    3    0    0  0.40559639150E+02  0.58075812078E+01 -0.68499563177E+00  0.40979037895E+02  0.51100000000E-03 0.  1.
         12    1    3    3    0    0 -0.39942744231E+02 -0.10272879939E+02 -0.50391004015E+01  0.41549337080E+02  0.00000000000E+00 0. -1.
</event>
<event>
 7    1  0.2385752E-015  0.9000768E+02  0.7816164E-02  0.1186339E+00
        -11   -1    0    0    0    0  0.00000000000E+00  0.00000000000E+00  0.45593999997E+02  0.45594000000E+02  0.51100000000E-03 0. -1.
         11   -1    0    0    0    0 -0.00000000000E+00 -0.00000000000E+00 -0.45593999997E+02  0.45594000000E+02  0.51100000000E-03 0.  1.
    9900012    2    1    2    0    0 -0.72648685173E+00 -0.56438873163E+00 -0.73948579637E+00  0.90007679269E+02  0.89999939835E+02 0.  0.
        -12    1    1    2    0    0  0.72648685173E+00  0.56438873163E+00  0.73948579637E+00  0.11803207315E+01  0.00000000000E+00 0.  1.
         11    1    3    3    0    0  0.11485470284E+02  0.33805258424E+02  0.19313067476E+01  0.35755299898E+02  0.51100000000E-03 0. -1.
        -11    1    3    3    0    0 -0.17204361517E+02 -0.22145177623E+01 -0.11155829524E+02  0.20623934560E+02  0.51100000000E-03 0.  1.
        -12    1    3    3    0    0  0.49924043814E+01 -0.32155129393E+02  0.84850369802E+01  0.33628444811E+02  0.00000000000E+00 0.  1.
</event>
<event>
 7    1  0.2385752E-015  0.9000772E+02  0.7816164E-02  0.1186339E+00
        -11   -1    0    0    0    0  0.00000000000E+00  0.00000000000E+00  0.45593999997E+02  0.45594000000E+02  0.51100000000E-03 0. -1.
         11   -1    0    0    0    0 -0.00000000000E+00 -0.00000000000E+00 -0.45593999997E+02  0.45594000000E+02  0.51100000000E-03 0.  1.
    9900012    2    1    2    0    0 -0.16811979169E+00 -0.66486545812E+00  0.96059778229E+00  0.90007721033E+02  0.89999982150E+02 0.  0.
        -12    1    1    2    0    0  0.16811979169E+00  0.66486545812E+00 -0.96059778229E+00  0.11802789675E+01  0.00000000000E+00 0.  1.
         11    1    3    3    0    0  0.18729741199E+01 -0.42676277353E+01  0.63282932959E+01  0.78592604512E+01  0.51100000000E-03 0. -1.
        -11    1    3    3    0    0  0.37234529160E+02 -0.79779354230E+01 -0.13499092468E+02  0.40401523648E+02  0.51100000000E-03 0.  1.
         12    1    3    3    0    0 -0.39275623071E+02  0.11580697700E+02  0.81313969548E+01  0.41746936933E+02  0.00000000000E+00 0. -1.
</event>
<event>
 7    1  0.2385752E-015  0.9000774E+02  0.7816164E-02  0.1186339E+00
        -11   -1    0    0    0    0  0.00000000000E+00  0.00000000000E+00  0.45593999997E+02  0.45594000000E+02  0.51100000000E-03 0. -1.
         11   -1    0    0    0    0 -0.00000000000E+00 -0.00000000000E+00 -0.45593999997E+02  0.45594000000E+02  0.51100000000E-03 0.  1.
    9900012    2    1    2    0    0  0.32148077909E+00 -0.11333594604E+01 -0.71839631563E-01  0.90007739651E+02  0.90000001015E+02 0.  0.
        -12    1    1    2    0    0 -0.32148077909E+00  0.11333594604E+01  0.71839631563E-01  0.11802603486E+01  0.00000000000E+00 0.  1.
         11    1    3    3    0    0 -0.93471752007E+01  0.42602800112E+01 -0.99428970895E+01  0.14296183854E+02  0.51100000000E-03 0. -1.
        -11    1    3    3    0    0 -0.28903214853E+02 -0.14272662269E+02 -0.64912456715E+01  0.32882229056E+02  0.51100000000E-03 0.  1.
         12    1    3    3    0    0  0.38571870833E+02  0.88790227975E+01  0.16362303129E+02  0.42829326741E+02  0.00000000000E+00 0. -1.
</event>
<event>
 7    1  0.2385752E-015  0.9000797E+02  0.7816164E-02  0.1186339E+00
        -11   -1    0    0    0    0  0.00000000000E+00  0.00000000000E+00  0.45593999997E+02  0.45594000000E+02  0.51100000000E-03 0. -1.
         11   -1    0    0    0    0 -0.00000000000E+00 -0.00000000000E+00 -0.45593999997E+02  0.45594000000E+02  0.51100000000E-03 0.  1.
    9900012    2    1    2    0    0  0.46114987094E+00 -0.18479089080E+00  0.10703616851E+01  0.90007965673E+02  0.90000230019E+02 0.  0.
        -12    1    1    2    0    0 -0.46114987094E+00  0.18479089080E+00 -0.10703616851E+01  0.11800343274E+01  0.00000000000E+00 0.  1.
         11    1    3    3    0    0 -0.30248651958E+01  0.94080234576E+01  0.34823393128E+02  0.36198472675E+02  0.51100000000E-03 0. -1.
        -11    1    3    3    0    0  0.29687173940E+01  0.11789608611E+02  0.18283124529E+01  0.12294343450E+02  0.51100000000E-03 0.  1.
        -12    1    3    3    0    0  0.51729767273E+00 -0.21382422960E+02 -0.35581343896E+02  0.41515149547E+02  0.00000000000E+00 0.  1.
</event>
<event>
 7    1  0.2385752E-015  0.9000773E+02  0.7816164E-02  0.1186339E+00
        -11   -1    0    0    0    0  0.00000000000E+00  0.00000000000E+00  0.45593999997E+02  0.45594000000E+02  0.51100000000E-03 0.  1.
         11   -1    0    0    0    0 -0.00000000000E+00 -0.00000000000E+00 -0.45593999997E+02  0.45594000000E+02  0.51100000000E-03 0. -1.
    9900012    2    1    2    0    0 -0.87892064301E+00 -0.55050067305E-01 -0.78581765966E+00  0.90007728251E+02  0.89999989464E+02 0.  0.
        -12    1    1    2    0    0  0.87892064301E+00  0.55050067305E-01  0.78581765966E+00  0.11802717487E+01  0.00000000000E+00 0.  1.
         11    1    3    3    0    0 -0.66061397126E+01 -0.80783242899E+01 -0.23634427397E+02  0.25835761337E+02  0.51100000000E-03 0. -1.
        -11    1    3    3    0    0  0.17921368361E+02 -0.13946098007E+02 -0.82772399963E+01  0.24169853036E+02  0.51100000000E-03 0.  1.
        -12    1    3    3    0    0 -0.12194149292E+02  0.21969372230E+02  0.31125849733E+02  0.40002113878E+02  0.00000000000E+00 0.  1.
</event>
<event>
 7    1  0.2385752E-015  0.9000778E+02  0.7816164E-02  0.1186339E+00
        -11   -1    0    0    0    0  0.00000000000E+00  0.00000000000E+00  0.45593999997E+02  0.45594000000E+02  0.51100000000E-03 0. -1.
         11   -1    0    0    0    0 -0.00000000000E+00 -0.00000000000E+00 -0.45593999997E+02  0.45594000000E+02  0.51100000000E-03 0.  1.
    9900012    2    1    2    0    0 -0.83890108530E+00 -0.83003117461E+00 -0.14705529819E-01  0.90007778396E+02  0.90000040271E+02 0.  0.
        -12    1    1    2    0    0  0.83890108530E+00  0.83003117461E+00  0.14705529819E-01  0.11802216039E+01  0.00000000000E+00 0.  1.
         11    1    3    3    0    0  0.65298553342E+01  0.89095554833E+01 -0.19315381308E+01  0.11213832057E+02  0.51100000000E-03 0. -1.
        -11    1    3    3    0    0 -0.28571850443E+02 -0.17840541387E+02 -0.26188994230E+02  0.42667305677E+02  0.51100000000E-03 0.  1.
         12    1    3    3    0    0  0.21203094023E+02  0.81009547292E+01  0.28105826831E+02  0.36126640662E+02  0.00000000000E+00 0. -1.
</event>
<event>
 7    1  0.2385752E-015  0.9000779E+02  0.7816164E-02  0.1186339E+00
        -11   -1    0    0    0    0  0.00000000000E+00  0.00000000000E+00  0.45593999997E+02  0.45594000000E+02  0.51100000000E-03 0.  1.
         11   -1    0    0    0    0 -0.00000000000E+00 -0.00000000000E+00 -0.45593999997E+02  0.45594000000E+02  0.51100000000E-03 0. -1.
    9900012    2    1    2    0    0  0.69690146548E+00 -0.85896725021E+00  0.41156861047E+00  0.90007794463E+02  0.90000056549E+02 0.  0.
        -12    1    1    2    0    0 -0.69690146548E+00  0.85896725021E+00 -0.41156861047E+00  0.11802055375E+01  0.00000000000E+00 0.  1.
         11    1    3    3    0    0 -0.33831513201E+02  0.60980428925E+01 -0.76008745671E+01  0.35206969580E+02  0.51100000000E-03 0. -1.
        -11    1    3    3    0    0 -0.48099677475E+01  0.87207208589E+01  0.74709854418E+01  0.12449995412E+02  0.51100000000E-03 0.  1.
        -12    1    3    3    0    0  0.39338382414E+02 -0.15677731002E+02  0.54145773577E+00  0.42350829470E+02  0.00000000000E+00 0.  1.
</event>
<event>
 7    1  0.2385752E-015  0.9000779E+02  0.7816164E-02  0.1186339E+00
        -11   -1    0    0    0    0  0.00000000000E+00  0.00000000000E+00  0.45593999997E+02  0.45594000000E+02  0.51100000000E-03 0. -1.
         11   -1    0    0    0    0 -0.00000000000E+00 -0.00000000000E+00 -0.45593999997E+02  0.45594000000E+02  0.51100000000E-03 0.  1.
    9900012    2    1    2    0    0  0.43286079702E+00 -0.90670749326E+00  0.61919450989E+00  0.90007792904E+02  0.90000054971E+02 0.  0.
        -12    1    1    2    0    0 -0.43286079702E+00  0.90670749326E+00 -0.61919450989E+00  0.11802070958E+01  0.00000000000E+00 0.  1.
         11    1    3    3    0    0  0.83612607029E+01 -0.46923166147E+01 -0.23695365351E+01  0.98763970863E+01  0.51100000000E-03 0. -1.
        -11    1    3    3    0    0  0.10702296066E+02 -0.33539158630E+02 -0.97196543550E+01  0.36522403860E+02  0.51100000000E-03 0.  1.
         12    1    3    3    0    0 -0.18630695972E+02  0.37324767751E+02  0.12708385400E+02  0.43608991958E+02  0.00000000000E+00 0. -1.
</event>
<event>
 7    1  0.2385752E-015  0.9000791E+02  0.7816164E-02  0.1186339E+00
        -11   -1    0    0    0    0  0.00000000000E+00  0.00000000000E+00  0.45593999997E+02  0.45594000000E+02  0.51100000000E-03 0. -1.
         11   -1    0    0    0    0 -0.00000000000E+00 -0.00000000000E+00 -0.45593999997E+02  0.45594000000E+02  0.51100000000E-03 0.  1.
    9900012    2    1    2    0    0 -0.85945853740E+00 -0.59100654374E+00 -0.55195838639E+00  0.90007908574E+02  0.90000172168E+02 0.  0.
        -12    1    1    2    0    0  0.85945853740E+00  0.59100654374E+00  0.55195838639E+00  0.11800914255E+01  0.00000000000E+00 0.  1.
         11    1    3    3    0    0  0.11264374417E+01  0.13198977235E+02 -0.34430621630E+01  0.13687093873E+02  0.51100000000E-03 0. -1.
        -11    1    3    3    0    0  0.23406302779E+02  0.20877470515E+02 -0.71992333422E+01  0.32180005373E+02  0.51100000000E-03 0.  1.
         12    1    3    3    0    0 -0.25392198758E+02 -0.34667454294E+02  0.10090337119E+02  0.44140809328E+02  0.00000000000E+00 0. -1.
</event>
<event>
 7    1  0.2385752E-015  0.9000778E+02  0.7816164E-02  0.1186339E+00
        -11   -1    0    0    0    0  0.00000000000E+00  0.00000000000E+00  0.45593999997E+02  0.45594000000E+02  0.51100000000E-03 0. -1.
         11   -1    0    0    0    0 -0.00000000000E+00 -0.00000000000E+00 -0.45593999997E+02  0.45594000000E+02  0.51100000000E-03 0.  1.
    9900012    2    1    2    0    0  0.68730556621E+00  0.35616779573E+00  0.89088897623E+00  0.90007776458E+02  0.90000038308E+02 0.  0.
        -12    1    1    2    0    0 -0.68730556621E+00 -0.35616779573E+00 -0.89088897623E+00  0.11802235416E+01  0.00000000000E+00 0.  1.
         11    1    3    3    0    0  0.66391797778E+01 -0.28732630833E+00 -0.59982289233E+01  0.89520955651E+01  0.51100000000E-03 0. -1.
        -11    1    3    3    0    0 -0.14483638218E+02  0.18935954907E+02 -0.30412756697E+02  0.38643006281E+02  0.51100000000E-03 0.  1.
         12    1    3    3    0    0  0.85317640066E+01 -0.18292460803E+02  0.37301874597E+02  0.42412674612E+02  0.00000000000E+00 0. -1.
</event>
<event>
 7    1  0.2385752E-015  0.9000778E+02  0.7816164E-02  0.1186339E+00
        -11   -1    0    0    0    0  0.00000000000E+00  0.00000000000E+00  0.45593999997E+02  0.45594000000E+02  0.51100000000E-03 0.  1.
         11   -1    0    0    0    0 -0.00000000000E+00 -0.00000000000E+00 -0.45593999997E+02  0.45594000000E+02  0.51100000000E-03 0. -1.
    9900012    2    1    2    0    0  0.40371215337E-01  0.17734131502E+00 -0.11661212630E+01  0.90007780284E+02  0.90000042184E+02 0.  0.
        -12    1    1    2    0    0 -0.40371215337E-01 -0.17734131502E+00  0.11661212630E+01  0.11802197156E+01  0.00000000000E+00 0.  1.
         11    1    3    3    0    0  0.31766482772E+01  0.41510088528E+01  0.10964173991E+02  0.12146401950E+02  0.51100000000E-03 0. -1.
        -11    1    3    3    0    0  0.25646745239E+02  0.23076527360E+02 -0.16273000506E+02  0.38145670817E+02  0.51100000000E-03 0.  1.
         12    1    3    3    0    0 -0.28783022301E+02 -0.27050194897E+02  0.41427052517E+01  0.39715707517E+02  0.00000000000E+00 0. -1.
</event>
<event>
 7    1  0.2385752E-015  0.9000778E+02  0.7816164E-02  0.1186339E+00
        -11   -1    0    0    0    0  0.00000000000E+00  0.00000000000E+00  0.45593999997E+02  0.45594000000E+02  0.51100000000E-03 0. -1.
         11   -1    0    0    0    0 -0.00000000000E+00 -0.00000000000E+00 -0.45593999997E+02  0.45594000000E+02  0.51100000000E-03 0.  1.
    9900012    2    1    2    0    0  0.23367988487E+00  0.77740664453E+00  0.85671166120E+00  0.90007778728E+02  0.90000040608E+02 0.  0.
        -12    1    1    2    0    0 -0.23367988487E+00 -0.77740664453E+00 -0.85671166120E+00  0.11802212716E+01  0.00000000000E+00 0.  1.
         11    1    3    3    0    0 -0.16316425933E+02  0.25074584033E+01  0.27400718051E+02  0.31989255271E+02  0.51100000000E-03 0. -1.
        -11    1    3    3    0    0 -0.11789522759E+02  0.86491505554E+01  0.39175763896E+01  0.15137637109E+02  0.51100000000E-03 0.  1.
        -12    1    3    3    0    0  0.28339628577E+02 -0.10379202314E+02 -0.30461582779E+02  0.42880886348E+02  0.00000000000E+00 0.  1.
</event>
<event>
 7    1  0.2385752E-015  0.9000778E+02  0.7816164E-02  0.1186339E+00
        -11   -1    0    0    0    0  0.00000000000E+00  0.00000000000E+00  0.45593999997E+02  0.45594000000E+02  0.51100000000E-03 0. -1.
         11   -1    0    0    0    0 -0.00000000000E+00 -0.00000000000E+00 -0.45593999997E+02  0.45594000000E+02  0.51100000000E-03 0.  1.
    9900012    2    1    2    0    0 -0.49505742019E+00 -0.43998643261E+00  0.97686212704E+00  0.90007775646E+02  0.90000037485E+02 0.  0.
        -12    1    1    2    0    0  0.49505742019E+00  0.43998643261E+00 -0.97686212704E+00  0.11802243538E+01  0.00000000000E+00 0.  1.
         11    1    3    3    0    0 -0.31213923130E+02 -0.39992409826E+01  0.29977115052E+01  0.31611535871E+02  0.51100000000E-03 0. -1.
        -11    1    3    3    0    0 -0.13526611764E+02 -0.21223073012E+01  0.65067172084E+00  0.13707544931E+02  0.51100000000E-03 0.  1.
        -12    1    3    3    0    0  0.44245477473E+02  0.56815618512E+01 -0.26715210990E+01  0.44688694844E+02  0.00000000000E+00 0.  1.
</event>
<event>
 7    1  0.2385752E-015  0.9000773E+02  0.7816164E-02  0.1186339E+00
        -11   -1    0    0    0    0  0.00000000000E+00  0.00000000000E+00  0.45593999997E+02  0.45594000000E+02  0.51100000000E-03 0.  1.
         11   -1    0    0    0    0 -0.00000000000E+00 -0.00000000000E+00 -0.45593999997E+02  0.45594000000E+02  0.51100000000E-03 0. -1.
    9900012    2    1    2    0    0  0.62294251837E+00 -0.18510939405E+00 -0.98524865083E+00  0.90007729788E+02  0.89999991021E+02 0.  0.
        -12    1    1    2    0    0 -0.62294251837E+00  0.18510939405E+00  0.98524865083E+00  0.11802702118E+01  0.00000000000E+00 0.  1.
         11    1    3    3    0    0 -0.67505544956E+01 -0.77069825069E+00 -0.59457225083E+01  0.90285977980E+01  0.51100000000E-03 0. -1.
        -11    1    3    3    0    0 -0.19808721183E+02 -0.32050655557E+02  0.75492204445E+01  0.38426822483E+02  0.51100000000E-03 0.  1.
         12    1    3    3    0    0  0.27182218197E+02  0.32636244414E+02 -0.25887465871E+01  0.42552309507E+02  0.00000000000E+00 0. -1.
</event>
<event>
 7    1  0.2385752E-015  0.9000780E+02  0.7816164E-02  0.1186339E+00
        -11   -1    0    0    0    0  0.00000000000E+00  0.00000000000E+00  0.45593999997E+02  0.45594000000E+02  0.51100000000E-03 0.  1.
         11   -1    0    0    0    0 -0.00000000000E+00 -0.00000000000E+00 -0.45593999997E+02  0.45594000000E+02  0.51100000000E-03 0. -1.
    9900012    2    1    2    0    0  0.77498344260E-01  0.64904191969E+00 -0.98265690520E+00  0.90007798322E+02  0.90000060460E+02 0.  0.
        -12    1    1    2    0    0 -0.77498344260E-01 -0.64904191969E+00  0.98265690520E+00  0.11802016778E+01  0.00000000000E+00 0.  1.
         11    1    3    3    0    0 -0.41008399255E+01  0.48207875581E+01  0.77856552885E+01  0.10033608987E+02  0.51100000000E-03 0. -1.
        -11    1    3    3    0    0 -0.29153165521E+02  0.90798262775E+01  0.17793835890E+02  0.35340782406E+02  0.51100000000E-03 0.  1.
         12    1    3    3    0    0  0.33331503791E+02 -0.13251571916E+02 -0.26562148084E+02  0.44633406929E+02  0.00000000000E+00 0. -1.
</event>
<event>
 7    1  0.2385752E-015  0.9000819E+02  0.7816164E-02  0.1186338E+00
        -11   -1    0    0    0    0  0.00000000000E+00  0.00000000000E+00  0.45593999997E+02  0.45594000000E+02  0.51100000000E-03 0.  1.
         11   -1    0    0    0    0 -0.00000000000E+00 -0.00000000000E+00 -0.45593999997E+02  0.45594000000E+02  0.51100000000E-03 0. -1.
    9900012    2    1    2    0    0 -0.75417953154E+00  0.56363064718E+00 -0.71096750536E+00  0.90008194480E+02  0.90000461846E+02 0.  0.
        -12    1    1    2    0    0  0.75417953154E+00 -0.56363064718E+00  0.71096750536E+00  0.11798055204E+01  0.00000000000E+00 0.  1.
         11    1    3    3    0    0 -0.85204893154E+01  0.75998472900E+00  0.34904737814E+01  0.92390325491E+01  0.51100000000E-03 0. -1.
        -11    1    3    3    0    0  0.76872899047E+01  0.27623588552E+01  0.37795457531E+02  0.38668096187E+02  0.51100000000E-03 0.  1.
         12    1    3    3    0    0  0.79019879182E-01 -0.29587129370E+01 -0.41996898818E+02  0.42101065743E+02  0.00000000000E+00 0. -1.
</event>
<event>
 7    1  0.2385752E-015  0.9000774E+02  0.7816164E-02  0.1186339E+00
        -11   -1    0    0    0    0  0.00000000000E+00  0.00000000000E+00  0.45593999997E+02  0.45594000000E+02  0.51100000000E-03 0.  1.
         11   -1    0    0    0    0 -0.00000000000E+00 -0.00000000000E+00 -0.45593999997E+02  0.45594000000E+02  0.51100000000E-03 0. -1.
    9900012    2    1    2    0    0  0.84277392927E+00 -0.77936715786E+00 -0.27446207548E+00  0.90007741345E+02  0.90000002730E+02 0.  0.
        -12    1    1    2    0    0 -0.84277392927E+00  0.77936715786E+00  0.27446207548E+00  0.11802586553E+01  0.00000000000E+00 0.  1.
         11    1    3    3    0    0 -0.23226334348E+02  0.18520409835E+02 -0.19551445350E+02  0.35563003294E+02  0.51100000000E-03 0. -1.
        -11    1    3    3    0    0 -0.26334672821E+01  0.49942197299E+01  0.17402957538E+02  0.18295909706E+02  0.51100000000E-03 0.  1.
        -12    1    3    3    0    0  0.26702575560E+02 -0.24293996723E+02  0.18740257369E+01  0.36148828346E+02  0.00000000000E+00 0.  1.
</event>
<event>
 7    1  0.2385752E-015  0.9000773E+02  0.7816164E-02  0.1186339E+00
        -11   -1    0    0    0    0  0.00000000000E+00  0.00000000000E+00  0.45593999997E+02  0.45594000000E+02  0.51100000000E-03 0. -1.
         11   -1    0    0    0    0 -0.00000000000E+00 -0.00000000000E+00 -0.45593999997E+02  0.45594000000E+02  0.51100000000E-03 0.  1.
    9900012    2    1    2    0    0  0.90644646724E+00  0.73957173649E+00 -0.15628643734E+00  0.90007730115E+02  0.89999991352E+02 0.  0.
        -12    1    1    2    0    0 -0.90644646724E+00 -0.73957173649E+00  0.15628643734E+00  0.11802698852E+01  0.00000000000E+00 0.  1.
         11    1    3    3    0    0 -0.25952106245E+01 -0.48713019127E+01  0.82216997187E+01  0.99025777975E+01  0.51100000000E-03 0. -1.
        -11    1    3    3    0    0 -0.15931126040E+02 -0.26749837214E+02 -0.23941554104E+02  0.39275343169E+02  0.51100000000E-03 0.  1.
         12    1    3    3    0    0  0.19432783132E+02  0.32360710863E+02  0.15563567948E+02  0.40829809148E+02  0.00000000000E+00 0. -1.
</event>
<event>
 7    1  0.2385752E-015  0.9000770E+02  0.7816164E-02  0.1186339E+00
        -11   -1    0    0    0    0  0.00000000000E+00  0.00000000000E+00  0.45593999997E+02  0.45594000000E+02  0.51100000000E-03 0.  1.
         11   -1    0    0    0    0 -0.00000000000E+00 -0.00000000000E+00 -0.45593999997E+02  0.45594000000E+02  0.51100000000E-03 0. -1.
    9900012    2    1    2    0    0 -0.23421343303E+00  0.10581952021E+01 -0.46740232896E+00  0.90007704293E+02  0.89999965190E+02 0.  0.
        -12    1    1    2    0    0  0.23421343303E+00 -0.10581952021E+01  0.46740232896E+00  0.11802957066E+01  0.00000000000E+00 0.  1.
         11    1    3    3    0    0 -0.86114915727E+01  0.20291918903E+01  0.23682230737E+01  0.91588147499E+01  0.51100000000E-03 0. -1.
        -11    1    3    3    0    0  0.10874875489E+01  0.28665259843E+02  0.26107457573E+02  0.38787615191E+02  0.51100000000E-03 0.  1.
         12    1    3    3    0    0  0.72897905908E+01 -0.29636256531E+02 -0.28943082976E+02  0.42061274353E+02  0.00000000000E+00 0. -1.
</event>
<event>
 7    1  0.2385752E-015  0.9000768E+02  0.7816164E-02  0.1186339E+00
        -11   -1    0    0    0    0  0.00000000000E+00  0.00000000000E+00  0.45593999997E+02  0.45594000000E+02  0.51100000000E-03 0. -1.
         11   -1    0    0    0    0 -0.00000000000E+00 -0.00000000000E+00 -0.45593999997E+02  0.45594000000E+02  0.51100000000E-03 0.  1.
    9900012    2    1    2    0    0  0.23567330525E+00 -0.11126566085E+01 -0.31560006193E+00  0.90007682232E+02  0.89999942837E+02 0.  0.
        -12    1    1    2    0    0 -0.23567330525E+00  0.11126566085E+01  0.31560006193E+00  0.11803177684E+01  0.00000000000E+00 0.  1.
         11    1    3    3    0    0 -0.38264404248E+01  0.77198715854E+01  0.33068092556E+01  0.92289247117E+01  0.51100000000E-03 0. -1.
        -11    1    3    3    0    0 -0.94895222554E+01  0.21613257227E+02 -0.30074083732E+02  0.38231327902E+02  0.51100000000E-03 0.  1.
         12    1    3    3    0    0  0.13551635985E+02 -0.30445785421E+02  0.26451674414E+02  0.42547429618E+02  0.00000000000E+00 0. -1.
</event>
<event>
 7    1  0.2385752E-015  0.9000777E+02  0.7816164E-02  0.1186339E+00
        -11   -1    0    0    0    0  0.00000000000E+00  0.00000000000E+00  0.45593999997E+02  0.45594000000E+02  0.51100000000E-03 0.  1.
         11   -1    0    0    0    0 -0.00000000000E+00 -0.00000000000E+00 -0.45593999997E+02  0.45594000000E+02  0.51100000000E-03 0. -1.
    9900012    2    1    2    0    0 -0.13014508916E+00  0.11484865442E-01 -0.11729731458E+01  0.90007773053E+02  0.90000034857E+02 0.  0.
        -12    1    1    2    0    0  0.13014508916E+00 -0.11484865442E-01  0.11729731458E+01  0.11802269473E+01  0.00000000000E+00 0.  1.
         11    1    3    3    0    0 -0.30913165073E+02  0.80200059100E+01  0.17758338136E+02  0.36541795840E+02  0.51100000000E-03 0. -1.
        -11    1    3    3    0    0 -0.54250129711E+01  0.29084020245E+01  0.56547728667E+01  0.83585898636E+01  0.51100000000E-03 0.  1.
        -12    1    3    3    0    0  0.36208032955E+02 -0.10916923069E+02 -0.24586084148E+02  0.45107387349E+02  0.00000000000E+00 0.  1.
</event>
<event>
 7    1  0.2385752E-015  0.9000783E+02  0.7816164E-02  0.1186339E+00
        -11   -1    0    0    0    0  0.00000000000E+00  0.00000000000E+00  0.45593999997E+02  0.45594000000E+02  0.51100000000E-03 0.  1.
         11   -1    0    0    0    0 -0.00000000000E+00 -0.00000000000E+00 -0.45593999997E+02  0.45594000000E+02  0.51100000000E-03 0. -1.
    9900012    2    1    2    0    0 -0.58581260769E+00 -0.10143920362E+01  0.14363769433E+00  0.90007830774E+02  0.90000093340E+02 0.  0.
        -12    1    1    2    0    0  0.58581260769E+00  0.10143920362E+01 -0.14363769433E+00  0.11801692259E+01  0.00000000000E+00 0.  1.
         11    1    3    3    0    0 -0.95916400490E+01 -0.15063770204E+02  0.51844353910E+01  0.18595566734E+02  0.51100000000E-03 0. -1.
        -11    1    3    3    0    0 -0.75754647438E+01 -0.25490256109E+02  0.57343540627E+01  0.27203375514E+02  0.51100000000E-03 0.  1.
         12    1    3    3    0    0  0.16581292185E+02  0.39539634277E+02 -0.10775151759E+02  0.44208888526E+02  0.00000000000E+00 0. -1.
</event>
<event>
 7    1  0.2385752E-015  0.9000776E+02  0.7816164E-02  0.1186339E+00
        -11   -1    0    0    0    0  0.00000000000E+00  0.00000000000E+00  0.45593999997E+02  0.45594000000E+02  0.51100000000E-03 0. -1.
         11   -1    0    0    0    0 -0.00000000000E+00 -0.00000000000E+00 -0.45593999997E+02  0.45594000000E+02  0.51100000000E-03 0.  1.
    9900012    2    1    2    0    0 -0.10412563892E+01  0.22352646539E+00  0.50871686676E+00  0.90007757737E+02  0.90000019339E+02 0.  0.
        -12    1    1    2    0    0  0.10412563892E+01 -0.22352646539E+00 -0.50871686676E+00  0.11802422629E+01  0.00000000000E+00 0.  1.
         11    1    3    3    0    0  0.50551817685E+01  0.34425204831E+01 -0.21991752164E+01  0.64993985786E+01  0.51100000000E-03 0. -1.
        -11    1    3    3    0    0  0.15536572876E+02  0.35621852581E+02 -0.11733996212E+01  0.38880307933E+02  0.51100000000E-03 0.  1.
         12    1    3    3    0    0 -0.21633011034E+02 -0.38840846599E+02  0.38812917044E+01  0.44628051225E+02  0.00000000000E+00 0. -1.
</event>
<event>
 7    1  0.2385752E-015  0.9000757E+02  0.7816164E-02  0.1186339E+00
        -11   -1    0    0    0    0  0.00000000000E+00  0.00000000000E+00  0.45593999997E+02  0.45594000000E+02  0.51100000000E-03 0.  1.
         11   -1    0    0    0    0 -0.00000000000E+00 -0.00000000000E+00 -0.45593999997E+02  0.45594000000E+02  0.51100000000E-03 0. -1.
    9900012    2    1    2    0    0 -0.80771630883E+00 -0.67902585754E+00  0.52908676561E+00  0.90007570182E+02  0.89999829308E+02 0.  0.
        -12    1    1    2    0    0  0.80771630883E+00  0.67902585754E+00 -0.52908676561E+00  0.11804298185E+01  0.00000000000E+00 0.  1.
         11    1    3    3    0    0 -0.82536399350E+01  0.10613005633E+02 -0.34844810122E+02  0.37348617825E+02  0.51100000000E-03 0. -1.
        -11    1    3    3    0    0 -0.22016622367E+01 -0.63714291243E+01 -0.65257407729E+01  0.93823088090E+01  0.51100000000E-03 0.  1.
        -12    1    3    3    0    0  0.96475858629E+01 -0.49206023662E+01  0.41899637661E+02  0.43276643547E+02  0.00000000000E+00 0.  1.
</event>
<event>
 7    1  0.2385752E-015  0.9000813E+02  0.7816164E-02  0.1186338E+00
        -11   -1    0    0    0    0  0.00000000000E+00  0.00000000000E+00  0.45593999997E+02  0.45594000000E+02  0.51100000000E-03 0. -1.
         11   -1    0    0    0    0 -0.00000000000E+00 -0.00000000000E+00 -0.45593999997E+02  0.45594000000E+02  0.51100000000E-03 0.  1.
    9900012    2    1    2    0    0  0.87143895890E+00  0.67304432277E-01 -0.79255688472E+00  0.90008134685E+02  0.90000401262E+02 0.  0.
        -12    1    1    2    0    0 -0.87143895890E+00 -0.67304432277E-01  0.79255688472E+00  0.11798653149E+01  0.00000000000E+00 0.  1.
         11    1    3    3    0    0  0.13696537478E+00  0.18033827889E+02  0.37251282354E+02  0.41387144684E+02  0.51100000000E-03 0. -1.
        -11    1    3    3    0    0 -0.84138930421E+01  0.13149428804E+01 -0.74252744210E+01  0.11298556164E+02  0.51100000000E-03 0.  1.
        -12    1    3    3    0    0  0.91483666263E+01 -0.19281466337E+02 -0.30618564817E+02  0.37322433837E+02  0.00000000000E+00 0.  1.
</event>
<event>
 7    1  0.2385752E-015  0.9000762E+02  0.7816164E-02  0.1186339E+00
        -11   -1    0    0    0    0  0.00000000000E+00  0.00000000000E+00  0.45593999997E+02  0.45594000000E+02  0.51100000000E-03 0.  1.
         11   -1    0    0    0    0 -0.00000000000E+00 -0.00000000000E+00 -0.45593999997E+02  0.45594000000E+02  0.51100000000E-03 0. -1.
    9900012    2    1    2    0    0 -0.35613843720E+00 -0.11250850518E+01  0.25263128294E-01  0.90007623286E+02  0.89999883114E+02 0.  0.
        -12    1    1    2    0    0  0.35613843720E+00  0.11250850518E+01 -0.25263128294E-01  0.11803767135E+01  0.00000000000E+00 0.  1.
         11    1    3    3    0    0  0.28837637482E+02  0.18443640396E+02 -0.14339451305E+02  0.37113300454E+02  0.51100000000E-03 0. -1.
        -11    1    3    3    0    0  0.85514625842E+01 -0.10911831194E+01  0.45092894129E+01  0.97289199914E+01  0.51100000000E-03 0.  1.
        -12    1    3    3    0    0 -0.37745238503E+02 -0.18477542328E+02  0.98554250199E+01  0.43165402842E+02  0.00000000000E+00 0.  1.
</event>
<event>
 7    1  0.2385752E-015  0.9000783E+02  0.7816164E-02  0.1186339E+00
        -11   -1    0    0    0    0  0.00000000000E+00  0.00000000000E+00  0.45593999997E+02  0.45594000000E+02  0.51100000000E-03 0.  1.
         11   -1    0    0    0    0 -0.00000000000E+00 -0.00000000000E+00 -0.45593999997E+02  0.45594000000E+02  0.51100000000E-03 0. -1.
    9900012    2    1    2    0    0 -0.59067633591E+00 -0.10194776101E+01 -0.67632220878E-01  0.90007827450E+02  0.90000089972E+02 0.  0.
        -12    1    1    2    0    0  0.59067633591E+00  0.10194776101E+01  0.67632220878E-01  0.11801725504E+01  0.00000000000E+00 0.  1.
         11    1    3    3    0    0 -0.10298358933E+01 -0.71102425306E+01 -0.65710040092E+01  0.97362315483E+01  0.51100000000E-03 0. -1.
        -11    1    3    3    0    0 -0.97421837827E+01 -0.29087295336E+02  0.24694892391E+02  0.39380434295E+02  0.51100000000E-03 0.  1.
         12    1    3    3    0    0  0.10181343340E+02  0.35178060257E+02 -0.18191520603E+02  0.40891161606E+02  0.00000000000E+00 0. -1.
</event>
<event>
 7    1  0.2385752E-015  0.9000731E+02  0.7816164E-02  0.1186340E+00
        -11   -1    0    0    0    0  0.00000000000E+00  0.00000000000E+00  0.45593999997E+02  0.45594000000E+02  0.51100000000E-03 0. -1.
         11   -1    0    0    0    0 -0.00000000000E+00 -0.00000000000E+00 -0.45593999997E+02  0.45594000000E+02  0.51100000000E-03 0.  1.
    9900012    2    1    2    0    0  0.10911832589E+01 -0.30247327798E+00 -0.33445011468E+00  0.90007310427E+02  0.89999566124E+02 0.  0.
        -12    1    1    2    0    0 -0.10911832589E+01  0.30247327798E+00  0.33445011468E+00  0.11806895729E+01  0.00000000000E+00 0.  1.
         11    1    3    3    0    0  0.29113559133E+02 -0.84438745987E+00 -0.15393474011E+02  0.32943456983E+02  0.51100000000E-03 0. -1.
        -11    1    3    3    0    0  0.11163676532E+02 -0.92701027525E+01  0.22386600380E+01  0.14682441138E+02  0.51100000000E-03 0.  1.
        -12    1    3    3    0    0 -0.39186052407E+02  0.98120169344E+01  0.12820363858E+02  0.42381412306E+02  0.00000000000E+00 0.  1.
</event>
<event>
 7    1  0.2385752E-015  0.9000771E+02  0.7816164E-02  0.1186339E+00
        -11   -1    0    0    0    0  0.00000000000E+00  0.00000000000E+00  0.45593999997E+02  0.45594000000E+02  0.51100000000E-03 0.  1.
         11   -1    0    0    0    0 -0.00000000000E+00 -0.00000000000E+00 -0.45593999997E+02  0.45594000000E+02  0.51100000000E-03 0. -1.
    9900012    2    1    2    0    0  0.34269102116E-01 -0.10987128768E+01  0.42980199651E+00  0.90007714393E+02  0.89999975423E+02 0.  0.
        -12    1    1    2    0    0 -0.34269102116E-01  0.10987128768E+01 -0.42980199651E+00  0.11802856066E+01  0.00000000000E+00 0.  1.
         11    1    3    3    0    0  0.64320785760E+01  0.35227283478E+00  0.73511400029E+01  0.97742002518E+01  0.51100000000E-03 0. -1.
        -11    1    3    3    0    0  0.54236384311E+01  0.34023079567E+02  0.14227839279E+02  0.37274887094E+02  0.51100000000E-03 0.  1.
         12    1    3    3    0    0 -0.11821447905E+02 -0.35474065279E+02 -0.21149177285E+02  0.42958627048E+02  0.00000000000E+00 0. -1.
</event>
<event>
 7    1  0.2385752E-015  0.9000771E+02  0.7816164E-02  0.1186339E+00
        -11   -1    0    0    0    0  0.00000000000E+00  0.00000000000E+00  0.45593999997E+02  0.45594000000E+02  0.51100000000E-03 0. -1.
         11   -1    0    0    0    0 -0.00000000000E+00 -0.00000000000E+00 -0.45593999997E+02  0.45594000000E+02  0.51100000000E-03 0.  1.
    9900012    2    1    2    0    0 -0.99568152956E+00 -0.35277905768E+00  0.52653439919E+00  0.90007714761E+02  0.89999975796E+02 0.  0.
        -12    1    1    2    0    0  0.99568152956E+00  0.35277905768E+00 -0.52653439919E+00  0.11802852390E+01  0.00000000000E+00 0.  1.
         11    1    3    3    0    0 -0.39692400500E+02  0.21024963149E+01 -0.70604343807E+01  0.40370247486E+02  0.51100000000E-03 0. -1.
        -11    1    3    3    0    0 -0.37226380726E+00  0.80701942606E+01 -0.13748192842E+01  0.81949218466E+01  0.51100000000E-03 0.  1.
        -12    1    3    3    0    0  0.39068982777E+02 -0.10525469633E+02  0.89617880641E+01  0.41442545428E+02  0.00000000000E+00 0.  1.
</event>
<event>
 7    1  0.2874582E-015  0.9000776E+02  0.7816164E-02  0.1186339E+00
        -11   -1    0    0    0    0  0.00000000000E+00  0.00000000000E+00  0.45593999997E+02  0.45594000000E+02  0.51100000000E-03 0. -1.
         11   -1    0    0    0    0 -0.00000000000E+00 -0.00000000000E+00 -0.45593999997E+02  0.45594000000E+02  0.51100000000E-03 0.  1.
    9900012    2    1    2    0    0 -0.63307122783E-01 -0.47918085209E+00  0.10767315631E+01  0.90007757254E+02  0.90000018850E+02 0.  0.
        -12    1    1    2    0    0  0.63307122783E-01  0.47918085209E+00 -0.10767315631E+01  0.11802427461E+01  0.00000000000E+00 0.  1.
         11    1    3    3    0    0  0.38458046481E+02  0.12836770996E+02  0.35439088251E+01  0.40698443690E+02  0.51100000000E-03 0. -1.
        -11    1    3    3    0    0 -0.41395647224E+01  0.33611954541E+01  0.80677641533E+01  0.96707005779E+01  0.51100000000E-03 0.  1.
        -12    1    3    3    0    0 -0.34381788882E+02 -0.16677147302E+02 -0.10534941415E+02  0.39638612986E+02  0.00000000000E+00 0.  1.
</event>
<event>
 7    1  0.2385752E-015  0.9000748E+02  0.7816164E-02  0.1186340E+00
        -11   -1    0    0    0    0  0.00000000000E+00  0.00000000000E+00  0.45593999997E+02  0.45594000000E+02  0.51100000000E-03 0.  1.
         11   -1    0    0    0    0 -0.00000000000E+00 -0.00000000000E+00 -0.45593999997E+02  0.45594000000E+02  0.51100000000E-03 0. -1.
    9900012    2    1    2    0    0  0.66395107412E+00  0.96264685369E+00 -0.16155157203E+00  0.90007483628E+02  0.89999741612E+02 0.  0.
        -12    1    1    2    0    0 -0.66395107412E+00 -0.96264685369E+00  0.16155157203E+00  0.11805163718E+01  0.00000000000E+00 0.  1.
         11    1    3    3    0    0  0.92466825373E+01 -0.69717271044E+00  0.32315435466E+01  0.98198809406E+01  0.51100000000E-03 0. -1.
        -11    1    3    3    0    0  0.19167300825E+02 -0.31428727335E+02  0.61335838689E+00  0.36817475899E+02  0.51100000000E-03 0.  1.
         12    1    3    3    0    0 -0.27750032289E+02  0.33088546899E+02 -0.40064535055E+01  0.43370126788E+02  0.00000000000E+00 0. -1.
</event>
<event>
 7    1  0.2385752E-015  0.9000777E+02  0.7816164E-02  0.1186339E+00
        -11   -1    0    0    0    0  0.00000000000E+00  0.00000000000E+00  0.45593999997E+02  0.45594000000E+02  0.51100000000E-03 0. -1.
         11   -1    0    0    0    0 -0.00000000000E+00 -0.00000000000E+00 -0.45593999997E+02  0.45594000000E+02  0.51100000000E-03 0.  1.
    9900012    2    1    2    0    0  0.22352855938E-01  0.11786259681E+01  0.57305856205E-01  0.90007770029E+02  0.90000031794E+02 0.  0.
        -12    1    1    2    0    0 -0.22352855938E-01 -0.11786259681E+01 -0.57305856205E-01  0.11802299708E+01  0.00000000000E+00 0.  1.
         11    1    3    3    0    0 -0.31541400479E+02  0.20119709800E+02 -0.38647244386E+01  0.37611152095E+02  0.51100000000E-03 0. -1.
        -11    1    3    3    0    0 -0.46638911741E+01  0.88269957911E+00  0.96018699716E+01  0.10711066550E+02  0.51100000000E-03 0.  1.
        -12    1    3    3    0    0  0.36227644509E+02 -0.19823783411E+02 -0.56798396768E+01  0.41685551384E+02  0.00000000000E+00 0.  1.
</event>
<event>
 7    1  0.2385752E-015  0.9000767E+02  0.7816164E-02  0.1186339E+00
        -11   -1    0    0    0    0  0.00000000000E+00  0.00000000000E+00  0.45593999997E+02  0.45594000000E+02  0.51100000000E-03 0. -1.
         11   -1    0    0    0    0 -0.00000000000E+00 -0.00000000000E+00 -0.45593999997E+02  0.45594000000E+02  0.51100000000E-03 0.  1.
    9900012    2    1    2    0    0  0.85035145445E+00 -0.53094402119E+00  0.62303890686E+00  0.90007670966E+02  0.89999931422E+02 0.  0.
        -12    1    1    2    0    0 -0.85035145445E+00  0.53094402119E+00 -0.62303890686E+00  0.11803290343E+01  0.00000000000E+00 0.  1.
         11    1    3    3    0    0 -0.14384063277E+02 -0.23789639806E+02 -0.92353191193E+01  0.29294015736E+02  0.51100000000E-03 0. -1.
        -11    1    3    3    0    0  0.60902002349E+01 -0.87270058442E+01 -0.15557307562E+02  0.18848898874E+02  0.51100000000E-03 0.  1.
         12    1    3    3    0    0  0.91442144968E+01  0.31985701629E+02  0.25415665588E+02  0.41864756356E+02  0.00000000000E+00 0. -1.
</event>
<event>
 7    1  0.2385752E-015  0.9000775E+02  0.7816164E-02  0.1186339E+00
        -11   -1    0    0    0    0  0.00000000000E+00  0.00000000000E+00  0.45593999997E+02  0.45594000000E+02  0.51100000000E-03 0. -1.
         11   -1    0    0    0    0 -0.00000000000E+00 -0.00000000000E+00 -0.45593999997E+02  0.45594000000E+02  0.51100000000E-03 0.  1.
    9900012    2    1    2    0    0 -0.18504994598E+00 -0.11619578348E+01 -0.92769703425E-01  0.90007747607E+02  0.90000009076E+02 0.  0.
        -12    1    1    2    0    0  0.18504994598E+00  0.11619578348E+01  0.92769703425E-01  0.11802523926E+01  0.00000000000E+00 0.  1.
         11    1    3    3    0    0  0.15008883490E+00 -0.43100197804E+01 -0.46998916728E+01  0.63786972935E+01  0.51100000000E-03 0. -1.
        -11    1    3    3    0    0 -0.31520250873E+02 -0.25665582291E+02 -0.18103204818E+01  0.40688150486E+02  0.51100000000E-03 0.  1.
         12    1    3    3    0    0  0.31185112092E+02  0.28813644237E+02  0.64174424511E+01  0.42940899828E+02  0.00000000000E+00 0. -1.
</event>
<event>
 7    1  0.2385752E-015  0.9000770E+02  0.7816164E-02  0.1186339E+00
        -11   -1    0    0    0    0  0.00000000000E+00  0.00000000000E+00  0.45593999997E+02  0.45594000000E+02  0.51100000000E-03 0.  1.
         11   -1    0    0    0    0 -0.00000000000E+00 -0.00000000000E+00 -0.45593999997E+02  0.45594000000E+02  0.51100000000E-03 0. -1.
    9900012    2    1    2    0    0 -0.75125280411E+00 -0.28372763076E+00  0.86500312899E+00  0.90007698108E+02  0.89999958923E+02 0.  0.
        -12    1    1    2    0    0  0.75125280411E+00  0.28372763076E+00 -0.86500312899E+00  0.11803018924E+01  0.00000000000E+00 0.  1.
         11    1    3    3    0    0  0.11962511645E+02 -0.29605039490E+02 -0.25301721021E+01  0.32030638757E+02  0.51100000000E-03 0. -1.
        -11    1    3    3    0    0  0.13877927794E+02 -0.16975556642E+01  0.91609426379E+01  0.16715305722E+02  0.51100000000E-03 0.  1.
        -12    1    3    3    0    0 -0.26591692243E+02  0.31018867523E+02 -0.57657674068E+01  0.41261753629E+02  0.00000000000E+00 0.  1.
</event>
<event>
 7    1  0.2385752E-015  0.9000776E+02  0.7816164E-02  0.1186339E+00
        -11   -1    0    0    0    0  0.00000000000E+00  0.00000000000E+00  0.45593999997E+02  0.45594000000E+02  0.51100000000E-03 0. -1.
         11   -1    0    0    0    0 -0.00000000000E+00 -0.00000000000E+00 -0.45593999997E+02  0.45594000000E+02  0.51100000000E-03 0.  1.
    9900012    2    1    2    0    0  0.99674987684E+00  0.17900617877E+00  0.60614384893E+00  0.90007761086E+02  0.90000022732E+02 0.  0.
        -12    1    1    2    0    0 -0.99674987684E+00 -0.17900617877E+00 -0.60614384893E+00  0.11802389142E+01  0.00000000000E+00 0.  1.
         11    1    3    3    0    0 -0.67457896214E+01  0.35306899012E+01  0.46989810032E+01  0.89471711465E+01  0.51100000000E-03 0. -1.
        -11    1    3    3    0    0  0.22343828270E+00 -0.38033838445E+02 -0.19063109993E+02  0.42544388048E+02  0.51100000000E-03 0.  1.
         12    1    3    3    0    0  0.75191012156E+01  0.34682154722E+02  0.14970272839E+02  0.38516201891E+02  0.00000000000E+00 0. -1.
</event>
<event>
 7    1  0.2385752E-015  0.9000787E+02  0.7816164E-02  0.1186339E+00
        -11   -1    0    0    0    0  0.00000000000E+00  0.00000000000E+00  0.45593999997E+02  0.45594000000E+02  0.51100000000E-03 0.  1.
         11   -1    0    0    0    0 -0.00000000000E+00 -0.00000000000E+00 -0.45593999997E+02  0.45594000000E+02  0.51100000000E-03 0. -1.
    9900012    2    1    2    0    0 -0.34954887315E+00  0.65066001302E+00 -0.92041685958E+00  0.90007868625E+02  0.90000131691E+02 0.  0.
        -12    1    1    2    0    0  0.34954887315E+00 -0.65066001302E+00  0.92041685958E+00  0.11801313752E+01  0.00000000000E+00 0.  1.
         11    1    3    3    0    0 -0.72949958342E+01  0.79745180005E+01 -0.90540967172E+00  0.10845721207E+02  0.51100000000E-03 0. -1.
        -11    1    3    3    0    0 -0.25451794827E+02  0.22492306218E+02  0.67088285914E+01  0.34622334991E+02  0.51100000000E-03 0.  1.
         12    1    3    3    0    0  0.32397241788E+02 -0.29816164206E+02 -0.67238357792E+01  0.44539812427E+02  0.00000000000E+00 0. -1.
</event>
<event>
 7    1  0.2385752E-015  0.9000776E+02  0.7816164E-02  0.1186339E+00
        -11   -1    0    0    0    0  0.00000000000E+00  0.00000000000E+00  0.45593999997E+02  0.45594000000E+02  0.51100000000E-03 0.  1.
         11   -1    0    0    0    0 -0.00000000000E+00 -0.00000000000E+00 -0.45593999997E+02  0.45594000000E+02  0.51100000000E-03 0. -1.
    9900012    2    1    2    0    0 -0.19363272421E+00  0.25573381074E+00 -0.11358094379E+01  0.90007764221E+02  0.90000025909E+02 0.  0.
        -12    1    1    2    0    0  0.19363272421E+00 -0.25573381074E+00  0.11358094379E+01  0.11802357786E+01  0.00000000000E+00 0.  1.
         11    1    3    3    0    0 -0.21071268099E+02 -0.19843589065E+02 -0.20831012467E+02  0.35660867165E+02  0.51100000000E-03 0. -1.
        -11    1    3    3    0    0 -0.10038272002E+02 -0.37282544098E+01  0.18509116655E+00  0.10709857363E+02  0.51100000000E-03 0.  1.
        -12    1    3    3    0    0  0.30915907377E+02  0.23827577286E+02  0.19510111863E+02  0.43637039693E+02  0.00000000000E+00 0.  1.
</event>
<event>
 7    1  0.2385752E-015  0.9000771E+02  0.7816164E-02  0.1186339E+00
        -11   -1    0    0    0    0  0.00000000000E+00  0.00000000000E+00  0.45593999997E+02  0.45594000000E+02  0.51100000000E-03 0.  1.
         11   -1    0    0    0    0 -0.00000000000E+00 -0.00000000000E+00 -0.45593999997E+02  0.45594000000E+02  0.51100000000E-03 0. -1.
    9900012    2    1    2    0    0  0.60047269650E-01 -0.11745713737E+01 -0.99343316862E-01  0.90007706528E+02  0.89999967454E+02 0.  0.
        -12    1    1    2    0    0 -0.60047269650E-01  0.11745713737E+01  0.99343316862E-01  0.11802934725E+01  0.00000000000E+00 0.  1.
         11    1    3    3    0    0 -0.48004204163E+00 -0.89806781974E+01 -0.43473188336E+01  0.99891041915E+01  0.51100000000E-03 0. -1.
        -11    1    3    3    0    0  0.37581475157E+02 -0.52076818456E+01  0.12409221437E+02  0.39918366727E+02  0.51100000000E-03 0.  1.
         12    1    3    3    0    0 -0.37041385846E+02  0.13013788669E+02 -0.81612459203E+01  0.40100235609E+02  0.00000000000E+00 0. -1.
</event>
<event>
 7    1  0.2385752E-015  0.9000774E+02  0.7816164E-02  0.1186339E+00
        -11   -1    0    0    0    0  0.00000000000E+00  0.00000000000E+00  0.45593999997E+02  0.45594000000E+02  0.51100000000E-03 0. -1.
         11   -1    0    0    0    0 -0.00000000000E+00 -0.00000000000E+00 -0.45593999997E+02  0.45594000000E+02  0.51100000000E-03 0.  1.
    9900012    2    1    2    0    0 -0.17170771733E+00 -0.11415270725E+01 -0.24584537656E+00  0.90007742593E+02  0.90000003995E+02 0.  0.
        -12    1    1    2    0    0  0.17170771733E+00  0.11415270725E+01  0.24584537656E+00  0.11802574069E+01  0.00000000000E+00 0.  1.
         11    1    3    3    0    0  0.91388881020E+01  0.28072640531E+01  0.46909831166E+00  0.95718368505E+01  0.51100000000E-03 0. -1.
        -11    1    3    3    0    0 -0.14089749865E+02  0.25161656859E+02 -0.28041613895E+02  0.40223900075E+02  0.51100000000E-03 0.  1.
         12    1    3    3    0    0  0.47791540456E+01 -0.29110447984E+02  0.27326670207E+02  0.40212005668E+02  0.00000000000E+00 0. -1.
</event>
<event>
 7    1  0.2385752E-015  0.9000780E+02  0.7816164E-02  0.1186339E+00
        -11   -1    0    0    0    0  0.00000000000E+00  0.00000000000E+00  0.45593999997E+02  0.45594000000E+02  0.51100000000E-03 0.  1.
         11   -1    0    0    0    0 -0.00000000000E+00 -0.00000000000E+00 -0.45593999997E+02  0.45594000000E+02  0.51100000000E-03 0. -1.
    9900012    2    1    2    0    0 -0.68780347645E+00 -0.18008033452E+00  0.94199784202E+00  0.90007804049E+02  0.90000066262E+02 0.  0.
        -12    1    1    2    0    0  0.68780347645E+00  0.18008033452E+00 -0.94199784202E+00  0.11801959513E+01  0.00000000000E+00 0.  1.
         11    1    3    3    0    0  0.22440985731E+02 -0.11201536697E+02 -0.41435166300E+01  0.25421270528E+02  0.51100000000E-03 0. -1.
        -11    1    3    3    0    0  0.19121554185E+02 -0.77896595390E+00 -0.45557955927E+01  0.19672211268E+02  0.51100000000E-03 0.  1.
        -12    1    3    3    0    0 -0.42250343393E+02  0.11800422316E+02  0.96413100648E+01  0.44914322253E+02  0.00000000000E+00 0.  1.
</event>
<event>
 7    1  0.2385752E-015  0.9000755E+02  0.7816164E-02  0.1186339E+00
        -11   -1    0    0    0    0  0.00000000000E+00  0.00000000000E+00  0.45593999997E+02  0.45594000000E+02  0.51100000000E-03 0.  1.
         11   -1    0    0    0    0 -0.00000000000E+00 -0.00000000000E+00 -0.45593999997E+02  0.45594000000E+02  0.51100000000E-03 0. -1.
    9900012    2    1    2    0    0  0.49323656945E+00 -0.42852420906E+00 -0.98313161578E+00  0.90007549626E+02  0.89999808481E+02 0.  0.
        -12    1    1    2    0    0 -0.49323656945E+00  0.42852420906E+00  0.98313161578E+00  0.11804503739E+01  0.00000000000E+00 0.  1.
         11    1    3    3    0    0 -0.27614327195E+01 -0.54953090129E+01 -0.77774390338E+01  0.99152655031E+01  0.51100000000E-03 0. -1.
        -11    1    3    3    0    0  0.31663218245E+02  0.13632240644E+02  0.27342548004E+02  0.44000139843E+02  0.51100000000E-03 0.  1.
         12    1    3    3    0    0 -0.28408548956E+02 -0.85654558403E+01 -0.20548240586E+02  0.36092144280E+02  0.00000000000E+00 0. -1.
</event>
<event>
 7    1  0.2385752E-015  0.9000812E+02  0.7816164E-02  0.1186338E+00
        -11   -1    0    0    0    0  0.00000000000E+00  0.00000000000E+00  0.45593999997E+02  0.45594000000E+02  0.51100000000E-03 0.  1.
         11   -1    0    0    0    0 -0.00000000000E+00 -0.00000000000E+00 -0.45593999997E+02  0.45594000000E+02  0.51100000000E-03 0. -1.
    9900012    2    1    2    0    0  0.66092578233E-01 -0.74054692272E+00 -0.91615194366E+00  0.90008121889E+02  0.90000388297E+02 0.  0.
        -12    1    1    2    0    0 -0.66092578233E-01  0.74054692272E+00  0.91615194366E+00  0.11798781113E+01  0.00000000000E+00 0.  1.
         11    1    3    3    0    0 -0.33949240861E+02  0.18188767853E+02  0.20287086140E+01  0.38568094196E+02  0.51100000000E-03 0. -1.
        -11    1    3    3    0    0 -0.45219996081E+01 -0.68237987770E+01  0.58979375455E+01  0.10089518212E+02  0.51100000000E-03 0.  1.
        -12    1    3    3    0    0  0.38537333047E+02 -0.12105515999E+02 -0.88427981032E+01  0.41350509480E+02  0.00000000000E+00 0.  1.
</event>
<event>
 7    1  0.2385752E-015  0.9000784E+02  0.7816164E-02  0.1186339E+00
        -11   -1    0    0    0    0  0.00000000000E+00  0.00000000000E+00  0.45593999997E+02  0.45594000000E+02  0.51100000000E-03 0.  1.
         11   -1    0    0    0    0 -0.00000000000E+00 -0.00000000000E+00 -0.45593999997E+02  0.45594000000E+02  0.51100000000E-03 0. -1.
    9900012    2    1    2    0    0 -0.11199622040E+01  0.89323898508E-01 -0.36121437180E+00  0.90007843265E+02  0.90000105996E+02 0.  0.
        -12    1    1    2    0    0  0.11199622040E+01 -0.89323898508E-01  0.36121437180E+00  0.11801567352E+01  0.00000000000E+00 0.  1.
         11    1    3    3    0    0 -0.13966195711E+02 -0.30005608403E+02 -0.77575748142E+01  0.33993692438E+02  0.51100000000E-03 0. -1.
        -11    1    3    3    0    0 -0.28914085062E+01 -0.11018269544E+02  0.10355819701E+00  0.11391805452E+02  0.51100000000E-03 0.  1.
        -12    1    3    3    0    0  0.15737642013E+02  0.41113201846E+02  0.72928022454E+01  0.44622345375E+02  0.00000000000E+00 0.  1.
</event>
<event>
 7    1  0.2385752E-015  0.9000768E+02  0.7816164E-02  0.1186339E+00
        -11   -1    0    0    0    0  0.00000000000E+00  0.00000000000E+00  0.45593999997E+02  0.45594000000E+02  0.51100000000E-03 0. -1.
         11   -1    0    0    0    0 -0.00000000000E+00 -0.00000000000E+00 -0.45593999997E+02  0.45594000000E+02  0.51100000000E-03 0.  1.
    9900012    2    1    2    0    0  0.92006842099E+00  0.41971716917E-01  0.73815364418E+00  0.90007678719E+02  0.89999939278E+02 0.  0.
        -12    1    1    2    0    0 -0.92006842099E+00 -0.41971716917E-01 -0.73815364418E+00  0.11803212812E+01  0.00000000000E+00 0.  1.
         11    1    3    3    0    0 -0.29389047393E+01 -0.44541372734E+01 -0.10310517643E+02  0.11609619901E+02  0.51100000000E-03 0. -1.
        -11    1    3    3    0    0  0.15802875886E+02 -0.29799767196E+02 -0.11516337072E+02  0.35642433012E+02  0.51100000000E-03 0.  1.
         12    1    3    3    0    0 -0.11943902726E+02  0.34295876186E+02  0.22565008360E+02  0.42755625805E+02  0.00000000000E+00 0. -1.
</event>
<event>
 7    1  0.2385752E-015  0.9000775E+02  0.7816164E-02  0.1186339E+00
        -11   -1    0    0    0    0  0.00000000000E+00  0.00000000000E+00  0.45593999997E+02  0.45594000000E+02  0.51100000000E-03 0. -1.
         11   -1    0    0    0    0 -0.00000000000E+00 -0.00000000000E+00 -0.45593999997E+02  0.45594000000E+02  0.51100000000E-03 0.  1.
    9900012    2    1    2    0    0 -0.11061494722E+01  0.10860729997E+00  0.39702562318E+00  0.90007749372E+02  0.90000010863E+02 0.  0.
        -12    1    1    2    0    0  0.11061494722E+01 -0.10860729997E+00 -0.39702562318E+00  0.11802506285E+01  0.00000000000E+00 0.  1.
         11    1    3    3    0    0  0.96686177739E+01  0.16100480676E+00  0.25491103180E+01  0.10000302789E+02  0.51100000000E-03 0. -1.
        -11    1    3    3    0    0 -0.21263980564E+02 -0.12298935648E+02 -0.35381251332E+02  0.43072655289E+02  0.51100000000E-03 0.  1.
         12    1    3    3    0    0  0.10489213318E+02  0.12246538141E+02  0.33229166638E+02  0.36934791294E+02  0.00000000000E+00 0. -1.
</event>
<event>
 7    1  0.2385752E-015  0.9000758E+02  0.7816164E-02  0.1186339E+00
        -11   -1    0    0    0    0  0.00000000000E+00  0.00000000000E+00  0.45593999997E+02  0.45594000000E+02  0.51100000000E-03 0.  1.
         11   -1    0    0    0    0 -0.00000000000E+00 -0.00000000000E+00 -0.45593999997E+02  0.45594000000E+02  0.51100000000E-03 0. -1.
    9900012    2    1    2    0    0  0.21985796431E+00  0.68137312861E+00 -0.93850421597E+00  0.90007577606E+02  0.89999836830E+02 0.  0.
        -12    1    1    2    0    0 -0.21985796431E+00 -0.68137312861E+00  0.93850421597E+00  0.11804223940E+01  0.00000000000E+00 0.  1.
         11    1    3    3    0    0  0.68423418219E+01  0.34575177622E+02  0.81840364330E+01  0.36183407825E+02  0.51100000000E-03 0. -1.
        -11    1    3    3    0    0 -0.42838554671E+01  0.88253865143E+01  0.99650128319E+00  0.98606226912E+01  0.51100000000E-03 0.  1.
        -12    1    3    3    0    0 -0.23386283905E+01 -0.42719191008E+02 -0.10119041932E+02  0.43963547090E+02  0.00000000000E+00 0.  1.
</event>
<event>
 7    1  0.2385752E-015  0.9000765E+02  0.7816164E-02  0.1186339E+00
        -11   -1    0    0    0    0  0.00000000000E+00  0.00000000000E+00  0.45593999997E+02  0.45594000000E+02  0.51100000000E-03 0.  1.
         11   -1    0    0    0    0 -0.00000000000E+00 -0.00000000000E+00 -0.45593999997E+02  0.45594000000E+02  0.51100000000E-03 0. -1.
    9900012    2    1    2    0    0 -0.57998654086E+00 -0.85504505526E+00 -0.57072643625E+00  0.90007654670E+02  0.89999914911E+02 0.  0.
        -12    1    1    2    0    0  0.57998654086E+00  0.85504505526E+00  0.57072643625E+00  0.11803453305E+01  0.00000000000E+00 0.  1.
         11    1    3    3    0    0  0.77932665676E+01 -0.10830317636E+01 -0.36200393433E+02  0.37045599557E+02  0.51100000000E-03 0. -1.
        -11    1    3    3    0    0 -0.51446957739E+01 -0.75783931425E+01 -0.56930128697E+01  0.10784726840E+02  0.51100000000E-03 0.  1.
        -12    1    3    3    0    0 -0.32285573346E+01  0.78063798509E+01  0.41322679866E+02  0.42177328272E+02  0.00000000000E+00 0.  1.
</event>
<event>
 7    1  0.2385752E-015  0.9000781E+02  0.7816164E-02  0.1186339E+00
        -11   -1    0    0    0    0  0.00000000000E+00  0.00000000000E+00  0.45593999997E+02  0.45594000000E+02  0.51100000000E-03 0. -1.
         11   -1    0    0    0    0 -0.00000000000E+00 -0.00000000000E+00 -0.45593999997E+02  0.45594000000E+02  0.51100000000E-03 0.  1.
    9900012    2    1    2    0    0  0.29408945467E+00  0.17652377701E+00  0.11292431251E+01  0.90007813876E+02  0.90000076219E+02 0.  0.
        -12    1    1    2    0    0 -0.29408945467E+00 -0.17652377701E+00 -0.11292431251E+01  0.11801861238E+01  0.00000000000E+00 0.  1.
         11    1    3    3    0    0  0.17231625454E+02  0.25602739184E+02  0.18970746968E+02  0.36225935603E+02  0.51100000000E-03 0. -1.
        -11    1    3    3    0    0  0.45991586979E+01  0.51836850671E+01  0.61997972491E+01  0.92984051210E+01  0.51100000000E-03 0.  1.
        -12    1    3    3    0    0 -0.21536694697E+02 -0.30609900474E+02 -0.24041301092E+02  0.44483473152E+02  0.00000000000E+00 0.  1.
</event>
<event>
 7    1  0.2385752E-015  0.9000772E+02  0.7816164E-02  0.1186339E+00
        -11   -1    0    0    0    0  0.00000000000E+00  0.00000000000E+00  0.45593999997E+02  0.45594000000E+02  0.51100000000E-03 0. -1.
         11   -1    0    0    0    0 -0.00000000000E+00 -0.00000000000E+00 -0.45593999997E+02  0.45594000000E+02  0.51100000000E-03 0.  1.
    9900012    2    1    2    0    0  0.87154521293E+00  0.57245580784E+00 -0.55296989226E+00  0.90007715114E+02  0.89999976154E+02 0.  0.
        -12    1    1    2    0    0 -0.87154521293E+00 -0.57245580784E+00  0.55296989226E+00  0.11802848859E+01  0.00000000000E+00 0.  1.
         11    1    3    3    0    0 -0.10016832908E+02 -0.25042828597E+01 -0.70069033738E+01  0.12478183734E+02  0.51100000000E-03 0. -1.
        -11    1    3    3    0    0 -0.22545831048E+02  0.27596985454E+02  0.47633545180E+00  0.35638953401E+02  0.51100000000E-03 0.  1.
         12    1    3    3    0    0  0.33434209169E+02 -0.24520246787E+02  0.59775980298E+01  0.41890577979E+02  0.00000000000E+00 0. -1.
</event>
<event>
 7    1  0.2385752E-015  0.9000805E+02  0.7816164E-02  0.1186338E+00
        -11   -1    0    0    0    0  0.00000000000E+00  0.00000000000E+00  0.45593999997E+02  0.45594000000E+02  0.51100000000E-03 0.  1.
         11   -1    0    0    0    0 -0.00000000000E+00 -0.00000000000E+00 -0.45593999997E+02  0.45594000000E+02  0.51100000000E-03 0. -1.
    9900012    2    1    2    0    0 -0.18719839412E+00 -0.56945092717E+00 -0.10163443138E+01  0.90008053662E+02  0.90000319169E+02 0.  0.
        -12    1    1    2    0    0  0.18719839412E+00  0.56945092717E+00  0.10163443138E+01  0.11799463383E+01  0.00000000000E+00 0.  1.
         11    1    3    3    0    0 -0.39393329368E+01  0.46654916491E+01  0.69086776474E+01  0.92203570111E+01  0.51100000000E-03 0. -1.
        -11    1    3    3    0    0 -0.20266710003E+02  0.26564266627E+02  0.12908739994E+02  0.35819483027E+02  0.51100000000E-03 0.  1.
         12    1    3    3    0    0  0.24018844546E+02 -0.31799209204E+02 -0.20833761956E+02  0.44968213624E+02  0.00000000000E+00 0. -1.
</event>
<event>
 7    1  0.2385752E-015  0.9000778E+02  0.7816164E-02  0.1186339E+00
        -11   -1    0    0    0    0  0.00000000000E+00  0.00000000000E+00  0.45593999997E+02  0.45594000000E+02  0.51100000000E-03 0. -1.
         11   -1    0    0    0    0 -0.00000000000E+00 -0.00000000000E+00 -0.45593999997E+02  0.45594000000E+02  0.51100000000E-03 0.  1.
    9900012    2    1    2    0    0  0.72918807642E+00 -0.78917866867E+00  0.48825191455E+00  0.90007784700E+02  0.90000046658E+02 0.  0.
        -12    1    1    2    0    0 -0.72918807642E+00  0.78917866867E+00 -0.48825191455E+00  0.11802152998E+01  0.00000000000E+00 0.  1.
         11    1    3    3    0    0 -0.27993729000E+02  0.21518653534E+02 -0.19534653745E+02  0.40352249137E+02  0.51100000000E-03 0. -1.
        -11    1    3    3    0    0 -0.32359682320E+01 -0.30416044082E+01  0.10112936836E+02  0.11045104774E+02  0.51100000000E-03 0.  1.
        -12    1    3    3    0    0  0.31958885309E+02 -0.19266227795E+02  0.99099688236E+01  0.38610430789E+02  0.00000000000E+00 0.  1.
</event>
<event>
 7    1  0.2385752E-015  0.9000778E+02  0.7816164E-02  0.1186339E+00
        -11   -1    0    0    0    0  0.00000000000E+00  0.00000000000E+00  0.45593999997E+02  0.45594000000E+02  0.51100000000E-03 0.  1.
         11   -1    0    0    0    0 -0.00000000000E+00 -0.00000000000E+00 -0.45593999997E+02  0.45594000000E+02  0.51100000000E-03 0. -1.
    9900012    2    1    2    0    0 -0.29849083569E+00  0.51136388714E+00 -0.10209484420E+01  0.90007777341E+02  0.90000039202E+02 0.  0.
        -12    1    1    2    0    0  0.29849083569E+00 -0.51136388714E+00  0.10209484420E+01  0.11802226592E+01  0.00000000000E+00 0.  1.
         11    1    3    3    0    0  0.16342244845E+00 -0.27630607801E+02 -0.25272502151E+02  0.37445648073E+02  0.51100000000E-03 0. -1.
        -11    1    3    3    0    0 -0.43858365693E+01 -0.44981760603E+01 -0.54045935973E+01  0.82872662860E+01  0.51100000000E-03 0.  1.
        -12    1    3    3    0    0  0.39239232852E+01  0.32640147749E+02  0.29656147306E+02  0.44274862982E+02  0.00000000000E+00 0.  1.
</event>
<event>
 7    1  0.2385752E-015  0.9000778E+02  0.7816164E-02  0.1186339E+00
        -11   -1    0    0    0    0  0.00000000000E+00  0.00000000000E+00  0.45593999997E+02  0.45594000000E+02  0.51100000000E-03 0. -1.
         11   -1    0    0    0    0 -0.00000000000E+00 -0.00000000000E+00 -0.45593999997E+02  0.45594000000E+02  0.51100000000E-03 0.  1.
    9900012    2    1    2    0    0 -0.83929973110E+00 -0.78877225250E+00  0.25755998007E+00  0.90007778475E+02  0.90000040351E+02 0.  0.
        -12    1    1    2    0    0  0.83929973110E+00  0.78877225250E+00 -0.25755998007E+00  0.11802215251E+01  0.00000000000E+00 0.  1.
         11    1    3    3    0    0 -0.36305851005E+01 -0.88060176465E+00 -0.75942428707E+01  0.84633995936E+01  0.51100000000E-03 0. -1.
        -11    1    3    3    0    0  0.29753843467E+02 -0.13623879566E+02 -0.21691321431E+02  0.39260854820E+02  0.51100000000E-03 0.  1.
         12    1    3    3    0    0 -0.26962558098E+02  0.13715709078E+02  0.29543124282E+02  0.42283524061E+02  0.00000000000E+00 0. -1.
</event>
<event>
 7    1  0.2385752E-015  0.9000834E+02  0.7816164E-02  0.1186338E+00
        -11   -1    0    0    0    0  0.00000000000E+00  0.00000000000E+00  0.45593999997E+02  0.45594000000E+02  0.51100000000E-03 0. -1.
         11   -1    0    0    0    0 -0.00000000000E+00 -0.00000000000E+00 -0.45593999997E+02  0.45594000000E+02  0.51100000000E-03 0.  1.
    9900012    2    1    2    0    0  0.12537408206E+00 -0.61617585657E+00 -0.99810357000E+00  0.90008338149E+02  0.90000607410E+02 0.  0.
        -12    1    1    2    0    0 -0.12537408206E+00  0.61617585657E+00  0.99810357000E+00  0.11796618512E+01  0.00000000000E+00 0.  1.
         11    1    3    3    0    0 -0.41903633278E+02 -0.10200940189E+02 -0.45343103119E+01  0.43365120003E+02  0.51100000000E-03 0. -1.
        -11    1    3    3    0    0  0.39499299135E+01  0.73424253634E+01  0.12396040589E+01  0.84291028599E+01  0.51100000000E-03 0.  1.
        -12    1    3    3    0    0  0.38079077446E+02  0.22423389685E+01  0.22966026830E+01  0.38214115286E+02  0.00000000000E+00 0.  1.
</event>
<event>
 7    1  0.2385752E-015  0.9000781E+02  0.7816164E-02  0.1186339E+00
        -11   -1    0    0    0    0  0.00000000000E+00  0.00000000000E+00  0.45593999997E+02  0.45594000000E+02  0.51100000000E-03 0.  1.
         11   -1    0    0    0    0 -0.00000000000E+00 -0.00000000000E+00 -0.45593999997E+02  0.45594000000E+02  0.51100000000E-03 0. -1.
    9900012    2    1    2    0    0  0.82282726264E+00 -0.81052429351E+00 -0.24260246176E+00  0.90007809215E+02  0.90000071497E+02 0.  0.
        -12    1    1    2    0    0 -0.82282726264E+00  0.81052429351E+00  0.24260246176E+00  0.11801907850E+01  0.00000000000E+00 0.  1.
         11    1    3    3    0    0 -0.76983166159E+01 -0.42108943900E+01  0.36892254316E+01  0.95187233823E+01  0.51100000000E-03 0. -1.
        -11    1    3    3    0    0 -0.21797994121E+02 -0.18435915643E+02  0.21113108856E+02  0.35507730132E+02  0.51100000000E-03 0.  1.
         12    1    3    3    0    0  0.30319138000E+02  0.21836285739E+02 -0.25044936749E+02  0.44981355701E+02  0.00000000000E+00 0. -1.
</event>
<event>
 7    1  0.2385752E-015  0.9000804E+02  0.7816164E-02  0.1186338E+00
        -11   -1    0    0    0    0  0.00000000000E+00  0.00000000000E+00  0.45593999997E+02  0.45594000000E+02  0.51100000000E-03 0.  1.
         11   -1    0    0    0    0 -0.00000000000E+00 -0.00000000000E+00 -0.45593999997E+02  0.45594000000E+02  0.51100000000E-03 0. -1.
    9900012    2    1    2    0    0 -0.97044639831E+00 -0.35050325139E+00 -0.57243058883E+00  0.90008044272E+02  0.90000309656E+02 0.  0.
        -12    1    1    2    0    0  0.97044639831E+00  0.35050325139E+00  0.57243058883E+00  0.11799557281E+01  0.00000000000E+00 0.  1.
         11    1    3    3    0    0  0.28558081776E+01  0.20902063174E+02 -0.31088093675E+02  0.37570220307E+02  0.51100000000E-03 0. -1.
        -11    1    3    3    0    0  0.23834481473E+01  0.74346971652E+00 -0.75972994744E+01  0.79970326907E+01  0.51100000000E-03 0.  1.
        -12    1    3    3    0    0 -0.62097027231E+01 -0.21996036142E+02  0.38112962561E+02  0.44440791274E+02  0.00000000000E+00 0.  1.
</event>
<event>
 7    1  0.2385752E-015  0.9000772E+02  0.7816164E-02  0.1186339E+00
        -11   -1    0    0    0    0  0.00000000000E+00  0.00000000000E+00  0.45593999997E+02  0.45594000000E+02  0.51100000000E-03 0.  1.
         11   -1    0    0    0    0 -0.00000000000E+00 -0.00000000000E+00 -0.45593999997E+02  0.45594000000E+02  0.51100000000E-03 0. -1.
    9900012    2    1    2    0    0  0.75365093014E+00  0.50284869168E+00 -0.75645545792E+00  0.90007715547E+02  0.89999976592E+02 0.  0.
        -12    1    1    2    0    0 -0.75365093014E+00 -0.50284869168E+00  0.75645545792E+00  0.11802844534E+01  0.00000000000E+00 0.  1.
         11    1    3    3    0    0  0.49985834582E+01 -0.91731753056E+01  0.10733210187E+01  0.10501666537E+02  0.51100000000E-03 0. -1.
        -11    1    3    3    0    0 -0.39773008703E+02  0.16877479157E+02 -0.20571075006E+01  0.43254747895E+02  0.51100000000E-03 0.  1.
         12    1    3    3    0    0  0.35528076175E+02 -0.72014551595E+01  0.22733102391E+00  0.36251301115E+02  0.00000000000E+00 0. -1.
</event>
<event>
 7    1  0.2385752E-015  0.9000771E+02  0.7816164E-02  0.1186339E+00
        -11   -1    0    0    0    0  0.00000000000E+00  0.00000000000E+00  0.45593999997E+02  0.45594000000E+02  0.51100000000E-03 0. -1.
         11   -1    0    0    0    0 -0.00000000000E+00 -0.00000000000E+00 -0.45593999997E+02  0.45594000000E+02  0.51100000000E-03 0.  1.
    9900012    2    1    2    0    0 -0.10915621282E+01 -0.41901811891E+00  0.16127448561E+00  0.90007706171E+02  0.89999967092E+02 0.  0.
        -12    1    1    2    0    0  0.10915621282E+01  0.41901811891E+00 -0.16127448561E+00  0.11802938293E+01  0.00000000000E+00 0.  1.
         11    1    3    3    0    0  0.31161725245E+02  0.22097568030E+02  0.32981044141E+01  0.38343619105E+02  0.51100000000E-03 0. -1.
        -11    1    3    3    0    0 -0.11623423546E+00  0.37444735362E+01  0.78794441583E+01  0.87246909954E+01  0.51100000000E-03 0.  1.
        -12    1    3    3    0    0 -0.32137053138E+02 -0.26261059685E+02 -0.11016274087E+02  0.42939396070E+02  0.00000000000E+00 0.  1.
</event>
<event>
 7    1  0.2385752E-015  0.9000771E+02  0.7816164E-02  0.1186339E+00
        -11   -1    0    0    0    0  0.00000000000E+00  0.00000000000E+00  0.45593999997E+02  0.45594000000E+02  0.51100000000E-03 0.  1.
         11   -1    0    0    0    0 -0.00000000000E+00 -0.00000000000E+00 -0.45593999997E+02  0.45594000000E+02  0.51100000000E-03 0. -1.
    9900012    2    1    2    0    0  0.97701993581E+00 -0.43751894908E+00 -0.49708438303E+00  0.90007710345E+02  0.89999971322E+02 0.  0.
        -12    1    1    2    0    0 -0.97701993581E+00  0.43751894908E+00  0.49708438303E+00  0.11802896550E+01  0.00000000000E+00 0.  1.
         11    1    3    3    0    0  0.24162429474E+01  0.64431356808E+01 -0.64059316933E+01  0.94014992689E+01  0.51100000000E-03 0. -1.
        -11    1    3    3    0    0  0.31802577064E+02  0.13242372195E+02  0.19322095053E+02  0.39498198525E+02  0.51100000000E-03 0.  1.
         12    1    3    3    0    0 -0.33241800076E+02 -0.20123026825E+02 -0.13413247742E+02  0.41108012551E+02  0.00000000000E+00 0. -1.
</event>
<event>
 7    1  0.2385752E-015  0.9000777E+02  0.7816164E-02  0.1186339E+00
        -11   -1    0    0    0    0  0.00000000000E+00  0.00000000000E+00  0.45593999997E+02  0.45594000000E+02  0.51100000000E-03 0. -1.
         11   -1    0    0    0    0 -0.00000000000E+00 -0.00000000000E+00 -0.45593999997E+02  0.45594000000E+02  0.51100000000E-03 0.  1.
    9900012    2    1    2    0    0 -0.78910860286E+00 -0.86044628415E+00  0.17284614123E+00  0.90007772910E+02  0.90000034713E+02 0.  0.
        -12    1    1    2    0    0  0.78910860286E+00  0.86044628415E+00 -0.17284614123E+00  0.11802270898E+01  0.00000000000E+00 0.  1.
         11    1    3    3    0    0 -0.67467308447E+01  0.35721698785E+01 -0.69324991056E+01  0.10312047267E+02  0.51100000000E-03 0. -1.
        -11    1    3    3    0    0 -0.11738166845E+02 -0.32718486764E+02 -0.16842579702E+02  0.38625851813E+02  0.51100000000E-03 0.  1.
         12    1    3    3    0    0  0.17695789087E+02  0.28285870601E+02  0.23947924949E+02  0.41069873830E+02  0.00000000000E+00 0. -1.
</event>
<event>
 7    1  0.2385752E-015  0.9000773E+02  0.7816164E-02  0.1186339E+00
        -11   -1    0    0    0    0  0.00000000000E+00  0.00000000000E+00  0.45593999997E+02  0.45594000000E+02  0.51100000000E-03 0.  1.
         11   -1    0    0    0    0 -0.00000000000E+00 -0.00000000000E+00 -0.45593999997E+02  0.45594000000E+02  0.51100000000E-03 0. -1.
    9900012    2    1    2    0    0 -0.15080494644E+00 -0.79737879396E+00 -0.85701408856E+00  0.90007733835E+02  0.89999995121E+02 0.  0.
        -12    1    1    2    0    0  0.15080494644E+00  0.79737879396E+00  0.85701408856E+00  0.11802661653E+01  0.00000000000E+00 0.  1.
         11    1    3    3    0    0 -0.22304249454E+02 -0.23476908140E+02 -0.15353490950E+02  0.35838170212E+02  0.51100000000E-03 0. -1.
        -11    1    3    3    0    0 -0.35841766810E+01 -0.90502518405E+01 -0.22894704947E+01  0.99997528102E+01  0.51100000000E-03 0.  1.
        -12    1    3    3    0    0  0.25737621188E+02  0.31729781187E+02  0.16785947356E+02  0.44169810813E+02  0.00000000000E+00 0.  1.
</event>
<event>
 7    1  0.2385752E-015  0.9000771E+02  0.7816164E-02  0.1186339E+00
        -11   -1    0    0    0    0  0.00000000000E+00  0.00000000000E+00  0.45593999997E+02  0.45594000000E+02  0.51100000000E-03 0. -1.
         11   -1    0    0    0    0 -0.00000000000E+00 -0.00000000000E+00 -0.45593999997E+02  0.45594000000E+02  0.51100000000E-03 0.  1.
    9900012    2    1    2    0    0 -0.56229954843E+00 -0.27835002346E+00  0.99971326562E+00  0.90007709302E+02  0.89999970265E+02 0.  0.
        -12    1    1    2    0    0  0.56229954843E+00  0.27835002346E+00 -0.99971326562E+00  0.11802906978E+01  0.00000000000E+00 0.  1.
         11    1    3    3    0    0  0.74879519904E+01 -0.10125927972E+02 -0.72417558751E+01  0.14527452313E+02  0.51100000000E-03 0. -1.
        -11    1    3    3    0    0 -0.78353587858E+01 -0.26219465428E+02 -0.16302906577E+02  0.31853382517E+02  0.51100000000E-03 0.  1.
         12    1    3    3    0    0 -0.21489275303E+00  0.36067043377E+02  0.24544375718E+02  0.43626874472E+02  0.00000000000E+00 0. -1.
</event>
<event>
 7    1  0.2385752E-015  0.9000771E+02  0.7816164E-02  0.1186339E+00
        -11   -1    0    0    0    0  0.00000000000E+00  0.00000000000E+00  0.45593999997E+02  0.45594000000E+02  0.51100000000E-03 0.  1.
         11   -1    0    0    0    0 -0.00000000000E+00 -0.00000000000E+00 -0.45593999997E+02  0.45594000000E+02  0.51100000000E-03 0. -1.
    9900012    2    1    2    0    0  0.37392198943E+00  0.21969867916E+00 -0.10977275693E+01  0.90007707248E+02  0.89999968184E+02 0.  0.
        -12    1    1    2    0    0 -0.37392198943E+00 -0.21969867916E+00  0.10977275693E+01  0.11802927519E+01  0.00000000000E+00 0.  1.
         11    1    3    3    0    0  0.28675940422E+02  0.21922140926E+02 -0.38315875632E+01  0.36298359265E+02  0.51100000000E-03 0. -1.
        -11    1    3    3    0    0  0.92491297763E+01  0.16213419341E+01 -0.35152408123E+00  0.93967398989E+01  0.51100000000E-03 0.  1.
        -12    1    3    3    0    0 -0.37551148209E+02 -0.23323784181E+02  0.30853840752E+01  0.44312608084E+02  0.00000000000E+00 0.  1.
</event>
<event>
 7    1  0.2385752E-015  0.9000778E+02  0.7816164E-02  0.1186339E+00
        -11   -1    0    0    0    0  0.00000000000E+00  0.00000000000E+00  0.45593999997E+02  0.45594000000E+02  0.51100000000E-03 0. -1.
         11   -1    0    0    0    0 -0.00000000000E+00 -0.00000000000E+00 -0.45593999997E+02  0.45594000000E+02  0.51100000000E-03 0.  1.
    9900012    2    1    2    0    0  0.67541342270E+00  0.55919514007E+00  0.78996393555E+00  0.90007777345E+02  0.90000039206E+02 0.  0.
        -12    1    1    2    0    0 -0.67541342270E+00 -0.55919514007E+00 -0.78996393555E+00  0.11802226551E+01  0.00000000000E+00 0.  1.
         11    1    3    3    0    0 -0.11897786555E+02 -0.10082510960E+02 -0.30883593000E+01  0.15898185922E+02  0.51100000000E-03 0. -1.
        -11    1    3    3    0    0  0.26837577701E+02 -0.24127456004E+02 -0.16360784761E+01  0.36125703635E+02  0.51100000000E-03 0.  1.
         12    1    3    3    0    0 -0.14264377723E+02  0.34769162104E+02  0.55144017116E+01  0.37983887788E+02  0.00000000000E+00 0. -1.
</event>
<event>
 7    1  0.2385752E-015  0.9000776E+02  0.7816164E-02  0.1186339E+00
        -11   -1    0    0    0    0  0.00000000000E+00  0.00000000000E+00  0.45593999997E+02  0.45594000000E+02  0.51100000000E-03 0.  1.
         11   -1    0    0    0    0 -0.00000000000E+00 -0.00000000000E+00 -0.45593999997E+02  0.45594000000E+02  0.51100000000E-03 0. -1.
    9900012    2    1    2    0    0 -0.11010660944E+01 -0.19733272619E+00  0.37641530010E+00  0.90007756285E+02  0.90000017868E+02 0.  0.
        -12    1    1    2    0    0  0.11010660944E+01  0.19733272619E+00 -0.37641530010E+00  0.11802437151E+01  0.00000000000E+00 0.  1.
         11    1    3    3    0    0 -0.49245227999E+01  0.69157513930E-03 -0.29801548617E+02  0.30205682007E+02  0.51100000000E-03 0. -1.
        -11    1    3    3    0    0  0.31092257520E+01 -0.12805878629E+02 -0.10727166417E+02  0.16992054373E+02  0.51100000000E-03 0.  1.
        -12    1    3    3    0    0  0.71423095352E+00  0.12607854327E+02  0.40905130334E+02  0.42810019905E+02  0.00000000000E+00 0.  1.
</event>
<event>
 7    1  0.2385752E-015  0.9000771E+02  0.7816164E-02  0.1186339E+00
        -11   -1    0    0    0    0  0.00000000000E+00  0.00000000000E+00  0.45593999997E+02  0.45594000000E+02  0.51100000000E-03 0. -1.
         11   -1    0    0    0    0 -0.00000000000E+00 -0.00000000000E+00 -0.45593999997E+02  0.45594000000E+02  0.51100000000E-03 0.  1.
    9900012    2    1    2    0    0  0.10508547900E+01 -0.17560111609E+00 -0.50789608404E+00  0.90007707674E+02  0.89999968616E+02 0.  0.
        -12    1    1    2    0    0 -0.10508547900E+01  0.17560111609E+00  0.50789608404E+00  0.11802923256E+01  0.00000000000E+00 0.  1.
         11    1    3    3    0    0  0.23326627503E+02  0.24431939133E+02  0.19985295722E+02  0.39248735595E+02  0.51100000000E-03 0. -1.
        -11    1    3    3    0    0  0.12924196209E+01 -0.87737340418E+01  0.69528669195E+01  0.11269033507E+02  0.51100000000E-03 0.  1.
        -12    1    3    3    0    0 -0.23568192334E+02 -0.15833806207E+02 -0.27446058725E+02  0.39489938573E+02  0.00000000000E+00 0.  1.
</event>
<event>
 7    1  0.2385752E-015  0.9000771E+02  0.7816164E-02  0.1186339E+00
        -11   -1    0    0    0    0  0.00000000000E+00  0.00000000000E+00  0.45593999997E+02  0.45594000000E+02  0.51100000000E-03 0. -1.
         11   -1    0    0    0    0 -0.00000000000E+00 -0.00000000000E+00 -0.45593999997E+02  0.45594000000E+02  0.51100000000E-03 0.  1.
    9900012    2    1    2    0    0  0.47865168399E+00  0.79627509770E+00  0.72796408479E+00  0.90007706319E+02  0.89999967242E+02 0.  0.
        -12    1    1    2    0    0 -0.47865168399E+00 -0.79627509770E+00 -0.72796408479E+00  0.11802936815E+01  0.00000000000E+00 0.  1.
         11    1    3    3    0    0 -0.10419800915E+02  0.90687906567E+01  0.25639840245E+01  0.14049527729E+02  0.51100000000E-03 0. -1.
        -11    1    3    3    0    0  0.17071363193E+02 -0.18517697551E+02 -0.33614485460E+02  0.42003216506E+02  0.51100000000E-03 0.  1.
         12    1    3    3    0    0 -0.61729105940E+01  0.10245181992E+02  0.31778465520E+02  0.33954962083E+02  0.00000000000E+00 0. -1.
</event>
<event>
 7    1  0.2385752E-015  0.9000775E+02  0.7816164E-02  0.1186339E+00
        -11   -1    0    0    0    0  0.00000000000E+00  0.00000000000E+00  0.45593999997E+02  0.45594000000E+02  0.51100000000E-03 0.  1.
         11   -1    0    0    0    0 -0.00000000000E+00 -0.00000000000E+00 -0.45593999997E+02  0.45594000000E+02  0.51100000000E-03 0. -1.
    9900012    2    1    2    0    0  0.11373059239E+01  0.75520598173E-01 -0.30630319540E+00  0.90007750123E+02  0.90000011624E+02 0.  0.
        -12    1    1    2    0    0 -0.11373059239E+01 -0.75520598173E-01  0.30630319540E+00  0.11802498773E+01  0.00000000000E+00 0.  1.
         11    1    3    3    0    0  0.42777479297E+01  0.50581161728E+01 -0.57162427696E+01  0.87498056109E+01  0.51100000000E-03 0. -1.
        -11    1    3    3    0    0 -0.20612156300E+02  0.32102722758E+02  0.11424516685E+02  0.39824180815E+02  0.51100000000E-03 0.  1.
         12    1    3    3    0    0  0.17471714294E+02 -0.37085318333E+02 -0.60145771111E+01  0.41433763697E+02  0.00000000000E+00 0. -1.
</event>
<event>
 7    1  0.2385752E-015  0.9000768E+02  0.7816164E-02  0.1186339E+00
        -11   -1    0    0    0    0  0.00000000000E+00  0.00000000000E+00  0.45593999997E+02  0.45594000000E+02  0.51100000000E-03 0.  1.
         11   -1    0    0    0    0 -0.00000000000E+00 -0.00000000000E+00 -0.45593999997E+02  0.45594000000E+02  0.51100000000E-03 0. -1.
    9900012    2    1    2    0    0 -0.11582695624E+01  0.99413876010E-01 -0.20415938600E+00  0.90007681165E+02  0.89999941756E+02 0.  0.
        -12    1    1    2    0    0  0.11582695624E+01 -0.99413876010E-01  0.20415938600E+00  0.11803188353E+01  0.00000000000E+00 0.  1.
         11    1    3    3    0    0 -0.36369297333E+02 -0.23417089029E+02  0.51392471179E+01  0.43560276725E+02  0.51100000000E-03 0. -1.
        -11    1    3    3    0    0  0.37064115266E+01  0.63955227488E+01  0.52412749576E+01  0.90615209031E+01  0.51100000000E-03 0.  1.
        -12    1    3    3    0    0  0.31504616244E+02  0.17120980157E+02 -0.10584681461E+02  0.37385883537E+02  0.00000000000E+00 0.  1.
</event>
<event>
 7    1  0.2385752E-015  0.9000725E+02  0.7816164E-02  0.1186340E+00
        -11   -1    0    0    0    0  0.00000000000E+00  0.00000000000E+00  0.45593999997E+02  0.45594000000E+02  0.51100000000E-03 0. -1.
         11   -1    0    0    0    0 -0.00000000000E+00 -0.00000000000E+00 -0.45593999997E+02  0.45594000000E+02  0.51100000000E-03 0.  1.
    9900012    2    1    2    0    0 -0.88237448557E+00  0.16258534976E+00 -0.76756337506E+00  0.90007249280E+02  0.89999504169E+02 0.  0.
        -12    1    1    2    0    0  0.88237448557E+00 -0.16258534976E+00  0.76756337506E+00  0.11807507203E+01  0.00000000000E+00 0.  1.
         11    1    3    3    0    0  0.28981473002E+02 -0.18784965257E+02  0.21016308090E+02  0.40428775681E+02  0.51100000000E-03 0. -1.
        -11    1    3    3    0    0  0.46954210197E+01  0.45685153218E+01 -0.62531387083E+00  0.65809823352E+01  0.51100000000E-03 0.  1.
        -12    1    3    3    0    0 -0.34559268507E+02  0.14379035285E+02 -0.21158557594E+02  0.42997491263E+02  0.00000000000E+00 0.  1.
</event>
<event>
 7    1  0.2385752E-015  0.9000751E+02  0.7816164E-02  0.1186340E+00
        -11   -1    0    0    0    0  0.00000000000E+00  0.00000000000E+00  0.45593999997E+02  0.45594000000E+02  0.51100000000E-03 0. -1.
         11   -1    0    0    0    0 -0.00000000000E+00 -0.00000000000E+00 -0.45593999997E+02  0.45594000000E+02  0.51100000000E-03 0.  1.
    9900012    2    1    2    0    0 -0.50170998000E+00 -0.10680407196E+01 -0.33709678573E-01  0.90007508482E+02  0.89999766793E+02 0.  0.
        -12    1    1    2    0    0  0.50170998000E+00  0.10680407196E+01  0.33709678573E-01  0.11804915185E+01  0.00000000000E+00 0.  1.
         11    1    3    3    0    0  0.13925009026E+01 -0.52039548979E+01  0.19436171744E+01  0.57269410094E+01  0.51100000000E-03 0. -1.
        -11    1    3    3    0    0  0.33749550067E+02  0.24130775679E+02 -0.98930817493E+01  0.42652075347E+02  0.51100000000E-03 0.  1.
         12    1    3    3    0    0 -0.35643760950E+02 -0.19994861500E+02  0.79157548963E+01  0.41628492126E+02  0.00000000000E+00 0. -1.
</event>
<event>
 7    1  0.2385752E-015  0.9000778E+02  0.7816164E-02  0.1186339E+00
        -11   -1    0    0    0    0  0.00000000000E+00  0.00000000000E+00  0.45593999997E+02  0.45594000000E+02  0.51100000000E-03 0. -1.
         11   -1    0    0    0    0 -0.00000000000E+00 -0.00000000000E+00 -0.45593999997E+02  0.45594000000E+02  0.51100000000E-03 0.  1.
    9900012    2    1    2    0    0  0.97868292510E+00 -0.41801397304E+00  0.51025529291E+00  0.90007781201E+02  0.90000043113E+02 0.  0.
        -12    1    1    2    0    0 -0.97868292510E+00  0.41801397304E+00 -0.51025529291E+00  0.11802187990E+01  0.00000000000E+00 0.  1.
         11    1    3    3    0    0  0.51663650180E+01  0.43998864649E+01 -0.19297567576E+01  0.70550896385E+01  0.51100000000E-03 0. -1.
        -11    1    3    3    0    0  0.30547013606E+02 -0.25792139807E+02 -0.86160478545E+01  0.40897320169E+02  0.51100000000E-03 0.  1.
         12    1    3    3    0    0 -0.34734695699E+02  0.20974239369E+02  0.11056059905E+02  0.42055371394E+02  0.00000000000E+00 0. -1.
</event>
<event>
 7    1  0.2385752E-015  0.9000774E+02  0.7816164E-02  0.1186339E+00
        -11   -1    0    0    0    0  0.00000000000E+00  0.00000000000E+00  0.45593999997E+02  0.45594000000E+02  0.51100000000E-03 0.  1.
         11   -1    0    0    0    0 -0.00000000000E+00 -0.00000000000E+00 -0.45593999997E+02  0.45594000000E+02  0.51100000000E-03 0. -1.
    9900012    2    1    2    0    0  0.69702894377E+00  0.94946047758E+00  0.75479675612E-01  0.90007736585E+02  0.89999997908E+02 0.  0.
        -12    1    1    2    0    0 -0.69702894377E+00 -0.94946047758E+00 -0.75479675612E-01  0.11802634148E+01  0.00000000000E+00 0.  1.
         11    1    3    3    0    0  0.15202100791E+02 -0.96463215549E+01 -0.29173148849E+02  0.34281598592E+02  0.51100000000E-03 0. -1.
        -11    1    3    3    0    0  0.15872631508E+00 -0.97308254200E+01 -0.67627519976E+01  0.11851116919E+02  0.51100000000E-03 0.  1.
        -12    1    3    3    0    0 -0.14663798162E+02  0.20326607452E+02  0.36011380522E+02  0.43875021074E+02  0.00000000000E+00 0.  1.
</event>
<event>
 7    1  0.2385752E-015  0.9000773E+02  0.7816164E-02  0.1186339E+00
        -11   -1    0    0    0    0  0.00000000000E+00  0.00000000000E+00  0.45593999997E+02  0.45594000000E+02  0.51100000000E-03 0. -1.
         11   -1    0    0    0    0 -0.00000000000E+00 -0.00000000000E+00 -0.45593999997E+02  0.45594000000E+02  0.51100000000E-03 0.  1.
    9900012    2    1    2    0    0  0.17985652730E+00  0.72827728100E+00  0.91120316510E+00  0.90007734192E+02  0.89999995484E+02 0.  0.
        -12    1    1    2    0    0 -0.17985652730E+00 -0.72827728100E+00 -0.91120316510E+00  0.11802658076E+01  0.00000000000E+00 0.  1.
         11    1    3    3    0    0  0.83379464145E+01  0.12753119039E+02  0.38479103451E+02  0.41386045937E+02  0.51100000000E-03 0. -1.
        -11    1    3    3    0    0 -0.56632368414E+01 -0.66575931333E+00  0.29834847191E+01  0.64355783202E+01  0.51100000000E-03 0.  1.
        -12    1    3    3    0    0 -0.24948530458E+01 -0.11359082445E+02 -0.40551385005E+02  0.42186109936E+02  0.00000000000E+00 0.  1.
</event>
<event>
 7    1  0.2385752E-015  0.9000785E+02  0.7816164E-02  0.1186339E+00
        -11   -1    0    0    0    0  0.00000000000E+00  0.00000000000E+00  0.45593999997E+02  0.45594000000E+02  0.51100000000E-03 0. -1.
         11   -1    0    0    0    0 -0.00000000000E+00 -0.00000000000E+00 -0.45593999997E+02  0.45594000000E+02  0.51100000000E-03 0.  1.
    9900012    2    1    2    0    0  0.10887750535E+01  0.26186053068E+00  0.37248642510E+00  0.90007852470E+02  0.90000115323E+02 0.  0.
        -12    1    1    2    0    0 -0.10887750535E+01 -0.26186053068E+00 -0.37248642510E+00  0.11801475296E+01  0.00000000000E+00 0.  1.
         11    1    3    3    0    0  0.19924434352E+00  0.76512808722E+01 -0.58564101944E+01  0.96373926931E+01  0.51100000000E-03 0. -1.
        -11    1    3    3    0    0  0.19699196769E+02  0.13703919798E+02 -0.27413247495E+02  0.36432703848E+02  0.51100000000E-03 0.  1.
         12    1    3    3    0    0 -0.18809666059E+02 -0.21093340139E+02  0.33642144115E+02  0.43937755929E+02  0.00000000000E+00 0. -1.
</event>
<event>
 7    1  0.2385752E-015  0.9000750E+02  0.7816164E-02  0.1186340E+00
        -11   -1    0    0    0    0  0.00000000000E+00  0.00000000000E+00  0.45593999997E+02  0.45594000000E+02  0.51100000000E-03 0. -1.
         11   -1    0    0    0    0 -0.00000000000E+00 -0.00000000000E+00 -0.45593999997E+02  0.45594000000E+02  0.51100000000E-03 0.  1.
    9900012    2    1    2    0    0  0.82111918640E+00 -0.77603642769E+00  0.34221185087E+00  0.90007500866E+02  0.89999759077E+02 0.  0.
        -12    1    1    2    0    0 -0.82111918640E+00  0.77603642769E+00 -0.34221185087E+00  0.11804991344E+01  0.00000000000E+00 0.  1.
         11    1    3    3    0    0 -0.71386283547E+01 -0.63967315361E+01 -0.31703076352E+01  0.10095991278E+02  0.51100000000E-03 0. -1.
        -11    1    3    3    0    0  0.51492307747E+01 -0.12135576588E+02 -0.35005106534E+02  0.37405137086E+02  0.51100000000E-03 0.  1.
         12    1    3    3    0    0  0.28105167664E+01  0.17756271696E+02  0.38517626020E+02  0.42506372502E+02  0.00000000000E+00 0. -1.
</event>
<event>
 7    1  0.2385752E-015  0.9000830E+02  0.7816164E-02  0.1186338E+00
        -11   -1    0    0    0    0  0.00000000000E+00  0.00000000000E+00  0.45593999997E+02  0.45594000000E+02  0.51100000000E-03 0.  1.
         11   -1    0    0    0    0 -0.00000000000E+00 -0.00000000000E+00 -0.45593999997E+02  0.45594000000E+02  0.51100000000E-03 0. -1.
    9900012    2    1    2    0    0 -0.83179552205E+00 -0.77816811879E+00  0.30701151354E+00  0.90008302801E+02  0.90000571596E+02 0.  0.
        -12    1    1    2    0    0  0.83179552205E+00  0.77816811879E+00 -0.30701151354E+00  0.11796971989E+01  0.00000000000E+00 0.  1.
         11    1    3    3    0    0 -0.32602757666E+01 -0.49768676918E+01  0.12285317272E+02  0.13650187942E+02  0.51100000000E-03 0. -1.
        -11    1    3    3    0    0 -0.13708815501E+02  0.10769686778E+02  0.27866417686E+02  0.32870275488E+02  0.51100000000E-03 0.  1.
         12    1    3    3    0    0  0.16137295746E+02 -0.65709872051E+01 -0.39844723445E+02  0.43487839372E+02  0.00000000000E+00 0. -1.
</event>
<event>
 7    1  0.2385752E-015  0.9000753E+02  0.7816164E-02  0.1186339E+00
        -11   -1    0    0    0    0  0.00000000000E+00  0.00000000000E+00  0.45593999997E+02  0.45594000000E+02  0.51100000000E-03 0. -1.
         11   -1    0    0    0    0 -0.00000000000E+00 -0.00000000000E+00 -0.45593999997E+02  0.45594000000E+02  0.51100000000E-03 0.  1.
    9900012    2    1    2    0    0  0.53789955566E+00  0.10507319564E+01 -0.11139813669E-01  0.90007534977E+02  0.89999793638E+02 0.  0.
        -12    1    1    2    0    0 -0.53789955566E+00 -0.10507319564E+01  0.11139813669E-01  0.11804650235E+01  0.00000000000E+00 0.  1.
         11    1    3    3    0    0  0.47833504623E+01  0.56666712178E+01  0.74176154854E+01  0.10488690294E+02  0.51100000000E-03 0. -1.
        -11    1    3    3    0    0  0.12796202846E+02  0.33867699427E+02  0.24488413878E+01  0.36287197413E+02  0.51100000000E-03 0.  1.
         12    1    3    3    0    0 -0.17041653752E+02 -0.38483638688E+02 -0.98775966869E+01  0.43231647269E+02  0.00000000000E+00 0. -1.
</event>
<event>
 7    1  0.2385752E-015  0.9000775E+02  0.7816164E-02  0.1186339E+00
        -11   -1    0    0    0    0  0.00000000000E+00  0.00000000000E+00  0.45593999997E+02  0.45594000000E+02  0.51100000000E-03 0. -1.
         11   -1    0    0    0    0 -0.00000000000E+00 -0.00000000000E+00 -0.45593999997E+02  0.45594000000E+02  0.51100000000E-03 0.  1.
    9900012    2    1    2    0    0  0.10001327126E+01 -0.52562885608E+00  0.34121935414E+00  0.90007753507E+02  0.90000015053E+02 0.  0.
        -12    1    1    2    0    0 -0.10001327126E+01  0.52562885608E+00 -0.34121935414E+00  0.11802464932E+01  0.00000000000E+00 0.  1.
         11    1    3    3    0    0 -0.30089450741E+02 -0.11766659757E+02  0.20088317195E+02  0.38044313842E+02  0.51100000000E-03 0. -1.
        -11    1    3    3    0    0 -0.57639453471E+01 -0.51123804381E+01 -0.23855862314E+01  0.80653903586E+01  0.51100000000E-03 0.  1.
        -12    1    3    3    0    0  0.36853528801E+02  0.16353411339E+02 -0.17361511610E+02  0.43898049306E+02  0.00000000000E+00 0.  1.
</event>
<event>
 7    1  0.2385752E-015  0.9000770E+02  0.7816164E-02  0.1186339E+00
        -11   -1    0    0    0    0  0.00000000000E+00  0.00000000000E+00  0.45593999997E+02  0.45594000000E+02  0.51100000000E-03 0. -1.
         11   -1    0    0    0    0 -0.00000000000E+00 -0.00000000000E+00 -0.45593999997E+02  0.45594000000E+02  0.51100000000E-03 0.  1.
    9900012    2    1    2    0    0 -0.78732977034E+00 -0.86653389020E+00  0.14945866616E+00  0.90007700444E+02  0.89999961289E+02 0.  0.
        -12    1    1    2    0    0  0.78732977034E+00  0.86653389020E+00 -0.14945866616E+00  0.11802995565E+01  0.00000000000E+00 0.  1.
         11    1    3    3    0    0  0.33544153718E+02 -0.15802553571E+02 -0.11476442053E+02  0.38815456592E+02  0.51100000000E-03 0. -1.
        -11    1    3    3    0    0 -0.11358461260E+01  0.32021210759E+00 -0.92619593254E+01  0.93368395629E+01  0.51100000000E-03 0.  1.
        -12    1    3    3    0    0 -0.33195637362E+02  0.14615807573E+02  0.20887860045E+02  0.41855404288E+02  0.00000000000E+00 0.  1.
</event>
<event>
 7    1  0.2385752E-015  0.9000777E+02  0.7816164E-02  0.1186339E+00
        -11   -1    0    0    0    0  0.00000000000E+00  0.00000000000E+00  0.45593999997E+02  0.45594000000E+02  0.51100000000E-03 0.  1.
         11   -1    0    0    0    0 -0.00000000000E+00 -0.00000000000E+00 -0.45593999997E+02  0.45594000000E+02  0.51100000000E-03 0. -1.
    9900012    2    1    2    0    0  0.99640824095E+00 -0.63158435778E+00 -0.34991315560E-01  0.90007765881E+02  0.90000027591E+02 0.  0.
        -12    1    1    2    0    0 -0.99640824095E+00  0.63158435778E+00  0.34991315560E-01  0.11802341191E+01  0.00000000000E+00 0.  1.
         11    1    3    3    0    0  0.23779795772E+02 -0.28125252855E+02  0.73214507323E+01  0.37551460374E+02  0.51100000000E-03 0. -1.
        -11    1    3    3    0    0  0.18423849736E+01 -0.70763189072E+01  0.42450004030E+01  0.84550990740E+01  0.51100000000E-03 0.  1.
        -12    1    3    3    0    0 -0.24625772505E+02  0.34569987404E+02 -0.11601442451E+02  0.44001206433E+02  0.00000000000E+00 0.  1.
</event>
<event>
 7    1  0.2423252E-015  0.9000771E+02  0.7816164E-02  0.1186339E+00
        -11   -1    0    0    0    0  0.00000000000E+00  0.00000000000E+00  0.45593999997E+02  0.45594000000E+02  0.51100000000E-03 0. -1.
         11   -1    0    0    0    0 -0.00000000000E+00 -0.00000000000E+00 -0.45593999997E+02  0.45594000000E+02  0.51100000000E-03 0.  1.
    9900012    2    1    2    0    0  0.13821990052E+00 -0.79348051888E+00  0.86276864298E+00  0.90007709440E+02  0.89999970405E+02 0.  0.
        -12    1    1    2    0    0 -0.13821990052E+00  0.79348051888E+00 -0.86276864298E+00  0.11802905600E+01  0.00000000000E+00 0.  1.
         11    1    3    3    0    0  0.11481027637E+02 -0.15650091831E+02  0.29874823885E+02  0.35626457477E+02  0.51100000000E-03 0. -1.
        -11    1    3    3    0    0 -0.12280633485E+01 -0.59953112579E+01  0.83876943940E+01  0.10382933794E+02  0.51100000000E-03 0.  1.
        -12    1    3    3    0    0 -0.10114744388E+02  0.20851922570E+02 -0.37399749636E+02  0.43998318169E+02  0.00000000000E+00 0.  1.
</event>
<event>
 7    1  0.2385752E-015  0.9000774E+02  0.7816164E-02  0.1186339E+00
        -11   -1    0    0    0    0  0.00000000000E+00  0.00000000000E+00  0.45593999997E+02  0.45594000000E+02  0.51100000000E-03 0.  1.
         11   -1    0    0    0    0 -0.00000000000E+00 -0.00000000000E+00 -0.45593999997E+02  0.45594000000E+02  0.51100000000E-03 0. -1.
    9900012    2    1    2    0    0  0.53781017980E-01  0.34474278111E+00 -0.11275044274E+01  0.90007743156E+02  0.90000004566E+02 0.  0.
        -12    1    1    2    0    0 -0.53781017980E-01 -0.34474278111E+00  0.11275044274E+01  0.11802568436E+01  0.00000000000E+00 0.  1.
         11    1    3    3    0    0 -0.58772571113E+01  0.19330157328E+01 -0.71786970827E+01  0.94769400674E+01  0.51100000000E-03 0. -1.
        -11    1    3    3    0    0 -0.12913604529E+02  0.30261712659E+02  0.22677676391E+02  0.39960098120E+02  0.51100000000E-03 0.  1.
         12    1    3    3    0    0  0.18844642658E+02 -0.31849985610E+02 -0.16626483736E+02  0.40570704969E+02  0.00000000000E+00 0. -1.
</event>
<event>
 7    1  0.2385752E-015  0.9000765E+02  0.7816164E-02  0.1186339E+00
        -11   -1    0    0    0    0  0.00000000000E+00  0.00000000000E+00  0.45593999997E+02  0.45594000000E+02  0.51100000000E-03 0. -1.
         11   -1    0    0    0    0 -0.00000000000E+00 -0.00000000000E+00 -0.45593999997E+02  0.45594000000E+02  0.51100000000E-03 0.  1.
    9900012    2    1    2    0    0 -0.32720134801E+00 -0.88128749093E+00  0.71378372701E+00  0.90007654469E+02  0.89999914708E+02 0.  0.
        -12    1    1    2    0    0  0.32720134801E+00  0.88128749093E+00 -0.71378372701E+00  0.11803455311E+01  0.00000000000E+00 0.  1.
         11    1    3    3    0    0  0.74457415312E+01  0.25116179527E+01  0.12013373875E+01  0.79492454654E+01  0.51100000000E-03 0. -1.
        -11    1    3    3    0    0 -0.20741035456E+02  0.28614354636E+02  0.21263864657E+02  0.41244681880E+02  0.51100000000E-03 0.  1.
         12    1    3    3    0    0  0.12968092577E+02 -0.32007260079E+02 -0.21751418317E+02  0.40813727123E+02  0.00000000000E+00 0. -1.
</event>
<event>
 7    1  0.2385752E-015  0.9000779E+02  0.7816164E-02  0.1186339E+00
        -11   -1    0    0    0    0  0.00000000000E+00  0.00000000000E+00  0.45593999997E+02  0.45594000000E+02  0.51100000000E-03 0. -1.
         11   -1    0    0    0    0 -0.00000000000E+00 -0.00000000000E+00 -0.45593999997E+02  0.45594000000E+02  0.51100000000E-03 0.  1.
    9900012    2    1    2    0    0  0.74284285028E+00  0.41861024574E+00  0.81599843121E+00  0.90007786681E+02  0.90000048665E+02 0.  0.
        -12    1    1    2    0    0 -0.74284285028E+00 -0.41861024574E+00 -0.81599843121E+00  0.11802133188E+01  0.00000000000E+00 0.  1.
         11    1    3    3    0    0 -0.13645499129E+01  0.20327946197E+01  0.11853903927E+02  0.12104102156E+02  0.51100000000E-03 0. -1.
        -11    1    3    3    0    0 -0.35857338979E+02  0.78301446332E+01 -0.12449847941E+02  0.38756401247E+02  0.51100000000E-03 0.  1.
         12    1    3    3    0    0  0.37964731742E+02 -0.94443290071E+01  0.14119424452E+01  0.39147283279E+02  0.00000000000E+00 0. -1.
</event>
<event>
 7    1  0.2385752E-015  0.9000746E+02  0.7816164E-02  0.1186340E+00
        -11   -1    0    0    0    0  0.00000000000E+00  0.00000000000E+00  0.45593999997E+02  0.45594000000E+02  0.51100000000E-03 0. -1.
         11   -1    0    0    0    0 -0.00000000000E+00 -0.00000000000E+00 -0.45593999997E+02  0.45594000000E+02  0.51100000000E-03 0.  1.
    9900012    2    1    2    0    0  0.37006887465E+00  0.21856376945E-01  0.11208243454E+01  0.90007459494E+02  0.89999717159E+02 0.  0.
        -12    1    1    2    0    0 -0.37006887465E+00 -0.21856376945E-01 -0.11208243454E+01  0.11805405061E+01  0.00000000000E+00 0.  1.
         11    1    3    3    0    0 -0.25405802004E+02 -0.12883559533E+02  0.19382209260E+02  0.34454476020E+02  0.51100000000E-03 0. -1.
        -11    1    3    3    0    0 -0.85526438862E+01 -0.67352421909E+01  0.20727831388E+01  0.11081860630E+02  0.51100000000E-03 0.  1.
        -12    1    3    3    0    0  0.34328514765E+02  0.19640658101E+02 -0.20334168054E+02  0.44471122845E+02  0.00000000000E+00 0.  1.
</event>
<event>
 7    1  0.2385752E-015  0.9000774E+02  0.7816164E-02  0.1186339E+00
        -11   -1    0    0    0    0  0.00000000000E+00  0.00000000000E+00  0.45593999997E+02  0.45594000000E+02  0.51100000000E-03 0.  1.
         11   -1    0    0    0    0 -0.00000000000E+00 -0.00000000000E+00 -0.45593999997E+02  0.45594000000E+02  0.51100000000E-03 0. -1.
    9900012    2    1    2    0    0 -0.73075375916E+00  0.63819627193E+00 -0.67209874541E+00  0.90007740596E+02  0.90000001971E+02 0.  0.
        -12    1    1    2    0    0  0.73075375916E+00 -0.63819627193E+00  0.67209874541E+00  0.11802594044E+01  0.00000000000E+00 0.  1.
         11    1    3    3    0    0  0.43240738603E+00 -0.10389984228E+02 -0.28774373970E+01  0.10789735615E+02  0.51100000000E-03 0. -1.
        -11    1    3    3    0    0 -0.17428761675E+02 -0.28501469674E+02  0.11760774839E+02  0.35417669774E+02  0.51100000000E-03 0.  1.
         12    1    3    3    0    0  0.16265600530E+02  0.39529650174E+02 -0.95554361878E+01  0.43800335207E+02  0.00000000000E+00 0. -1.
</event>
<event>
 7    1  0.2385752E-015  0.9000773E+02  0.7816164E-02  0.1186339E+00
        -11   -1    0    0    0    0  0.00000000000E+00  0.00000000000E+00  0.45593999997E+02  0.45594000000E+02  0.51100000000E-03 0. -1.
         11   -1    0    0    0    0 -0.00000000000E+00 -0.00000000000E+00 -0.45593999997E+02  0.45594000000E+02  0.51100000000E-03 0.  1.
    9900012    2    1    2    0    0 -0.24277525538E+00 -0.70521659893E+00 -0.91475093423E+00  0.90007729036E+02  0.89999990260E+02 0.  0.
        -12    1    1    2    0    0  0.24277525538E+00  0.70521659893E+00  0.91475093423E+00  0.11802709637E+01  0.00000000000E+00 0.  1.
         11    1    3    3    0    0  0.10892636140E+02 -0.35797778455E+02  0.16490259179E+01  0.37454635910E+02  0.51100000000E-03 0. -1.
        -11    1    3    3    0    0 -0.68654093824E-02 -0.38978183191E+01  0.94839181605E+01  0.10253669525E+02  0.51100000000E-03 0.  1.
        -12    1    3    3    0    0 -0.11128545986E+02  0.38990380175E+02 -0.12047695013E+02  0.42299423602E+02  0.00000000000E+00 0.  1.
</event>
<event>
 7    1  0.2385752E-015  0.9000787E+02  0.7816164E-02  0.1186339E+00
        -11   -1    0    0    0    0  0.00000000000E+00  0.00000000000E+00  0.45593999997E+02  0.45594000000E+02  0.51100000000E-03 0. -1.
         11   -1    0    0    0    0 -0.00000000000E+00 -0.00000000000E+00 -0.45593999997E+02  0.45594000000E+02  0.51100000000E-03 0.  1.
    9900012    2    1    2    0    0  0.88240243053E+00 -0.78109187285E+00  0.63006867764E-01  0.90007869317E+02  0.90000132392E+02 0.  0.
        -12    1    1    2    0    0 -0.88240243053E+00  0.78109187285E+00 -0.63006867764E-01  0.11801306829E+01  0.00000000000E+00 0.  1.
         11    1    3    3    0    0  0.28028465976E+01  0.71669602022E+01  0.48912842875E+01  0.91184390019E+01  0.51100000000E-03 0. -1.
        -11    1    3    3    0    0 -0.33879624263E+02  0.17899292659E+02 -0.96239563119E+01  0.39507393653E+02  0.51100000000E-03 0.  1.
         12    1    3    3    0    0  0.31959180096E+02 -0.25847344734E+02  0.47956788922E+01  0.41382036662E+02  0.00000000000E+00 0. -1.
</event>
<event>
 7    1  0.2385752E-015  0.9000770E+02  0.7816164E-02  0.1186339E+00
        -11   -1    0    0    0    0  0.00000000000E+00  0.00000000000E+00  0.45593999997E+02  0.45594000000E+02  0.51100000000E-03 0. -1.
         11   -1    0    0    0    0 -0.00000000000E+00 -0.00000000000E+00 -0.45593999997E+02  0.45594000000E+02  0.51100000000E-03 0.  1.
    9900012    2    1    2    0    0 -0.10952899408E+01 -0.24231839274E+00  0.36706519975E+00  0.90007697022E+02  0.89999957823E+02 0.  0.
        -12    1    1    2    0    0  0.10952899408E+01  0.24231839274E+00 -0.36706519975E+00  0.11803029776E+01  0.00000000000E+00 0.  1.
         11    1    3    3    0    0 -0.18181912279E+02  0.23953515598E+02  0.30373739980E+02  0.42742448740E+02  0.51100000000E-03 0. -1.
        -11    1    3    3    0    0  0.95689503004E+01 -0.43216376589E+01 -0.30979821501E-02  0.10499589124E+02  0.51100000000E-03 0.  1.
        -12    1    3    3    0    0  0.75176720381E+01 -0.19874196332E+02 -0.30003576798E+02  0.36765659159E+02  0.00000000000E+00 0.  1.
</event>
<event>
 7    1  0.2385752E-015  0.9000773E+02  0.7816164E-02  0.1186339E+00
        -11   -1    0    0    0    0  0.00000000000E+00  0.00000000000E+00  0.45593999997E+02  0.45594000000E+02  0.51100000000E-03 0.  1.
         11   -1    0    0    0    0 -0.00000000000E+00 -0.00000000000E+00 -0.45593999997E+02  0.45594000000E+02  0.51100000000E-03 0. -1.
    9900012    2    1    2    0    0 -0.11335442613E+01 -0.32226720570E+00 -0.65192255562E-01  0.90007733600E+02  0.89999994884E+02 0.  0.
        -12    1    1    2    0    0  0.11335442613E+01  0.32226720570E+00  0.65192255562E-01  0.11802663998E+01  0.00000000000E+00 0.  1.
         11    1    3    3    0    0 -0.31189184248E+02  0.23909449083E+02 -0.30489876644E+01  0.39417296908E+02  0.51100000000E-03 0. -1.
        -11    1    3    3    0    0 -0.71146096156E+01 -0.34739647062E+01  0.78970170299E-01  0.79178492857E+01  0.51100000000E-03 0.  1.
        -12    1    3    3    0    0  0.37170249603E+02 -0.20757751582E+02  0.29048252385E+01  0.42672587406E+02  0.00000000000E+00 0.  1.
</event>
<event>
 7    1  0.2472115E-015  0.9000750E+02  0.7816164E-02  0.1186340E+00
        -11   -1    0    0    0    0  0.00000000000E+00  0.00000000000E+00  0.45593999997E+02  0.45594000000E+02  0.51100000000E-03 0. -1.
         11   -1    0    0    0    0 -0.00000000000E+00 -0.00000000000E+00 -0.45593999997E+02  0.45594000000E+02  0.51100000000E-03 0.  1.
    9900012    2    1    2    0    0 -0.46085451360E+00  0.11685700914E+00  0.10805306756E+01  0.90007496301E+02  0.89999754452E+02 0.  0.
        -12    1    1    2    0    0  0.46085451360E+00 -0.11685700914E+00 -0.10805306756E+01  0.11805036993E+01  0.00000000000E+00 0.  1.
         11    1    3    3    0    0 -0.99431560132E+01 -0.35547863558E+02 -0.34831072313E+01  0.37076259133E+02  0.51100000000E-03 0. -1.
        -11    1    3    3    0    0 -0.12889639239E+01 -0.61475196287E+01  0.73448804237E+01  0.96644034623E+01  0.51100000000E-03 0.  1.
        -12    1    3    3    0    0  0.10771265424E+02  0.41812240196E+02 -0.27812425169E+01  0.43266833706E+02  0.00000000000E+00 0.  1.
</event>
<event>
 7    1  0.2385752E-015  0.9000779E+02  0.7816164E-02  0.1186339E+00
        -11   -1    0    0    0    0  0.00000000000E+00  0.00000000000E+00  0.45593999997E+02  0.45594000000E+02  0.51100000000E-03 0. -1.
         11   -1    0    0    0    0 -0.00000000000E+00 -0.00000000000E+00 -0.45593999997E+02  0.45594000000E+02  0.51100000000E-03 0.  1.
    9900012    2    1    2    0    0 -0.64385149672E+00  0.30249420941E+00  0.94172511344E+00  0.90007790830E+02  0.90000052869E+02 0.  0.
        -12    1    1    2    0    0  0.64385149672E+00 -0.30249420941E+00 -0.94172511344E+00  0.11802091704E+01  0.00000000000E+00 0.  1.
         11    1    3    3    0    0 -0.22161913923E+01  0.37489918342E+02  0.17002550360E+02  0.41224897824E+02  0.51100000000E-03 0. -1.
        -11    1    3    3    0    0 -0.80930936300E+01 -0.69457611194E+00 -0.45775670712E+01  0.93238790764E+01  0.51100000000E-03 0.  1.
        -12    1    3    3    0    0  0.96654335256E+01 -0.36492848021E+02 -0.11483258176E+02  0.39459013929E+02  0.00000000000E+00 0.  1.
</event>
<event>
 7    1  0.2385752E-015  0.9000774E+02  0.7816164E-02  0.1186339E+00
        -11   -1    0    0    0    0  0.00000000000E+00  0.00000000000E+00  0.45593999997E+02  0.45594000000E+02  0.51100000000E-03 0. -1.
         11   -1    0    0    0    0 -0.00000000000E+00 -0.00000000000E+00 -0.45593999997E+02  0.45594000000E+02  0.51100000000E-03 0.  1.
    9900012    2    1    2    0    0 -0.11122603042E+01 -0.38638426712E+00 -0.81262587890E-01  0.90007737574E+02  0.89999998910E+02 0.  0.
        -12    1    1    2    0    0  0.11122603042E+01  0.38638426712E+00  0.81262587890E-01  0.11802624261E+01  0.00000000000E+00 0.  1.
         11    1    3    3    0    0  0.96182128155E+01  0.30984125991E+02 -0.12216982284E+02  0.34666709356E+02  0.51100000000E-03 0. -1.
        -11    1    3    3    0    0  0.60150179625E+01  0.78259659758E+01 -0.26596794766E+01  0.10222528050E+02  0.51100000000E-03 0.  1.
        -12    1    3    3    0    0 -0.16745491082E+02 -0.39196476234E+02  0.14795399172E+02  0.45118500168E+02  0.00000000000E+00 0.  1.
</event>
<event>
 7    1  0.2385752E-015  0.9000772E+02  0.7816164E-02  0.1186339E+00
        -11   -1    0    0    0    0  0.00000000000E+00  0.00000000000E+00  0.45593999997E+02  0.45594000000E+02  0.51100000000E-03 0.  1.
         11   -1    0    0    0    0 -0.00000000000E+00 -0.00000000000E+00 -0.45593999997E+02  0.45594000000E+02  0.51100000000E-03 0. -1.
    9900012    2    1    2    0    0  0.72288563185E+00 -0.88070221768E+00 -0.30801217804E+00  0.90007715486E+02  0.89999976530E+02 0.  0.
        -12    1    1    2    0    0 -0.72288563185E+00  0.88070221768E+00  0.30801217804E+00  0.11802845143E+01  0.00000000000E+00 0.  1.
         11    1    3    3    0    0  0.27270785464E+02 -0.17456589491E+02 -0.22039994834E+02  0.39168732798E+02  0.51100000000E-03 0. -1.
        -11    1    3    3    0    0  0.70483121608E+01 -0.16803408405E+01  0.63160418811E+01  0.96122128025E+01  0.51100000000E-03 0.  1.
        -12    1    3    3    0    0 -0.33596211993E+02  0.18256228114E+02  0.15415940774E+02  0.41226769885E+02  0.00000000000E+00 0.  1.
</event>
<event>
 7    1  0.2385752E-015  0.9000770E+02  0.7816164E-02  0.1186339E+00
        -11   -1    0    0    0    0  0.00000000000E+00  0.00000000000E+00  0.45593999997E+02  0.45594000000E+02  0.51100000000E-03 0.  1.
         11   -1    0    0    0    0 -0.00000000000E+00 -0.00000000000E+00 -0.45593999997E+02  0.45594000000E+02  0.51100000000E-03 0. -1.
    9900012    2    1    2    0    0  0.80291208024E+00  0.86426072119E+00  0.38671424634E-01  0.90007699241E+02  0.89999960071E+02 0.  0.
        -12    1    1    2    0    0 -0.80291208024E+00 -0.86426072119E+00 -0.38671424634E-01  0.11803007591E+01  0.00000000000E+00 0.  1.
         11    1    3    3    0    0 -0.64650045625E+01 -0.75159591990E+01  0.14172327059E+01  0.10014712950E+02  0.51100000000E-03 0. -1.
        -11    1    3    3    0    0 -0.11455500604E+02 -0.27487876307E+02  0.18349436302E+02  0.34978759995E+02  0.51100000000E-03 0.  1.
        -12    1    3    3    0    0  0.18723417246E+02  0.35868096227E+02 -0.19727997583E+02  0.45014226295E+02  0.00000000000E+00 0.  1.
</event>
<event>
 7    1  0.2385752E-015  0.9000775E+02  0.7816164E-02  0.1186339E+00
        -11   -1    0    0    0    0  0.00000000000E+00  0.00000000000E+00  0.45593999997E+02  0.45594000000E+02  0.51100000000E-03 0.  1.
         11   -1    0    0    0    0 -0.00000000000E+00 -0.00000000000E+00 -0.45593999997E+02  0.45594000000E+02  0.51100000000E-03 0. -1.
    9900012    2    1    2    0    0 -0.25481110956E+00  0.11489699535E+01  0.89065353013E-01  0.90007748632E+02  0.90000010114E+02 0.  0.
        -12    1    1    2    0    0  0.25481110956E+00 -0.11489699535E+01 -0.89065353013E-01  0.11802513684E+01  0.00000000000E+00 0.  1.
         11    1    3    3    0    0  0.38219955630E+01 -0.69125246740E+01 -0.36117568284E+02  0.36971196714E+02  0.51100000000E-03 0. -1.
        -11    1    3    3    0    0 -0.69792273130E+01 -0.61581233608E+01 -0.41194289793E+01  0.10178496578E+02  0.51100000000E-03 0.  1.
        -12    1    3    3    0    0  0.29024206404E+01  0.14219617988E+02  0.40326062617E+02  0.42858055339E+02  0.00000000000E+00 0.  1.
</event>
<event>
 7    1  0.2385752E-015  0.9000772E+02  0.7816164E-02  0.1186339E+00
        -11   -1    0    0    0    0  0.00000000000E+00  0.00000000000E+00  0.45593999997E+02  0.45594000000E+02  0.51100000000E-03 0.  1.
         11   -1    0    0    0    0 -0.00000000000E+00 -0.00000000000E+00 -0.45593999997E+02  0.45594000000E+02  0.51100000000E-03 0. -1.
    9900012    2    1    2    0    0 -0.22167812923E+00  0.20038052125E+00 -0.11418236797E+01  0.90007722549E+02  0.89999983686E+02 0.  0.
        -12    1    1    2    0    0  0.22167812923E+00 -0.20038052125E+00  0.11418236797E+01  0.11802774512E+01  0.00000000000E+00 0.  1.
         11    1    3    3    0    0  0.12320209672E+02  0.10241932760E+02 -0.36960512877E+02  0.40283548323E+02  0.51100000000E-03 0. -1.
        -11    1    3    3    0    0 -0.10822423612E+02  0.19946268947E+01 -0.90333071591E+00  0.11041711640E+02  0.51100000000E-03 0.  1.
        -12    1    3    3    0    0 -0.17194641896E+01 -0.12036179134E+02  0.36722019913E+02  0.38682462587E+02  0.00000000000E+00 0.  1.
</event>
<event>
 7    1  0.2385752E-015  0.9000773E+02  0.7816164E-02  0.1186339E+00
        -11   -1    0    0    0    0  0.00000000000E+00  0.00000000000E+00  0.45593999997E+02  0.45594000000E+02  0.51100000000E-03 0.  1.
         11   -1    0    0    0    0 -0.00000000000E+00 -0.00000000000E+00 -0.45593999997E+02  0.45594000000E+02  0.51100000000E-03 0. -1.
    9900012    2    1    2    0    0 -0.92882468980E+00  0.18404281834E+00 -0.70459947794E+00  0.90007725673E+02  0.89999986852E+02 0.  0.
        -12    1    1    2    0    0  0.92882468980E+00 -0.18404281834E+00  0.70459947794E+00  0.11802743273E+01  0.00000000000E+00 0.  1.
         11    1    3    3    0    0 -0.42256624031E+01 -0.75990990145E+01  0.38016311774E+01  0.94897275223E+01  0.51100000000E-03 0. -1.
        -11    1    3    3    0    0 -0.18237175849E+02 -0.23981427186E+02 -0.23014007098E+02  0.37912372068E+02  0.51100000000E-03 0.  1.
         12    1    3    3    0    0  0.21534013562E+02  0.31764569019E+02  0.18507776442E+02  0.42605626083E+02  0.00000000000E+00 0. -1.
</event>
<event>
 7    1  0.2385752E-015  0.9000775E+02  0.7816164E-02  0.1186339E+00
        -11   -1    0    0    0    0  0.00000000000E+00  0.00000000000E+00  0.45593999997E+02  0.45594000000E+02  0.51100000000E-03 0. -1.
         11   -1    0    0    0    0 -0.00000000000E+00 -0.00000000000E+00 -0.45593999997E+02  0.45594000000E+02  0.51100000000E-03 0.  1.
    9900012    2    1    2    0    0 -0.12746896148E+00 -0.26549406438E+00  0.11429187266E+01  0.90007746362E+02  0.90000007814E+02 0.  0.
        -12    1    1    2    0    0  0.12746896148E+00  0.26549406438E+00 -0.11429187266E+01  0.11802536380E+01  0.00000000000E+00 0.  1.
         11    1    3    3    0    0 -0.35527692235E+01 -0.16120074674E+00 -0.11015343786E+02  0.11575230184E+02  0.51100000000E-03 0. -1.
        -11    1    3    3    0    0 -0.21769201331E+01 -0.37928839035E+02  0.13092474976E+02  0.40183936008E+02  0.51100000000E-03 0.  1.
         12    1    3    3    0    0  0.56022203951E+01  0.37824545717E+02 -0.93421246385E+00  0.38248580170E+02  0.00000000000E+00 0. -1.
</event>
<event>
 7    1  0.2385752E-015  0.9000771E+02  0.7816164E-02  0.1186339E+00
        -11   -1    0    0    0    0  0.00000000000E+00  0.00000000000E+00  0.45593999997E+02  0.45594000000E+02  0.51100000000E-03 0.  1.
         11   -1    0    0    0    0 -0.00000000000E+00 -0.00000000000E+00 -0.45593999997E+02  0.45594000000E+02  0.51100000000E-03 0. -1.
    9900012    2    1    2    0    0  0.14906752535E-01  0.29936042092E+00 -0.11415985049E+01  0.90007709350E+02  0.89999970313E+02 0.  0.
        -12    1    1    2    0    0 -0.14906752535E-01 -0.29936042092E+00  0.11415985049E+01  0.11802906503E+01  0.00000000000E+00 0.  1.
         11    1    3    3    0    0  0.67125883969E+01  0.20118919493E+01 -0.37248459763E+02  0.37901903741E+02  0.51100000000E-03 0. -1.
        -11    1    3    3    0    0  0.49039106102E+01  0.18717298657E+01 -0.61810567645E+01  0.81090797844E+01  0.51100000000E-03 0.  1.
        -12    1    3    3    0    0 -0.11601592255E+02 -0.35842613941E+01  0.42287918023E+02  0.43996725824E+02  0.00000000000E+00 0.  1.
</event>
<event>
 7    1  0.2385752E-015  0.9000772E+02  0.7816164E-02  0.1186339E+00
        -11   -1    0    0    0    0  0.00000000000E+00  0.00000000000E+00  0.45593999997E+02  0.45594000000E+02  0.51100000000E-03 0. -1.
         11   -1    0    0    0    0 -0.00000000000E+00 -0.00000000000E+00 -0.45593999997E+02  0.45594000000E+02  0.51100000000E-03 0.  1.
    9900012    2    1    2    0    0  0.11134104177E+00 -0.96916163903E-01  0.11710086971E+01  0.90007724211E+02  0.89999985370E+02 0.  0.
        -12    1    1    2    0    0 -0.11134104177E+00  0.96916163903E-01 -0.11710086971E+01  0.11802757894E+01  0.00000000000E+00 0.  1.
         11    1    3    3    0    0 -0.66717324410E+01 -0.26885402304E+01 -0.76705175367E+01  0.10515564744E+02  0.51100000000E-03 0. -1.
        -11    1    3    3    0    0 -0.71270483995E+01  0.23976631915E+02 -0.26150929262E+02  0.36187633225E+02  0.51100000000E-03 0.  1.
         12    1    3    3    0    0  0.13910121882E+02 -0.21385007848E+02  0.34992455496E+02  0.43304526242E+02  0.00000000000E+00 0. -1.
</event>
<event>
 7    1  0.2385752E-015  0.9000773E+02  0.7816164E-02  0.1186339E+00
        -11   -1    0    0    0    0  0.00000000000E+00  0.00000000000E+00  0.45593999997E+02  0.45594000000E+02  0.51100000000E-03 0. -1.
         11   -1    0    0    0    0 -0.00000000000E+00 -0.00000000000E+00 -0.45593999997E+02  0.45594000000E+02  0.51100000000E-03 0.  1.
    9900012    2    1    2    0    0 -0.63012995555E+00  0.62088332787E+00  0.78133529993E+00  0.90007726846E+02  0.89999988040E+02 0.  0.
        -12    1    1    2    0    0  0.63012995555E+00 -0.62088332787E+00 -0.78133529993E+00  0.11802731542E+01  0.00000000000E+00 0.  1.
         11    1    3    3    0    0 -0.29136968093E+02 -0.16760698620E+02  0.10296338270E+02  0.35155348240E+02  0.51100000000E-03 0. -1.
        -11    1    3    3    0    0 -0.94760297951E+01 -0.24304439802E+01  0.29824241733E+01  0.10227270058E+02  0.51100000000E-03 0.  1.
        -12    1    3    3    0    0  0.37982867932E+02  0.19812025928E+02 -0.12497427143E+02  0.44625108548E+02  0.00000000000E+00 0.  1.
</event>
<event>
 7    1  0.2385752E-015  0.9000763E+02  0.7816164E-02  0.1186339E+00
        -11   -1    0    0    0    0  0.00000000000E+00  0.00000000000E+00  0.45593999997E+02  0.45594000000E+02  0.51100000000E-03 0.  1.
         11   -1    0    0    0    0 -0.00000000000E+00 -0.00000000000E+00 -0.45593999997E+02  0.45594000000E+02  0.51100000000E-03 0. -1.
    9900012    2    1    2    0    0  0.52409103414E+00 -0.12783542049E+00 -0.10498912803E+01  0.90007625056E+02  0.89999884907E+02 0.  0.
        -12    1    1    2    0    0 -0.52409103414E+00  0.12783542049E+00  0.10498912803E+01  0.11803749435E+01  0.00000000000E+00 0.  1.
         11    1    3    3    0    0 -0.33273235798E+00  0.21093172702E+01 -0.97719918116E+01  0.10002587385E+02  0.51100000000E-03 0. -1.
        -11    1    3    3    0    0 -0.34801198213E+02  0.79543959456E+01  0.20409571366E+02  0.41121118850E+02  0.51100000000E-03 0.  1.
         12    1    3    3    0    0  0.35658021605E+02 -0.10191548636E+02 -0.11687470835E+02  0.38883918821E+02  0.00000000000E+00 0. -1.
</event>
<event>
 7    1  0.2385752E-015  0.9000776E+02  0.7816164E-02  0.1186339E+00
        -11   -1    0    0    0    0  0.00000000000E+00  0.00000000000E+00  0.45593999997E+02  0.45594000000E+02  0.51100000000E-03 0. -1.
         11   -1    0    0    0    0 -0.00000000000E+00 -0.00000000000E+00 -0.45593999997E+02  0.45594000000E+02  0.51100000000E-03 0.  1.
    9900012    2    1    2    0    0 -0.55848166995E+00  0.72568894914E+00  0.74459982052E+00  0.90007764803E+02  0.90000026499E+02 0.  0.
        -12    1    1    2    0    0  0.55848166995E+00 -0.72568894914E+00 -0.74459982052E+00  0.11802351966E+01  0.00000000000E+00 0.  1.
         11    1    3    3    0    0 -0.19935189345E+01 -0.10988194098E+02  0.35478237672E+02  0.37194352742E+02  0.51100000000E-03 0. -1.
        -11    1    3    3    0    0 -0.13592522183E+02  0.53183293536E+01 -0.18284255667E+00  0.14597079094E+02  0.51100000000E-03 0.  1.
        -12    1    3    3    0    0  0.15027559447E+02  0.63955536939E+01 -0.34550795295E+02  0.38216332968E+02  0.00000000000E+00 0.  1.
</event>
<event>
 7    1  0.2385752E-015  0.9000754E+02  0.7816164E-02  0.1186339E+00
        -11   -1    0    0    0    0  0.00000000000E+00  0.00000000000E+00  0.45593999997E+02  0.45594000000E+02  0.51100000000E-03 0.  1.
         11   -1    0    0    0    0 -0.00000000000E+00 -0.00000000000E+00 -0.45593999997E+02  0.45594000000E+02  0.51100000000E-03 0. -1.
    9900012    2    1    2    0    0 -0.55277751364E+00  0.59697796177E+00 -0.85530759906E+00  0.90007535365E+02  0.89999794031E+02 0.  0.
        -12    1    1    2    0    0  0.55277751364E+00 -0.59697796177E+00  0.85530759906E+00  0.11804646354E+01  0.00000000000E+00 0.  1.
         11    1    3    3    0    0  0.11142688345E+02  0.63636069646E+01 -0.17435373075E+01  0.12949707323E+02  0.51100000000E-03 0. -1.
        -11    1    3    3    0    0 -0.30337598934E+02  0.16823651569E+02  0.21888213686E+02  0.41018277143E+02  0.51100000000E-03 0.  1.
         12    1    3    3    0    0  0.18642133075E+02 -0.22590280571E+02 -0.20999983977E+02  0.36039550898E+02  0.00000000000E+00 0. -1.
</event>
<event>
 7    1  0.2385752E-015  0.9000774E+02  0.7816164E-02  0.1186339E+00
        -11   -1    0    0    0    0  0.00000000000E+00  0.00000000000E+00  0.45593999997E+02  0.45594000000E+02  0.51100000000E-03 0. -1.
         11   -1    0    0    0    0 -0.00000000000E+00 -0.00000000000E+00 -0.45593999997E+02  0.45594000000E+02  0.51100000000E-03 0.  1.
    9900012    2    1    2    0    0 -0.49335787550E+00 -0.10678936581E+01  0.95973716290E-01  0.90007741633E+02  0.90000003023E+02 0.  0.
        -12    1    1    2    0    0  0.49335787550E+00  0.10678936581E+01 -0.95973716290E-01  0.11802583669E+01  0.00000000000E+00 0.  1.
         11    1    3    3    0    0  0.17190802678E+00 -0.99898139112E+01 -0.14101723725E+01  0.10090318168E+02  0.51100000000E-03 0. -1.
        -11    1    3    3    0    0 -0.24470835870E+02 -0.25070327234E+02  0.12140471909E+02  0.37077407868E+02  0.51100000000E-03 0.  1.
         12    1    3    3    0    0  0.23805569968E+02  0.33992247487E+02 -0.10634325821E+02  0.42840015597E+02  0.00000000000E+00 0. -1.
</event>
<event>
 7    1  0.2385752E-015  0.9000774E+02  0.7816164E-02  0.1186339E+00
        -11   -1    0    0    0    0  0.00000000000E+00  0.00000000000E+00  0.45593999997E+02  0.45594000000E+02  0.51100000000E-03 0.  1.
         11   -1    0    0    0    0 -0.00000000000E+00 -0.00000000000E+00 -0.45593999997E+02  0.45594000000E+02  0.51100000000E-03 0. -1.
    9900012    2    1    2    0    0 -0.10365372694E+01  0.16368656889E+00 -0.54019816904E+00  0.90007738645E+02  0.89999999995E+02 0.  0.
        -12    1    1    2    0    0  0.10365372694E+01 -0.16368656889E+00  0.54019816904E+00  0.11802613547E+01  0.00000000000E+00 0.  1.
         11    1    3    3    0    0  0.10535620684E+00  0.36509868885E+02 -0.28484617113E+01  0.36620968861E+02  0.51100000000E-03 0. -1.
        -11    1    3    3    0    0 -0.19695607951E+01  0.69716503451E+01  0.66630450425E+01  0.98427256266E+01  0.51100000000E-03 0.  1.
        -12    1    3    3    0    0  0.82766731883E+00 -0.43317832661E+02 -0.43547815003E+01  0.43544044158E+02  0.00000000000E+00 0.  1.
</event>
<event>
 7    1  0.2385752E-015  0.9000766E+02  0.7816164E-02  0.1186339E+00
        -11   -1    0    0    0    0  0.00000000000E+00  0.00000000000E+00  0.45593999997E+02  0.45594000000E+02  0.51100000000E-03 0. -1.
         11   -1    0    0    0    0 -0.00000000000E+00 -0.00000000000E+00 -0.45593999997E+02  0.45594000000E+02  0.51100000000E-03 0.  1.
    9900012    2    1    2    0    0 -0.58146841412E+00  0.42010003948E+00 -0.93734797995E+00  0.90007656493E+02  0.89999916758E+02 0.  0.
        -12    1    1    2    0    0  0.58146841412E+00 -0.42010003948E+00  0.93734797995E+00  0.11803435073E+01  0.00000000000E+00 0.  1.
         11    1    3    3    0    0 -0.50388901588E+01 -0.48852112043E+01 -0.13608712968E+01  0.71489631060E+01  0.51100000000E-03 0. -1.
        -11    1    3    3    0    0 -0.23743591366E+02 -0.26611137985E+02  0.13763977796E+02  0.38227710902E+02  0.51100000000E-03 0.  1.
         12    1    3    3    0    0  0.28201013110E+02  0.31916449229E+02 -0.13340454479E+02  0.44630982484E+02  0.00000000000E+00 0. -1.
</event>
<event>
 7    1  0.2385752E-015  0.9000770E+02  0.7816164E-02  0.1186339E+00
        -11   -1    0    0    0    0  0.00000000000E+00  0.00000000000E+00  0.45593999997E+02  0.45594000000E+02  0.51100000000E-03 0. -1.
         11   -1    0    0    0    0 -0.00000000000E+00 -0.00000000000E+00 -0.45593999997E+02  0.45594000000E+02  0.51100000000E-03 0.  1.
    9900012    2    1    2    0    0  0.67921786543E+00  0.25169009792E+00  0.93189082737E+00  0.90007701170E+02  0.89999962025E+02 0.  0.
        -12    1    1    2    0    0 -0.67921786543E+00 -0.25169009792E+00 -0.93189082737E+00  0.11802988301E+01  0.00000000000E+00 0.  1.
         11    1    3    3    0    0  0.39295410109E+02 -0.31496999596E+01  0.13026388846E+02  0.41517907848E+02  0.51100000000E-03 0. -1.
        -11    1    3    3    0    0 -0.61151509703E+01  0.19626873495E+01  0.79941551421E+01  0.10254449265E+02  0.51100000000E-03 0.  1.
        -12    1    3    3    0    0 -0.32501041273E+02  0.14387027080E+01 -0.20088653161E+02  0.38235344057E+02  0.00000000000E+00 0.  1.
</event>
<event>
 7    1  0.2385752E-015  0.9000780E+02  0.7816164E-02  0.1186339E+00
        -11   -1    0    0    0    0  0.00000000000E+00  0.00000000000E+00  0.45593999997E+02  0.45594000000E+02  0.51100000000E-03 0. -1.
         11   -1    0    0    0    0 -0.00000000000E+00 -0.00000000000E+00 -0.45593999997E+02  0.45594000000E+02  0.51100000000E-03 0.  1.
    9900012    2    1    2    0    0  0.74115467977E+00  0.77814257671E+00 -0.48790318869E+00  0.90007802707E+02  0.90000064903E+02 0.  0.
        -12    1    1    2    0    0 -0.74115467977E+00 -0.77814257671E+00  0.48790318869E+00  0.11801972931E+01  0.00000000000E+00 0.  1.
         11    1    3    3    0    0 -0.46266235682E+01  0.24828240680E+01 -0.40232846765E+01  0.66148984001E+01  0.51100000000E-03 0. -1.
        -11    1    3    3    0    0 -0.80972050637E+00  0.24579564113E+02 -0.30990581464E+02  0.39562946794E+02  0.51100000000E-03 0.  1.
         12    1    3    3    0    0  0.61774987544E+01 -0.26284245605E+02  0.34525962952E+02  0.43829957513E+02  0.00000000000E+00 0. -1.
</event>
<event>
 8    1  0.2385752E-015  0.9000781E+02  0.7816164E-02  0.1186339E+00
        -11   -1    0    0    0    0  0.00000000000E+00  0.00000000000E+00  0.45593999997E+02  0.45594000000E+02  0.51100000000E-03 0. -1.
         11   -1    0    0    0    0 -0.00000000000E+00 -0.00000000000E+00 -0.45593999997E+02  0.45594000000E+02  0.51100000000E-03 0.  1.
    9900012    2    1    2    0    0 -0.11364264719E+01 -0.20789199354E+00  0.24115425952E+00  0.90007813750E+02  0.90000076092E+02 0.  0.
         23    2    3    3    0    0  0.95067886681E+01  0.16707210543E+02  0.18813316064E+02  0.62725513326E+02  0.56666032558E+02 0.  0.
        -12    1    1    2    0    0  0.11364264719E+01  0.20789199354E+00 -0.24115425952E+00  0.11801862497E+01  0.00000000000E+00 0.  1.
         11    1    4    4    0    0  0.18366997924E+02  0.34624039278E+02  0.80073353319E+01  0.40003601439E+02  0.51100000000E-03 0. -1.
        -11    1    4    4    0    0 -0.88602092559E+01 -0.17916828735E+02  0.10805980732E+02  0.22721911887E+02  0.51100000000E-03 0.  1.
        -12    1    3    3    0    0 -0.10643215140E+02 -0.16915102537E+02 -0.18572161804E+02  0.27282300424E+02  0.00000000000E+00 0.  1.
</event>
<event>
 7    1  0.2385752E-015  0.9000777E+02  0.7816164E-02  0.1186339E+00
        -11   -1    0    0    0    0  0.00000000000E+00  0.00000000000E+00  0.45593999997E+02  0.45594000000E+02  0.51100000000E-03 0. -1.
         11   -1    0    0    0    0 -0.00000000000E+00 -0.00000000000E+00 -0.45593999997E+02  0.45594000000E+02  0.51100000000E-03 0.  1.
    9900012    2    1    2    0    0  0.96352919767E+00  0.17090117765E+00  0.65980862547E+00  0.90007769874E+02  0.90000031637E+02 0.  0.
        -12    1    1    2    0    0 -0.96352919767E+00 -0.17090117765E+00 -0.65980862547E+00  0.11802301257E+01  0.00000000000E+00 0.  1.
         11    1    3    3    0    0  0.28150854084E+02 -0.12452090684E+02 -0.27128833582E+01  0.30901211699E+02  0.51100000000E-03 0. -1.
        -11    1    3    3    0    0  0.79644629354E+01  0.17409608760E+02  0.12002046050E+02  0.22595934517E+02  0.51100000000E-03 0.  1.
        -12    1    3    3    0    0 -0.35151787822E+02 -0.47866168982E+01 -0.86293540662E+01  0.36510623659E+02  0.00000000000E+00 0.  1.
</event>
<event>
 7    1  0.2385752E-015  0.9000716E+02  0.7816164E-02  0.1186340E+00
        -11   -1    0    0    0    0  0.00000000000E+00  0.00000000000E+00  0.45593999997E+02  0.45594000000E+02  0.51100000000E-03 0. -1.
         11   -1    0    0    0    0 -0.00000000000E+00 -0.00000000000E+00 -0.45593999997E+02  0.45594000000E+02  0.51100000000E-03 0.  1.
    9900012    2    1    2    0    0  0.84854255264E+00  0.59343623352E+00  0.56762304621E+00  0.90007158372E+02  0.89999412061E+02 0.  0.
        -12    1    1    2    0    0 -0.84854255264E+00 -0.59343623352E+00 -0.56762304621E+00  0.11808416276E+01  0.00000000000E+00 0.  1.
         11    1    3    3    0    0  0.24757642592E+02 -0.33240882929E+02  0.11326062382E+02  0.42967160180E+02  0.51100000000E-03 0. -1.
        -11    1    3    3    0    0  0.47714076310E+00  0.13374763515E+02  0.16954277270E+00  0.13384345610E+02  0.51100000000E-03 0.  1.
        -12    1    3    3    0    0 -0.24386240803E+02  0.20459555647E+02 -0.10927982108E+02  0.33655652582E+02  0.00000000000E+00 0.  1.
</event>
<event>
 7    1  0.2385752E-015  0.9000771E+02  0.7816164E-02  0.1186339E+00
        -11   -1    0    0    0    0  0.00000000000E+00  0.00000000000E+00  0.45593999997E+02  0.45594000000E+02  0.51100000000E-03 0. -1.
         11   -1    0    0    0    0 -0.00000000000E+00 -0.00000000000E+00 -0.45593999997E+02  0.45594000000E+02  0.51100000000E-03 0.  1.
    9900012    2    1    2    0    0 -0.45432324149E+00 -0.59102434536E+00  0.91507849380E+00  0.90007708496E+02  0.89999969448E+02 0.  0.
        -12    1    1    2    0    0  0.45432324149E+00  0.59102434536E+00 -0.91507849380E+00  0.11802915040E+01  0.00000000000E+00 0.  1.
         11    1    3    3    0    0 -0.35931751847E+01  0.78680727976E+01  0.24658906053E+01  0.89943367846E+01  0.51100000000E-03 0. -1.
        -11    1    3    3    0    0 -0.37281818669E+02 -0.11519549882E+02  0.68447560477E+01  0.39616722711E+02  0.51100000000E-03 0.  1.
         12    1    3    3    0    0  0.40420670612E+02  0.30604527388E+01 -0.83955681592E+01  0.41396649000E+02  0.00000000000E+00 0. -1.
</event>
<event>
 7    1  0.2385752E-015  0.9000753E+02  0.7816164E-02  0.1186339E+00
        -11   -1    0    0    0    0  0.00000000000E+00  0.00000000000E+00  0.45593999997E+02  0.45594000000E+02  0.51100000000E-03 0.  1.
         11   -1    0    0    0    0 -0.00000000000E+00 -0.00000000000E+00 -0.45593999997E+02  0.45594000000E+02  0.51100000000E-03 0. -1.
    9900012    2    1    2    0    0  0.58863951239E+00 -0.78079251110E+00 -0.66133847246E+00  0.90007533145E+02  0.89999791782E+02 0.  0.
        -12    1    1    2    0    0 -0.58863951239E+00  0.78079251110E+00  0.66133847246E+00  0.11804668551E+01  0.00000000000E+00 0.  1.
         11    1    3    3    0    0  0.17187132075E+01  0.47676543335E+01 -0.70125825236E+01  0.86522145631E+01  0.51100000000E-03 0. -1.
        -11    1    3    3    0    0 -0.26300191663E+02  0.20716209282E+02  0.23732932071E+02  0.41037951624E+02  0.51100000000E-03 0.  1.
         12    1    3    3    0    0  0.25170117968E+02 -0.26264656127E+02 -0.17381688020E+02  0.40317366958E+02  0.00000000000E+00 0. -1.
</event>
<event>
 7    1  0.2385752E-015  0.9000775E+02  0.7816164E-02  0.1186339E+00
        -11   -1    0    0    0    0  0.00000000000E+00  0.00000000000E+00  0.45593999997E+02  0.45594000000E+02  0.51100000000E-03 0.  1.
         11   -1    0    0    0    0 -0.00000000000E+00 -0.00000000000E+00 -0.45593999997E+02  0.45594000000E+02  0.51100000000E-03 0. -1.
    9900012    2    1    2    0    0 -0.60609617747E+00  0.28158270800E+00 -0.97280014961E+00  0.90007753615E+02  0.90000015163E+02 0.  0.
        -12    1    1    2    0    0  0.60609617747E+00 -0.28158270800E+00  0.97280014961E+00  0.11802463848E+01  0.00000000000E+00 0.  1.
         11    1    3    3    0    0  0.16438969076E+01 -0.10662231046E+02 -0.34833272708E+02  0.36465633900E+02  0.51100000000E-03 0. -1.
        -11    1    3    3    0    0 -0.80332500753E+01 -0.11693185442E+01 -0.68838701371E+01  0.10643687376E+02  0.51100000000E-03 0.  1.
        -12    1    3    3    0    0  0.57832569902E+01  0.12113132298E+02  0.40744342695E+02  0.42898432339E+02  0.00000000000E+00 0.  1.
</event>
<event>
 7    1  0.2385752E-015  0.9000757E+02  0.7816164E-02  0.1186339E+00
        -11   -1    0    0    0    0  0.00000000000E+00  0.00000000000E+00  0.45593999997E+02  0.45594000000E+02  0.51100000000E-03 0.  1.
         11   -1    0    0    0    0 -0.00000000000E+00 -0.00000000000E+00 -0.45593999997E+02  0.45594000000E+02  0.51100000000E-03 0. -1.
    9900012    2    1    2    0    0 -0.59756535380E+00 -0.94389016146E+00  0.38130761664E+00  0.90007572752E+02  0.89999831912E+02 0.  0.
        -12    1    1    2    0    0  0.59756535380E+00  0.94389016146E+00 -0.38130761664E+00  0.11804272479E+01  0.00000000000E+00 0.  1.
         11    1    3    3    0    0  0.75992350269E+01  0.64316671999E+01  0.11082826867E+02  0.14897777270E+02  0.51100000000E-03 0. -1.
        -11    1    3    3    0    0  0.11996733146E+02  0.27571816619E+02  0.72582083519E+01  0.30932317511E+02  0.51100000000E-03 0.  1.
         12    1    3    3    0    0 -0.20193533526E+02 -0.34947373980E+02 -0.17959727602E+02  0.44177477972E+02  0.00000000000E+00 0. -1.
</event>
<event>
 7    1  0.2385752E-015  0.9000778E+02  0.7816164E-02  0.1186339E+00
        -11   -1    0    0    0    0  0.00000000000E+00  0.00000000000E+00  0.45593999997E+02  0.45594000000E+02  0.51100000000E-03 0.  1.
         11   -1    0    0    0    0 -0.00000000000E+00 -0.00000000000E+00 -0.45593999997E+02  0.45594000000E+02  0.51100000000E-03 0. -1.
    9900012    2    1    2    0    0 -0.10369483985E+01 -0.42400271512E+00 -0.37132553799E+00  0.90007778437E+02  0.90000040312E+02 0.  0.
        -12    1    1    2    0    0  0.10369483985E+01  0.42400271512E+00  0.37132553799E+00  0.11802215634E+01  0.00000000000E+00 0.  1.
         11    1    3    3    0    0 -0.25672038574E+02 -0.28651578157E+02 -0.12492681369E+02  0.40447911979E+02  0.51100000000E-03 0. -1.
        -11    1    3    3    0    0 -0.71927824313E+00  0.53032545201E+01 -0.82015186319E+01  0.97932005916E+01  0.51100000000E-03 0.  1.
        -12    1    3    3    0    0  0.25354368419E+02  0.22924320922E+02  0.20322874463E+02  0.39766665866E+02  0.00000000000E+00 0.  1.
</event>
<event>
 7    1  0.2385752E-015  0.9000779E+02  0.7816164E-02  0.1186339E+00
        -11   -1    0    0    0    0  0.00000000000E+00  0.00000000000E+00  0.45593999997E+02  0.45594000000E+02  0.51100000000E-03 0.  1.
         11   -1    0    0    0    0 -0.00000000000E+00 -0.00000000000E+00 -0.45593999997E+02  0.45594000000E+02  0.51100000000E-03 0. -1.
    9900012    2    1    2    0    0  0.45070872240E+00  0.45227789353E+00 -0.99257907369E+00  0.90007785247E+02  0.90000047212E+02 0.  0.
        -12    1    1    2    0    0 -0.45070872240E+00 -0.45227789353E+00  0.99257907369E+00  0.11802147529E+01  0.00000000000E+00 0.  1.
         11    1    3    3    0    0 -0.19475737562E+02 -0.22391801660E+02 -0.23774018484E+02  0.38025006118E+02  0.51100000000E-03 0. -1.
        -11    1    3    3    0    0 -0.44113483564E+01 -0.69636392349E+01  0.39929240982E+01  0.91594600730E+01  0.51100000000E-03 0.  1.
        -12    1    3    3    0    0  0.24337794641E+02  0.29807718788E+02  0.18788515312E+02  0.42823319056E+02  0.00000000000E+00 0.  1.
</event>
<event>
 7    1  0.2385752E-015  0.9000771E+02  0.7816164E-02  0.1186339E+00
        -11   -1    0    0    0    0  0.00000000000E+00  0.00000000000E+00  0.45593999997E+02  0.45594000000E+02  0.51100000000E-03 0. -1.
         11   -1    0    0    0    0 -0.00000000000E+00 -0.00000000000E+00 -0.45593999997E+02  0.45594000000E+02  0.51100000000E-03 0.  1.
    9900012    2    1    2    0    0  0.17898375798E+00 -0.32622284135E-01  0.11661806045E+01  0.90007713339E+02  0.89999974355E+02 0.  0.
        -12    1    1    2    0    0 -0.17898375798E+00  0.32622284135E-01 -0.11661806045E+01  0.11802866606E+01  0.00000000000E+00 0.  1.
         11    1    3    3    0    0 -0.67950296257E+01 -0.19522777339E+01  0.60875771387E+01  0.93296522789E+01  0.51100000000E-03 0. -1.
        -11    1    3    3    0    0 -0.35818928036E+02 -0.16690512269E+01 -0.10525749990E+02  0.37370747260E+02  0.51100000000E-03 0.  1.
         12    1    3    3    0    0  0.42792941420E+02  0.35887066767E+01  0.56043534559E+01  0.43307313801E+02  0.00000000000E+00 0. -1.
</event>
<event>
 7    1  0.2385752E-015  0.9000774E+02  0.7816164E-02  0.1186339E+00
        -11   -1    0    0    0    0  0.00000000000E+00  0.00000000000E+00  0.45593999997E+02  0.45594000000E+02  0.51100000000E-03 0.  1.
         11   -1    0    0    0    0 -0.00000000000E+00 -0.00000000000E+00 -0.45593999997E+02  0.45594000000E+02  0.51100000000E-03 0. -1.
    9900012    2    1    2    0    0 -0.10470001701E+01 -0.76474424519E-01 -0.53940697493E+00  0.90007738343E+02  0.89999999689E+02 0.  0.
        -12    1    1    2    0    0  0.10470001701E+01  0.76474424519E-01  0.53940697493E+00  0.11802616567E+01  0.00000000000E+00 0.  1.
         11    1    3    3    0    0  0.66547821604E+01 -0.67823444013E+01 -0.71346281155E+00  0.95286594348E+01  0.51100000000E-03 0. -1.
        -11    1    3    3    0    0  0.28352434739E+02 -0.61977706966E+01  0.21985481668E+02  0.36409261483E+02  0.51100000000E-03 0.  1.
         12    1    3    3    0    0 -0.36054217070E+02  0.12903640673E+02 -0.21811425832E+02  0.44069817426E+02  0.00000000000E+00 0. -1.
</event>
<event>
 7    1  0.2385752E-015  0.9000776E+02  0.7816164E-02  0.1186339E+00
        -11   -1    0    0    0    0  0.00000000000E+00  0.00000000000E+00  0.45593999997E+02  0.45594000000E+02  0.51100000000E-03 0.  1.
         11   -1    0    0    0    0 -0.00000000000E+00 -0.00000000000E+00 -0.45593999997E+02  0.45594000000E+02  0.51100000000E-03 0. -1.
    9900012    2    1    2    0    0 -0.11479601520E+01  0.22698030495E+00 -0.15371807277E+00  0.90007761967E+02  0.90000023625E+02 0.  0.
        -12    1    1    2    0    0  0.11479601520E+01 -0.22698030495E+00  0.15371807277E+00  0.11802380334E+01  0.00000000000E+00 0.  1.
         11    1    3    3    0    0 -0.98122667386E+01 -0.78873680097E+01 -0.46417907084E+01  0.13417800636E+02  0.51100000000E-03 0. -1.
        -11    1    3    3    0    0 -0.30894224165E+02  0.17412701280E+02  0.57873282809E+01  0.35932553785E+02  0.51100000000E-03 0.  1.
         12    1    3    3    0    0  0.39558530752E+02 -0.92983529651E+01 -0.12992556453E+01  0.40657407546E+02  0.00000000000E+00 0. -1.
</event>
<event>
 7    1  0.2385752E-015  0.9000754E+02  0.7816164E-02  0.1186339E+00
        -11   -1    0    0    0    0  0.00000000000E+00  0.00000000000E+00  0.45593999997E+02  0.45594000000E+02  0.51100000000E-03 0. -1.
         11   -1    0    0    0    0 -0.00000000000E+00 -0.00000000000E+00 -0.45593999997E+02  0.45594000000E+02  0.51100000000E-03 0.  1.
    9900012    2    1    2    0    0 -0.17473030786E+00 -0.10641413134E+01  0.48015622120E+00  0.90007543558E+02  0.89999802332E+02 0.  0.
        -12    1    1    2    0    0  0.17473030786E+00  0.10641413134E+01 -0.48015622120E+00  0.11804564423E+01  0.00000000000E+00 0.  1.
         11    1    3    3    0    0  0.74922846099E+01  0.85227881478E+01 -0.65946843275E+01  0.13124866023E+02  0.51100000000E-03 0. -1.
        -11    1    3    3    0    0 -0.41768061000E+02 -0.69572877321E+01  0.45510631382E+01  0.42587403633E+02  0.51100000000E-03 0.  1.
         12    1    3    3    0    0  0.34101046082E+02 -0.26296417292E+01  0.25237774105E+01  0.34295273901E+02  0.00000000000E+00 0. -1.
</event>
<event>
 7    1  0.2385752E-015  0.9000767E+02  0.7816164E-02  0.1186339E+00
        -11   -1    0    0    0    0  0.00000000000E+00  0.00000000000E+00  0.45593999997E+02  0.45594000000E+02  0.51100000000E-03 0.  1.
         11   -1    0    0    0    0 -0.00000000000E+00 -0.00000000000E+00 -0.45593999997E+02  0.45594000000E+02  0.51100000000E-03 0. -1.
    9900012    2    1    2    0    0  0.75766453993E+00 -0.71575108716E+00 -0.55392168259E+00  0.90007667672E+02  0.89999928085E+02 0.  0.
        -12    1    1    2    0    0 -0.75766453993E+00  0.71575108716E+00  0.55392168259E+00  0.11803323279E+01  0.00000000000E+00 0.  1.
         11    1    3    3    0    0  0.42333340275E+01  0.64583989664E+01  0.51878101257E+01  0.93029784671E+01  0.51100000000E-03 0. -1.
        -11    1    3    3    0    0 -0.20629744832E+02  0.15845548007E+02  0.26773515805E+02  0.37329464398E+02  0.51100000000E-03 0.  1.
         12    1    3    3    0    0  0.17154075344E+02 -0.23019698061E+02 -0.32515247613E+02  0.43375224807E+02  0.00000000000E+00 0. -1.
</event>
<event>
 7    1  0.2385752E-015  0.9000776E+02  0.7816164E-02  0.1186339E+00
        -11   -1    0    0    0    0  0.00000000000E+00  0.00000000000E+00  0.45593999997E+02  0.45594000000E+02  0.51100000000E-03 0. -1.
         11   -1    0    0    0    0 -0.00000000000E+00 -0.00000000000E+00 -0.45593999997E+02  0.45594000000E+02  0.51100000000E-03 0.  1.
    9900012    2    1    2    0    0 -0.45227683112E+00 -0.10471212041E+01  0.30322033708E+00  0.90007762854E+02  0.90000024524E+02 0.  0.
        -12    1    1    2    0    0  0.45227683112E+00  0.10471212041E+01 -0.30322033708E+00  0.11802371460E+01  0.00000000000E+00 0.  1.
         11    1    3    3    0    0 -0.56382537630E+01  0.13932256091E+02 -0.82866629187E+01  0.17162938206E+02  0.51100000000E-03 0. -1.
        -11    1    3    3    0    0  0.33992956379E+02  0.23671577843E+01 -0.85075640531E+01  0.35121263726E+02  0.51100000000E-03 0.  1.
         12    1    3    3    0    0 -0.28806979447E+02 -0.17346535079E+02  0.17097447309E+02  0.37723560922E+02  0.00000000000E+00 0. -1.
</event>
<event>
 7    1  0.2385752E-015  0.9000766E+02  0.7816164E-02  0.1186339E+00
        -11   -1    0    0    0    0  0.00000000000E+00  0.00000000000E+00  0.45593999997E+02  0.45594000000E+02  0.51100000000E-03 0.  1.
         11   -1    0    0    0    0 -0.00000000000E+00 -0.00000000000E+00 -0.45593999997E+02  0.45594000000E+02  0.51100000000E-03 0. -1.
    9900012    2    1    2    0    0  0.52882874009E+00 -0.85550531454E+00 -0.61777264927E+00  0.90007664359E+02  0.89999924728E+02 0.  0.
        -12    1    1    2    0    0 -0.52882874009E+00  0.85550531454E+00  0.61777264927E+00  0.11803356411E+01  0.00000000000E+00 0.  1.
         11    1    3    3    0    0 -0.13823743753E+01 -0.11812370845E+01 -0.95923327412E+01  0.97631515221E+01  0.51100000000E-03 0. -1.
        -11    1    3    3    0    0 -0.14279116250E+02  0.28294179082E+02 -0.19467351524E+02  0.37194509090E+02  0.51100000000E-03 0.  1.
         12    1    3    3    0    0  0.16190319366E+02 -0.27968447312E+02  0.28441911616E+02  0.43050003747E+02  0.00000000000E+00 0. -1.
</event>
<event>
 7    1  0.2385752E-015  0.9000777E+02  0.7816164E-02  0.1186339E+00
        -11   -1    0    0    0    0  0.00000000000E+00  0.00000000000E+00  0.45593999997E+02  0.45594000000E+02  0.51100000000E-03 0. -1.
         11   -1    0    0    0    0 -0.00000000000E+00 -0.00000000000E+00 -0.45593999997E+02  0.45594000000E+02  0.51100000000E-03 0.  1.
    9900012    2    1    2    0    0 -0.80130765310E+00 -0.85377475238E+00 -0.14807643144E+00  0.90007766162E+02  0.90000027875E+02 0.  0.
        -12    1    1    2    0    0  0.80130765310E+00  0.85377475238E+00  0.14807643144E+00  0.11802338380E+01  0.00000000000E+00 0.  1.
         11    1    3    3    0    0  0.61642111542E+01 -0.18608828700E+01  0.41710857124E+02  0.42204928462E+02  0.51100000000E-03 0. -1.
        -11    1    3    3    0    0  0.19601046639E+01 -0.66658132422E+01 -0.37040275227E+01  0.78736838026E+01  0.51100000000E-03 0.  1.
        -12    1    3    3    0    0 -0.89256234712E+01  0.76729213598E+01 -0.38154906033E+02  0.39929153897E+02  0.00000000000E+00 0.  1.
</event>
<event>
 7    1  0.2385752E-015  0.9000764E+02  0.7816164E-02  0.1186339E+00
        -11   -1    0    0    0    0  0.00000000000E+00  0.00000000000E+00  0.45593999997E+02  0.45594000000E+02  0.51100000000E-03 0. -1.
         11   -1    0    0    0    0 -0.00000000000E+00 -0.00000000000E+00 -0.45593999997E+02  0.45594000000E+02  0.51100000000E-03 0.  1.
    9900012    2    1    2    0    0  0.56498859556E+00 -0.93054080758E+00  0.45620777048E+00  0.90007642496E+02  0.89999902577E+02 0.  0.
        -12    1    1    2    0    0 -0.56498859556E+00  0.93054080758E+00 -0.45620777048E+00  0.11803575041E+01  0.00000000000E+00 0.  1.
         11    1    3    3    0    0  0.32938846383E+00 -0.87678505365E+01  0.70669364300E+01  0.11266112486E+02  0.51100000000E-03 0. -1.
        -11    1    3    3    0    0  0.36193425559E+02 -0.55171881392E+00 -0.17555468688E+02  0.40230124639E+02  0.51100000000E-03 0.  1.
         12    1    3    3    0    0 -0.35957825427E+02  0.83890285428E+01  0.10944740028E+02  0.38511405371E+02  0.00000000000E+00 0. -1.
</event>
<event>
 7    1  0.2385752E-015  0.9000772E+02  0.7816164E-02  0.1186339E+00
        -11   -1    0    0    0    0  0.00000000000E+00  0.00000000000E+00  0.45593999997E+02  0.45594000000E+02  0.51100000000E-03 0.  1.
         11   -1    0    0    0    0 -0.00000000000E+00 -0.00000000000E+00 -0.45593999997E+02  0.45594000000E+02  0.51100000000E-03 0. -1.
    9900012    2    1    2    0    0  0.85173002995E+00 -0.18577401248E-01  0.81686392189E+00  0.90007722138E+02  0.89999983271E+02 0.  0.
        -12    1    1    2    0    0 -0.85173002995E+00  0.18577401248E-01 -0.81686392189E+00  0.11802778616E+01  0.00000000000E+00 0.  1.
         11    1    3    3    0    0  0.40678461274E+01 -0.59370865575E+01 -0.15199558868E+02  0.16817341019E+02  0.51100000000E-03 0. -1.
        -11    1    3    3    0    0  0.26257673078E+02 -0.43832417815E+01 -0.13828451484E+02  0.29998404536E+02  0.51100000000E-03 0.  1.
         12    1    3    3    0    0 -0.29473789175E+02  0.10301750938E+02  0.29844874274E+02  0.43191976583E+02  0.00000000000E+00 0. -1.
</event>
<event>
 7    1  0.2385752E-015  0.9000772E+02  0.7816164E-02  0.1186339E+00
        -11   -1    0    0    0    0  0.00000000000E+00  0.00000000000E+00  0.45593999997E+02  0.45594000000E+02  0.51100000000E-03 0.  1.
         11   -1    0    0    0    0 -0.00000000000E+00 -0.00000000000E+00 -0.45593999997E+02  0.45594000000E+02  0.51100000000E-03 0. -1.
    9900012    2    1    2    0    0  0.38281699340E+00  0.10959969700E+01 -0.21284770063E+00  0.90007719376E+02  0.89999980471E+02 0.  0.
        -12    1    1    2    0    0 -0.38281699340E+00 -0.10959969700E+01  0.21284770063E+00  0.11802806244E+01  0.00000000000E+00 0.  1.
         11    1    3    3    0    0  0.51963962413E+01 -0.35900440807E+01  0.77631469423E+01  0.10007866961E+02  0.51100000000E-03 0. -1.
        -11    1    3    3    0    0  0.37969086892E+01 -0.35185213216E+02  0.78452428651E+01  0.36248635568E+02  0.51100000000E-03 0.  1.
         12    1    3    3    0    0 -0.86104879371E+01  0.39871254267E+02 -0.15821237508E+02  0.43751216847E+02  0.00000000000E+00 0. -1.
</event>
<event>
 7    1  0.2385752E-015  0.9000741E+02  0.7816164E-02  0.1186340E+00
        -11   -1    0    0    0    0  0.00000000000E+00  0.00000000000E+00  0.45593999997E+02  0.45594000000E+02  0.51100000000E-03 0.  1.
         11   -1    0    0    0    0 -0.00000000000E+00 -0.00000000000E+00 -0.45593999997E+02  0.45594000000E+02  0.51100000000E-03 0. -1.
    9900012    2    1    2    0    0 -0.36539587905E+00 -0.45853383303E+00 -0.10247054194E+01  0.90007411748E+02  0.89999668782E+02 0.  0.
        -12    1    1    2    0    0  0.36539587905E+00  0.45853383303E+00  0.10247054194E+01  0.11805882521E+01  0.00000000000E+00 0.  1.
         11    1    3    3    0    0 -0.60162954026E+01  0.90844782424E+01 -0.42597194213E+02  0.43968676468E+02  0.51100000000E-03 0. -1.
        -11    1    3    3    0    0 -0.31382038445E+01 -0.59437152086E+01  0.53465078524E+01  0.85884352665E+01  0.51100000000E-03 0.  1.
        -12    1    3    3    0    0  0.87891033681E+01 -0.35992968668E+01  0.36225980941E+02  0.37450300013E+02  0.00000000000E+00 0.  1.
</event>
<event>
 7    1  0.2385752E-015  0.9000776E+02  0.7816164E-02  0.1186339E+00
        -11   -1    0    0    0    0  0.00000000000E+00  0.00000000000E+00  0.45593999997E+02  0.45594000000E+02  0.51100000000E-03 0.  1.
         11   -1    0    0    0    0 -0.00000000000E+00 -0.00000000000E+00 -0.45593999997E+02  0.45594000000E+02  0.51100000000E-03 0. -1.
    9900012    2    1    2    0    0  0.52244246969E+00 -0.10570549720E+01  0.51486013037E-01  0.90007761822E+02  0.90000023478E+02 0.  0.
        -12    1    1    2    0    0 -0.52244246969E+00  0.10570549720E+01 -0.51486013037E-01  0.11802381783E+01  0.00000000000E+00 0.  1.
         11    1    3    3    0    0  0.73468075701E+01  0.75651628973E+01 -0.23923590109E+01  0.10813447787E+02  0.51100000000E-03 0.  1.
        -11    1    3    3    0    0  0.24879922172E+02 -0.29499063587E+02 -0.88447000577E+01  0.39590832261E+02  0.51100000000E-03 0. -1.
        -12    1    3    3    0    0 -0.31704287272E+02  0.20876845717E+02  0.11288545082E+02  0.39603481774E+02  0.00000000000E+00 0.  1.
</event>
<event>
 7    1  0.2385752E-015  0.9000770E+02  0.7816164E-02  0.1186339E+00
        -11   -1    0    0    0    0  0.00000000000E+00  0.00000000000E+00  0.45593999997E+02  0.45594000000E+02  0.51100000000E-03 0.  1.
         11   -1    0    0    0    0 -0.00000000000E+00 -0.00000000000E+00 -0.45593999997E+02  0.45594000000E+02  0.51100000000E-03 0. -1.
    9900012    2    1    2    0    0 -0.11197063275E+01 -0.17004555187E-01 -0.37293108797E+00  0.90007699610E+02  0.89999960445E+02 0.  0.
        -12    1    1    2    0    0  0.11197063275E+01  0.17004555188E-01  0.37293108797E+00  0.11803003902E+01  0.00000000000E+00 0.  1.
         11    1    3    3    0    0 -0.71911271424E+01 -0.60317344883E+01 -0.52869193785E+00  0.94007258199E+01  0.51100000000E-03 0. -1.
        -11    1    3    3    0    0 -0.29598767888E+02 -0.16750288167E+02 -0.12821390376E+02  0.36346213910E+02  0.51100000000E-03 0.  1.
         12    1    3    3    0    0  0.35670188703E+02  0.22765018100E+02  0.12977151226E+02  0.44260759880E+02  0.00000000000E+00 0. -1.
</event>
<event>
 7    1  0.2385752E-015  0.9000745E+02  0.7816164E-02  0.1186340E+00
        -11   -1    0    0    0    0  0.00000000000E+00  0.00000000000E+00  0.45593999997E+02  0.45594000000E+02  0.51100000000E-03 0. -1.
         11   -1    0    0    0    0 -0.00000000000E+00 -0.00000000000E+00 -0.45593999997E+02  0.45594000000E+02  0.51100000000E-03 0.  1.
    9900012    2    1    2    0    0  0.47439713237E+00  0.14188112236E+00  0.10716873794E+01  0.90007450665E+02  0.89999708214E+02 0.  0.
        -12    1    1    2    0    0 -0.47439713237E+00 -0.14188112236E+00 -0.10716873794E+01  0.11805493345E+01  0.00000000000E+00 0.  1.
         11    1    3    3    0    0 -0.29394532266E+01  0.42921729954E+01  0.62175207370E+01  0.81068303714E+01  0.51100000000E-03 0. -1.
        -11    1    3    3    0    0  0.90687612837E+01  0.22137925174E+02  0.29540155435E+02  0.38012510383E+02  0.51100000000E-03 0.  1.
         12    1    3    3    0    0 -0.56549109246E+01 -0.26288217047E+02 -0.34685988792E+02  0.43888109911E+02  0.00000000000E+00 0. -1.
</event>
<event>
 7    1  0.2385752E-015  0.9000783E+02  0.7816164E-02  0.1186339E+00
        -11   -1    0    0    0    0  0.00000000000E+00  0.00000000000E+00  0.45593999997E+02  0.45594000000E+02  0.51100000000E-03 0. -1.
         11   -1    0    0    0    0 -0.00000000000E+00 -0.00000000000E+00 -0.45593999997E+02  0.45594000000E+02  0.51100000000E-03 0.  1.
    9900012    2    1    2    0    0 -0.37817505396E+00 -0.86648069632E+00  0.70639735047E+00  0.90007829510E+02  0.90000092060E+02 0.  0.
        -12    1    1    2    0    0  0.37817505396E+00  0.86648069632E+00 -0.70639735047E+00  0.11801704899E+01  0.00000000000E+00 0.  1.
         11    1    3    3    0    0  0.13742055416E+01 -0.11157938929E+01 -0.89529079547E+01  0.91262258348E+01  0.51100000000E-03 0. -1.
        -11    1    3    3    0    0 -0.24591278089E+02  0.22639686826E+02 -0.18556246017E+02  0.38231147565E+02  0.51100000000E-03 0.  1.
         12    1    3    3    0    0  0.22838897493E+02 -0.22390373629E+02  0.28215551323E+02  0.42650456110E+02  0.00000000000E+00 0. -1.
</event>
<event>
 7    1  0.2385752E-015  0.9000715E+02  0.7816164E-02  0.1186340E+00
        -11   -1    0    0    0    0  0.00000000000E+00  0.00000000000E+00  0.45593999997E+02  0.45594000000E+02  0.51100000000E-03 0.  1.
         11   -1    0    0    0    0 -0.00000000000E+00 -0.00000000000E+00 -0.45593999997E+02  0.45594000000E+02  0.51100000000E-03 0. -1.
    9900012    2    1    2    0    0 -0.10379782815E+01  0.10729645397E+00 -0.55272393145E+00  0.90007146416E+02  0.89999399947E+02 0.  0.
        -12    1    1    2    0    0  0.10379782815E+01 -0.10729645397E+00  0.55272393145E+00  0.11808535837E+01  0.00000000000E+00 0.  1.
         11    1    3    3    0    0  0.31212474355E+01 -0.63316215476E+01  0.72203864781E+01  0.10097801648E+02  0.51100000000E-03 0. -1.
        -11    1    3    3    0    0  0.79233781537E+01  0.94983444800E+01  0.34071830227E+02  0.36247594189E+02  0.51100000000E-03 0.  1.
         12    1    3    3    0    0 -0.12082603871E+02 -0.30594264785E+01 -0.41844940637E+02  0.43661750578E+02  0.00000000000E+00 0. -1.
</event>
<event>
 7    1  0.2385752E-015  0.9000775E+02  0.7816164E-02  0.1186339E+00
        -11   -1    0    0    0    0  0.00000000000E+00  0.00000000000E+00  0.45593999997E+02  0.45594000000E+02  0.51100000000E-03 0.  1.
         11   -1    0    0    0    0 -0.00000000000E+00 -0.00000000000E+00 -0.45593999997E+02  0.45594000000E+02  0.51100000000E-03 0. -1.
    9900012    2    1    2    0    0  0.47293758501E+00 -0.48160727958E+00 -0.96817662411E+00  0.90007753625E+02  0.90000015172E+02 0.  0.
        -12    1    1    2    0    0 -0.47293758501E+00  0.48160727958E+00  0.96817662411E+00  0.11802463753E+01  0.00000000000E+00 0.  1.
         11    1    3    3    0    0 -0.12341301764E+02 -0.79883083964E+01  0.37053597947E+01  0.15160820945E+02  0.51100000000E-03 0. -1.
        -11    1    3    3    0    0  0.40878761755E+02 -0.28959587832E+01  0.89733051585E+01  0.41952114913E+02  0.51100000000E-03 0.  1.
         12    1    3    3    0    0 -0.28064522406E+02  0.10402659900E+02 -0.13646841577E+02  0.32894817767E+02  0.00000000000E+00 0. -1.
</event>
<event>
 7    1  0.2385752E-015  0.9000768E+02  0.7816164E-02  0.1186339E+00
        -11   -1    0    0    0    0  0.00000000000E+00  0.00000000000E+00  0.45593999997E+02  0.45594000000E+02  0.51100000000E-03 0.  1.
         11   -1    0    0    0    0 -0.00000000000E+00 -0.00000000000E+00 -0.45593999997E+02  0.45594000000E+02  0.51100000000E-03 0. -1.
    9900012    2    1    2    0    0 -0.77219048680E+00  0.36190049578E+00 -0.81602667762E+00  0.90007682392E+02  0.89999943000E+02 0.  0.
        -12    1    1    2    0    0  0.77219048680E+00 -0.36190049578E+00  0.81602667762E+00  0.11803176078E+01  0.00000000000E+00 0.  1.
         11    1    3    3    0    0 -0.27232905040E+01  0.25784324299E+01  0.86611483464E+01  0.94382263113E+01  0.51100000000E-03 0. -1.
        -11    1    3    3    0    0 -0.28295679176E+02 -0.68922501563E+01  0.22126413763E+02  0.36574947143E+02  0.51100000000E-03 0.  1.
         12    1    3    3    0    0  0.30246779193E+02  0.46757182222E+01 -0.31603588787E+02  0.43994508938E+02  0.00000000000E+00 0. -1.
</event>
<event>
 7    1  0.2385752E-015  0.9000775E+02  0.7816164E-02  0.1186339E+00
        -11   -1    0    0    0    0  0.00000000000E+00  0.00000000000E+00  0.45593999997E+02  0.45594000000E+02  0.51100000000E-03 0.  1.
         11   -1    0    0    0    0 -0.00000000000E+00 -0.00000000000E+00 -0.45593999997E+02  0.45594000000E+02  0.51100000000E-03 0. -1.
    9900012    2    1    2    0    0  0.90505738035E+00  0.65810041652E+00 -0.37517929775E+00  0.90007752346E+02  0.90000013877E+02 0.  0.
        -12    1    1    2    0    0 -0.90505738035E+00 -0.65810041652E+00  0.37517929775E+00  0.11802476543E+01  0.00000000000E+00 0.  1.
         11    1    3    3    0    0 -0.74357417666E+01 -0.35085523804E+02  0.78816193974E+01  0.36720623100E+02  0.51100000000E-03 0. -1.
        -11    1    3    3    0    0 -0.68239953225E+01 -0.38742826339E+01  0.44278629447E+01  0.90101580789E+01  0.51100000000E-03 0.  1.
        -12    1    3    3    0    0  0.15164794469E+02  0.39617906855E+02 -0.12684661640E+02  0.44276971167E+02  0.00000000000E+00 0.  1.
</event>
<event>
 7    1  0.2385752E-015  0.9000744E+02  0.7816164E-02  0.1186340E+00
        -11   -1    0    0    0    0  0.00000000000E+00  0.00000000000E+00  0.45593999997E+02  0.45594000000E+02  0.51100000000E-03 0. -1.
         11   -1    0    0    0    0 -0.00000000000E+00 -0.00000000000E+00 -0.45593999997E+02  0.45594000000E+02  0.51100000000E-03 0.  1.
    9900012    2    1    2    0    0  0.11565284424E+00  0.11748752089E+01  0.29549476096E-02  0.90007442476E+02  0.89999699916E+02 0.  0.
        -12    1    1    2    0    0 -0.11565284424E+00 -0.11748752089E+01 -0.29549476096E-02  0.11805575245E+01  0.00000000000E+00 0.  1.
         11    1    3    3    0    0  0.63386836671E+01  0.18954592427E+01  0.67077047575E+01  0.94215168496E+01  0.51100000000E-03 0. -1.
        -11    1    3    3    0    0 -0.39164240247E+02 -0.16300772982E+02  0.39918119993E+01  0.42608537610E+02  0.51100000000E-03 0.  1.
         12    1    3    3    0    0  0.32941209424E+02  0.15580188948E+02 -0.10696561809E+02  0.37977388016E+02  0.00000000000E+00 0. -1.
</event>
<event>
 7    1  0.2385752E-015  0.9000773E+02  0.7816164E-02  0.1186339E+00
        -11   -1    0    0    0    0  0.00000000000E+00  0.00000000000E+00  0.45593999997E+02  0.45594000000E+02  0.51100000000E-03 0.  1.
         11   -1    0    0    0    0 -0.00000000000E+00 -0.00000000000E+00 -0.45593999997E+02  0.45594000000E+02  0.51100000000E-03 0. -1.
    9900012    2    1    2    0    0  0.23688970868E+00 -0.10915447424E+01 -0.38138550637E+00  0.90007728183E+02  0.89999989395E+02 0.  0.
        -12    1    1    2    0    0 -0.23688970868E+00  0.10915447424E+01  0.38138550637E+00  0.11802718175E+01  0.00000000000E+00 0.  1.
         11    1    3    3    0    0  0.94994560611E+01  0.67898556326E+01  0.36524642858E+02  0.38345682171E+02  0.51100000000E-03 0. -1.
        -11    1    3    3    0    0  0.54151676974E+01  0.82680281821E+01 -0.13950875608E+01  0.99815129502E+01  0.51100000000E-03 0.  1.
        -12    1    3    3    0    0 -0.14677734050E+02 -0.16149428557E+02 -0.35510940804E+02  0.41680533062E+02  0.00000000000E+00 0.  1.
</event>
<event>
 7    1  0.2385752E-015  0.9000770E+02  0.7816164E-02  0.1186339E+00
        -11   -1    0    0    0    0  0.00000000000E+00  0.00000000000E+00  0.45593999997E+02  0.45594000000E+02  0.51100000000E-03 0.  1.
         11   -1    0    0    0    0 -0.00000000000E+00 -0.00000000000E+00 -0.45593999997E+02  0.45594000000E+02  0.51100000000E-03 0. -1.
    9900012    2    1    2    0    0  0.73769549725E+00 -0.50968085937E+00 -0.76755114337E+00  0.90007701740E+02  0.89999962603E+02 0.  0.
        -12    1    1    2    0    0 -0.73769549725E+00  0.50968085937E+00  0.76755114337E+00  0.11802982601E+01  0.00000000000E+00 0.  1.
         11    1    3    3    0    0 -0.19800699443E+01  0.91764838772E+01 -0.24139294497E+00  0.93907829359E+01  0.51100000000E-03 0. -1.
        -11    1    3    3    0    0 -0.44611134875E+01  0.29631215806E+02  0.19662213395E+02  0.35840104904E+02  0.51100000000E-03 0.  1.
         12    1    3    3    0    0  0.71788789291E+01 -0.39317380543E+02 -0.20188371593E+02  0.44776813900E+02  0.00000000000E+00 0. -1.
</event>
<event>
 7    1  0.2385752E-015  0.9000769E+02  0.7816164E-02  0.1186339E+00
        -11   -1    0    0    0    0  0.00000000000E+00  0.00000000000E+00  0.45593999997E+02  0.45594000000E+02  0.51100000000E-03 0. -1.
         11   -1    0    0    0    0 -0.00000000000E+00 -0.00000000000E+00 -0.45593999997E+02  0.45594000000E+02  0.51100000000E-03 0.  1.
    9900012    2    1    2    0    0  0.52136025109E+00  0.12589708654E+00  0.10514084256E+01  0.90007692301E+02  0.89999953039E+02 0.  0.
        -12    1    1    2    0    0 -0.52136025109E+00 -0.12589708654E+00 -0.10514084256E+01  0.11803076994E+01  0.00000000000E+00 0.  1.
         11    1    3    3    0    0  0.15490631303E+02 -0.36612666301E+02  0.14115206862E+02  0.42186325473E+02  0.51100000000E-03 0. -1.
        -11    1    3    3    0    0  0.62311023050E+01  0.59202797522E+01 -0.25686832878E+01  0.89707570681E+01  0.51100000000E-03 0.  1.
        -12    1    3    3    0    0 -0.21200373357E+02  0.30818283636E+02 -0.10495115149E+02  0.38850609760E+02  0.00000000000E+00 0.  1.
</event>
<event>
 7    1  0.2385752E-015  0.9000758E+02  0.7816164E-02  0.1186339E+00
        -11   -1    0    0    0    0  0.00000000000E+00  0.00000000000E+00  0.45593999997E+02  0.45594000000E+02  0.51100000000E-03 0. -1.
         11   -1    0    0    0    0 -0.00000000000E+00 -0.00000000000E+00 -0.45593999997E+02  0.45594000000E+02  0.51100000000E-03 0.  1.
    9900012    2    1    2    0    0  0.32039870631E+00 -0.27107618438E+00  0.11032915119E+01  0.90007580672E+02  0.89999839937E+02 0.  0.
        -12    1    1    2    0    0 -0.32039870631E+00  0.27107618438E+00 -0.11032915119E+01  0.11804193276E+01  0.00000000000E+00 0.  1.
         11    1    3    3    0    0 -0.11813651618E+02  0.48712425377E+01 -0.31592618627E+02  0.34079097998E+02  0.51100000000E-03 0. -1.
        -11    1    3    3    0    0 -0.12850043369E+02 -0.13844446417E+02  0.12608896915E+02  0.22710715375E+02  0.51100000000E-03 0.  1.
         12    1    3    3    0    0  0.24984093694E+02  0.87021276944E+01  0.20087013224E+02  0.33217767299E+02  0.00000000000E+00 0. -1.
</event>
<event>
 7    1  0.2385752E-015  0.9000774E+02  0.7816164E-02  0.1186339E+00
        -11   -1    0    0    0    0  0.00000000000E+00  0.00000000000E+00  0.45593999997E+02  0.45594000000E+02  0.51100000000E-03 0.  1.
         11   -1    0    0    0    0 -0.00000000000E+00 -0.00000000000E+00 -0.45593999997E+02  0.45594000000E+02  0.51100000000E-03 0. -1.
    9900012    2    1    2    0    0  0.65085504614E-01 -0.90566016575E+00 -0.75402985749E+00  0.90007738383E+02  0.89999999730E+02 0.  0.
        -12    1    1    2    0    0 -0.65085504614E-01  0.90566016575E+00  0.75402985749E+00  0.11802616171E+01  0.00000000000E+00 0.  1.
         11    1    3    3    0    0  0.33629138171E+02  0.18198766242E+02 -0.14983386254E+01  0.38266944557E+02  0.51100000000E-03 0. -1.
        -11    1    3    3    0    0  0.18810840518E+00  0.79957606978E+01 -0.23748913756E+01  0.83431219106E+01  0.51100000000E-03 0.  1.
        -12    1    3    3    0    0 -0.33752161071E+02 -0.27100187106E+02  0.31192001435E+01  0.43397671915E+02  0.00000000000E+00 0.  1.
</event>
<event>
 7    1  0.2385752E-015  0.9000765E+02  0.7816164E-02  0.1186339E+00
        -11   -1    0    0    0    0  0.00000000000E+00  0.00000000000E+00  0.45593999997E+02  0.45594000000E+02  0.51100000000E-03 0.  1.
         11   -1    0    0    0    0 -0.00000000000E+00 -0.00000000000E+00 -0.45593999997E+02  0.45594000000E+02  0.51100000000E-03 0. -1.
    9900012    2    1    2    0    0  0.10947218377E+01  0.90065887233E-01 -0.43209130603E+00  0.90007648077E+02  0.89999908231E+02 0.  0.
        -12    1    1    2    0    0 -0.10947218377E+01 -0.90065887233E-01  0.43209130603E+00  0.11803519233E+01  0.00000000000E+00 0.  1.
         11    1    3    3    0    0  0.11827851178E+02  0.12990028888E+02 -0.40556837960E+01  0.18030182620E+02  0.51100000000E-03 0. -1.
        -11    1    3    3    0    0  0.22463480371E+02  0.13515613690E+02 -0.89955537943E+01  0.27716416654E+02  0.51100000000E-03 0.  1.
         12    1    3    3    0    0 -0.33196609711E+02 -0.26415576691E+02  0.12619146284E+02  0.44261048803E+02  0.00000000000E+00 0. -1.
</event>
<event>
 7    1  0.2385752E-015  0.9000810E+02  0.7816164E-02  0.1186338E+00
        -11   -1    0    0    0    0  0.00000000000E+00  0.00000000000E+00  0.45593999997E+02  0.45594000000E+02  0.51100000000E-03 0.  1.
         11   -1    0    0    0    0 -0.00000000000E+00 -0.00000000000E+00 -0.45593999997E+02  0.45594000000E+02  0.51100000000E-03 0. -1.
    9900012    2    1    2    0    0 -0.74850060962E+00  0.43232183975E+00 -0.80311941854E+00  0.90008103337E+02  0.90000369500E+02 0.  0.
        -12    1    1    2    0    0  0.74850060962E+00 -0.43232183975E+00  0.80311941854E+00  0.11798966633E+01  0.00000000000E+00 0.  1.
         11    1    3    3    0    0 -0.18730845974E+02 -0.18298931142E+02 -0.19324652454E+02  0.32544395287E+02  0.51100000000E-03 0. -1.
        -11    1    3    3    0    0 -0.10649173083E+02 -0.56845033635E+01 -0.50247471040E+01  0.13075417759E+02  0.51100000000E-03 0.  1.
        -12    1    3    3    0    0  0.28631518448E+02  0.24415756345E+02  0.23546280140E+02  0.44388290291E+02  0.00000000000E+00 0.  1.
</event>
<event>
 7    1  0.2385752E-015  0.9000778E+02  0.7816164E-02  0.1186339E+00
        -11   -1    0    0    0    0  0.00000000000E+00  0.00000000000E+00  0.45593999997E+02  0.45594000000E+02  0.51100000000E-03 0. -1.
         11   -1    0    0    0    0 -0.00000000000E+00 -0.00000000000E+00 -0.45593999997E+02  0.45594000000E+02  0.51100000000E-03 0.  1.
    9900012    2    1    2    0    0 -0.23617689257E+00 -0.11558258848E+01  0.34834681378E-01  0.90007776947E+02  0.90000038802E+02 0.  0.
        -12    1    1    2    0    0  0.23617689257E+00  0.11558258848E+01 -0.34834681378E-01  0.11802230533E+01  0.00000000000E+00 0.  1.
         11    1    3    3    0    0 -0.37175284311E+00 -0.18059566014E+01  0.66050125298E+01  0.68575411193E+01  0.51100000000E-03 0. -1.
        -11    1    3    3    0    0 -0.15052094170E+02  0.37252188313E+02  0.79288310966E+01  0.40953112651E+02  0.51100000000E-03 0.  1.
         12    1    3    3    0    0  0.15187670121E+02 -0.36602057596E+02 -0.14499008945E+02  0.42197123176E+02  0.00000000000E+00 0. -1.
</event>
<event>
 7    1  0.2385752E-015  0.9000775E+02  0.7816164E-02  0.1186339E+00
        -11   -1    0    0    0    0  0.00000000000E+00  0.00000000000E+00  0.45593999997E+02  0.45594000000E+02  0.51100000000E-03 0. -1.
         11   -1    0    0    0    0 -0.00000000000E+00 -0.00000000000E+00 -0.45593999997E+02  0.45594000000E+02  0.51100000000E-03 0.  1.
    9900012    2    1    2    0    0 -0.11430800462E+00  0.11594359734E+01 -0.18875811580E+00  0.90007750991E+02  0.90000012504E+02 0.  0.
        -12    1    1    2    0    0  0.11430800462E+00 -0.11594359734E+01  0.18875811580E+00  0.11802490087E+01  0.00000000000E+00 0.  1.
         11    1    3    3    0    0 -0.49653435004E+01  0.84772055742E+01 -0.32184850260E+01  0.10338099272E+02  0.51100000000E-03 0. -1.
        -11    1    3    3    0    0  0.11223745512E+01  0.20013615086E+01 -0.37675413767E+02  0.37745224537E+02  0.51100000000E-03 0.  1.
         12    1    3    3    0    0  0.37286609445E+01 -0.93191311095E+01  0.40705140677E+02  0.41924427183E+02  0.00000000000E+00 0. -1.
</event>
<event>
 7    1  0.2385752E-015  0.9000775E+02  0.7816164E-02  0.1186339E+00
        -11   -1    0    0    0    0  0.00000000000E+00  0.00000000000E+00  0.45593999997E+02  0.45594000000E+02  0.51100000000E-03 0.  1.
         11   -1    0    0    0    0 -0.00000000000E+00 -0.00000000000E+00 -0.45593999997E+02  0.45594000000E+02  0.51100000000E-03 0. -1.
    9900012    2    1    2    0    0 -0.11233868690E+00  0.49863100172E+00 -0.10638265115E+01  0.90007754389E+02  0.90000015947E+02 0.  0.
        -12    1    1    2    0    0  0.11233868690E+00 -0.49863100172E+00  0.10638265115E+01  0.11802456113E+01  0.00000000000E+00 0.  1.
         11    1    3    3    0    0  0.53909061575E+01 -0.47452500803E+01  0.84173348354E+01  0.11064844939E+02  0.51100000000E-03 0. -1.
        -11    1    3    3    0    0 -0.87734688868E+01  0.11544004180E+01  0.34007598485E+02  0.35140050535E+02  0.51100000000E-03 0.  1.
         12    1    3    3    0    0  0.32702240425E+01  0.40894806640E+01 -0.43488759832E+02  0.43802858915E+02  0.00000000000E+00 0. -1.
</event>
<event>
 7    1  0.2385752E-015  0.9000780E+02  0.7816164E-02  0.1186339E+00
        -11   -1    0    0    0    0  0.00000000000E+00  0.00000000000E+00  0.45593999997E+02  0.45594000000E+02  0.51100000000E-03 0. -1.
         11   -1    0    0    0    0 -0.00000000000E+00 -0.00000000000E+00 -0.45593999997E+02  0.45594000000E+02  0.51100000000E-03 0.  1.
    9900012    2    1    2    0    0 -0.91229867474E+00  0.16219666674E+00  0.73093355902E+00  0.90007804890E+02  0.90000067114E+02 0.  0.
        -12    1    1    2    0    0  0.91229867474E+00 -0.16219666674E+00 -0.73093355902E+00  0.11801951103E+01  0.00000000000E+00 0.  1.
         11    1    3    3    0    0 -0.14894369527E+02  0.23423218384E+02 -0.32570476282E+00  0.27759601706E+02  0.51100000000E-03 0. -1.
        -11    1    3    3    0    0 -0.19475194877E+02  0.23084991639E+01 -0.33988941772E+01  0.19903890720E+02  0.51100000000E-03 0.  1.
         12    1    3    3    0    0  0.33457265729E+02 -0.25569520881E+02  0.44555324990E+01  0.42344312463E+02  0.00000000000E+00 0. -1.
</event>
<event>
 7    1  0.2385752E-015  0.9000754E+02  0.7816164E-02  0.1186339E+00
        -11   -1    0    0    0    0  0.00000000000E+00  0.00000000000E+00  0.45593999997E+02  0.45594000000E+02  0.51100000000E-03 0.  1.
         11   -1    0    0    0    0 -0.00000000000E+00 -0.00000000000E+00 -0.45593999997E+02  0.45594000000E+02  0.51100000000E-03 0. -1.
    9900012    2    1    2    0    0 -0.59100114463E+00  0.10088157486E+01 -0.16279935434E+00  0.90007536025E+02  0.89999794700E+02 0.  0.
        -12    1    1    2    0    0  0.59100114463E+00 -0.10088157486E+01  0.16279935434E+00  0.11804639755E+01  0.00000000000E+00 0.  1.
         11    1    3    3    0    0  0.80376998263E+00  0.40934442553E+01 -0.11115584616E+02  0.11872596753E+02  0.51100000000E-03 0. -1.
        -11    1    3    3    0    0  0.26932880021E+02 -0.19790452414E+02  0.25633385381E+02  0.42120214617E+02  0.51100000000E-03 0.  1.
         12    1    3    3    0    0 -0.28327651149E+02  0.16705823908E+02 -0.14680600120E+02  0.36014724654E+02  0.00000000000E+00 0. -1.
</event>
<event>
 7    1  0.2385752E-015  0.9000779E+02  0.7816164E-02  0.1186339E+00
        -11   -1    0    0    0    0  0.00000000000E+00  0.00000000000E+00  0.45593999997E+02  0.45594000000E+02  0.51100000000E-03 0.  1.
         11   -1    0    0    0    0 -0.00000000000E+00 -0.00000000000E+00 -0.45593999997E+02  0.45594000000E+02  0.51100000000E-03 0. -1.
    9900012    2    1    2    0    0 -0.32687895230E+00  0.63845327508E+00 -0.93724789234E+00  0.90007785593E+02  0.90000047563E+02 0.  0.
        -12    1    1    2    0    0  0.32687895230E+00 -0.63845327508E+00  0.93724789234E+00  0.11802144066E+01  0.00000000000E+00 0.  1.
         11    1    3    3    0    0 -0.16924776042E+02 -0.34169737105E+01 -0.27909045655E+02  0.32818265997E+02  0.51100000000E-03 0. -1.
        -11    1    3    3    0    0 -0.61558087860E+01 -0.14368717434E+02 -0.22867239615E+01  0.15798200190E+02  0.51100000000E-03 0.  1.
        -12    1    3    3    0    0  0.22753705876E+02  0.18424144419E+02  0.29258521724E+02  0.41391319406E+02  0.00000000000E+00 0.  1.
</event>
<event>
 7    1  0.2385752E-015  0.9000775E+02  0.7816164E-02  0.1186339E+00
        -11   -1    0    0    0    0  0.00000000000E+00  0.00000000000E+00  0.45593999997E+02  0.45594000000E+02  0.51100000000E-03 0. -1.
         11   -1    0    0    0    0 -0.00000000000E+00 -0.00000000000E+00 -0.45593999997E+02  0.45594000000E+02  0.51100000000E-03 0.  1.
    9900012    2    1    2    0    0  0.11495013813E+01  0.25768425603E+00  0.72290440190E-01  0.90007754047E+02  0.90000015601E+02 0.  0.
        -12    1    1    2    0    0 -0.11495013813E+01 -0.25768425603E+00 -0.72290440190E-01  0.11802459529E+01  0.00000000000E+00 0.  1.
         11    1    3    3    0    0  0.21580702590E+02  0.14972651969E+02  0.26260213115E+02  0.37141699266E+02  0.51100000000E-03 0. -1.
        -11    1    3    3    0    0 -0.40286284033E+01 -0.12397362518E+02  0.77043430419E+01  0.15142039037E+02  0.51100000000E-03 0.  1.
        -12    1    3    3    0    0 -0.16402572805E+02 -0.23176051949E+01 -0.33892265716E+02  0.37724015744E+02  0.00000000000E+00 0.  1.
</event>
<event>
 7    1  0.2385752E-015  0.9000758E+02  0.7816164E-02  0.1186339E+00
        -11   -1    0    0    0    0  0.00000000000E+00  0.00000000000E+00  0.45593999997E+02  0.45594000000E+02  0.51100000000E-03 0. -1.
         11   -1    0    0    0    0 -0.00000000000E+00 -0.00000000000E+00 -0.45593999997E+02  0.45594000000E+02  0.51100000000E-03 0.  1.
    9900012    2    1    2    0    0  0.27053483446E+00 -0.10328160460E+01  0.50348672510E+00  0.90007577633E+02  0.89999836858E+02 0.  0.
        -12    1    1    2    0    0 -0.27053483446E+00  0.10328160460E+01 -0.50348672510E+00  0.11804223668E+01  0.00000000000E+00 0.  1.
         11    1    3    3    0    0 -0.84182647457E+01  0.12946002246E+01  0.17619664095E+01  0.86975684510E+01  0.51100000000E-03 0. -1.
        -11    1    3    3    0    0 -0.33016110015E+02  0.14458221875E+02  0.29136676817E+01  0.36160657626E+02  0.51100000000E-03 0.  1.
         12    1    3    3    0    0  0.41704909595E+02 -0.16785638145E+02 -0.41721473662E+01  0.45149351556E+02  0.00000000000E+00 0. -1.
</event>
<event>
 7    1  0.2385752E-015  0.9000776E+02  0.7816164E-02  0.1186339E+00
        -11   -1    0    0    0    0  0.00000000000E+00  0.00000000000E+00  0.45593999997E+02  0.45594000000E+02  0.51100000000E-03 0. -1.
         11   -1    0    0    0    0 -0.00000000000E+00 -0.00000000000E+00 -0.45593999997E+02  0.45594000000E+02  0.51100000000E-03 0.  1.
    9900012    2    1    2    0    0 -0.40802841043E+00  0.74450256990E+00  0.81987884659E+00  0.90007757405E+02  0.90000019003E+02 0.  0.
        -12    1    1    2    0    0  0.40802841043E+00 -0.74450256990E+00 -0.81987884659E+00  0.11802425951E+01  0.00000000000E+00 0.  1.
         11    1    3    3    0    0  0.93459864366E+01 -0.16685709787E+01 -0.10056020313E+02  0.13829502391E+02  0.51100000000E-03 0. -1.
        -11    1    3    3    0    0  0.11385437506E+02 -0.38705010218E+01 -0.28563519267E+02  0.30991669825E+02  0.51100000000E-03 0.  1.
         12    1    3    3    0    0 -0.21139452353E+02  0.62835745704E+01  0.39439418427E+02  0.45186585189E+02  0.00000000000E+00 0. -1.
</event>
<event>
 7    1  0.2385752E-015  0.9000767E+02  0.7816164E-02  0.1186339E+00
        -11   -1    0    0    0    0  0.00000000000E+00  0.00000000000E+00  0.45593999997E+02  0.45594000000E+02  0.51100000000E-03 0.  1.
         11   -1    0    0    0    0 -0.00000000000E+00 -0.00000000000E+00 -0.45593999997E+02  0.45594000000E+02  0.51100000000E-03 0. -1.
    9900012    2    1    2    0    0  0.65783374141E+00 -0.78892885778E+00  0.58140428399E+00  0.90007667456E+02  0.89999927866E+02 0.  0.
        -12    1    1    2    0    0 -0.65783374141E+00  0.78892885778E+00 -0.58140428399E+00  0.11803325444E+01  0.00000000000E+00 0.  1.
         11    1    3    3    0    0 -0.45216750842E+01  0.19338039706E+01 -0.61589296734E+01  0.78814693013E+01  0.51100000000E-03 0. -1.
        -11    1    3    3    0    0 -0.89157259042E+01  0.15805808428E+02  0.38608262971E+02  0.42660423326E+02  0.51100000000E-03 0.  1.
         12    1    3    3    0    0  0.14095234730E+02 -0.18528541256E+02 -0.31867929014E+02  0.39465774828E+02  0.00000000000E+00 0. -1.
</event>
<event>
 7    1  0.2385752E-015  0.9000785E+02  0.7816164E-02  0.1186339E+00
        -11   -1    0    0    0    0  0.00000000000E+00  0.00000000000E+00  0.45593999997E+02  0.45594000000E+02  0.51100000000E-03 0.  1.
         11   -1    0    0    0    0 -0.00000000000E+00 -0.00000000000E+00 -0.45593999997E+02  0.45594000000E+02  0.51100000000E-03 0. -1.
    9900012    2    1    2    0    0 -0.77024676999E+00  0.32918331536E+00 -0.83132962082E+00  0.90007851416E+02  0.90000114255E+02 0.  0.
        -12    1    1    2    0    0  0.77024676999E+00 -0.32918331536E+00  0.83132962082E+00  0.11801485840E+01  0.00000000000E+00 0.  1.
         11    1    3    3    0    0  0.23610648207E+02 -0.27581762287E+02  0.16145619143E+02  0.39735341163E+02  0.51100000000E-03 0. -1.
        -11    1    3    3    0    0 -0.72516299830E+01 -0.33969033323E+01  0.39213035003E+01  0.89163732011E+01  0.51100000000E-03 0.  1.
        -12    1    3    3    0    0 -0.17129264994E+02  0.31307848934E+02 -0.20898252264E+02  0.41356137052E+02  0.00000000000E+00 0.  1.
</event>
<event>
 7    1  0.2385752E-015  0.9000775E+02  0.7816164E-02  0.1186339E+00
        -11   -1    0    0    0    0  0.00000000000E+00  0.00000000000E+00  0.45593999997E+02  0.45594000000E+02  0.51100000000E-03 0.  1.
         11   -1    0    0    0    0 -0.00000000000E+00 -0.00000000000E+00 -0.45593999997E+02  0.45594000000E+02  0.51100000000E-03 0. -1.
    9900012    2    1    2    0    0 -0.10060696734E+01  0.21879921088E+00  0.57701292320E+00  0.90007748673E+02  0.90000010155E+02 0.  0.
        -12    1    1    2    0    0  0.10060696734E+01 -0.21879921088E+00 -0.57701292320E+00  0.11802513275E+01  0.00000000000E+00 0.  1.
         11    1    3    3    0    0  0.25109029988E+01 -0.71343240712E+01 -0.90984982944E+01  0.11831563096E+02  0.51100000000E-03 0. -1.
        -11    1    3    3    0    0  0.48519514577E+01  0.31403283768E+02 -0.21166493841E+02  0.38180205947E+02  0.51100000000E-03 0.  1.
         12    1    3    3    0    0 -0.83689241300E+01 -0.24050160486E+02  0.30842005058E+02  0.39995979629E+02  0.00000000000E+00 0. -1.
</event>
<event>
 7    1  0.2385752E-015  0.9000772E+02  0.7816164E-02  0.1186339E+00
        -11   -1    0    0    0    0  0.00000000000E+00  0.00000000000E+00  0.45593999997E+02  0.45594000000E+02  0.51100000000E-03 0. -1.
         11   -1    0    0    0    0 -0.00000000000E+00 -0.00000000000E+00 -0.45593999997E+02  0.45594000000E+02  0.51100000000E-03 0.  1.
    9900012    2    1    2    0    0 -0.38551216446E+00  0.10888676510E+01  0.24249681688E+00  0.90007721602E+02  0.89999982727E+02 0.  0.
        -12    1    1    2    0    0  0.38551216446E+00 -0.10888676510E+01 -0.24249681688E+00  0.11802783979E+01  0.00000000000E+00 0.  1.
         11    1    3    3    0    0  0.57626257019E+01  0.29586389774E+00  0.23111349107E-01  0.57702621103E+01  0.51100000000E-03 0. -1.
        -11    1    3    3    0    0  0.34405681497E+02 -0.12577196629E+02 -0.14021740530E+02  0.39224303716E+02  0.51100000000E-03 0.  1.
         12    1    3    3    0    0 -0.40553819363E+02  0.13370200382E+02  0.14241125997E+02  0.45013155775E+02  0.00000000000E+00 0. -1.
</event>
<event>
 7    1  0.2385752E-015  0.9000777E+02  0.7816164E-02  0.1186339E+00
        -11   -1    0    0    0    0  0.00000000000E+00  0.00000000000E+00  0.45593999997E+02  0.45594000000E+02  0.51100000000E-03 0. -1.
         11   -1    0    0    0    0 -0.00000000000E+00 -0.00000000000E+00 -0.45593999997E+02  0.45594000000E+02  0.51100000000E-03 0.  1.
    9900012    2    1    2    0    0  0.12743801561E-01  0.11792164603E+01  0.47203035952E-01  0.90007770365E+02  0.90000032134E+02 0.  0.
        -12    1    1    2    0    0 -0.12743801561E-01 -0.11792164603E+01 -0.47203035952E-01  0.11802296350E+01  0.00000000000E+00 0.  1.
         11    1    3    3    0    0  0.17103983833E+01 -0.55868152904E+01 -0.76553781391E+01  0.96303054174E+01  0.51100000000E-03 0. -1.
        -11    1    3    3    0    0 -0.34204835127E+02  0.24852788335E+02  0.86902793387E+01  0.43164253605E+02  0.51100000000E-03 0.  1.
         12    1    3    3    0    0  0.32507180545E+02 -0.18086756584E+02 -0.98769816365E+00  0.37213211342E+02  0.00000000000E+00 0. -1.
</event>
<event>
 7    1  0.2385752E-015  0.9000790E+02  0.7816164E-02  0.1186339E+00
        -11   -1    0    0    0    0  0.00000000000E+00  0.00000000000E+00  0.45593999997E+02  0.45594000000E+02  0.51100000000E-03 0.  1.
         11   -1    0    0    0    0 -0.00000000000E+00 -0.00000000000E+00 -0.45593999997E+02  0.45594000000E+02  0.51100000000E-03 0. -1.
    9900012    2    1    2    0    0  0.18906370658E+00  0.46044264906E+00 -0.10699963191E+01  0.90007896343E+02  0.90000159775E+02 0.  0.
        -12    1    1    2    0    0 -0.18906370658E+00 -0.46044264906E+00  0.10699963191E+01  0.11801036569E+01  0.00000000000E+00 0.  1.
         11    1    3    3    0    0  0.23894252296E+02 -0.86642080562E+01 -0.29815065939E+02  0.39178335228E+02  0.51100000000E-03 0. -1.
        -11    1    3    3    0    0 -0.10400789627E+01  0.10640268178E+01 -0.73245065644E+01  0.74741095784E+01  0.51100000000E-03 0.  1.
        -12    1    3    3    0    0 -0.22665109627E+02  0.80606238875E+01  0.36069576184E+02  0.43355451537E+02  0.00000000000E+00 0.  1.
</event>
<event>
 7    1  0.2385752E-015  0.9000766E+02  0.7816164E-02  0.1186339E+00
        -11   -1    0    0    0    0  0.00000000000E+00  0.00000000000E+00  0.45593999997E+02  0.45594000000E+02  0.51100000000E-03 0.  1.
         11   -1    0    0    0    0 -0.00000000000E+00 -0.00000000000E+00 -0.45593999997E+02  0.45594000000E+02  0.51100000000E-03 0. -1.
    9900012    2    1    2    0    0 -0.89811857604E+00  0.72484237840E+00  0.24734391524E+00  0.90007664259E+02  0.89999924627E+02 0.  0.
        -12    1    1    2    0    0  0.89811857604E+00 -0.72484237840E+00 -0.24734391524E+00  0.11803357415E+01  0.00000000000E+00 0.  1.
         11    1    3    3    0    0  0.42096441741E+01  0.45704516522E+01  0.50565811932E+01  0.80111888008E+01  0.51100000000E-03 0. -1.
        -11    1    3    3    0    0 -0.55962857346E+01 -0.20331335314E+02  0.33898027291E+02  0.39921897051E+02  0.51100000000E-03 0.  1.
         12    1    3    3    0    0  0.48852298442E+00  0.16485726040E+02 -0.38707264568E+02  0.42074578407E+02  0.00000000000E+00 0. -1.
</event>
<event>
 7    1  0.2385752E-015  0.9000771E+02  0.7816164E-02  0.1186339E+00
        -11   -1    0    0    0    0  0.00000000000E+00  0.00000000000E+00  0.45593999997E+02  0.45594000000E+02  0.51100000000E-03 0. -1.
         11   -1    0    0    0    0 -0.00000000000E+00 -0.00000000000E+00 -0.45593999997E+02  0.45594000000E+02  0.51100000000E-03 0.  1.
    9900012    2    1    2    0    0 -0.68424554109E+00 -0.40340708835E+00  0.87301112507E+00  0.90007712889E+02  0.89999973899E+02 0.  0.
        -12    1    1    2    0    0  0.68424554109E+00  0.40340708835E+00 -0.87301112507E+00  0.11802871108E+01  0.00000000000E+00 0.  1.
         11    1    3    3    0    0  0.12821614409E+01 -0.76765128989E+01 -0.59749441881E+01  0.98118676387E+01  0.51100000000E-03 0. -1.
        -11    1    3    3    0    0  0.25499955715E+02  0.27626991491E+02 -0.14041157053E+02  0.40132935252E+02  0.51100000000E-03 0.  1.
         12    1    3    3    0    0 -0.27466362697E+02 -0.20353885680E+02  0.20889112366E+02  0.40062909998E+02  0.00000000000E+00 0. -1.
</event>
<event>
 7    1  0.3004307E-015  0.9000763E+02  0.7816164E-02  0.1186339E+00
        -11   -1    0    0    0    0  0.00000000000E+00  0.00000000000E+00  0.45593999997E+02  0.45594000000E+02  0.51100000000E-03 0.  1.
         11   -1    0    0    0    0 -0.00000000000E+00 -0.00000000000E+00 -0.45593999997E+02  0.45594000000E+02  0.51100000000E-03 0. -1.
    9900012    2    1    2    0    0 -0.84019322454E+00  0.82780263020E+00  0.45727887913E-01  0.90007630190E+02  0.89999890108E+02 0.  0.
        -12    1    1    2    0    0  0.84019322454E+00 -0.82780263020E+00 -0.45727887913E-01  0.11803698102E+01  0.00000000000E+00 0.  1.
         11    1    3    3    0    0 -0.39966089524E+01  0.40496547034E+02  0.82169864797E+00  0.40701577288E+02  0.51100000000E-03 0. -1.
        -11    1    3    3    0    0  0.45792339949E+01 -0.88739010449E+00 -0.85388555698E+01  0.97297944419E+01  0.51100000000E-03 0.  1.
        -12    1    3    3    0    0 -0.14228182671E+01 -0.38781354299E+02  0.77628848097E+01  0.39576258460E+02  0.00000000000E+00 0.  1.
</event>
<event>
 7    1  0.2385752E-015  0.9000773E+02  0.7816164E-02  0.1186339E+00
        -11   -1    0    0    0    0  0.00000000000E+00  0.00000000000E+00  0.45593999997E+02  0.45594000000E+02  0.51100000000E-03 0. -1.
         11   -1    0    0    0    0 -0.00000000000E+00 -0.00000000000E+00 -0.45593999997E+02  0.45594000000E+02  0.51100000000E-03 0.  1.
    9900012    2    1    2    0    0  0.85424515520E+00  0.16001848218E-01  0.81427336102E+00  0.90007732255E+02  0.89999993520E+02 0.  0.
        -12    1    1    2    0    0 -0.85424515520E+00 -0.16001848218E-01 -0.81427336102E+00  0.11802677454E+01  0.00000000000E+00 0.  1.
         11    1    3    3    0    0  0.40290668174E+01  0.86939002559E+01  0.11026406878E+01  0.96453666507E+01  0.51100000000E-03 0. -1.
        -11    1    3    3    0    0  0.29185776616E+02  0.15362346128E+02 -0.16539826024E+02  0.36896843773E+02  0.51100000000E-03 0.  1.
         12    1    3    3    0    0 -0.32360598278E+02 -0.24040244536E+02  0.16251458698E+02  0.43465521831E+02  0.00000000000E+00 0. -1.
</event>
<event>
 7    1  0.2385752E-015  0.9000763E+02  0.7816164E-02  0.1186339E+00
        -11   -1    0    0    0    0  0.00000000000E+00  0.00000000000E+00  0.45593999997E+02  0.45594000000E+02  0.51100000000E-03 0. -1.
         11   -1    0    0    0    0 -0.00000000000E+00 -0.00000000000E+00 -0.45593999997E+02  0.45594000000E+02  0.51100000000E-03 0.  1.
    9900012    2    1    2    0    0 -0.14879747149E+00 -0.44081990974E+00  0.10848102577E+01  0.90007628798E+02  0.89999888698E+02 0.  0.
        -12    1    1    2    0    0  0.14879747149E+00  0.44081990974E+00 -0.10848102577E+01  0.11803712025E+01  0.00000000000E+00 0.  1.
         11    1    3    3    0    0  0.26269545875E+02  0.25920643843E+02  0.77571255112E+01  0.37711295578E+02  0.51100000000E-03 0. -1.
        -11    1    3    3    0    0  0.67750982991E+01 -0.71812416282E+01  0.64307051514E+01  0.11782451243E+02  0.51100000000E-03 0.  1.
        -12    1    3    3    0    0 -0.33193441646E+02 -0.19180222125E+02 -0.13103020405E+02  0.40513881976E+02  0.00000000000E+00 0.  1.
</event>
<event>
 7    1  0.2385752E-015  0.9000778E+02  0.7816164E-02  0.1186339E+00
        -11   -1    0    0    0    0  0.00000000000E+00  0.00000000000E+00  0.45593999997E+02  0.45594000000E+02  0.51100000000E-03 0. -1.
         11   -1    0    0    0    0 -0.00000000000E+00 -0.00000000000E+00 -0.45593999997E+02  0.45594000000E+02  0.51100000000E-03 0.  1.
    9900012    2    1    2    0    0  0.56171297509E+00 -0.94905667952E+00  0.42035631294E+00  0.90007775667E+02  0.90000037505E+02 0.  0.
        -12    1    1    2    0    0 -0.56171297509E+00  0.94905667952E+00 -0.42035631294E+00  0.11802243334E+01  0.00000000000E+00 0.  1.
         11    1    3    3    0    0  0.61643974242E+01 -0.20629913847E+02  0.30259470153E+02  0.37137968107E+02  0.51100000000E-03 0. -1.
        -11    1    3    3    0    0 -0.89148488889E+01 -0.99422826964E+00  0.63980958375E+01  0.11018105607E+02  0.51100000000E-03 0.  1.
        -12    1    3    3    0    0  0.33121644397E+01  0.20675085437E+02 -0.36237209677E+02  0.41851701952E+02  0.00000000000E+00 0.  1.
</event>
<event>
 7    1  0.2385752E-015  0.9000787E+02  0.7816164E-02  0.1186339E+00
        -11   -1    0    0    0    0  0.00000000000E+00  0.00000000000E+00  0.45593999997E+02  0.45594000000E+02  0.51100000000E-03 0.  1.
         11   -1    0    0    0    0 -0.00000000000E+00 -0.00000000000E+00 -0.45593999997E+02  0.45594000000E+02  0.51100000000E-03 0. -1.
    9900012    2    1    2    0    0  0.77222405940E+00 -0.32061038754E+00 -0.83281312098E+00  0.90007873433E+02  0.90000136563E+02 0.  0.
        -12    1    1    2    0    0 -0.77222405940E+00  0.32061038754E+00  0.83281312098E+00  0.11801265665E+01  0.00000000000E+00 0.  1.
         11    1    3    3    0    0  0.24433003350E+01 -0.74693952333E+01 -0.26967523031E+01  0.83086734755E+01  0.51100000000E-03 0. -1.
        -11    1    3    3    0    0  0.33268865170E+02 -0.17383644682E+02  0.85187315940E+01  0.38491262390E+02  0.51100000000E-03 0.  1.
         12    1    3    3    0    0 -0.34939941446E+02  0.24532429528E+02 -0.66547924120E+01  0.43207937568E+02  0.00000000000E+00 0. -1.
</event>
<event>
 7    1  0.2385752E-015  0.9000773E+02  0.7816164E-02  0.1186339E+00
        -11   -1    0    0    0    0  0.00000000000E+00  0.00000000000E+00  0.45593999997E+02  0.45594000000E+02  0.51100000000E-03 0.  1.
         11   -1    0    0    0    0 -0.00000000000E+00 -0.00000000000E+00 -0.45593999997E+02  0.45594000000E+02  0.51100000000E-03 0. -1.
    9900012    2    1    2    0    0 -0.31469850027E+00  0.12418634175E+00 -0.11307385870E+01  0.90007734290E+02  0.89999995583E+02 0.  0.
        -12    1    1    2    0    0  0.31469850027E+00 -0.12418634175E+00  0.11307385870E+01  0.11802657098E+01  0.00000000000E+00 0.  1.
         11    1    3    3    0    0 -0.10571104117E+01  0.10073105027E+02 -0.64357782612E+01  0.12000173723E+02  0.51100000000E-03 0. -1.
        -11    1    3    3    0    0  0.24278461016E+02  0.12287297878E+02  0.27550907001E+02  0.38723040109E+02  0.51100000000E-03 0.  1.
         12    1    3    3    0    0 -0.23536049104E+02 -0.22236216563E+02 -0.22245867327E+02  0.39284520458E+02  0.00000000000E+00 0. -1.
</event>
<event>
 7    1  0.2385752E-015  0.9000776E+02  0.7816164E-02  0.1186339E+00
        -11   -1    0    0    0    0  0.00000000000E+00  0.00000000000E+00  0.45593999997E+02  0.45594000000E+02  0.51100000000E-03 0. -1.
         11   -1    0    0    0    0 -0.00000000000E+00 -0.00000000000E+00 -0.45593999997E+02  0.45594000000E+02  0.51100000000E-03 0.  1.
    9900012    2    1    2    0    0  0.48899975820E+00 -0.77830583168E+00  0.74032704688E+00  0.90007760674E+02  0.90000022315E+02 0.  0.
        -12    1    1    2    0    0 -0.48899975820E+00  0.77830583168E+00 -0.74032704688E+00  0.11802393264E+01  0.00000000000E+00 0.  1.
         11    1    3    3    0    0  0.62227372607E+01 -0.49816112666E+01  0.59276332226E+01  0.99335666157E+01  0.51100000000E-03 0. -1.
        -11    1    3    3    0    0  0.72688186804E+01 -0.35742979771E+02 -0.99193241530E+01  0.37799329621E+02  0.51100000000E-03 0.  1.
         12    1    3    3    0    0 -0.13002556183E+02  0.39946285206E+02  0.47320179773E+01  0.42274864437E+02  0.00000000000E+00 0. -1.
</event>
<event>
 7    1  0.2385752E-015  0.9000772E+02  0.7816164E-02  0.1186339E+00
        -11   -1    0    0    0    0  0.00000000000E+00  0.00000000000E+00  0.45593999997E+02  0.45594000000E+02  0.51100000000E-03 0.  1.
         11   -1    0    0    0    0 -0.00000000000E+00 -0.00000000000E+00 -0.45593999997E+02  0.45594000000E+02  0.51100000000E-03 0. -1.
    9900012    2    1    2    0    0  0.38402198825E+00 -0.12866128136E+00 -0.11086170289E+01  0.90007721080E+02  0.89999982198E+02 0.  0.
        -12    1    1    2    0    0 -0.38402198825E+00  0.12866128136E+00  0.11086170289E+01  0.11802789202E+01  0.00000000000E+00 0.  1.
         11    1    3    3    0    0 -0.82062873738E+01 -0.33917394639E+01  0.35555127159E+01  0.95649736009E+01  0.51100000000E-03 0. -1.
        -11    1    3    3    0    0 -0.39284144855E+01 -0.20816084186E+02  0.29808663401E+02  0.36569088247E+02  0.51100000000E-03 0.  1.
         12    1    3    3    0    0  0.12518723848E+02  0.24079162369E+02 -0.34472793146E+02  0.43873659232E+02  0.00000000000E+00 0. -1.
</event>
<event>
 7    1  0.2385752E-015  0.9000774E+02  0.7816164E-02  0.1186339E+00
        -11   -1    0    0    0    0  0.00000000000E+00  0.00000000000E+00  0.45593999997E+02  0.45594000000E+02  0.51100000000E-03 0.  1.
         11   -1    0    0    0    0 -0.00000000000E+00 -0.00000000000E+00 -0.45593999997E+02  0.45594000000E+02  0.51100000000E-03 0. -1.
    9900012    2    1    2    0    0 -0.10286007761E+01  0.46418138003E+00 -0.34571605811E+00  0.90007744306E+02  0.90000005731E+02 0.  0.
        -12    1    1    2    0    0  0.10286007761E+01 -0.46418138003E+00  0.34571605811E+00  0.11802556939E+01  0.00000000000E+00 0.  1.
         11    1    3    3    0    0 -0.11958301947E+02  0.41209152926E+01 -0.31639975307E+02  0.34074491427E+02  0.51100000000E-03 0. -1.
        -11    1    3    3    0    0 -0.37179249960E+01 -0.29052355084E+01 -0.10569340991E+02  0.11574728026E+02  0.51100000000E-03 0.  1.
        -12    1    3    3    0    0  0.14647626167E+02 -0.75149840415E+00  0.41863600239E+02  0.44358524854E+02  0.00000000000E+00 0.  1.
</event>
<event>
 7    1  0.2941517E-015  0.9000782E+02  0.7816164E-02  0.1186339E+00
        -11   -1    0    0    0    0  0.00000000000E+00  0.00000000000E+00  0.45593999997E+02  0.45594000000E+02  0.51100000000E-03 0. -1.
         11   -1    0    0    0    0 -0.00000000000E+00 -0.00000000000E+00 -0.45593999997E+02  0.45594000000E+02  0.51100000000E-03 0.  1.
    9900012    2    1    2    0    0  0.39231815967E+00 -0.10605797408E+01  0.33775076194E+00  0.90007822682E+02  0.90000085141E+02 0.  0.
        -12    1    1    2    0    0 -0.39231815967E+00  0.10605797408E+01 -0.33775076194E+00  0.11801773181E+01  0.00000000000E+00 0.  1.
         11    1    3    3    0    0  0.24843729291E+02  0.26863804499E+02  0.90241707832E+01  0.37687007520E+02  0.51100000000E-03 0. -1.
        -11    1    3    3    0    0  0.88695720101E+01 -0.14400604759E+01 -0.23469130911E+01  0.92871461244E+01  0.51100000000E-03 0.  1.
        -12    1    3    3    0    0 -0.33320983141E+02 -0.26484323764E+02 -0.63395069301E+01  0.43033669038E+02  0.00000000000E+00 0.  1.
</event>
<event>
 7    1  0.2385752E-015  0.9000772E+02  0.7816164E-02  0.1186339E+00
        -11   -1    0    0    0    0  0.00000000000E+00  0.00000000000E+00  0.45593999997E+02  0.45594000000E+02  0.51100000000E-03 0.  1.
         11   -1    0    0    0    0 -0.00000000000E+00 -0.00000000000E+00 -0.45593999997E+02  0.45594000000E+02  0.51100000000E-03 0. -1.
    9900012    2    1    2    0    0 -0.53429678248E+00  0.19499833529E+00 -0.10341980840E+01  0.90007719068E+02  0.89999980159E+02 0.  0.
        -12    1    1    2    0    0  0.53429678248E+00 -0.19499833529E+00  0.10341980840E+01  0.11802809325E+01  0.00000000000E+00 0.  1.
         11    1    3    3    0    0 -0.24963962496E+02  0.18364978898E+02 -0.21035780522E+02  0.37456320373E+02  0.51100000000E-03 0. -1.
        -11    1    3    3    0    0 -0.94983812821E+01  0.22124785488E+00  0.10552329954E+01  0.95593783547E+01  0.51100000000E-03 0.  1.
        -12    1    3    3    0    0  0.33928046996E+02 -0.18391228418E+02  0.18946349443E+02  0.42992020340E+02  0.00000000000E+00 0.  1.
</event>
<event>
 7    1  0.2385752E-015  0.9000768E+02  0.7816164E-02  0.1186339E+00
        -11   -1    0    0    0    0  0.00000000000E+00  0.00000000000E+00  0.45593999997E+02  0.45594000000E+02  0.51100000000E-03 0. -1.
         11   -1    0    0    0    0 -0.00000000000E+00 -0.00000000000E+00 -0.45593999997E+02  0.45594000000E+02  0.51100000000E-03 0.  1.
    9900012    2    1    2    0    0  0.11109708292E+01  0.17001214644E+00 -0.36054886154E+00  0.90007679791E+02  0.89999940365E+02 0.  0.
        -12    1    1    2    0    0 -0.11109708292E+01 -0.17001214644E+00  0.36054886154E+00  0.11803202086E+01  0.00000000000E+00 0.  1.
         11    1    3    3    0    0 -0.67358442782E+01  0.69730751028E+01  0.21957873139E+02  0.24002990805E+02  0.51100000000E-03 0. -1.
        -11    1    3    3    0    0 -0.14870789099E+02  0.19855622261E+02 -0.18138195837E+02  0.30730770447E+02  0.51100000000E-03 0.  1.
         12    1    3    3    0    0  0.22717604206E+02 -0.26658685217E+02 -0.41802261635E+01  0.35273918540E+02  0.00000000000E+00 0. -1.
</event>
<event>
 7    1  0.2385752E-015  0.9000797E+02  0.7816164E-02  0.1186339E+00
        -11   -1    0    0    0    0  0.00000000000E+00  0.00000000000E+00  0.45593999997E+02  0.45594000000E+02  0.51100000000E-03 0.  1.
         11   -1    0    0    0    0 -0.00000000000E+00 -0.00000000000E+00 -0.45593999997E+02  0.45594000000E+02  0.51100000000E-03 0. -1.
    9900012    2    1    2    0    0  0.22043603757E+00 -0.91444898941E+00 -0.71250365036E+00  0.90007970148E+02  0.90000234553E+02 0.  0.
        -12    1    1    2    0    0 -0.22043603757E+00  0.91444898941E+00  0.71250365036E+00  0.11800298525E+01  0.00000000000E+00 0.  1.
         11    1    3    3    0    0 -0.36644232796E+01  0.42140249526E+01 -0.86142252526E+01  0.10266006100E+02  0.51100000000E-03 0. -1.
        -11    1    3    3    0    0  0.33593456374E+02  0.97171122950E+01 -0.16364367663E+02  0.38610039002E+02  0.51100000000E-03 0.  1.
         12    1    3    3    0    0 -0.29708597056E+02 -0.14845586237E+02  0.24266089265E+02  0.41131925046E+02  0.00000000000E+00 0. -1.
</event>
<event>
 7    1  0.2385752E-015  0.9000774E+02  0.7816164E-02  0.1186339E+00
        -11   -1    0    0    0    0  0.00000000000E+00  0.00000000000E+00  0.45593999997E+02  0.45594000000E+02  0.51100000000E-03 0.  1.
         11   -1    0    0    0    0 -0.00000000000E+00 -0.00000000000E+00 -0.45593999997E+02  0.45594000000E+02  0.51100000000E-03 0. -1.
    9900012    2    1    2    0    0 -0.56870359253E+00 -0.99997013792E+00 -0.26390638394E+00  0.90007741286E+02  0.90000002671E+02 0.  0.
        -12    1    1    2    0    0  0.56870359253E+00  0.99997013792E+00  0.26390638394E+00  0.11802587142E+01  0.00000000000E+00 0.  1.
         11    1    3    3    0    0  0.35272129242E+02 -0.95989168081E+01  0.11622714482E+02  0.38358177712E+02  0.51100000000E-03 0. -1.
        -11    1    3    3    0    0  0.57258180093E+01 -0.89378204366E+00 -0.64443684442E+01  0.86668173583E+01  0.51100000000E-03 0.  1.
        -12    1    3    3    0    0 -0.41566650844E+02  0.94927287138E+01 -0.54422524222E+01  0.42982746216E+02  0.00000000000E+00 0.  1.
</event>
<event>
 7    1  0.2385752E-015  0.9000770E+02  0.7816164E-02  0.1186339E+00
        -11   -1    0    0    0    0  0.00000000000E+00  0.00000000000E+00  0.45593999997E+02  0.45594000000E+02  0.51100000000E-03 0. -1.
         11   -1    0    0    0    0 -0.00000000000E+00 -0.00000000000E+00 -0.45593999997E+02  0.45594000000E+02  0.51100000000E-03 0.  1.
    9900012    2    1    2    0    0 -0.65761847634E+00  0.97353913279E+00 -0.11340158893E+00  0.90007703248E+02  0.89999964130E+02 0.  0.
        -12    1    1    2    0    0  0.65761847634E+00 -0.97353913279E+00  0.11340158893E+00  0.11802967525E+01  0.00000000000E+00 0.  1.
         11    1    3    3    0    0 -0.72252004728E+01  0.52614574571E+01  0.22830229991E+01  0.92248929923E+01  0.51100000000E-03 0. -1.
        -11    1    3    3    0    0  0.10087542743E+02  0.17698334487E+02 -0.35475164062E+02  0.40908151115E+02  0.51100000000E-03 0.  1.
         12    1    3    3    0    0 -0.35199607470E+01 -0.21986252812E+02  0.33078739474E+02  0.39874659140E+02  0.00000000000E+00 0. -1.
</event>
<event>
 7    1  0.2385752E-015  0.9000770E+02  0.7816164E-02  0.1186339E+00
        -11   -1    0    0    0    0  0.00000000000E+00  0.00000000000E+00  0.45593999997E+02  0.45594000000E+02  0.51100000000E-03 0.  1.
         11   -1    0    0    0    0 -0.00000000000E+00 -0.00000000000E+00 -0.45593999997E+02  0.45594000000E+02  0.51100000000E-03 0. -1.
    9900012    2    1    2    0    0 -0.82741842323E+00  0.73899343125E+00 -0.40294707929E+00  0.90007703898E+02  0.89999964790E+02 0.  0.
        -12    1    1    2    0    0  0.82741842323E+00 -0.73899343125E+00  0.40294707929E+00  0.11802961015E+01  0.00000000000E+00 0.  1.
         11    1    3    3    0    0  0.15786648689E+02  0.18233428200E+02 -0.14850338808E+02  0.28323289776E+02  0.51100000000E-03 0. -1.
        -11    1    3    3    0    0  0.15471934375E+01  0.73684619038E+01 -0.16433885471E+02  0.18076521521E+02  0.51100000000E-03 0.  1.
        -12    1    3    3    0    0 -0.18161260549E+02 -0.24862896672E+02  0.30881277200E+02  0.43607892602E+02  0.00000000000E+00 0.  1.
</event>
<event>
 7    1  0.2385752E-015  0.9000782E+02  0.7816164E-02  0.1186339E+00
        -11   -1    0    0    0    0  0.00000000000E+00  0.00000000000E+00  0.45593999997E+02  0.45594000000E+02  0.51100000000E-03 0.  1.
         11   -1    0    0    0    0 -0.00000000000E+00 -0.00000000000E+00 -0.45593999997E+02  0.45594000000E+02  0.51100000000E-03 0. -1.
    9900012    2    1    2    0    0  0.72551496497E+00  0.44989303322E+00  0.81488678959E+00  0.90007823663E+02  0.90000086136E+02 0.  0.
        -12    1    1    2    0    0 -0.72551496497E+00 -0.44989303322E+00 -0.81488678959E+00  0.11801763366E+01  0.00000000000E+00 0.  1.
         11    1    3    3    0    0  0.22588837173E+01 -0.35075320865E+01  0.89127999655E+01  0.98409014055E+01  0.51100000000E-03 0. -1.
        -11    1    3    3    0    0 -0.23768922225E+02  0.30665834418E+02  0.11242537761E+02  0.40394921957E+02  0.51100000000E-03 0.  1.
         12    1    3    3    0    0  0.22235553473E+02 -0.26708409299E+02 -0.19340450936E+02  0.39772000301E+02  0.00000000000E+00 0. -1.
</event>
<event>
 7    1  0.2385752E-015  0.9000769E+02  0.7816164E-02  0.1186339E+00
        -11   -1    0    0    0    0  0.00000000000E+00  0.00000000000E+00  0.45593999997E+02  0.45594000000E+02  0.51100000000E-03 0. -1.
         11   -1    0    0    0    0 -0.00000000000E+00 -0.00000000000E+00 -0.45593999997E+02  0.45594000000E+02  0.51100000000E-03 0.  1.
    9900012    2    1    2    0    0 -0.62567755274E+00 -0.36504604971E-01  0.10001580339E+01  0.90007694498E+02  0.89999955265E+02 0.  0.
        -12    1    1    2    0    0  0.62567755274E+00  0.36504604971E-01 -0.10001580339E+01  0.11803055024E+01  0.00000000000E+00 0.  1.
         11    1    3    3    0    0 -0.82428371559E+01  0.55636571140E+01 -0.96926486947E+01  0.13886903321E+02  0.51100000000E-03 0. -1.
        -11    1    3    3    0    0 -0.21874439045E+02 -0.72738204270E+01  0.32186131511E+02  0.39589728580E+02  0.51100000000E-03 0.  1.
         12    1    3    3    0    0  0.29491598648E+02  0.16736587080E+01 -0.21493324782E+02  0.36531062597E+02  0.00000000000E+00 0. -1.
</event>
<event>
 7    1  0.2385752E-015  0.9000765E+02  0.7816164E-02  0.1186339E+00
        -11   -1    0    0    0    0  0.00000000000E+00  0.00000000000E+00  0.45593999997E+02  0.45594000000E+02  0.51100000000E-03 0.  1.
         11   -1    0    0    0    0 -0.00000000000E+00 -0.00000000000E+00 -0.45593999997E+02  0.45594000000E+02  0.51100000000E-03 0. -1.
    9900012    2    1    2    0    0 -0.54847797623E+00  0.21786627495E+00 -0.10222210839E+01  0.90007648464E+02  0.89999908624E+02 0.  0.
        -12    1    1    2    0    0  0.54847797623E+00 -0.21786627495E+00  0.10222210839E+01  0.11803515360E+01  0.00000000000E+00 0.  1.
         11    1    3    3    0    0 -0.29471374267E+02  0.27997404804E+02 -0.72102793364E+01  0.41284436600E+02  0.51100000000E-03 0. -1.
        -11    1    3    3    0    0  0.86908621392E+01  0.34985758082E+01 -0.38723491479E+01  0.10137366798E+02  0.51100000000E-03 0.  1.
        -12    1    3    3    0    0  0.20232034152E+02 -0.31278114338E+02  0.10060407400E+02  0.38585845067E+02  0.00000000000E+00 0.  1.
</event>
<event>
 7    1  0.2385752E-015  0.9000773E+02  0.7816164E-02  0.1186339E+00
        -11   -1    0    0    0    0  0.00000000000E+00  0.00000000000E+00  0.45593999997E+02  0.45594000000E+02  0.51100000000E-03 0. -1.
         11   -1    0    0    0    0 -0.00000000000E+00 -0.00000000000E+00 -0.45593999997E+02  0.45594000000E+02  0.51100000000E-03 0.  1.
    9900012    2    1    2    0    0 -0.27257713836E+00  0.11466764480E+01  0.62253012430E-01  0.90007728586E+02  0.89999989803E+02 0.  0.
        -12    1    1    2    0    0  0.27257713836E+00 -0.11466764480E+01 -0.62253012430E-01  0.11802714138E+01  0.00000000000E+00 0.  1.
         11    1    3    3    0    0  0.43933733006E+01  0.40046247180E+02 -0.28102271147E+01  0.40384415544E+02  0.51100000000E-03 0. -1.
        -11    1    3    3    0    0 -0.44939796951E+01  0.16749101901E+01  0.73772689818E+01  0.87991633429E+01  0.51100000000E-03 0.  1.
        -12    1    3    3    0    0 -0.17197074392E+00 -0.40574480922E+02 -0.45047888546E+01  0.40824149699E+02  0.00000000000E+00 0.  1.
</event>
<event>
 7    1  0.2385752E-015  0.9000803E+02  0.7816164E-02  0.1186338E+00
        -11   -1    0    0    0    0  0.00000000000E+00  0.00000000000E+00  0.45593999997E+02  0.45594000000E+02  0.51100000000E-03 0. -1.
         11   -1    0    0    0    0 -0.00000000000E+00 -0.00000000000E+00 -0.45593999997E+02  0.45594000000E+02  0.51100000000E-03 0.  1.
    9900012    2    1    2    0    0 -0.25348294061E+00  0.11142220164E+01  0.29425989271E+00  0.90008028311E+02  0.90000293484E+02 0.  0.
        -12    1    1    2    0    0  0.25348294061E+00 -0.11142220164E+01 -0.29425989271E+00  0.11799716893E+01  0.00000000000E+00 0.  1.
         11    1    3    3    0    0  0.29722898684E+01 -0.73727180994E+01 -0.64550739124E+01  0.10240090757E+02  0.51100000000E-03 0. -1.
        -11    1    3    3    0    0  0.26673938957E+02 -0.46403168814E+01 -0.23052112762E+02  0.35558845079E+02  0.51100000000E-03 0.  1.
         12    1    3    3    0    0 -0.29899711766E+02  0.13127256997E+02  0.29801446567E+02  0.44209092475E+02  0.00000000000E+00 0. -1.
</event>
<event>
 7    1  0.2385752E-015  0.9000775E+02  0.7816164E-02  0.1186339E+00
        -11   -1    0    0    0    0  0.00000000000E+00  0.00000000000E+00  0.45593999997E+02  0.45594000000E+02  0.51100000000E-03 0.  1.
         11   -1    0    0    0    0 -0.00000000000E+00 -0.00000000000E+00 -0.45593999997E+02  0.45594000000E+02  0.51100000000E-03 0. -1.
    9900012    2    1    2    0    0 -0.11688611886E+01 -0.14231702984E+00 -0.80587188807E-01  0.90007752183E+02  0.90000013712E+02 0.  0.
        -12    1    1    2    0    0  0.11688611886E+01  0.14231702984E+00  0.80587188807E-01  0.11802478173E+01  0.00000000000E+00 0.  1.
         11    1    3    3    0    0 -0.16151072768E+02  0.23531712882E+01  0.65881362403E+00  0.16334889112E+02  0.51100000000E-03 0. -1.
        -11    1    3    3    0    0 -0.16310105868E+02 -0.73335085491E+00  0.27174978687E+02  0.31702315748E+02  0.51100000000E-03 0.  1.
         12    1    3    3    0    0  0.31292317447E+02 -0.17621374631E+01 -0.27914379500E+02  0.41970547322E+02  0.00000000000E+00 0. -1.
</event>
<event>
 7    1  0.2385752E-015  0.9000773E+02  0.7816164E-02  0.1186339E+00
        -11   -1    0    0    0    0  0.00000000000E+00  0.00000000000E+00  0.45593999997E+02  0.45594000000E+02  0.51100000000E-03 0. -1.
         11   -1    0    0    0    0 -0.00000000000E+00 -0.00000000000E+00 -0.45593999997E+02  0.45594000000E+02  0.51100000000E-03 0.  1.
    9900012    2    1    2    0    0  0.11235822073E+01  0.35907962209E+00  0.40909743825E-01  0.90007725134E+02  0.89999986306E+02 0.  0.
        -12    1    1    2    0    0 -0.11235822073E+01 -0.35907962209E+00 -0.40909743825E-01  0.11802748658E+01  0.00000000000E+00 0.  1.
         11    1    3    3    0    0 -0.42118596464E+01 -0.10004565624E+02  0.33031255050E+01  0.11346441441E+02  0.51100000000E-03 0. -1.
        -11    1    3    3    0    0 -0.25375969062E+02  0.19493113288E+02 -0.24431814358E+02  0.40259592951E+02  0.51100000000E-03 0.  1.
         12    1    3    3    0    0  0.30711410916E+02 -0.91294680417E+01  0.21169598596E+02  0.38401690743E+02  0.00000000000E+00 0. -1.
</event>
<event>
 7    1  0.2385752E-015  0.9000776E+02  0.7816164E-02  0.1186339E+00
        -11   -1    0    0    0    0  0.00000000000E+00  0.00000000000E+00  0.45593999997E+02  0.45594000000E+02  0.51100000000E-03 0. -1.
         11   -1    0    0    0    0 -0.00000000000E+00 -0.00000000000E+00 -0.45593999997E+02  0.45594000000E+02  0.51100000000E-03 0.  1.
    9900012    2    1    2    0    0 -0.88471059801E+00  0.15059835304E+00  0.76653110895E+00  0.90007761614E+02  0.90000023268E+02 0.  0.
        -12    1    1    2    0    0  0.88471059801E+00 -0.15059835304E+00 -0.76653110895E+00  0.11802383857E+01  0.00000000000E+00 0.  1.
         11    1    3    3    0    0  0.27144648044E+02 -0.19427740293E+02  0.13213216069E+02  0.35900669764E+02  0.51100000000E-03 0. -1.
        -11    1    3    3    0    0 -0.52870757866E+01  0.67724298979E+01  0.14334033125E+02  0.16711776775E+02  0.51100000000E-03 0.  1.
        -12    1    3    3    0    0 -0.22742282856E+02  0.12805908749E+02 -0.26780718085E+02  0.37395315075E+02  0.00000000000E+00 0.  1.
</event>
<event>
 7    1  0.2385752E-015  0.9000797E+02  0.7816164E-02  0.1186339E+00
        -11   -1    0    0    0    0  0.00000000000E+00  0.00000000000E+00  0.45593999997E+02  0.45594000000E+02  0.51100000000E-03 0.  1.
         11   -1    0    0    0    0 -0.00000000000E+00 -0.00000000000E+00 -0.45593999997E+02  0.45594000000E+02  0.51100000000E-03 0. -1.
    9900012    2    1    2    0    0 -0.57865634775E+00  0.94283302755E+00 -0.41072603116E+00  0.90007969001E+02  0.90000233391E+02 0.  0.
        -12    1    1    2    0    0  0.57865634775E+00 -0.94283302755E+00  0.41072603116E+00  0.11800309993E+01  0.00000000000E+00 0.  1.
         11    1    3    3    0    0 -0.49213796021E+01  0.28207874390E+01  0.77873243978E+01  0.96342742592E+01  0.51100000000E-03 0. -1.
        -11    1    3    3    0    0  0.68942107881E+01 -0.63712049356E+01  0.35321916273E+02  0.36548052810E+02  0.51100000000E-03 0.  1.
         12    1    3    3    0    0 -0.25514875338E+01  0.44932505242E+01 -0.43519966702E+02  0.43825641931E+02  0.00000000000E+00 0. -1.
</event>
<event>
 7    1  0.2385752E-015  0.9000760E+02  0.7816164E-02  0.1186339E+00
        -11   -1    0    0    0    0  0.00000000000E+00  0.00000000000E+00  0.45593999997E+02  0.45594000000E+02  0.51100000000E-03 0.  1.
         11   -1    0    0    0    0 -0.00000000000E+00 -0.00000000000E+00 -0.45593999997E+02  0.45594000000E+02  0.51100000000E-03 0. -1.
    9900012    2    1    2    0    0 -0.58522957248E+00 -0.53337256028E+00 -0.87541961445E+00  0.90007601999E+02  0.89999861545E+02 0.  0.
        -12    1    1    2    0    0  0.58522957248E+00  0.53337256028E+00  0.87541961445E+00  0.11803980015E+01  0.00000000000E+00 0.  1.
         11    1    3    3    0    0 -0.14434123646E+02  0.23165866786E+02 -0.26265315004E+02  0.37879652610E+02  0.51100000000E-03 0. -1.
        -11    1    3    3    0    0  0.61525996585E+01  0.22475382358E+01 -0.72210909355E+01  0.97493622991E+01  0.51100000000E-03 0.  1.
        -12    1    3    3    0    0  0.76962944148E+01 -0.25946777582E+02  0.32610986325E+02  0.42378587089E+02  0.00000000000E+00 0.  1.
</event>
<event>
 7    1  0.2385752E-015  0.9000767E+02  0.7816164E-02  0.1186339E+00
        -11   -1    0    0    0    0  0.00000000000E+00  0.00000000000E+00  0.45593999997E+02  0.45594000000E+02  0.51100000000E-03 0.  1.
         11   -1    0    0    0    0 -0.00000000000E+00 -0.00000000000E+00 -0.45593999997E+02  0.45594000000E+02  0.51100000000E-03 0. -1.
    9900012    2    1    2    0    0 -0.13541693078E+00  0.35265192504E+00 -0.11182516564E+01  0.90007666194E+02  0.89999926588E+02 0.  0.
        -12    1    1    2    0    0  0.13541693078E+00 -0.35265192504E+00  0.11182516564E+01  0.11803338056E+01  0.00000000000E+00 0.  1.
         11    1    3    3    0    0 -0.24712490555E+01  0.98873399134E+00  0.14146238991E+02  0.14394469238E+02  0.51100000000E-03 0. -1.
        -11    1    3    3    0    0  0.35584586464E+02 -0.41187019235E+01 -0.21250212189E+02  0.41650906566E+02  0.51100000000E-03 0.  1.
         12    1    3    3    0    0 -0.33248754340E+02  0.34826198572E+01  0.59857215421E+01  0.33962290391E+02  0.00000000000E+00 0. -1.
</event>
<event>
 7    1  0.2422123E-015  0.9000770E+02  0.7816164E-02  0.1186339E+00
        -11   -1    0    0    0    0  0.00000000000E+00  0.00000000000E+00  0.45593999997E+02  0.45594000000E+02  0.51100000000E-03 0. -1.
         11   -1    0    0    0    0 -0.00000000000E+00 -0.00000000000E+00 -0.45593999997E+02  0.45594000000E+02  0.51100000000E-03 0.  1.
    9900012    2    1    2    0    0  0.10980588822E+01  0.20409612984E+00  0.38172875677E+00  0.90007701147E+02  0.89999962002E+02 0.  0.
        -12    1    1    2    0    0 -0.10980588822E+01 -0.20409612984E+00 -0.38172875677E+00  0.11802988532E+01  0.00000000000E+00 0.  1.
         11    1    3    3    0    0 -0.90419439610E+01 -0.31678653482E+02 -0.20765433119E+02  0.38942227080E+02  0.51100000000E-03 0. -1.
        -11    1    3    3    0    0  0.58492678453E+01  0.20645850657E+01 -0.73358835634E+01  0.96068534774E+01  0.51100000000E-03 0.  1.
        -12    1    3    3    0    0  0.42907349980E+01  0.29818164546E+02  0.28483045439E+02  0.41458620590E+02  0.00000000000E+00 0.  1.
</event>
<event>
 7    1  0.2385752E-015  0.9000756E+02  0.7816164E-02  0.1186339E+00
        -11   -1    0    0    0    0  0.00000000000E+00  0.00000000000E+00  0.45593999997E+02  0.45594000000E+02  0.51100000000E-03 0. -1.
         11   -1    0    0    0    0 -0.00000000000E+00 -0.00000000000E+00 -0.45593999997E+02  0.45594000000E+02  0.51100000000E-03 0.  1.
    9900012    2    1    2    0    0 -0.84053282557E+00  0.43885017712E+00  0.70310574799E+00  0.90007558302E+02  0.89999817272E+02 0.  0.
        -12    1    1    2    0    0  0.84053282557E+00 -0.43885017712E+00 -0.70310574799E+00  0.11804416977E+01  0.00000000000E+00 0.  1.
         11    1    3    3    0    0  0.30941147641E+02 -0.10887481347E+02 -0.80944482971E+01  0.33784788899E+02  0.51100000000E-03 0. -1.
        -11    1    3    3    0    0 -0.93384164264E+01 -0.16880607067E+02  0.84656605060E+00  0.19310038597E+02  0.51100000000E-03 0.  1.
        -12    1    3    3    0    0 -0.22443264041E+02  0.28206938591E+02  0.79509879945E+01  0.36912730806E+02  0.00000000000E+00 0.  1.
</event>
<event>
 7    1  0.2385752E-015  0.9000759E+02  0.7816164E-02  0.1186339E+00
        -11   -1    0    0    0    0  0.00000000000E+00  0.00000000000E+00  0.45593999997E+02  0.45594000000E+02  0.51100000000E-03 0. -1.
         11   -1    0    0    0    0 -0.00000000000E+00 -0.00000000000E+00 -0.45593999997E+02  0.45594000000E+02  0.51100000000E-03 0.  1.
    9900012    2    1    2    0    0 -0.59576770186E+00 -0.82734113132E+00  0.59492873069E+00  0.90007587912E+02  0.89999847273E+02 0.  0.
        -12    1    1    2    0    0  0.59576770186E+00  0.82734113132E+00 -0.59492873069E+00  0.11804120877E+01  0.00000000000E+00 0.  1.
         11    1    3    3    0    0  0.15137242144E+02 -0.35851569541E+02  0.12863560994E+02  0.40987099677E+02  0.51100000000E-03 0. -1.
        -11    1    3    3    0    0  0.71316207513E+00  0.37948922125E+00 -0.10603468786E+02  0.10634197796E+02  0.51100000000E-03 0.  1.
        -12    1    3    3    0    0 -0.16446171921E+02  0.34644739188E+02 -0.16651634773E+01  0.38386290439E+02  0.00000000000E+00 0.  1.
</event>
<event>
 7    1  0.2385752E-015  0.9000752E+02  0.7816164E-02  0.1186339E+00
        -11   -1    0    0    0    0  0.00000000000E+00  0.00000000000E+00  0.45593999997E+02  0.45594000000E+02  0.51100000000E-03 0. -1.
         11   -1    0    0    0    0 -0.00000000000E+00 -0.00000000000E+00 -0.45593999997E+02  0.45594000000E+02  0.51100000000E-03 0.  1.
    9900012    2    1    2    0    0 -0.66624479362E+00  0.60901923250E+00  0.76074680225E+00  0.90007524567E+02  0.89999783091E+02 0.  0.
        -12    1    1    2    0    0  0.66624479362E+00 -0.60901923250E+00 -0.76074680225E+00  0.11804754329E+01  0.00000000000E+00 0.  1.
         11    1    3    3    0    0 -0.25737361210E+02  0.22399761240E+02  0.91857541888E+01  0.35334673423E+02  0.51100000000E-03 0. -1.
        -11    1    3    3    0    0 -0.49906088494E+01  0.92303144849E+01  0.72113439359E+00  0.10517838050E+02  0.51100000000E-03 0.  1.
        -12    1    3    3    0    0  0.30061725266E+02 -0.31021056492E+02 -0.91461417801E+01  0.44155013094E+02  0.00000000000E+00 0.  1.
</event>
<event>
 7    1  0.2421853E-015  0.9000772E+02  0.7816164E-02  0.1186339E+00
        -11   -1    0    0    0    0  0.00000000000E+00  0.00000000000E+00  0.45593999997E+02  0.45594000000E+02  0.51100000000E-03 0. -1.
         11   -1    0    0    0    0 -0.00000000000E+00 -0.00000000000E+00 -0.45593999997E+02  0.45594000000E+02  0.51100000000E-03 0.  1.
    9900012    2    1    2    0    0 -0.27081103651E+00  0.11481168287E+01  0.39437383336E-01  0.90007717755E+02  0.89999978830E+02 0.  0.
        -12    1    1    2    0    0  0.27081103651E+00 -0.11481168287E+01 -0.39437383336E-01  0.11802822446E+01  0.00000000000E+00 0.  1.
         11    1    3    3    0    0 -0.19609983015E+02 -0.14779418453E+02  0.32157394701E+02  0.40460853648E+02  0.51100000000E-03 0. -1.
        -11    1    3    3    0    0 -0.68539418264E+00 -0.71360752747E+01 -0.55743223972E+01  0.90811015830E+01  0.51100000000E-03 0.  1.
        -12    1    3    3    0    0  0.20024566161E+02  0.23063610557E+02 -0.26543634921E+02  0.40465762524E+02  0.00000000000E+00 0.  1.
</event>
<event>
 7    1  0.2385752E-015  0.9000775E+02  0.7816164E-02  0.1186339E+00
        -11   -1    0    0    0    0  0.00000000000E+00  0.00000000000E+00  0.45593999997E+02  0.45594000000E+02  0.51100000000E-03 0.  1.
         11   -1    0    0    0    0 -0.00000000000E+00 -0.00000000000E+00 -0.45593999997E+02  0.45594000000E+02  0.51100000000E-03 0. -1.
    9900012    2    1    2    0    0  0.33409413940E+00  0.88399759529E+00 -0.70704281703E+00  0.90007754183E+02  0.90000015739E+02 0.  0.
        -12    1    1    2    0    0 -0.33409413940E+00 -0.88399759529E+00  0.70704281703E+00  0.11802458166E+01  0.00000000000E+00 0.  1.
         11    1    3    3    0    0 -0.47906032288E+01  0.80565063380E+01  0.15124288297E+01  0.94944517955E+01  0.51100000000E-03 0. -1.
        -11    1    3    3    0    0 -0.11654163655E+02  0.31356452638E+02  0.12898547819E+02  0.35852743112E+02  0.51100000000E-03 0.  1.
         12    1    3    3    0    0  0.16778861023E+02 -0.38528961380E+02 -0.15118019466E+02  0.44660559276E+02  0.00000000000E+00 0. -1.
</event>
<event>
 7    1  0.2385752E-015  0.9000782E+02  0.7816164E-02  0.1186339E+00
        -11   -1    0    0    0    0  0.00000000000E+00  0.00000000000E+00  0.45593999997E+02  0.45594000000E+02  0.51100000000E-03 0.  1.
         11   -1    0    0    0    0 -0.00000000000E+00 -0.00000000000E+00 -0.45593999997E+02  0.45594000000E+02  0.51100000000E-03 0. -1.
    9900012    2    1    2    0    0 -0.10961138838E+01  0.43222555639E+00  0.67340994821E-01  0.90007822307E+02  0.90000084761E+02 0.  0.
        -12    1    1    2    0    0  0.10961138838E+01 -0.43222555639E+00 -0.67340994821E-01  0.11801776931E+01  0.00000000000E+00 0.  1.
         11    1    3    3    0    0 -0.37804758922E+02 -0.12691467484E+02 -0.21154862150E+01  0.39934301374E+02  0.51100000000E-03 0. -1.
        -11    1    3    3    0    0  0.67472690713E+01 -0.97458162605E+01  0.34964954299E+01  0.12358481098E+02  0.51100000000E-03 0.  1.
        -12    1    3    3    0    0  0.29961375967E+02  0.22869509301E+02 -0.13136682200E+01  0.37715039834E+02  0.00000000000E+00 0.  1.
</event>
<event>
 7    1  0.2385752E-015  0.9000761E+02  0.7816164E-02  0.1186339E+00
        -11   -1    0    0    0    0  0.00000000000E+00  0.00000000000E+00  0.45593999997E+02  0.45594000000E+02  0.51100000000E-03 0.  1.
         11   -1    0    0    0    0 -0.00000000000E+00 -0.00000000000E+00 -0.45593999997E+02  0.45594000000E+02  0.51100000000E-03 0. -1.
    9900012    2    1    2    0    0 -0.73349286487E-01 -0.99878988009E+00  0.62478200684E+00  0.90007612818E+02  0.89999872508E+02 0.  0.
        -12    1    1    2    0    0  0.73349286487E-01  0.99878988009E+00 -0.62478200684E+00  0.11803871816E+01  0.00000000000E+00 0.  1.
         11    1    3    3    0    0  0.27582517745E+01  0.70220354696E+01 -0.71846512066E+01  0.10418068353E+02  0.51100000000E-03 0. -1.
        -11    1    3    3    0    0 -0.10989736546E+02  0.33996110403E+02  0.87247974176E+01  0.36778144626E+02  0.51100000000E-03 0.  1.
         12    1    3    3    0    0  0.81581354847E+01 -0.42016935752E+02 -0.91536420423E+00  0.42811399840E+02  0.00000000000E+00 0. -1.
</event>
<event>
 7    1  0.2385752E-015  0.9000773E+02  0.7816164E-02  0.1186339E+00
        -11   -1    0    0    0    0  0.00000000000E+00  0.00000000000E+00  0.45593999997E+02  0.45594000000E+02  0.51100000000E-03 0.  1.
         11   -1    0    0    0    0 -0.00000000000E+00 -0.00000000000E+00 -0.45593999997E+02  0.45594000000E+02  0.51100000000E-03 0. -1.
    9900012    2    1    2    0    0  0.82235657857E+00  0.80377748166E+00  0.26592634533E+00  0.90007726556E+02  0.89999987746E+02 0.  0.
        -12    1    1    2    0    0 -0.82235657857E+00 -0.80377748166E+00 -0.26592634533E+00  0.11802734444E+01  0.00000000000E+00 0.  1.
         11    1    3    3    0    0 -0.35752637914E+01 -0.11304245795E+02  0.14041856066E+00  0.11856989576E+02  0.51100000000E-03 0. -1.
        -11    1    3    3    0    0 -0.29155379027E+02 -0.59692259068E+01 -0.19202047499E+02  0.35417317975E+02  0.51100000000E-03 0.  1.
         12    1    3    3    0    0  0.33552999397E+02  0.18077249183E+02  0.19327555284E+02  0.42733419005E+02  0.00000000000E+00 0. -1.
</event>
<event>
 7    1  0.2385752E-015  0.9000773E+02  0.7816164E-02  0.1186339E+00
        -11   -1    0    0    0    0  0.00000000000E+00  0.00000000000E+00  0.45593999997E+02  0.45594000000E+02  0.51100000000E-03 0.  1.
         11   -1    0    0    0    0 -0.00000000000E+00 -0.00000000000E+00 -0.45593999997E+02  0.45594000000E+02  0.51100000000E-03 0. -1.
    9900012    2    1    2    0    0  0.34831857424E-01  0.87177586527E+00 -0.79487104288E+00  0.90007734609E+02  0.89999995906E+02 0.  0.
        -12    1    1    2    0    0 -0.34831857424E-01 -0.87177586527E+00  0.79487104288E+00  0.11802653906E+01  0.00000000000E+00 0.  1.
         11    1    3    3    0    0  0.30648702724E+01  0.25123360679E+01  0.60655440051E+01  0.72454183209E+01  0.51100000000E-03 0. -1.
        -11    1    3    3    0    0  0.40262544601E+01 -0.41353792603E+02 -0.84327291923E+01  0.42396436283E+02  0.51100000000E-03 0.  1.
         12    1    3    3    0    0 -0.70562928750E+01  0.39713232400E+02  0.15723141443E+01  0.40365880005E+02  0.00000000000E+00 0. -1.
</event>
<event>
 7    1  0.2385752E-015  0.9000779E+02  0.7816164E-02  0.1186339E+00
        -11   -1    0    0    0    0  0.00000000000E+00  0.00000000000E+00  0.45593999997E+02  0.45594000000E+02  0.51100000000E-03 0.  1.
         11   -1    0    0    0    0 -0.00000000000E+00 -0.00000000000E+00 -0.45593999997E+02  0.45594000000E+02  0.51100000000E-03 0. -1.
    9900012    2    1    2    0    0 -0.62056417116E+00 -0.27116287152E+00 -0.96657840010E+00  0.90007786885E+02  0.90000048872E+02 0.  0.
        -12    1    1    2    0    0  0.62056417116E+00  0.27116287152E+00  0.96657840010E+00  0.11802131151E+01  0.00000000000E+00 0.  1.
         11    1    3    3    0    0  0.69019987403E+01  0.57955192538E+00 -0.63336104721E+01  0.93855255004E+01  0.51100000000E-03 0. -1.
        -11    1    3    3    0    0 -0.46305689259E+00 -0.32064128716E+02  0.27061512829E+02  0.41960079229E+02  0.51100000000E-03 0.  1.
         12    1    3    3    0    0 -0.70595060188E+01  0.31213413919E+02 -0.21694480757E+02  0.38662182156E+02  0.00000000000E+00 0. -1.
</event>
<event>
 7    1  0.2385752E-015  0.9000771E+02  0.7816164E-02  0.1186339E+00
        -11   -1    0    0    0    0  0.00000000000E+00  0.00000000000E+00  0.45593999997E+02  0.45594000000E+02  0.51100000000E-03 0. -1.
         11   -1    0    0    0    0 -0.00000000000E+00 -0.00000000000E+00 -0.45593999997E+02  0.45594000000E+02  0.51100000000E-03 0.  1.
    9900012    2    1    2    0    0  0.78837968423E+00 -0.76487007927E+00 -0.43188497704E+00  0.90007706224E+02  0.89999967146E+02 0.  0.
        -12    1    1    2    0    0 -0.78837968423E+00  0.76487007927E+00  0.43188497704E+00  0.11802937762E+01  0.00000000000E+00 0.  1.
         11    1    3    3    0    0  0.49925371496E+01  0.11693468085E+02  0.38075516754E+01  0.13272530771E+02  0.51100000000E-03 0. -1.
        -11    1    3    3    0    0  0.79203759930E+01  0.30409953730E+02  0.31295427670E+01  0.31579925268E+02  0.51100000000E-03 0.  1.
         12    1    3    3    0    0 -0.12124533458E+02 -0.42868291895E+02 -0.73689794194E+01  0.45155250185E+02  0.00000000000E+00 0. -1.
</event>
<event>
 7    1  0.2385752E-015  0.9000776E+02  0.7816164E-02  0.1186339E+00
        -11   -1    0    0    0    0  0.00000000000E+00  0.00000000000E+00  0.45593999997E+02  0.45594000000E+02  0.51100000000E-03 0.  1.
         11   -1    0    0    0    0 -0.00000000000E+00 -0.00000000000E+00 -0.45593999997E+02  0.45594000000E+02  0.51100000000E-03 0. -1.
    9900012    2    1    2    0    0  0.46660780666E+00 -0.67734520481E+00 -0.84643800044E+00  0.90007755678E+02  0.90000017253E+02 0.  0.
        -12    1    1    2    0    0 -0.46660780666E+00  0.67734520481E+00  0.84643800044E+00  0.11802443223E+01  0.00000000000E+00 0.  1.
         11    1    3    3    0    0  0.19468224736E+01  0.46053909422E+01  0.72755902406E+01  0.88280211307E+01  0.51100000000E-03 0. -1.
        -11    1    3    3    0    0  0.75345904880E+01  0.42625742658E+01  0.35025204625E+02  0.36079142901E+02  0.51100000000E-03 0.  1.
         12    1    3    3    0    0 -0.90148051549E+01 -0.95453104128E+01 -0.43147232866E+02  0.45100591646E+02  0.00000000000E+00 0. -1.
</event>
<event>
 7    1  0.2385752E-015  0.9000773E+02  0.7816164E-02  0.1186339E+00
        -11   -1    0    0    0    0  0.00000000000E+00  0.00000000000E+00  0.45593999997E+02  0.45594000000E+02  0.51100000000E-03 0.  1.
         11   -1    0    0    0    0 -0.00000000000E+00 -0.00000000000E+00 -0.45593999997E+02  0.45594000000E+02  0.51100000000E-03 0. -1.
    9900012    2    1    2    0    0  0.11595921528E+01  0.21970532022E+00 -0.10218610135E-01  0.90007733586E+02  0.89999994869E+02 0.  0.
        -12    1    1    2    0    0 -0.11595921528E+01 -0.21970532022E+00  0.10218610135E-01  0.11802664142E+01  0.00000000000E+00 0.  1.
         11    1    3    3    0    0 -0.21385909408E+01  0.18500743033E+01 -0.85929045305E+01  0.90462342812E+01  0.51100000000E-03 0. -1.
        -11    1    3    3    0    0  0.67186533205E+01  0.33906458035E+02  0.23992745245E+02  0.42076597100E+02  0.51100000000E-03 0.  1.
         12    1    3    3    0    0 -0.34204702269E+01 -0.35536827018E+02 -0.15410059324E+02  0.38884902204E+02  0.00000000000E+00 0. -1.
</event>
<event>
 7    1  0.2385752E-015  0.9000772E+02  0.7816164E-02  0.1186339E+00
        -11   -1    0    0    0    0  0.00000000000E+00  0.00000000000E+00  0.45593999997E+02  0.45594000000E+02  0.51100000000E-03 0.  1.
         11   -1    0    0    0    0 -0.00000000000E+00 -0.00000000000E+00 -0.45593999997E+02  0.45594000000E+02  0.51100000000E-03 0. -1.
    9900012    2    1    2    0    0 -0.10203881765E+01  0.48049879534E+00 -0.34782706245E+00  0.90007722580E+02  0.89999983718E+02 0.  0.
        -12    1    1    2    0    0  0.10203881765E+01 -0.48049879534E+00  0.34782706245E+00  0.11802774201E+01  0.00000000000E+00 0.  1.
         11    1    3    3    0    0 -0.27547695430E+02  0.74607214572E+01  0.37574332251E+01  0.28786389021E+02  0.51100000000E-03 0. -1.
        -11    1    3    3    0    0 -0.79465794675E+01  0.10126910139E+02  0.13715869106E+02  0.18810303022E+02  0.51100000000E-03 0.  1.
        -12    1    3    3    0    0  0.34473886721E+02 -0.17107132801E+02 -0.17821129393E+02  0.42411030537E+02  0.00000000000E+00 0.  1.
</event>
<event>
 7    1  0.2385752E-015  0.9000793E+02  0.7816164E-02  0.1186339E+00
        -11   -1    0    0    0    0  0.00000000000E+00  0.00000000000E+00  0.45593999997E+02  0.45594000000E+02  0.51100000000E-03 0.  1.
         11   -1    0    0    0    0 -0.00000000000E+00 -0.00000000000E+00 -0.45593999997E+02  0.45594000000E+02  0.51100000000E-03 0. -1.
    9900012    2    1    2    0    0 -0.49414541321E-01 -0.11790157341E+01  0.70817014720E-02  0.90007927948E+02  0.90000191796E+02 0.  0.
        -12    1    1    2    0    0  0.49414541321E-01  0.11790157341E+01 -0.70817014720E-02  0.11800720523E+01  0.00000000000E+00 0.  1.
         11    1    3    3    0    0 -0.27206028811E+02 -0.31870334760E+01 -0.87460333503E+01  0.28754448103E+02  0.51100000000E-03 0. -1.
        -11    1    3    3    0    0 -0.73819387273E+01 -0.11619270156E+02 -0.12394556545E+02  0.18523646794E+02  0.51100000000E-03 0.  1.
        -12    1    3    3    0    0  0.34538552997E+02  0.13627287898E+02  0.21147671597E+02  0.42729833051E+02  0.00000000000E+00 0.  1.
</event>
<event>
 7    1  0.2385752E-015  0.9000773E+02  0.7816164E-02  0.1186339E+00
        -11   -1    0    0    0    0  0.00000000000E+00  0.00000000000E+00  0.45593999997E+02  0.45594000000E+02  0.51100000000E-03 0. -1.
         11   -1    0    0    0    0 -0.00000000000E+00 -0.00000000000E+00 -0.45593999997E+02  0.45594000000E+02  0.51100000000E-03 0.  1.
    9900012    2    1    2    0    0 -0.79890458911E-01 -0.11261234229E-01  0.11775055299E+01  0.90007733685E+02  0.89999994970E+02 0.  0.
        -12    1    1    2    0    0  0.79890458911E-01  0.11261234229E-01 -0.11775055299E+01  0.11802663147E+01  0.00000000000E+00 0.  1.
         11    1    3    3    0    0  0.79099017595E+01  0.83580468197E+01  0.27623091374E+01  0.11834434694E+02  0.51100000000E-03 0. -1.
        -11    1    3    3    0    0 -0.66619097400E+01 -0.42648419416E+01 -0.39362837997E+02  0.40149756333E+02  0.51100000000E-03 0.  1.
         12    1    3    3    0    0 -0.13278824783E+01 -0.41044661123E+01  0.37778034390E+02  0.38023542658E+02  0.00000000000E+00 0. -1.
</event>
<event>
 7    1  0.2385752E-015  0.9000778E+02  0.7816164E-02  0.1186339E+00
        -11   -1    0    0    0    0  0.00000000000E+00  0.00000000000E+00  0.45593999997E+02  0.45594000000E+02  0.51100000000E-03 0. -1.
         11   -1    0    0    0    0 -0.00000000000E+00 -0.00000000000E+00 -0.45593999997E+02  0.45594000000E+02  0.51100000000E-03 0.  1.
    9900012    2    1    2    0    0  0.21356719100E+00  0.11485157763E+01 -0.16801930028E+00  0.90007775480E+02  0.90000037316E+02 0.  0.
        -12    1    1    2    0    0 -0.21356719100E+00 -0.11485157763E+01  0.16801930028E+00  0.11802245205E+01  0.00000000000E+00 0.  1.
         11    1    3    3    0    0  0.16380542786E+02  0.19752147883E+02  0.26351198736E+02  0.36781180011E+02  0.51100000000E-03 0. -1.
        -11    1    3    3    0    0  0.54182489685E+01  0.11529095542E+01  0.68729751228E+01  0.88274803667E+01  0.51100000000E-03 0.  1.
        -12    1    3    3    0    0 -0.21585224564E+02 -0.19756541661E+02 -0.33392193159E+02  0.44399115102E+02  0.00000000000E+00 0.  1.
</event>
<event>
 7    1  0.2385752E-015  0.9000796E+02  0.7816164E-02  0.1186339E+00
        -11   -1    0    0    0    0  0.00000000000E+00  0.00000000000E+00  0.45593999997E+02  0.45594000000E+02  0.51100000000E-03 0.  1.
         11   -1    0    0    0    0 -0.00000000000E+00 -0.00000000000E+00 -0.45593999997E+02  0.45594000000E+02  0.51100000000E-03 0. -1.
    9900012    2    1    2    0    0  0.22564037646E-01 -0.11308314028E+01 -0.33645185570E+00  0.90007962438E+02  0.90000226742E+02 0.  0.
        -12    1    1    2    0    0 -0.22564037646E-01  0.11308314028E+01  0.33645185570E+00  0.11800375624E+01  0.00000000000E+00 0.  1.
         11    1    3    3    0    0  0.25744591046E+01 -0.12557787883E+01  0.89858414293E+01  0.94313395920E+01  0.51100000000E-03 0. -1.
        -11    1    3    3    0    0  0.71906689938E+01 -0.15071899630E+01  0.34695075511E+02  0.35464427349E+02  0.51100000000E-03 0.  1.
         12    1    3    3    0    0 -0.97425640607E+01  0.16321373485E+01 -0.44017368796E+02  0.45112195497E+02  0.00000000000E+00 0. -1.
</event>
<event>
 7    1  0.2385752E-015  0.9000769E+02  0.7816164E-02  0.1186339E+00
        -11   -1    0    0    0    0  0.00000000000E+00  0.00000000000E+00  0.45593999997E+02  0.45594000000E+02  0.51100000000E-03 0. -1.
         11   -1    0    0    0    0 -0.00000000000E+00 -0.00000000000E+00 -0.45593999997E+02  0.45594000000E+02  0.51100000000E-03 0.  1.
    9900012    2    1    2    0    0  0.79350317581E+00  0.87376581741E+00 -0.41528966971E-02  0.90007690193E+02  0.89999950904E+02 0.  0.
        -12    1    1    2    0    0 -0.79350317581E+00 -0.87376581741E+00  0.41528966971E-02  0.11803098069E+01  0.00000000000E+00 0.  1.
         11    1    3    3    0    0 -0.11821167778E+02 -0.73150609422E+00 -0.40063842353E+02  0.41777823940E+02  0.51100000000E-03 0. -1.
        -11    1    3    3    0    0 -0.66885057033E+01 -0.41677045711E+00  0.58393717144E+01  0.88886482908E+01  0.51100000000E-03 0.  1.
        -12    1    3    3    0    0  0.19303176657E+02  0.20220423687E+01  0.34220317742E+02  0.39341217962E+02  0.00000000000E+00 0.  1.
</event>
<event>
 7    1  0.2385752E-015  0.9000773E+02  0.7816164E-02  0.1186339E+00
        -11   -1    0    0    0    0  0.00000000000E+00  0.00000000000E+00  0.45593999997E+02  0.45594000000E+02  0.51100000000E-03 0. -1.
         11   -1    0    0    0    0 -0.00000000000E+00 -0.00000000000E+00 -0.45593999997E+02  0.45594000000E+02  0.51100000000E-03 0.  1.
    9900012    2    1    2    0    0 -0.88359690339E-01 -0.91469818954E+00  0.74065334132E+00  0.90007725632E+02  0.89999986810E+02 0.  0.
        -12    1    1    2    0    0  0.88359690339E-01  0.91469818954E+00 -0.74065334132E+00  0.11802743685E+01  0.00000000000E+00 0.  1.
         11    1    3    3    0    0  0.16316732989E+02 -0.34903682420E+02  0.14502732866E+02  0.41168338353E+02  0.51100000000E-03 0. -1.
        -11    1    3    3    0    0 -0.25519315037E+01 -0.29953151585E+01 -0.80162135389E+01  0.89299466438E+01  0.51100000000E-03 0.  1.
        -12    1    3    3    0    0 -0.13853161176E+02  0.36984299389E+02 -0.57458659858E+01  0.39909440635E+02  0.00000000000E+00 0.  1.
</event>
<event>
 7    1  0.2385752E-015  0.9000785E+02  0.7816164E-02  0.1186339E+00
        -11   -1    0    0    0    0  0.00000000000E+00  0.00000000000E+00  0.45593999997E+02  0.45594000000E+02  0.51100000000E-03 0.  1.
         11   -1    0    0    0    0 -0.00000000000E+00 -0.00000000000E+00 -0.45593999997E+02  0.45594000000E+02  0.51100000000E-03 0. -1.
    9900012    2    1    2    0    0  0.34111733265E+00 -0.10955391316E+01  0.27602586154E+00  0.90007848612E+02  0.90000111413E+02 0.  0.
        -12    1    1    2    0    0 -0.34111733265E+00  0.10955391316E+01 -0.27602586154E+00  0.11801513884E+01  0.00000000000E+00 0.  1.
         11    1    3    3    0    0 -0.81271719669E+01  0.38632183900E+01 -0.38462303240E+01  0.97861569820E+01  0.51100000000E-03 0. -1.
        -11    1    3    3    0    0 -0.34180405166E+02 -0.25378565055E+01 -0.91773170904E+01  0.35481882168E+02  0.51100000000E-03 0.  1.
         12    1    3    3    0    0  0.42648694465E+02 -0.24209010161E+01  0.13299573276E+02  0.44739809462E+02  0.00000000000E+00 0. -1.
</event>
<event>
 7    1  0.2385752E-015  0.9000774E+02  0.7816164E-02  0.1186339E+00
        -11   -1    0    0    0    0  0.00000000000E+00  0.00000000000E+00  0.45593999997E+02  0.45594000000E+02  0.51100000000E-03 0. -1.
         11   -1    0    0    0    0 -0.00000000000E+00 -0.00000000000E+00 -0.45593999997E+02  0.45594000000E+02  0.51100000000E-03 0.  1.
    9900012    2    1    2    0    0  0.64563127489E+00 -0.48092663011E+00  0.86306350478E+00  0.90007742071E+02  0.90000003466E+02 0.  0.
        -12    1    1    2    0    0 -0.64563127489E+00  0.48092663011E+00 -0.86306350478E+00  0.11802579294E+01  0.00000000000E+00 0.  1.
         11    1    3    3    0    0  0.53326449335E+01  0.40397535095E+02  0.59153588871E+00  0.40752274276E+02  0.51100000000E-03 0. -1.
        -11    1    3    3    0    0  0.34869222249E-01 -0.13431443177E+01 -0.83992120020E+01  0.85059987678E+01  0.51100000000E-03 0.  1.
        -12    1    3    3    0    0 -0.47218828809E+01 -0.39535317407E+02  0.86707396181E+01  0.40749469027E+02  0.00000000000E+00 0.  1.
</event>
<event>
 7    1  0.3778490E-015  0.9000770E+02  0.7816164E-02  0.1186339E+00
        -11   -1    0    0    0    0  0.00000000000E+00  0.00000000000E+00  0.45593999997E+02  0.45594000000E+02  0.51100000000E-03 0.  1.
         11   -1    0    0    0    0 -0.00000000000E+00 -0.00000000000E+00 -0.45593999997E+02  0.45594000000E+02  0.51100000000E-03 0. -1.
    9900012    2    1    2    0    0  0.41862898491E+00 -0.40335622015E+00 -0.10272085416E+01  0.90007701794E+02  0.89999962658E+02 0.  0.
        -12    1    1    2    0    0 -0.41862898491E+00  0.40335622015E+00  0.10272085416E+01  0.11802982061E+01  0.00000000000E+00 0.  1.
         11    1    3    3    0    0 -0.19529702318E+01  0.11872505841E+02 -0.37847319095E+02  0.39713852125E+02  0.51100000000E-03 0. -1.
        -11    1    3    3    0    0 -0.41550397584E+01  0.82885110162E+01  0.22453827060E+01  0.95396810228E+01  0.51100000000E-03 0.  1.
        -12    1    3    3    0    0  0.65266389752E+01 -0.20564373077E+02  0.34574727847E+02  0.40754168646E+02  0.00000000000E+00 0.  1.
</event>
<event>
 7    1  0.2385752E-015  0.9000771E+02  0.7816164E-02  0.1186339E+00
        -11   -1    0    0    0    0  0.00000000000E+00  0.00000000000E+00  0.45593999997E+02  0.45594000000E+02  0.51100000000E-03 0.  1.
         11   -1    0    0    0    0 -0.00000000000E+00 -0.00000000000E+00 -0.45593999997E+02  0.45594000000E+02  0.51100000000E-03 0. -1.
    9900012    2    1    2    0    0  0.54803028655E+00  0.24316369127E+00 -0.10166734594E+01  0.90007707367E+02  0.89999968305E+02 0.  0.
        -12    1    1    2    0    0 -0.54803028655E+00 -0.24316369127E+00  0.10166734594E+01  0.11802926327E+01  0.00000000000E+00 0.  1.
         11    1    3    3    0    0 -0.17120445748E+02 -0.52454303547E+01 -0.38190593103E+02  0.42179919441E+02  0.51100000000E-03 0. -1.
        -11    1    3    3    0    0 -0.37418971631E+01 -0.49885662122E+01  0.70037856342E+01  0.93776649921E+01  0.51100000000E-03 0.  1.
        -12    1    3    3    0    0  0.21410373198E+02  0.10477160258E+02  0.30170134009E+02  0.38450122934E+02  0.00000000000E+00 0.  1.
</event>
<event>
 7    1  0.2385752E-015  0.9000777E+02  0.7816164E-02  0.1186339E+00
        -11   -1    0    0    0    0  0.00000000000E+00  0.00000000000E+00  0.45593999997E+02  0.45594000000E+02  0.51100000000E-03 0.  1.
         11   -1    0    0    0    0 -0.00000000000E+00 -0.00000000000E+00 -0.45593999997E+02  0.45594000000E+02  0.51100000000E-03 0. -1.
    9900012    2    1    2    0    0 -0.75566523281E+00  0.77215344260E+00 -0.47507294664E+00  0.90007769011E+02  0.90000030762E+02 0.  0.
        -12    1    1    2    0    0  0.75566523281E+00 -0.77215344260E+00  0.47507294664E+00  0.11802309891E+01  0.00000000000E+00 0.  1.
         11    1    3    3    0    0  0.12984900938E+01  0.96452729283E+01  0.14822494853E+01  0.98445126940E+01  0.51100000000E-03 0. -1.
        -11    1    3    3    0    0 -0.30612582698E+02 -0.31053541995E+02  0.27797603358E+01  0.43694161596E+02  0.51100000000E-03 0.  1.
         12    1    3    3    0    0  0.28558427371E+02  0.22180422509E+02 -0.47370827678E+01  0.36469094720E+02  0.00000000000E+00 0. -1.
</event>
<event>
 7    1  0.2385752E-015  0.9000770E+02  0.7816164E-02  0.1186339E+00
        -11   -1    0    0    0    0  0.00000000000E+00  0.00000000000E+00  0.45593999997E+02  0.45594000000E+02  0.51100000000E-03 0.  1.
         11   -1    0    0    0    0 -0.00000000000E+00 -0.00000000000E+00 -0.45593999997E+02  0.45594000000E+02  0.51100000000E-03 0. -1.
    9900012    2    1    2    0    0 -0.25732721190E+00  0.11384637536E+01 -0.17546417631E+00  0.90007701441E+02  0.89999962300E+02 0.  0.
        -12    1    1    2    0    0  0.25732721190E+00 -0.11384637536E+01  0.17546417631E+00  0.11802985595E+01  0.00000000000E+00 0.  1.
         11    1    3    3    0    0  0.29193503496E+02  0.22524257915E+02 -0.16487266187E+02  0.40390998843E+02  0.51100000000E-03 0. -1.
        -11    1    3    3    0    0 -0.42628847486E+00 -0.50534445693E+01 -0.72305500418E+01  0.88317539621E+01  0.51100000000E-03 0.  1.
        -12    1    3    3    0    0 -0.29024542233E+02 -0.16332349592E+02  0.23542352052E+02  0.40784948635E+02  0.00000000000E+00 0.  1.
</event>
<event>
 7    1  0.2385752E-015  0.9000771E+02  0.7816164E-02  0.1186339E+00
        -11   -1    0    0    0    0  0.00000000000E+00  0.00000000000E+00  0.45593999997E+02  0.45594000000E+02  0.51100000000E-03 0.  1.
         11   -1    0    0    0    0 -0.00000000000E+00 -0.00000000000E+00 -0.45593999997E+02  0.45594000000E+02  0.51100000000E-03 0. -1.
    9900012    2    1    2    0    0 -0.26338923386E+00 -0.27405180127E+00 -0.11174090653E+01  0.90007711350E+02  0.89999972340E+02 0.  0.
        -12    1    1    2    0    0  0.26338923386E+00  0.27405180127E+00  0.11174090653E+01  0.11802886500E+01  0.00000000000E+00 0.  1.
         11    1    3    3    0    0  0.10854150300E+02 -0.13150165815E+01  0.17444359033E+01  0.11071806728E+02  0.51100000000E-03 0. -1.
        -11    1    3    3    0    0  0.25723810823E+02 -0.87661169941E+01  0.20661203442E+02  0.34138608325E+02  0.51100000000E-03 0.  1.
         12    1    3    3    0    0 -0.36841350356E+02  0.98070817744E+01 -0.23523048411E+02  0.44797296297E+02  0.00000000000E+00 0. -1.
</event>
<event>
 7    1  0.2385752E-015  0.9000774E+02  0.7816164E-02  0.1186339E+00
        -11   -1    0    0    0    0  0.00000000000E+00  0.00000000000E+00  0.45593999997E+02  0.45594000000E+02  0.51100000000E-03 0.  1.
         11   -1    0    0    0    0 -0.00000000000E+00 -0.00000000000E+00 -0.45593999997E+02  0.45594000000E+02  0.51100000000E-03 0. -1.
    9900012    2    1    2    0    0  0.41402884419E+00  0.10258351647E+01  0.41139919712E+00  0.90007742838E+02  0.90000004244E+02 0.  0.
        -12    1    1    2    0    0 -0.41402884419E+00 -0.10258351647E+01 -0.41139919712E+00  0.11802571619E+01  0.00000000000E+00 0.  1.
         11    1    3    3    0    0  0.19470734923E+02 -0.21657196693E+02  0.18196260622E+02  0.34340174547E+02  0.51100000000E-03 0. -1.
        -11    1    3    3    0    0  0.48280457778E+01 -0.79489064730E+01  0.50770245355E+01  0.10595816087E+02  0.51100000000E-03 0.  1.
        -12    1    3    3    0    0 -0.23884751856E+02  0.30631938331E+02 -0.22861885960E+02  0.45071752205E+02  0.00000000000E+00 0.  1.
</event>
<event>
 7    1  0.2385752E-015  0.9000773E+02  0.7816164E-02  0.1186339E+00
        -11   -1    0    0    0    0  0.00000000000E+00  0.00000000000E+00  0.45593999997E+02  0.45594000000E+02  0.51100000000E-03 0.  1.
         11   -1    0    0    0    0 -0.00000000000E+00 -0.00000000000E+00 -0.45593999997E+02  0.45594000000E+02  0.51100000000E-03 0. -1.
    9900012    2    1    2    0    0  0.96199458140E+00 -0.38887769293E-01  0.68271065298E+00  0.90007728985E+02  0.89999990208E+02 0.  0.
        -12    1    1    2    0    0 -0.96199458140E+00  0.38887769293E-01 -0.68271065298E+00  0.11802710150E+01  0.00000000000E+00 0.  1.
         11    1    3    3    0    0  0.39710088987E+02 -0.11574064975E+02  0.13057022736E+02  0.43374370202E+02  0.51100000000E-03 0. -1.
        -11    1    3    3    0    0 -0.63768017086E+01  0.65716527230E+01  0.40304918000E+01  0.10004753068E+02  0.51100000000E-03 0.  1.
        -12    1    3    3    0    0 -0.32371292697E+02  0.49635244828E+01 -0.16404803883E+02  0.36628605715E+02  0.00000000000E+00 0.  1.
</event>
<event>
 7    1  0.2385752E-015  0.9000764E+02  0.7816164E-02  0.1186339E+00
        -11   -1    0    0    0    0  0.00000000000E+00  0.00000000000E+00  0.45593999997E+02  0.45594000000E+02  0.51100000000E-03 0. -1.
         11   -1    0    0    0    0 -0.00000000000E+00 -0.00000000000E+00 -0.45593999997E+02  0.45594000000E+02  0.51100000000E-03 0.  1.
    9900012    2    1    2    0    0  0.13421419108E+00  0.69625166810E+00  0.94364731462E+00  0.90007639848E+02  0.89999899894E+02 0.  0.
        -12    1    1    2    0    0 -0.13421419108E+00 -0.69625166810E+00 -0.94364731462E+00  0.11803601522E+01  0.00000000000E+00 0.  1.
         11    1    3    3    0    0 -0.10391449802E+02  0.26901358889E+01 -0.34351738043E+02  0.35989734188E+02  0.51100000000E-03 0. -1.
        -11    1    3    3    0    0  0.85486362459E+00  0.57816959836E+01 -0.74722058496E+01  0.94864461619E+01  0.51100000000E-03 0.  1.
        -12    1    3    3    0    0  0.96708003685E+01 -0.77755802044E+01  0.42767591208E+02  0.44531459498E+02  0.00000000000E+00 0.  1.
</event>
<event>
 7    1  0.2385752E-015  0.9000764E+02  0.7816164E-02  0.1186339E+00
        -11   -1    0    0    0    0  0.00000000000E+00  0.00000000000E+00  0.45593999997E+02  0.45594000000E+02  0.51100000000E-03 0.  1.
         11   -1    0    0    0    0 -0.00000000000E+00 -0.00000000000E+00 -0.45593999997E+02  0.45594000000E+02  0.51100000000E-03 0. -1.
    9900012    2    1    2    0    0  0.83593590978E+00 -0.38067523310E+00 -0.74132230396E+00  0.90007635126E+02  0.89999895109E+02 0.  0.
        -12    1    1    2    0    0 -0.83593590978E+00  0.38067523310E+00  0.74132230396E+00  0.11803648744E+01  0.00000000000E+00 0.  1.
         11    1    3    3    0    0 -0.77739280204E+01 -0.37916764543E+01  0.37720888793E+01  0.94360702612E+01  0.51100000000E-03 0. -1.
        -11    1    3    3    0    0  0.19192494246E+02 -0.20824711372E+02  0.27208317287E+02  0.39272292637E+02  0.51100000000E-03 0.  1.
         12    1    3    3    0    0 -0.10582630316E+02  0.24235712594E+02 -0.31721728471E+02  0.41299272227E+02  0.00000000000E+00 0. -1.
</event>
<event>
 7    1  0.2385752E-015  0.9000773E+02  0.7816164E-02  0.1186339E+00
        -11   -1    0    0    0    0  0.00000000000E+00  0.00000000000E+00  0.45593999997E+02  0.45594000000E+02  0.51100000000E-03 0.  1.
         11   -1    0    0    0    0 -0.00000000000E+00 -0.00000000000E+00 -0.45593999997E+02  0.45594000000E+02  0.51100000000E-03 0. -1.
    9900012    2    1    2    0    0 -0.73032946705E+00 -0.78131920488E+00  0.49918708742E+00  0.90007733683E+02  0.89999994968E+02 0.  0.
        -12    1    1    2    0    0  0.73032946705E+00  0.78131920488E+00 -0.49918708742E+00  0.11802663168E+01  0.00000000000E+00 0.  1.
         11    1    3    3    0    0 -0.49731770048E+01 -0.14494438184E+02 -0.71837044169E+01  0.16924149527E+02  0.51100000000E-03 0. -1.
        -11    1    3    3    0    0  0.34928843290E+02  0.94998245016E+01 -0.98205245446E+01  0.37506178980E+02  0.51100000000E-03 0.  1.
         12    1    3    3    0    0 -0.30685995752E+02  0.42132944780E+01  0.17503416049E+02  0.35577405176E+02  0.00000000000E+00 0. -1.
</event>
<event>
 7    1  0.2385752E-015  0.9000765E+02  0.7816164E-02  0.1186339E+00
        -11   -1    0    0    0    0  0.00000000000E+00  0.00000000000E+00  0.45593999997E+02  0.45594000000E+02  0.51100000000E-03 0. -1.
         11   -1    0    0    0    0 -0.00000000000E+00 -0.00000000000E+00 -0.45593999997E+02  0.45594000000E+02  0.51100000000E-03 0.  1.
    9900012    2    1    2    0    0 -0.28098632516E-01  0.64561700677E+00  0.98773601301E+00  0.90007646966E+02  0.89999907106E+02 0.  0.
        -12    1    1    2    0    0  0.28098632516E-01 -0.64561700677E+00 -0.98773601301E+00  0.11803530336E+01  0.00000000000E+00 0.  1.
         11    1    3    3    0    0 -0.72099441445E+01 -0.93726991306E+01  0.40653303932E+02  0.42338184945E+02  0.51100000000E-03 0. -1.
        -11    1    3    3    0    0 -0.58942806380E+01  0.54087864893E+01 -0.31278688319E+01  0.85895913300E+01  0.51100000000E-03 0.  1.
        -12    1    3    3    0    0  0.13076126150E+02  0.46095296481E+01 -0.36537699087E+02  0.39079870692E+02  0.00000000000E+00 0.  1.
</event>
<event>
 7    1  0.2385752E-015  0.9000788E+02  0.7816164E-02  0.1186339E+00
        -11   -1    0    0    0    0  0.00000000000E+00  0.00000000000E+00  0.45593999997E+02  0.45594000000E+02  0.51100000000E-03 0.  1.
         11   -1    0    0    0    0 -0.00000000000E+00 -0.00000000000E+00 -0.45593999997E+02  0.45594000000E+02  0.51100000000E-03 0. -1.
    9900012    2    1    2    0    0  0.10820553549E+01 -0.17844220753E+00  0.43587468700E+00  0.90007884686E+02  0.90000147963E+02 0.  0.
        -12    1    1    2    0    0 -0.10820553549E+01  0.17844220753E+00 -0.43587468700E+00  0.11801153144E+01  0.00000000000E+00 0.  1.
         11    1    3    3    0    0 -0.32667732179E+01 -0.64746269195E+01 -0.64170068553E+01  0.96835209633E+01  0.51100000000E-03 0. -1.
        -11    1    3    3    0    0 -0.14043047864E+02  0.37754408882E+02 -0.78333259848E+01  0.41036125300E+02  0.51100000000E-03 0.  1.
         12    1    3    3    0    0  0.18391876437E+02 -0.31458224170E+02  0.14686207527E+02  0.39288238423E+02  0.00000000000E+00 0. -1.
</event>
<event>
 7    1  0.2385752E-015  0.9000773E+02  0.7816164E-02  0.1186339E+00
        -11   -1    0    0    0    0  0.00000000000E+00  0.00000000000E+00  0.45593999997E+02  0.45594000000E+02  0.51100000000E-03 0.  1.
         11   -1    0    0    0    0 -0.00000000000E+00 -0.00000000000E+00 -0.45593999997E+02  0.45594000000E+02  0.51100000000E-03 0. -1.
    9900012    2    1    2    0    0  0.61482860585E+00 -0.32211019027E+00 -0.95460785638E+00  0.90007726579E+02  0.89999987770E+02 0.  0.
        -12    1    1    2    0    0 -0.61482860585E+00  0.32211019027E+00  0.95460785638E+00  0.11802734212E+01  0.00000000000E+00 0.  1.
         11    1    3    3    0    0  0.10394643627E+02  0.12668451206E+02 -0.58898245743E+01  0.17413451865E+02  0.51100000000E-03 0. -1.
        -11    1    3    3    0    0  0.24250171070E+02 -0.96419641835E+01  0.22224272974E+02  0.34277639647E+02  0.51100000000E-03 0.  1.
         12    1    3    3    0    0 -0.34029986091E+02 -0.33485972124E+01 -0.17289056257E+02  0.38316635067E+02  0.00000000000E+00 0. -1.
</event>
<event>
 7    1  0.2385752E-015  0.9000771E+02  0.7816164E-02  0.1186339E+00
        -11   -1    0    0    0    0  0.00000000000E+00  0.00000000000E+00  0.45593999997E+02  0.45594000000E+02  0.51100000000E-03 0. -1.
         11   -1    0    0    0    0 -0.00000000000E+00 -0.00000000000E+00 -0.45593999997E+02  0.45594000000E+02  0.51100000000E-03 0.  1.
    9900012    2    1    2    0    0 -0.74189337832E+00  0.99450526350E-01  0.91257356960E+00  0.90007709056E+02  0.89999970016E+02 0.  0.
        -12    1    1    2    0    0  0.74189337832E+00 -0.99450526350E-01 -0.91257356960E+00  0.11802909438E+01  0.00000000000E+00 0.  1.
         11    1    3    3    0    0  0.53252033367E+01 -0.45068986644E+00  0.99252970720E+01  0.11272640958E+02  0.51100000000E-03 0. -1.
        -11    1    3    3    0    0  0.19225954703E+02 -0.27309881514E+01 -0.36434030455E+02  0.41286004965E+02  0.51100000000E-03 0.  1.
         12    1    3    3    0    0 -0.25293051418E+02  0.32811285442E+01  0.27421306953E+02  0.37449063133E+02  0.00000000000E+00 0. -1.
</event>
<event>
 7    1  0.2385752E-015  0.9000780E+02  0.7816164E-02  0.1186339E+00
        -11   -1    0    0    0    0  0.00000000000E+00  0.00000000000E+00  0.45593999997E+02  0.45594000000E+02  0.51100000000E-03 0.  1.
         11   -1    0    0    0    0 -0.00000000000E+00 -0.00000000000E+00 -0.45593999997E+02  0.45594000000E+02  0.51100000000E-03 0. -1.
    9900012    2    1    2    0    0  0.25538478790E-03 -0.40292875834E-02 -0.11801918999E+01  0.90007801194E+02  0.90000063370E+02 0.  0.
        -12    1    1    2    0    0 -0.25538478790E-03  0.40292875834E-02  0.11801918999E+01  0.11801988057E+01  0.00000000000E+00 0.  1.
         11    1    3    3    0    0  0.86430143412E+01  0.19924384619E+02 -0.30448596212E+02  0.37400532227E+02  0.51100000000E-03 0. -1.
        -11    1    3    3    0    0  0.48932169692E+01  0.40643010497E+01 -0.53878885200E+01  0.83361536871E+01  0.51100000000E-03 0.  1.
        -12    1    3    3    0    0 -0.13535975926E+02 -0.23992714957E+02  0.34656292832E+02  0.44271115280E+02  0.00000000000E+00 0.  1.
</event>
<event>
 7    1  0.2385752E-015  0.9000777E+02  0.7816164E-02  0.1186339E+00
        -11   -1    0    0    0    0  0.00000000000E+00  0.00000000000E+00  0.45593999997E+02  0.45594000000E+02  0.51100000000E-03 0. -1.
         11   -1    0    0    0    0 -0.00000000000E+00 -0.00000000000E+00 -0.45593999997E+02  0.45594000000E+02  0.51100000000E-03 0.  1.
    9900012    2    1    2    0    0 -0.66842231031E+00  0.95521992986E+00  0.18360900301E+00  0.90007768766E+02  0.90000030514E+02 0.  0.
        -12    1    1    2    0    0  0.66842231031E+00 -0.95521992986E+00 -0.18360900301E+00  0.11802312338E+01  0.00000000000E+00 0.  1.
         11    1    3    3    0    0  0.10135857457E+01  0.62177062405E+01  0.73299985870E+01  0.96652008000E+01  0.51100000000E-03 0. -1.
        -11    1    3    3    0    0 -0.34317958496E+02 -0.19524297520E+02  0.10123477335E+02  0.40760339334E+02  0.51100000000E-03 0.  1.
         12    1    3    3    0    0  0.32635950440E+02  0.14261811209E+02 -0.17269866919E+02  0.39582228632E+02  0.00000000000E+00 0. -1.
</event>
<event>
 7    1  0.2385752E-015  0.9000777E+02  0.7816164E-02  0.1186339E+00
        -11   -1    0    0    0    0  0.00000000000E+00  0.00000000000E+00  0.45593999997E+02  0.45594000000E+02  0.51100000000E-03 0. -1.
         11   -1    0    0    0    0 -0.00000000000E+00 -0.00000000000E+00 -0.45593999997E+02  0.45594000000E+02  0.51100000000E-03 0.  1.
    9900012    2    1    2    0    0  0.31339505700E+00  0.11333604365E+01  0.10114051089E+00  0.90007766233E+02  0.90000027948E+02 0.  0.
        -12    1    1    2    0    0 -0.31339505700E+00 -0.11333604365E+01 -0.10114051089E+00  0.11802337666E+01  0.00000000000E+00 0.  1.
         11    1    3    3    0    0  0.40032131854E+01  0.87360465373E+01 -0.42993080420E+01  0.10527500882E+02  0.51100000000E-03 0. -1.
        -11    1    3    3    0    0  0.35702722373E+02 -0.93119586613E+01 -0.87410094636E+01  0.37918362381E+02  0.51100000000E-03 0.  1.
         12    1    3    3    0    0 -0.39392540501E+02  0.17092725605E+01  0.13141458016E+02  0.41561902971E+02  0.00000000000E+00 0. -1.
</event>
<event>
 7    1  0.2385752E-015  0.9000768E+02  0.7816164E-02  0.1186339E+00
        -11   -1    0    0    0    0  0.00000000000E+00  0.00000000000E+00  0.45593999997E+02  0.45594000000E+02  0.51100000000E-03 0.  1.
         11   -1    0    0    0    0 -0.00000000000E+00 -0.00000000000E+00 -0.45593999997E+02  0.45594000000E+02  0.51100000000E-03 0. -1.
    9900012    2    1    2    0    0 -0.13602317518E+00 -0.92862753028E+00 -0.71574642696E+00  0.90007684643E+02  0.89999945280E+02 0.  0.
        -12    1    1    2    0    0  0.13602317518E+00  0.92862753028E+00  0.71574642696E+00  0.11803153570E+01  0.00000000000E+00 0.  1.
         11    1    3    3    0    0 -0.53685154489E+01 -0.10446566009E+02 -0.35585038683E+02  0.37473279518E+02  0.51100000000E-03 0. -1.
        -11    1    3    3    0    0 -0.66117995205E+01 -0.55774601655E+01 -0.37370587938E+01  0.94228214186E+01  0.51100000000E-03 0.  1.
        -12    1    3    3    0    0  0.11844291794E+02  0.15095398644E+02  0.38606351050E+02  0.43111583707E+02  0.00000000000E+00 0.  1.
</event>
<event>
 7    1  0.2385752E-015  0.9000753E+02  0.7816164E-02  0.1186339E+00
        -11   -1    0    0    0    0  0.00000000000E+00  0.00000000000E+00  0.45593999997E+02  0.45594000000E+02  0.51100000000E-03 0. -1.
         11   -1    0    0    0    0 -0.00000000000E+00 -0.00000000000E+00 -0.45593999997E+02  0.45594000000E+02  0.51100000000E-03 0.  1.
    9900012    2    1    2    0    0 -0.81981069373E+00  0.44187708604E+00  0.72537842631E+00  0.90007526030E+02  0.89999784573E+02 0.  0.
        -12    1    1    2    0    0  0.81981069373E+00 -0.44187708604E+00 -0.72537842631E+00  0.11804739701E+01  0.00000000000E+00 0.  1.
         11    1    3    3    0    0  0.73745950191E+01 -0.28536125665E+01  0.18917598485E+01  0.81305911201E+01  0.51100000000E-03 0. -1.
        -11    1    3    3    0    0  0.88876604493E+01 -0.24247217072E+02 -0.29231041308E+02  0.39004766635E+02  0.51100000000E-03 0.  1.
         12    1    3    3    0    0 -0.17082066162E+02  0.27542706725E+02  0.28064659886E+02  0.42872168275E+02  0.00000000000E+00 0. -1.
</event>
<event>
 7    1  0.2385752E-015  0.9000762E+02  0.7816164E-02  0.1186339E+00
        -11   -1    0    0    0    0  0.00000000000E+00  0.00000000000E+00  0.45593999997E+02  0.45594000000E+02  0.51100000000E-03 0.  1.
         11   -1    0    0    0    0 -0.00000000000E+00 -0.00000000000E+00 -0.45593999997E+02  0.45594000000E+02  0.51100000000E-03 0. -1.
    9900012    2    1    2    0    0 -0.11184900206E+01  0.31711193752E+00  0.20425496723E+00  0.90007618706E+02  0.89999878473E+02 0.  0.
        -12    1    1    2    0    0  0.11184900206E+01 -0.31711193752E+00 -0.20425496723E+00  0.11803812938E+01  0.00000000000E+00 0.  1.
         11    1    3    3    0    0  0.37490222843E+01 -0.86034026677E+01  0.32116223699E+01  0.99190838316E+01  0.51100000000E-03 0. -1.
        -11    1    3    3    0    0 -0.24021545065E+02  0.22662685724E+02  0.26484553938E+02  0.42332771574E+02  0.51100000000E-03 0.  1.
         12    1    3    3    0    0  0.19154032760E+02 -0.13742171119E+02 -0.29491921341E+02  0.37755763301E+02  0.00000000000E+00 0. -1.
</event>
<event>
 7    1  0.2385752E-015  0.9000780E+02  0.7816164E-02  0.1186339E+00
        -11   -1    0    0    0    0  0.00000000000E+00  0.00000000000E+00  0.45593999997E+02  0.45594000000E+02  0.51100000000E-03 0. -1.
         11   -1    0    0    0    0 -0.00000000000E+00 -0.00000000000E+00 -0.45593999997E+02  0.45594000000E+02  0.51100000000E-03 0.  1.
    9900012    2    1    2    0    0 -0.22464703682E+00  0.11010801998E+01  0.36058193894E+00  0.90007803731E+02  0.90000065941E+02 0.  0.
        -12    1    1    2    0    0  0.22464703682E+00 -0.11010801998E+01 -0.36058193894E+00  0.11801962685E+01  0.00000000000E+00 0.  1.
         11    1    3    3    0    0 -0.10984057723E+02 -0.32413415405E+01 -0.90800956960E+01  0.14615196104E+02  0.51100000000E-03 0. -1.
        -11    1    3    3    0    0 -0.24666234316E+02 -0.17870043023E+02 -0.55740465234E+01  0.30965005214E+02  0.51100000000E-03 0.  1.
         12    1    3    3    0    0  0.35425645002E+02  0.22212464764E+02  0.15014724158E+02  0.44427602414E+02  0.00000000000E+00 0. -1.
</event>
<event>
 7    1  0.2385752E-015  0.9000774E+02  0.7816164E-02  0.1186339E+00
        -11   -1    0    0    0    0  0.00000000000E+00  0.00000000000E+00  0.45593999997E+02  0.45594000000E+02  0.51100000000E-03 0.  1.
         11   -1    0    0    0    0 -0.00000000000E+00 -0.00000000000E+00 -0.45593999997E+02  0.45594000000E+02  0.51100000000E-03 0. -1.
    9900012    2    1    2    0    0  0.56617927680E+00  0.98760901629E+00 -0.31158659898E+00  0.90007738694E+02  0.90000000044E+02 0.  0.
        -12    1    1    2    0    0 -0.56617927680E+00 -0.98760901629E+00  0.31158659898E+00  0.11802613063E+01  0.00000000000E+00 0.  1.
         11    1    3    3    0    0 -0.95586002611E+01  0.21471528814E+02 -0.31430986483E+02  0.39246659732E+02  0.51100000000E-03 0. -1.
        -11    1    3    3    0    0  0.16281223849E+01  0.86287979446E+01  0.12145929773E+02  0.14987679833E+02  0.51100000000E-03 0.  1.
        -12    1    3    3    0    0  0.84966571531E+01 -0.29112717742E+02  0.18973470112E+02  0.35773399128E+02  0.00000000000E+00 0.  1.
</event>
<event>
 7    1  0.2385752E-015  0.9000760E+02  0.7816164E-02  0.1186339E+00
        -11   -1    0    0    0    0  0.00000000000E+00  0.00000000000E+00  0.45593999997E+02  0.45594000000E+02  0.51100000000E-03 0.  1.
         11   -1    0    0    0    0 -0.00000000000E+00 -0.00000000000E+00 -0.45593999997E+02  0.45594000000E+02  0.51100000000E-03 0. -1.
    9900012    2    1    2    0    0  0.26410568227E+00 -0.95397054196E+00  0.64307051979E+00  0.90007596976E+02  0.89999856456E+02 0.  0.
        -12    1    1    2    0    0 -0.26410568227E+00  0.95397054196E+00 -0.64307051979E+00  0.11804030243E+01  0.00000000000E+00 0.  1.
         11    1    3    3    0    0 -0.60299533200E+01 -0.14791251406E+02  0.18624431645E+02  0.24535910612E+02  0.51100000000E-03 0. -1.
        -11    1    3    3    0    0 -0.26170278252E+02  0.28919368660E+01  0.91634028414E+00  0.26345520348E+02  0.51100000000E-03 0.  1.
         12    1    3    3    0    0  0.32464337254E+02  0.10945343998E+02 -0.18897701410E+02  0.39126166016E+02  0.00000000000E+00 0. -1.
</event>
<event>
 7    1  0.2385752E-015  0.9000741E+02  0.7816164E-02  0.1186340E+00
        -11   -1    0    0    0    0  0.00000000000E+00  0.00000000000E+00  0.45593999997E+02  0.45594000000E+02  0.51100000000E-03 0. -1.
         11   -1    0    0    0    0 -0.00000000000E+00 -0.00000000000E+00 -0.45593999997E+02  0.45594000000E+02  0.51100000000E-03 0.  1.
    9900012    2    1    2    0    0  0.56949622785E+00  0.10335206697E+01 -0.36159062563E-01  0.90007407604E+02  0.89999664584E+02 0.  0.
        -12    1    1    2    0    0 -0.56949622785E+00 -0.10335206697E+01  0.36159062563E-01  0.11805923962E+01  0.00000000000E+00 0.  1.
         11    1    3    3    0    0  0.39986088422E+01 -0.31452629175E+01  0.67946942822E+01  0.84881931023E+01  0.51100000000E-03 0. -1.
        -11    1    3    3    0    0 -0.33319312175E+02 -0.16085671002E+02 -0.21212909943E+02  0.42648715384E+02  0.51100000000E-03 0.  1.
         12    1    3    3    0    0  0.29890199561E+02  0.20264454589E+02  0.14382056598E+02  0.38870499117E+02  0.00000000000E+00 0. -1.
</event>
<event>
 7    1  0.2385752E-015  0.9000834E+02  0.7816164E-02  0.1186338E+00
        -11   -1    0    0    0    0  0.00000000000E+00  0.00000000000E+00  0.45593999997E+02  0.45594000000E+02  0.51100000000E-03 0. -1.
         11   -1    0    0    0    0 -0.00000000000E+00 -0.00000000000E+00 -0.45593999997E+02  0.45594000000E+02  0.51100000000E-03 0.  1.
    9900012    2    1    2    0    0  0.10374297804E+01  0.52635424957E+00  0.19567627817E+00  0.90008339646E+02  0.90000608927E+02 0.  0.
        -12    1    1    2    0    0 -0.10374297804E+01 -0.52635424957E+00 -0.19567627817E+00  0.11796603541E+01  0.00000000000E+00 0.  1.
         11    1    3    3    0    0  0.34718634530E+01  0.21501630234E+02  0.36488030755E+02  0.42494121090E+02  0.51100000000E-03 0. -1.
        -11    1    3    3    0    0  0.67986094200E+01 -0.45287103741E+01 -0.20517906289E+01  0.84225977432E+01  0.51100000000E-03 0.  1.
        -12    1    3    3    0    0 -0.92330430926E+01 -0.16446565610E+02 -0.34240563848E+02  0.39091620813E+02  0.00000000000E+00 0.  1.
</event>
<event>
 7    1  0.2385752E-015  0.9000771E+02  0.7816164E-02  0.1186339E+00
        -11   -1    0    0    0    0  0.00000000000E+00  0.00000000000E+00  0.45593999997E+02  0.45594000000E+02  0.51100000000E-03 0. -1.
         11   -1    0    0    0    0 -0.00000000000E+00 -0.00000000000E+00 -0.45593999997E+02  0.45594000000E+02  0.51100000000E-03 0.  1.
    9900012    2    1    2    0    0 -0.10091067643E+01  0.25660122703E+00 -0.55583525526E+00  0.90007706188E+02  0.89999967110E+02 0.  0.
        -12    1    1    2    0    0  0.10091067643E+01 -0.25660122703E+00  0.55583525526E+00  0.11802938119E+01  0.00000000000E+00 0.  1.
         11    1    3    3    0    0 -0.33865107512E+02 -0.37728528517E+01  0.22708706265E+02  0.40948324336E+02  0.51100000000E-03 0. -1.
        -11    1    3    3    0    0 -0.24409761922E+01  0.71387011262E+01 -0.60219612955E+01  0.96531568228E+01  0.51100000000E-03 0.  1.
        -12    1    3    3    0    0  0.35296976940E+02 -0.31092470475E+01 -0.17242580225E+02  0.39406225030E+02  0.00000000000E+00 0.  1.
</event>
<event>
 7    1  0.2385752E-015  0.9000779E+02  0.7816164E-02  0.1186339E+00
        -11   -1    0    0    0    0  0.00000000000E+00  0.00000000000E+00  0.45593999997E+02  0.45594000000E+02  0.51100000000E-03 0.  1.
         11   -1    0    0    0    0 -0.00000000000E+00 -0.00000000000E+00 -0.45593999997E+02  0.45594000000E+02  0.51100000000E-03 0. -1.
    9900012    2    1    2    0    0 -0.17718476942E+00 -0.10428345114E+01 -0.52345364075E+00  0.90007787318E+02  0.90000049311E+02 0.  0.
        -12    1    1    2    0    0  0.17718476942E+00  0.10428345114E+01  0.52345364075E+00  0.11802126820E+01  0.00000000000E+00 0.  1.
         11    1    3    3    0    0  0.79790400786E+01  0.40632524639E+00 -0.17036350670E+01  0.81689995400E+01  0.51100000000E-03 0. -1.
        -11    1    3    3    0    0  0.35919559757E+02 -0.72341780201E+01 -0.49153056680E+01  0.36969018581E+02  0.51100000000E-03 0.  1.
         12    1    3    3    0    0 -0.44075784605E+02  0.57850182623E+01  0.60954870942E+01  0.44869769197E+02  0.00000000000E+00 0. -1.
</event>
<event>
 7    1  0.2385752E-015  0.9000779E+02  0.7816164E-02  0.1186339E+00
        -11   -1    0    0    0    0  0.00000000000E+00  0.00000000000E+00  0.45593999997E+02  0.45594000000E+02  0.51100000000E-03 0.  1.
         11   -1    0    0    0    0 -0.00000000000E+00 -0.00000000000E+00 -0.45593999997E+02  0.45594000000E+02  0.51100000000E-03 0. -1.
    9900012    2    1    2    0    0  0.78732882097E+00 -0.69177593794E+00 -0.54264587566E+00  0.90007785966E+02  0.90000047940E+02 0.  0.
        -12    1    1    2    0    0 -0.78732882097E+00  0.69177593794E+00  0.54264587566E+00  0.11802140344E+01  0.00000000000E+00 0.  1.
         11    1    3    3    0    0 -0.50456039251E+01 -0.83911701162E+01  0.63679595595E+00  0.98120010313E+01  0.51100000000E-03 0. -1.
        -11    1    3    3    0    0 -0.35735237012E+02  0.12674644345E+02 -0.45851439805E+01  0.38192634357E+02  0.51100000000E-03 0.  1.
         12    1    3    3    0    0  0.41568169758E+02 -0.49752501664E+01  0.34057021489E+01  0.42003150577E+02  0.00000000000E+00 0. -1.
</event>
<event>
 7    1  0.2385752E-015  0.9000770E+02  0.7816164E-02  0.1186339E+00
        -11   -1    0    0    0    0  0.00000000000E+00  0.00000000000E+00  0.45593999997E+02  0.45594000000E+02  0.51100000000E-03 0.  1.
         11   -1    0    0    0    0 -0.00000000000E+00 -0.00000000000E+00 -0.45593999997E+02  0.45594000000E+02  0.51100000000E-03 0. -1.
    9900012    2    1    2    0    0 -0.61977746214E+00 -0.12588462868E+00 -0.99656085384E+00  0.90007701488E+02  0.89999962348E+02 0.  0.
        -12    1    1    2    0    0  0.61977746214E+00  0.12588462868E+00  0.99656085384E+00  0.11802985121E+01  0.00000000000E+00 0.  1.
         11    1    3    3    0    0  0.83689910267E+01 -0.79106114037E+01 -0.11020368513E+02  0.15939457519E+02  0.51100000000E-03 0. -1.
        -11    1    3    3    0    0 -0.13894977538E+02  0.20597157821E+02 -0.25732752608E+02  0.35769929663E+02  0.51100000000E-03 0.  1.
         12    1    3    3    0    0  0.49062090491E+01 -0.12812431046E+02  0.35756560267E+02  0.38298314306E+02  0.00000000000E+00 0. -1.
</event>
<event>
 7    1  0.2385752E-015  0.9000769E+02  0.7816164E-02  0.1186339E+00
        -11   -1    0    0    0    0  0.00000000000E+00  0.00000000000E+00  0.45593999997E+02  0.45594000000E+02  0.51100000000E-03 0.  1.
         11   -1    0    0    0    0 -0.00000000000E+00 -0.00000000000E+00 -0.45593999997E+02  0.45594000000E+02  0.51100000000E-03 0. -1.
    9900012    2    1    2    0    0 -0.68195597712E+00 -0.94031326415E+00 -0.20948269093E+00  0.90007688182E+02  0.89999948866E+02 0.  0.
        -12    1    1    2    0    0  0.68195597712E+00  0.94031326415E+00  0.20948269093E+00  0.11803118178E+01  0.00000000000E+00 0.  1.
         11    1    3    3    0    0  0.72779788748E+01 -0.12917240371E+01  0.45547496751E+01  0.86823540790E+01  0.51100000000E-03 0. -1.
        -11    1    3    3    0    0 -0.11224910924E+02 -0.39229057969E+02  0.27887715958E+01  0.40898592416E+02  0.51100000000E-03 0.  1.
         12    1    3    3    0    0  0.32649760723E+01  0.39580468742E+02 -0.75530039617E+01  0.40426741687E+02  0.00000000000E+00 0. -1.
</event>
<event>
 7    1  0.2385752E-015  0.9000786E+02  0.7816164E-02  0.1186339E+00
        -11   -1    0    0    0    0  0.00000000000E+00  0.00000000000E+00  0.45593999997E+02  0.45594000000E+02  0.51100000000E-03 0.  1.
         11   -1    0    0    0    0 -0.00000000000E+00 -0.00000000000E+00 -0.45593999997E+02  0.45594000000E+02  0.51100000000E-03 0. -1.
    9900012    2    1    2    0    0  0.32844750442E+00  0.42946204981E+00 -0.10490040955E+01  0.90007862293E+02  0.90000125275E+02 0.  0.
        -12    1    1    2    0    0 -0.32844750442E+00 -0.42946204981E+00  0.10490040955E+01  0.11801377072E+01  0.00000000000E+00 0.  1.
         11    1    3    3    0    0  0.76986324542E+01  0.16382251222E+01  0.55559106301E+01  0.96343586401E+01  0.51100000000E-03 0. -1.
        -11    1    3    3    0    0  0.19785098633E+02 -0.22035480615E+02  0.21083611980E+02  0.36352870977E+02  0.51100000000E-03 0.  1.
         12    1    3    3    0    0 -0.27155283583E+02  0.20826717543E+02 -0.27688526706E+02  0.44020632676E+02  0.00000000000E+00 0. -1.
</event>
<event>
 7    1  0.2385752E-015  0.9000785E+02  0.7816164E-02  0.1186339E+00
        -11   -1    0    0    0    0  0.00000000000E+00  0.00000000000E+00  0.45593999997E+02  0.45594000000E+02  0.51100000000E-03 0. -1.
         11   -1    0    0    0    0 -0.00000000000E+00 -0.00000000000E+00 -0.45593999997E+02  0.45594000000E+02  0.51100000000E-03 0.  1.
    9900012    2    1    2    0    0 -0.19475119879E+00  0.11125894084E+01  0.34201894685E+00  0.90007847391E+02  0.90000110176E+02 0.  0.
        -12    1    1    2    0    0  0.19475119879E+00 -0.11125894084E+01 -0.34201894685E+00  0.11801526092E+01  0.00000000000E+00 0.  1.
         11    1    3    3    0    0 -0.12099971975E+02 -0.28678864195E+02 -0.12227997378E+02  0.33442644834E+02  0.51100000000E-03 0. -1.
        -11    1    3    3    0    0  0.10596265029E+02 -0.89566996493E+01  0.11097895232E+02  0.17767008190E+02  0.51100000000E-03 0.  1.
        -12    1    3    3    0    0  0.13089557472E+01  0.38748153253E+02  0.14721210931E+01  0.38798194367E+02  0.00000000000E+00 0.  1.
</event>
<event>
 7    1  0.2385752E-015  0.9000772E+02  0.7816164E-02  0.1186339E+00
        -11   -1    0    0    0    0  0.00000000000E+00  0.00000000000E+00  0.45593999997E+02  0.45594000000E+02  0.51100000000E-03 0.  1.
         11   -1    0    0    0    0 -0.00000000000E+00 -0.00000000000E+00 -0.45593999997E+02  0.45594000000E+02  0.51100000000E-03 0. -1.
    9900012    2    1    2    0    0  0.10367461756E+01 -0.15042309213E+00  0.54368687139E+00  0.90007718189E+02  0.89999979269E+02 0.  0.
        -12    1    1    2    0    0 -0.10367461756E+01  0.15042309213E+00 -0.54368687139E+00  0.11802818110E+01  0.00000000000E+00 0.  1.
         11    1    3    3    0    0 -0.26706304599E+02  0.13925952363E+01 -0.31570325144E+02  0.41374526666E+02  0.51100000000E-03 0. -1.
        -11    1    3    3    0    0 -0.74355357441E+00 -0.73737550456E+01  0.73839896762E+01  0.10461760807E+02  0.51100000000E-03 0.  1.
        -12    1    3    3    0    0  0.28486604349E+02  0.58307367172E+01  0.24730022340E+02  0.38171430716E+02  0.00000000000E+00 0.  1.
</event>
<event>
 7    1  0.2394031E-015  0.9000776E+02  0.7816164E-02  0.1186339E+00
        -11   -1    0    0    0    0  0.00000000000E+00  0.00000000000E+00  0.45593999997E+02  0.45594000000E+02  0.51100000000E-03 0.  1.
         11   -1    0    0    0    0 -0.00000000000E+00 -0.00000000000E+00 -0.45593999997E+02  0.45594000000E+02  0.51100000000E-03 0. -1.
    9900012    2    1    2    0    0  0.78620709525E+00 -0.81552843098E+00  0.33130935784E+00  0.90007756759E+02  0.90000018348E+02 0.  0.
        -12    1    1    2    0    0 -0.78620709525E+00  0.81552843098E+00 -0.33130935784E+00  0.11802432414E+01  0.00000000000E+00 0.  1.
         11    1    3    3    0    0 -0.16293067510E+02 -0.28521400360E+02  0.24235010261E+02  0.40819971215E+02  0.51100000000E-03 0. -1.
        -11    1    3    3    0    0  0.10285013853E+02 -0.38021812303E+00  0.18780263089E+01  0.10461981593E+02  0.51100000000E-03 0.  1.
        -12    1    3    3    0    0  0.67942607524E+01  0.28086090052E+02 -0.25781727212E+02  0.38725803951E+02  0.00000000000E+00 0.  1.
</event>
<event>
 7    1  0.2385752E-015  0.9000773E+02  0.7816164E-02  0.1186339E+00
        -11   -1    0    0    0    0  0.00000000000E+00  0.00000000000E+00  0.45593999997E+02  0.45594000000E+02  0.51100000000E-03 0.  1.
         11   -1    0    0    0    0 -0.00000000000E+00 -0.00000000000E+00 -0.45593999997E+02  0.45594000000E+02  0.51100000000E-03 0. -1.
    9900012    2    1    2    0    0 -0.61633512073E+00  0.14853539255E+00 -0.99554008607E+00  0.90007732316E+02  0.89999993582E+02 0.  0.
        -12    1    1    2    0    0  0.61633512073E+00 -0.14853539255E+00  0.99554008607E+00  0.11802676844E+01  0.00000000000E+00 0.  1.
         11    1    3    3    0    0  0.23180551592E+02 -0.62547754007E+01 -0.23010912619E+02  0.33256011295E+02  0.51100000000E-03 0. -1.
        -11    1    3    3    0    0  0.12341932326E+02  0.69647935875E+01 -0.48023465503E+00  0.14179642762E+02  0.51100000000E-03 0.  1.
        -12    1    3    3    0    0 -0.36138819039E+02 -0.56148279422E+00  0.22495607188E+02  0.42572078259E+02  0.00000000000E+00 0.  1.
</event>
<event>
 7    1  0.2385752E-015  0.9000797E+02  0.7816164E-02  0.1186339E+00
        -11   -1    0    0    0    0  0.00000000000E+00  0.00000000000E+00  0.45593999997E+02  0.45594000000E+02  0.51100000000E-03 0. -1.
         11   -1    0    0    0    0 -0.00000000000E+00 -0.00000000000E+00 -0.45593999997E+02  0.45594000000E+02  0.51100000000E-03 0.  1.
    9900012    2    1    2    0    0 -0.82928170634E+00  0.28544861244E+00  0.78947504085E+00  0.90007974619E+02  0.90000239084E+02 0.  0.
        -12    1    1    2    0    0  0.82928170634E+00 -0.28544861244E+00 -0.78947504085E+00  0.11800253806E+01  0.00000000000E+00 0.  1.
         11    1    3    3    0    0  0.85463206663E+00  0.33972793349E+01 -0.82529365023E+01  0.89656491132E+01  0.51100000000E-03 0. -1.
        -11    1    3    3    0    0  0.34823883145E+02 -0.17383428495E+02  0.14357920276E+02  0.41485374513E+02  0.51100000000E-03 0.  1.
         12    1    3    3    0    0 -0.36507796918E+02  0.14271597772E+02 -0.53155087332E+01  0.39556950993E+02  0.00000000000E+00 0. -1.
</event>
<event>
 7    1  0.2385752E-015  0.9000775E+02  0.7816164E-02  0.1186339E+00
        -11   -1    0    0    0    0  0.00000000000E+00  0.00000000000E+00  0.45593999997E+02  0.45594000000E+02  0.51100000000E-03 0. -1.
         11   -1    0    0    0    0 -0.00000000000E+00 -0.00000000000E+00 -0.45593999997E+02  0.45594000000E+02  0.51100000000E-03 0.  1.
    9900012    2    1    2    0    0 -0.13330869316E+00 -0.11717809912E+01  0.46297674223E-01  0.90007751986E+02  0.90000013513E+02 0.  0.
        -12    1    1    2    0    0  0.13330869316E+00  0.11717809912E+01 -0.46297674223E-01  0.11802480136E+01  0.00000000000E+00 0.  1.
         11    1    3    3    0    0 -0.27911097967E+01  0.13407790937E+02  0.32344452500E+02  0.35124389809E+02  0.51100000000E-03 0. -1.
        -11    1    3    3    0    0 -0.30606034471E+01  0.33463392263E+01  0.86792025420E+01  0.97925398495E+01  0.51100000000E-03 0.  1.
        -12    1    3    3    0    0  0.57184045506E+01 -0.17925911155E+02 -0.40977357368E+02  0.45090822327E+02  0.00000000000E+00 0.  1.
</event>
<event>
 7    1  0.2385752E-015  0.9000776E+02  0.7816164E-02  0.1186339E+00
        -11   -1    0    0    0    0  0.00000000000E+00  0.00000000000E+00  0.45593999997E+02  0.45594000000E+02  0.51100000000E-03 0.  1.
         11   -1    0    0    0    0 -0.00000000000E+00 -0.00000000000E+00 -0.45593999997E+02  0.45594000000E+02  0.51100000000E-03 0. -1.
    9900012    2    1    2    0    0 -0.32423013587E+00  0.61175427825E+00 -0.95582009690E+00  0.90007762509E+02  0.90000024174E+02 0.  0.
        -12    1    1    2    0    0  0.32423013587E+00 -0.61175427825E+00  0.95582009690E+00  0.11802374912E+01  0.00000000000E+00 0.  1.
         11    1    3    3    0    0  0.45002772743E+00 -0.23432562258E+01 -0.53623167574E+01  0.58692261809E+01  0.51100000000E-03 0. -1.
        -11    1    3    3    0    0  0.28726460093E+01 -0.11691367492E+02  0.41966533270E+02  0.43659249694E+02  0.51100000000E-03 0.  1.
         12    1    3    3    0    0 -0.36469038726E+01  0.14646377996E+02 -0.37560036609E+02  0.40479286633E+02  0.00000000000E+00 0. -1.
</event>
<event>
 7    1  0.2385752E-015  0.9000768E+02  0.7816164E-02  0.1186339E+00
        -11   -1    0    0    0    0  0.00000000000E+00  0.00000000000E+00  0.45593999997E+02  0.45594000000E+02  0.51100000000E-03 0.  1.
         11   -1    0    0    0    0 -0.00000000000E+00 -0.00000000000E+00 -0.45593999997E+02  0.45594000000E+02  0.51100000000E-03 0. -1.
    9900012    2    1    2    0    0 -0.98891317886E+00 -0.30044253013E+00 -0.57004338525E+00  0.90007676125E+02  0.89999936650E+02 0.  0.
        -12    1    1    2    0    0  0.98891317886E+00  0.30044253013E+00  0.57004338525E+00  0.11803238752E+01  0.00000000000E+00 0.  1.
         11    1    3    3    0    0  0.17927315881E+02 -0.38033055389E+02 -0.47988399752E+00  0.42049164627E+02  0.51100000000E-03 0. -1.
        -11    1    3    3    0    0 -0.23203400245E+01 -0.63823330368E+00  0.52861752920E+01  0.58081812178E+01  0.51100000000E-03 0.  1.
        -12    1    3    3    0    0 -0.16595889036E+02  0.38370846163E+02 -0.53763346797E+01  0.42150330280E+02  0.00000000000E+00 0.  1.
</event>
<event>
 7    1  0.2385752E-015  0.9000780E+02  0.7816164E-02  0.1186339E+00
        -11   -1    0    0    0    0  0.00000000000E+00  0.00000000000E+00  0.45593999997E+02  0.45594000000E+02  0.51100000000E-03 0.  1.
         11   -1    0    0    0    0 -0.00000000000E+00 -0.00000000000E+00 -0.45593999997E+02  0.45594000000E+02  0.51100000000E-03 0. -1.
    9900012    2    1    2    0    0  0.81104624358E+00  0.78569050645E+00 -0.34318638571E+00  0.90007795579E+02  0.90000057680E+02 0.  0.
        -12    1    1    2    0    0 -0.81104624358E+00 -0.78569050645E+00  0.34318638571E+00  0.11802044215E+01  0.00000000000E+00 0.  1.
         11    1    3    3    0    0 -0.20117006580E+02  0.25773617061E+02 -0.18806152488E+02  0.37717962058E+02  0.51100000000E-03 0. -1.
        -11    1    3    3    0    0 -0.47309103646E+01  0.65984706040E+01  0.43912129696E+01  0.92306055487E+01  0.51100000000E-03 0.  1.
        -12    1    3    3    0    0  0.25658963188E+02 -0.31586397158E+02  0.14071753133E+02  0.43059227972E+02  0.00000000000E+00 0.  1.
</event>
<event>
 7    1  0.2385752E-015  0.9000776E+02  0.7816164E-02  0.1186339E+00
        -11   -1    0    0    0    0  0.00000000000E+00  0.00000000000E+00  0.45593999997E+02  0.45594000000E+02  0.51100000000E-03 0.  1.
         11   -1    0    0    0    0 -0.00000000000E+00 -0.00000000000E+00 -0.45593999997E+02  0.45594000000E+02  0.51100000000E-03 0. -1.
    9900012    2    1    2    0    0  0.10197418785E+01 -0.57816353506E+00 -0.13721114348E+00  0.90007757029E+02  0.90000018622E+02 0.  0.
        -12    1    1    2    0    0 -0.10197418785E+01  0.57816353506E+00  0.13721114348E+00  0.11802429707E+01  0.00000000000E+00 0.  1.
         11    1    3    3    0    0  0.64279630563E+01  0.10255713538E+01 -0.80535128590E+01  0.10355171427E+02  0.51100000000E-03 0. -1.
        -11    1    3    3    0    0  0.29802528310E+02  0.93886724061E+01 -0.16580017837E+02  0.35372798235E+02  0.51100000000E-03 0.  1.
         12    1    3    3    0    0 -0.35210749488E+02 -0.10992407295E+02  0.24496319553E+02  0.44279787367E+02  0.00000000000E+00 0. -1.
</event>
<event>
 7    1  0.2385752E-015  0.9000754E+02  0.7816164E-02  0.1186339E+00
        -11   -1    0    0    0    0  0.00000000000E+00  0.00000000000E+00  0.45593999997E+02  0.45594000000E+02  0.51100000000E-03 0. -1.
         11   -1    0    0    0    0 -0.00000000000E+00 -0.00000000000E+00 -0.45593999997E+02  0.45594000000E+02  0.51100000000E-03 0.  1.
    9900012    2    1    2    0    0  0.98618644807E+00  0.10835160760E+00  0.63967419499E+00  0.90007539557E+02  0.89999798279E+02 0.  0.
        -12    1    1    2    0    0 -0.98618644807E+00 -0.10835160760E+00 -0.63967419499E+00  0.11804604428E+01  0.00000000000E+00 0.  1.
         11    1    3    3    0    0 -0.42813850945E+01 -0.10260670327E+02  0.28148097170E+01  0.11468860793E+02  0.51100000000E-03 0. -1.
        -11    1    3    3    0    0  0.34823263414E+02  0.24492039016E+02  0.97552662993E+01  0.43677051993E+02  0.51100000000E-03 0.  1.
         12    1    3    3    0    0 -0.29555691872E+02 -0.14123017081E+02 -0.11930401821E+02  0.34861626771E+02  0.00000000000E+00 0. -1.
</event>
<event>
 7    1  0.2385752E-015  0.9000774E+02  0.7816164E-02  0.1186339E+00
        -11   -1    0    0    0    0  0.00000000000E+00  0.00000000000E+00  0.45593999997E+02  0.45594000000E+02  0.51100000000E-03 0.  1.
         11   -1    0    0    0    0 -0.00000000000E+00 -0.00000000000E+00 -0.45593999997E+02  0.45594000000E+02  0.51100000000E-03 0. -1.
    9900012    2    1    2    0    0 -0.50391552968E+00 -0.96605599807E+00 -0.45366113591E+00  0.90007744316E+02  0.90000005741E+02 0.  0.
        -12    1    1    2    0    0  0.50391552968E+00  0.96605599807E+00  0.45366113591E+00  0.11802556836E+01  0.00000000000E+00 0.  1.
         11    1    3    3    0    0  0.62143748632E+01 -0.18544978502E+01 -0.43755829569E+02  0.44233813297E+02  0.51100000000E-03 0. -1.
        -11    1    3    3    0    0  0.32423477521E+01  0.22836481307E+01  0.64305106717E+01  0.75550867295E+01  0.51100000000E-03 0.  1.
        -12    1    3    3    0    0 -0.99606381449E+01 -0.13952062786E+01  0.36871657761E+02  0.38218844290E+02  0.00000000000E+00 0.  1.
</event>
<event>
 7    1  0.2385752E-015  0.9000771E+02  0.7816164E-02  0.1186339E+00
        -11   -1    0    0    0    0  0.00000000000E+00  0.00000000000E+00  0.45593999997E+02  0.45594000000E+02  0.51100000000E-03 0.  1.
         11   -1    0    0    0    0 -0.00000000000E+00 -0.00000000000E+00 -0.45593999997E+02  0.45594000000E+02  0.51100000000E-03 0. -1.
    9900012    2    1    2    0    0  0.79709813137E+00 -0.20999244826E+00 -0.84475538069E+00  0.90007714478E+02  0.89999975509E+02 0.  0.
        -12    1    1    2    0    0 -0.79709813137E+00  0.20999244826E+00  0.84475538069E+00  0.11802855216E+01  0.00000000000E+00 0.  1.
         11    1    3    3    0    0  0.17089190245E+02 -0.63805784648E+01 -0.35312429135E+02  0.39745689784E+02  0.51100000000E-03 0. -1.
        -11    1    3    3    0    0  0.93343338055E+01 -0.30043769524E+00  0.14016597419E+02  0.16842952647E+02  0.51100000000E-03 0.  1.
        -12    1    3    3    0    0 -0.25626425919E+02  0.64710237118E+01  0.20451076335E+02  0.33419072047E+02  0.00000000000E+00 0.  1.
</event>
<event>
 7    1  0.2385752E-015  0.9000763E+02  0.7816164E-02  0.1186339E+00
        -11   -1    0    0    0    0  0.00000000000E+00  0.00000000000E+00  0.45593999997E+02  0.45594000000E+02  0.51100000000E-03 0.  1.
         11   -1    0    0    0    0 -0.00000000000E+00 -0.00000000000E+00 -0.45593999997E+02  0.45594000000E+02  0.51100000000E-03 0. -1.
    9900012    2    1    2    0    0 -0.96892928612E+00 -0.62526770216E+00 -0.25198632345E+00  0.90007626852E+02  0.89999886727E+02 0.  0.
        -12    1    1    2    0    0  0.96892928612E+00  0.62526770216E+00  0.25198632345E+00  0.11803731478E+01  0.00000000000E+00 0.  1.
         11    1    3    3    0    0  0.82981603815E+01  0.26869608029E+02 -0.15814411880E+02  0.32263461140E+02  0.51100000000E-03 0. -1.
        -11    1    3    3    0    0 -0.91876650032E+00  0.12280760739E+02 -0.35723224435E+01  0.12822741677E+02  0.51100000000E-03 0.  1.
        -12    1    3    3    0    0 -0.83483231673E+01 -0.39775636470E+02  0.19134748000E+02  0.44921424035E+02  0.00000000000E+00 0.  1.
</event>
<event>
 7    1  0.2385752E-015  0.9000763E+02  0.7816164E-02  0.1186339E+00
        -11   -1    0    0    0    0  0.00000000000E+00  0.00000000000E+00  0.45593999997E+02  0.45594000000E+02  0.51100000000E-03 0. -1.
         11   -1    0    0    0    0 -0.00000000000E+00 -0.00000000000E+00 -0.45593999997E+02  0.45594000000E+02  0.51100000000E-03 0.  1.
    9900012    2    1    2    0    0 -0.10704923836E+01 -0.45317407586E-01  0.49525483365E+00  0.90007625076E+02  0.89999884927E+02 0.  0.
        -12    1    1    2    0    0  0.10704923836E+01  0.45317407586E-01 -0.49525483365E+00  0.11803749240E+01  0.00000000000E+00 0.  1.
         11    1    3    3    0    0 -0.10198665616E+02  0.23564475318E+01  0.18656399402E+02  0.21392215038E+02  0.51100000000E-03 0. -1.
        -11    1    3    3    0    0  0.52706322670E+01  0.30169621743E+02  0.97516970091E+00  0.30642072332E+02  0.51100000000E-03 0.  1.
        -12    1    3    3    0    0  0.38575409657E+01 -0.32571386682E+02 -0.19136314270E+02  0.37973337706E+02  0.00000000000E+00 0.  1.
</event>
<event>
 7    1  0.3443072E-015  0.9000770E+02  0.7816164E-02  0.1186339E+00
        -11   -1    0    0    0    0  0.00000000000E+00  0.00000000000E+00  0.45593999997E+02  0.45594000000E+02  0.51100000000E-03 0.  1.
         11   -1    0    0    0    0 -0.00000000000E+00 -0.00000000000E+00 -0.45593999997E+02  0.45594000000E+02  0.51100000000E-03 0. -1.
    9900012    2    1    2    0    0  0.67157985615E+00  0.97056837980E+00 -0.94165134454E-02  0.90007698702E+02  0.89999959525E+02 0.  0.
        -12    1    1    2    0    0 -0.67157985615E+00 -0.97056837980E+00  0.94165134454E-02  0.11803012979E+01  0.00000000000E+00 0.  1.
         11    1    3    3    0    0  0.20820600813E+01  0.24677143933E+02 -0.32586357604E+02  0.40928805370E+02  0.51100000000E-03 0. -1.
        -11    1    3    3    0    0 -0.30544169803E+01 -0.80409010738E+01 -0.38261135863E+01  0.94140691842E+01  0.51100000000E-03 0.  1.
        -12    1    3    3    0    0  0.16439367552E+01 -0.15665674479E+02  0.36403054677E+02  0.39664824148E+02  0.00000000000E+00 0.  1.
</event>
<event>
 7    1  0.2385752E-015  0.9000782E+02  0.7816164E-02  0.1186339E+00
        -11   -1    0    0    0    0  0.00000000000E+00  0.00000000000E+00  0.45593999997E+02  0.45594000000E+02  0.51100000000E-03 0. -1.
         11   -1    0    0    0    0 -0.00000000000E+00 -0.00000000000E+00 -0.45593999997E+02  0.45594000000E+02  0.51100000000E-03 0.  1.
    9900012    2    1    2    0    0 -0.10012256004E+01  0.54362258094E+00 -0.30796570678E+00  0.90007821586E+02  0.90000084030E+02 0.  0.
        -12    1    1    2    0    0  0.10012256004E+01 -0.54362258094E+00  0.30796570678E+00  0.11801784144E+01  0.00000000000E+00 0.  1.
         11    1    3    3    0    0  0.74640180633E+01 -0.26237626691E+01  0.56081260982E+00  0.79315955039E+01  0.51100000000E-03 0. -1.
        -11    1    3    3    0    0  0.28249370469E+01 -0.36276923235E+02  0.13193650236E+02  0.38704881289E+02  0.51100000000E-03 0.  1.
         12    1    3    3    0    0 -0.11290180711E+02  0.39444308485E+02 -0.14062428553E+02  0.43371344793E+02  0.00000000000E+00 0. -1.
</event>
<event>
 7    1  0.3319172E-015  0.9000771E+02  0.7816164E-02  0.1186339E+00
        -11   -1    0    0    0    0  0.00000000000E+00  0.00000000000E+00  0.45593999997E+02  0.45594000000E+02  0.51100000000E-03 0. -1.
         11   -1    0    0    0    0 -0.00000000000E+00 -0.00000000000E+00 -0.45593999997E+02  0.45594000000E+02  0.51100000000E-03 0.  1.
    9900012    2    1    2    0    0  0.50005921859E+00 -0.25148070172E+00  0.10391236624E+01  0.90007712005E+02  0.89999973003E+02 0.  0.
        -12    1    1    2    0    0 -0.50005921859E+00  0.25148070172E+00 -0.10391236624E+01  0.11802879950E+01  0.00000000000E+00 0.  1.
         11    1    3    3    0    0  0.16809981520E+02  0.29287358320E+02  0.13727576487E+02  0.36452313953E+02  0.51100000000E-03 0. -1.
        -11    1    3    3    0    0 -0.11201957266E+00  0.80874480842E+01  0.43555405693E+01  0.91864083739E+01  0.51100000000E-03 0.  1.
        -12    1    3    3    0    0 -0.16197902729E+02 -0.37626287106E+02 -0.17043993394E+02  0.44368989678E+02  0.00000000000E+00 0.  1.
</event>
<event>
 7    1  0.2385752E-015  0.9000765E+02  0.7816164E-02  0.1186339E+00
        -11   -1    0    0    0    0  0.00000000000E+00  0.00000000000E+00  0.45593999997E+02  0.45594000000E+02  0.51100000000E-03 0.  1.
         11   -1    0    0    0    0 -0.00000000000E+00 -0.00000000000E+00 -0.45593999997E+02  0.45594000000E+02  0.51100000000E-03 0. -1.
    9900012    2    1    2    0    0 -0.11629169495E+01  0.12406807664E+00 -0.15957186051E+00  0.90007647554E+02  0.89999907701E+02 0.  0.
        -12    1    1    2    0    0  0.11629169495E+01 -0.12406807664E+00  0.15957186051E+00  0.11803524464E+01  0.00000000000E+00 0.  1.
         11    1    3    3    0    0 -0.28105081144E+02  0.86910412632E+01  0.42313417716E+01  0.29720936018E+02  0.51100000000E-03 0. -1.
        -11    1    3    3    0    0 -0.31263176878E+01  0.10955562742E+02 -0.18527340400E+02  0.21749955399E+02  0.51100000000E-03 0.  1.
        -12    1    3    3    0    0  0.30068481882E+02 -0.19522535929E+02  0.14136426768E+02  0.38536756137E+02  0.00000000000E+00 0.  1.
</event>
<event>
 7    1  0.2385752E-015  0.9000776E+02  0.7816164E-02  0.1186339E+00
        -11   -1    0    0    0    0  0.00000000000E+00  0.00000000000E+00  0.45593999997E+02  0.45594000000E+02  0.51100000000E-03 0.  1.
         11   -1    0    0    0    0 -0.00000000000E+00 -0.00000000000E+00 -0.45593999997E+02  0.45594000000E+02  0.51100000000E-03 0. -1.
    9900012    2    1    2    0    0  0.75109076345E+00 -0.90074604214E+00 -0.13226906130E+00  0.90007756012E+02  0.90000017591E+02 0.  0.
        -12    1    1    2    0    0 -0.75109076345E+00  0.90074604214E+00  0.13226906130E+00  0.11802439883E+01  0.00000000000E+00 0.  1.
         11    1    3    3    0    0 -0.17000147943E+00  0.59763849892E+01  0.92558707427E+01  0.11018948294E+02  0.51100000000E-03 0. -1.
        -11    1    3    3    0    0 -0.14987320411E+01  0.26110865972E+02 -0.30167916436E+02  0.39926516275E+02  0.51100000000E-03 0.  1.
         12    1    3    3    0    0  0.24198242840E+01 -0.32987997003E+02  0.20779776632E+02  0.39062291442E+02  0.00000000000E+00 0. -1.
</event>
<event>
 7    1  0.2385752E-015  0.9000773E+02  0.7816164E-02  0.1186339E+00
        -11   -1    0    0    0    0  0.00000000000E+00  0.00000000000E+00  0.45593999997E+02  0.45594000000E+02  0.51100000000E-03 0. -1.
         11   -1    0    0    0    0 -0.00000000000E+00 -0.00000000000E+00 -0.45593999997E+02  0.45594000000E+02  0.51100000000E-03 0.  1.
    9900012    2    1    2    0    0  0.48030312471E+00  0.10524987387E+01  0.23366015262E+00  0.90007728102E+02  0.89999989313E+02 0.  0.
        -12    1    1    2    0    0 -0.48030312471E+00 -0.10524987387E+01 -0.23366015262E+00  0.11802718981E+01  0.00000000000E+00 0.  1.
         11    1    3    3    0    0  0.16001895614E+02 -0.10623831726E+02  0.37464934543E+02  0.42101636362E+02  0.51100000000E-03 0. -1.
        -11    1    3    3    0    0  0.52946279889E+01  0.66321110472E+01 -0.79593733187E+01  0.11634844493E+02  0.51100000000E-03 0.  1.
        -12    1    3    3    0    0 -0.20816220478E+02  0.50442194177E+01 -0.29271901072E+02  0.36271247247E+02  0.00000000000E+00 0.  1.
</event>
<event>
 7    1  0.2385752E-015  0.9000772E+02  0.7816164E-02  0.1186339E+00
        -11   -1    0    0    0    0  0.00000000000E+00  0.00000000000E+00  0.45593999997E+02  0.45594000000E+02  0.51100000000E-03 0.  1.
         11   -1    0    0    0    0 -0.00000000000E+00 -0.00000000000E+00 -0.45593999997E+02  0.45594000000E+02  0.51100000000E-03 0. -1.
    9900012    2    1    2    0    0  0.11730520339E+01  0.94138524787E-01 -0.90266639191E-01  0.90007719863E+02  0.89999980965E+02 0.  0.
        -12    1    1    2    0    0 -0.11730520339E+01 -0.94138524787E-01  0.90266639191E-01  0.11802801372E+01  0.00000000000E+00 0.  1.
         11    1    3    3    0    0 -0.25699481355E+00  0.10478184488E+02 -0.30660687877E+02  0.32402718680E+02  0.51100000000E-03 0. -1.
        -11    1    3    3    0    0 -0.89956289046E+01  0.10969635430E+02 -0.48147958231E+01  0.14981204890E+02  0.51100000000E-03 0.  1.
        -12    1    3    3    0    0  0.10425675752E+02 -0.21353681394E+02  0.35385217061E+02  0.42623796293E+02  0.00000000000E+00 0.  1.
</event>
<event>
 7    1  0.2650861E-015  0.9000774E+02  0.7816164E-02  0.1186339E+00
        -11   -1    0    0    0    0  0.00000000000E+00  0.00000000000E+00  0.45593999997E+02  0.45594000000E+02  0.51100000000E-03 0. -1.
         11   -1    0    0    0    0 -0.00000000000E+00 -0.00000000000E+00 -0.45593999997E+02  0.45594000000E+02  0.51100000000E-03 0.  1.
    9900012    2    1    2    0    0 -0.31325879459E+00 -0.99770871582E+00  0.54723725627E+00  0.90007736314E+02  0.89999997633E+02 0.  0.
        -12    1    1    2    0    0  0.31325879459E+00  0.99770871582E+00 -0.54723725627E+00  0.11802636861E+01  0.00000000000E+00 0.  1.
         11    1    3    3    0    0 -0.15939648604E+02  0.29074477566E+02  0.12641497722E+02  0.35485280163E+02  0.51100000000E-03 0. -1.
        -11    1    3    3    0    0 -0.44026238293E+01  0.54310144881E+01  0.66565312572E+01  0.96534151258E+01  0.51100000000E-03 0.  1.
        -12    1    3    3    0    0  0.20029013639E+02 -0.35503200770E+02 -0.18750791722E+02  0.44869041025E+02  0.00000000000E+00 0.  1.
</event>
<event>
 7    1  0.2385752E-015  0.9000771E+02  0.7816164E-02  0.1186339E+00
        -11   -1    0    0    0    0  0.00000000000E+00  0.00000000000E+00  0.45593999997E+02  0.45594000000E+02  0.51100000000E-03 0.  1.
         11   -1    0    0    0    0 -0.00000000000E+00 -0.00000000000E+00 -0.45593999997E+02  0.45594000000E+02  0.51100000000E-03 0. -1.
    9900012    2    1    2    0    0 -0.45616995330E+00 -0.10448842612E+01 -0.30530205755E+00  0.90007710420E+02  0.89999971398E+02 0.  0.
        -12    1    1    2    0    0  0.45616995330E+00  0.10448842612E+01  0.30530205755E+00  0.11802895797E+01  0.00000000000E+00 0.  1.
         11    1    3    3    0    0  0.52613454181E+01  0.80625895305E+01 -0.42779931031E+00  0.96369143431E+01  0.51100000000E-03 0. -1.
        -11    1    3    3    0    0  0.80746718472E+01 -0.26464559719E+02  0.31516018758E+02  0.41938439232E+02  0.51100000000E-03 0.  1.
         12    1    3    3    0    0 -0.13792187219E+02  0.17357085927E+02 -0.31393521506E+02  0.38432356845E+02  0.00000000000E+00 0. -1.
</event>
<event>
 7    1  0.2385752E-015  0.9000779E+02  0.7816164E-02  0.1186339E+00
        -11   -1    0    0    0    0  0.00000000000E+00  0.00000000000E+00  0.45593999997E+02  0.45594000000E+02  0.51100000000E-03 0.  1.
         11   -1    0    0    0    0 -0.00000000000E+00 -0.00000000000E+00 -0.45593999997E+02  0.45594000000E+02  0.51100000000E-03 0. -1.
    9900012    2    1    2    0    0 -0.78747225076E-01  0.80511854819E+00 -0.85934330828E+00  0.90007793271E+02  0.90000055342E+02 0.  0.
        -12    1    1    2    0    0  0.78747225076E-01 -0.80511854819E+00  0.85934330828E+00  0.11802067292E+01  0.00000000000E+00 0.  1.
         11    1    3    3    0    0  0.70302288556E+01  0.29071663687E+02 -0.27120414718E+02  0.40374529620E+02  0.51100000000E-03 0. -1.
        -11    1    3    3    0    0  0.86756344754E+01  0.87614702286E+00  0.33447979984E+01  0.93392687651E+01  0.51100000000E-03 0.  1.
        -12    1    3    3    0    0 -0.15784610556E+02 -0.29142692161E+02  0.22916273411E+02  0.40293994886E+02  0.00000000000E+00 0.  1.
</event>
<event>
 7    1  0.2385752E-015  0.9000769E+02  0.7816164E-02  0.1186339E+00
        -11   -1    0    0    0    0  0.00000000000E+00  0.00000000000E+00  0.45593999997E+02  0.45594000000E+02  0.51100000000E-03 0. -1.
         11   -1    0    0    0    0 -0.00000000000E+00 -0.00000000000E+00 -0.45593999997E+02  0.45594000000E+02  0.51100000000E-03 0.  1.
    9900012    2    1    2    0    0  0.71129209561E+00 -0.43460891478E+00  0.83565332977E+00  0.90007687397E+02  0.89999948070E+02 0.  0.
        -12    1    1    2    0    0 -0.71129209561E+00  0.43460891478E+00 -0.83565332977E+00  0.11803126034E+01  0.00000000000E+00 0.  1.
         11    1    3    3    0    0  0.14940588065E+02 -0.26290951852E+02  0.15161993485E+02  0.33827819435E+02  0.51100000000E-03 0. -1.
        -11    1    3    3    0    0 -0.12059125943E+02 -0.10853623672E+02 -0.10225871240E+02  0.19177906773E+02  0.51100000000E-03 0.  1.
        -12    1    3    3    0    0 -0.21701700271E+01  0.36709966610E+02 -0.41004689154E+01  0.37001961188E+02  0.00000000000E+00 0.  1.
</event>
<event>
 7    1  0.2385752E-015  0.9000763E+02  0.7816164E-02  0.1186339E+00
        -11   -1    0    0    0    0  0.00000000000E+00  0.00000000000E+00  0.45593999997E+02  0.45594000000E+02  0.51100000000E-03 0. -1.
         11   -1    0    0    0    0 -0.00000000000E+00 -0.00000000000E+00 -0.45593999997E+02  0.45594000000E+02  0.51100000000E-03 0.  1.
    9900012    2    1    2    0    0  0.25564284467E-01 -0.94249470167E+00  0.71015042056E+00  0.90007634203E+02  0.89999894174E+02 0.  0.
        -12    1    1    2    0    0 -0.25564284467E-01  0.94249470167E+00 -0.71015042056E+00  0.11803657972E+01  0.00000000000E+00 0.  1.
         11    1    3    3    0    0  0.67656572133E+01  0.27433205046E+00 -0.38815508924E+01  0.78048583070E+01  0.51100000000E-03 0. -1.
        -11    1    3    3    0    0 -0.18032022310E+02 -0.36668884391E+02  0.15062715578E+02  0.43550503004E+02  0.51100000000E-03 0.  1.
         12    1    3    3    0    0  0.11291929381E+02  0.35452057639E+02 -0.10471014265E+02  0.38652272892E+02  0.00000000000E+00 0. -1.
</event>
<event>
 7    1  0.2385752E-015  0.9000774E+02  0.7816164E-02  0.1186339E+00
        -11   -1    0    0    0    0  0.00000000000E+00  0.00000000000E+00  0.45593999997E+02  0.45594000000E+02  0.51100000000E-03 0. -1.
         11   -1    0    0    0    0 -0.00000000000E+00 -0.00000000000E+00 -0.45593999997E+02  0.45594000000E+02  0.51100000000E-03 0.  1.
    9900012    2    1    2    0    0  0.71645126767E+00 -0.23898686239E+00  0.90697418929E+00  0.90007737606E+02  0.89999998942E+02 0.  0.
        -12    1    1    2    0    0 -0.71645126767E+00  0.23898686239E+00 -0.90697418929E+00  0.11802623943E+01  0.00000000000E+00 0.  1.
         11    1    3    3    0    0  0.99081642463E+01  0.21395150228E+01 -0.18069979905E+00  0.10138140655E+02  0.51100000000E-03 0. -1.
        -11    1    3    3    0    0  0.26414660342E+02 -0.10681824684E+02 -0.22546402755E+02  0.36334225422E+02  0.51100000000E-03 0.  1.
         12    1    3    3    0    0 -0.35606373321E+02  0.83033227991E+01  0.23634076743E+02  0.43535371528E+02  0.00000000000E+00 0. -1.
</event>
<event>
 7    1  0.2385752E-015  0.9000774E+02  0.7816164E-02  0.1186339E+00
        -11   -1    0    0    0    0  0.00000000000E+00  0.00000000000E+00  0.45593999997E+02  0.45594000000E+02  0.51100000000E-03 0.  1.
         11   -1    0    0    0    0 -0.00000000000E+00 -0.00000000000E+00 -0.45593999997E+02  0.45594000000E+02  0.51100000000E-03 0. -1.
    9900012    2    1    2    0    0 -0.28049440092E+00 -0.48354565003E+00 -0.10394807465E+01  0.90007739975E+02  0.90000001342E+02 0.  0.
        -12    1    1    2    0    0  0.28049440092E+00  0.48354565003E+00  0.10394807465E+01  0.11802600252E+01  0.00000000000E+00 0.  1.
         11    1    3    3    0    0  0.75074963447E+00 -0.73631665947E+01  0.55383571833E+01  0.92440925928E+01  0.51100000000E-03 0. -1.
        -11    1    3    3    0    0  0.55397128017E+01 -0.27316790184E+02  0.22164902676E+02  0.35611491892E+02  0.51100000000E-03 0.  1.
         12    1    3    3    0    0 -0.65709568371E+01  0.34196411129E+02 -0.28742740606E+02  0.45152155490E+02  0.00000000000E+00 0. -1.
</event>
<event>
 7    1  0.2385752E-015  0.9000777E+02  0.7816164E-02  0.1186339E+00
        -11   -1    0    0    0    0  0.00000000000E+00  0.00000000000E+00  0.45593999997E+02  0.45594000000E+02  0.51100000000E-03 0. -1.
         11   -1    0    0    0    0 -0.00000000000E+00 -0.00000000000E+00 -0.45593999997E+02  0.45594000000E+02  0.51100000000E-03 0.  1.
    9900012    2    1    2    0    0  0.50729708851E+00 -0.15293131175E+00  0.10546138000E+01  0.90007767570E+02  0.90000029302E+02 0.  0.
        -12    1    1    2    0    0 -0.50729708851E+00  0.15293131175E+00 -0.10546138000E+01  0.11802324302E+01  0.00000000000E+00 0.  1.
         11    1    3    3    0    0 -0.13592057854E+02 -0.24079757330E+00  0.71773132653E+01  0.15372567975E+02  0.51100000000E-03 0. -1.
        -11    1    3    3    0    0  0.11261727432E+00 -0.17629804254E+02  0.28376495318E+02  0.33407307097E+02  0.51100000000E-03 0.  1.
         12    1    3    3    0    0  0.13986737668E+02  0.17717670516E+02 -0.34499194783E+02  0.41227892498E+02  0.00000000000E+00 0. -1.
</event>
<event>
 7    1  0.2385752E-015  0.9000780E+02  0.7816164E-02  0.1186339E+00
        -11   -1    0    0    0    0  0.00000000000E+00  0.00000000000E+00  0.45593999997E+02  0.45594000000E+02  0.51100000000E-03 0.  1.
         11   -1    0    0    0    0 -0.00000000000E+00 -0.00000000000E+00 -0.45593999997E+02  0.45594000000E+02  0.51100000000E-03 0. -1.
    9900012    2    1    2    0    0  0.89140451111E+00 -0.59696804518E+00 -0.49182982265E+00  0.90007801108E+02  0.90000063283E+02 0.  0.
        -12    1    1    2    0    0 -0.89140451111E+00  0.59696804518E+00  0.49182982265E+00  0.11801988916E+01  0.00000000000E+00 0.  1.
         11    1    3    3    0    0  0.22315514396E+02  0.31025183200E+02 -0.58894077827E+01  0.38668194936E+02  0.51100000000E-03 0. -1.
        -11    1    3    3    0    0 -0.18050706994E+01  0.39201328057E+01  0.95996610874E+01  0.10525170531E+02  0.51100000000E-03 0.  1.
        -12    1    3    3    0    0 -0.19619039186E+02 -0.35542284051E+02 -0.42020831273E+01  0.40814435641E+02  0.00000000000E+00 0.  1.
</event>
<event>
 7    1  0.2385752E-015  0.9000782E+02  0.7816164E-02  0.1186339E+00
        -11   -1    0    0    0    0  0.00000000000E+00  0.00000000000E+00  0.45593999997E+02  0.45594000000E+02  0.51100000000E-03 0. -1.
         11   -1    0    0    0    0 -0.00000000000E+00 -0.00000000000E+00 -0.45593999997E+02  0.45594000000E+02  0.51100000000E-03 0.  1.
    9900012    2    1    2    0    0 -0.59833488087E+00  0.97603749341E+00  0.28666707577E+00  0.90007817035E+02  0.90000079420E+02 0.  0.
        -12    1    1    2    0    0  0.59833488087E+00 -0.97603749341E+00 -0.28666707577E+00  0.11801829649E+01  0.00000000000E+00 0.  1.
         11    1    3    3    0    0  0.12107967257E+02 -0.15829280745E+02  0.50216588991E+01  0.20552032949E+02  0.51100000000E-03 0. -1.
        -11    1    3    3    0    0 -0.15179813479E+02 -0.76130582562E+00 -0.32859217938E+02  0.36204067832E+02  0.51100000000E-03 0.  1.
         12    1    3    3    0    0  0.24735113417E+01  0.17566624064E+02  0.28124226114E+02  0.33251716255E+02  0.00000000000E+00 0. -1.
</event>
<event>
 7    1  0.2385752E-015  0.9000760E+02  0.7816164E-02  0.1186339E+00
        -11   -1    0    0    0    0  0.00000000000E+00  0.00000000000E+00  0.45593999997E+02  0.45594000000E+02  0.51100000000E-03 0.  1.
         11   -1    0    0    0    0 -0.00000000000E+00 -0.00000000000E+00 -0.45593999997E+02  0.45594000000E+02  0.51100000000E-03 0. -1.
    9900012    2    1    2    0    0 -0.99746605081E+00  0.32428049889E+00 -0.54153416827E+00  0.90007595146E+02  0.89999854602E+02 0.  0.
        -12    1    1    2    0    0  0.99746605081E+00 -0.32428049889E+00  0.54153416827E+00  0.11804048542E+01  0.00000000000E+00 0.  1.
         11    1    3    3    0    0 -0.32691359821E+02 -0.19810698043E+02 -0.34981461787E+01  0.38385228810E+02  0.51100000000E-03 0. -1.
        -11    1    3    3    0    0 -0.67702246787E+01  0.29109586846E+01  0.58057631426E+01  0.93817113894E+01  0.51100000000E-03 0.  1.
        -12    1    3    3    0    0  0.38464118449E+02  0.17224019857E+02 -0.28491511322E+01  0.42240654946E+02  0.00000000000E+00 0.  1.
</event>
<event>
 7    1  0.2385752E-015  0.9000764E+02  0.7816164E-02  0.1186339E+00
        -11   -1    0    0    0    0  0.00000000000E+00  0.00000000000E+00  0.45593999997E+02  0.45594000000E+02  0.51100000000E-03 0.  1.
         11   -1    0    0    0    0 -0.00000000000E+00 -0.00000000000E+00 -0.45593999997E+02  0.45594000000E+02  0.51100000000E-03 0. -1.
    9900012    2    1    2    0    0 -0.85288544638E+00 -0.72466896720E+00 -0.37509558769E+00  0.90007637599E+02  0.89999897616E+02 0.  0.
        -12    1    1    2    0    0  0.85288544638E+00  0.72466896720E+00  0.37509558769E+00  0.11803624005E+01  0.00000000000E+00 0.  1.
         11    1    3    3    0    0 -0.33929100056E+02  0.21920277433E+02  0.15321910727E+01  0.40423136977E+02  0.51100000000E-03 0. -1.
        -11    1    3    3    0    0 -0.49052930495E+01 -0.68213593995E+01 -0.32835175894E+00  0.84083683969E+01  0.51100000000E-03 0.  1.
        -12    1    3    3    0    0  0.37981507659E+02 -0.15823587001E+02 -0.15789349014E+01  0.41176132225E+02  0.00000000000E+00 0.  1.
</event>
<event>
 7    1  0.2385752E-015  0.9000776E+02  0.7816164E-02  0.1186339E+00
        -11   -1    0    0    0    0  0.00000000000E+00  0.00000000000E+00  0.45593999997E+02  0.45594000000E+02  0.51100000000E-03 0.  1.
         11   -1    0    0    0    0 -0.00000000000E+00 -0.00000000000E+00 -0.45593999997E+02  0.45594000000E+02  0.51100000000E-03 0. -1.
    9900012    2    1    2    0    0 -0.84699612309E+00 -0.40323054550E+00 -0.71621945295E+00  0.90007759512E+02  0.90000021137E+02 0.  0.
        -12    1    1    2    0    0  0.84699612309E+00  0.40323054550E+00  0.71621945295E+00  0.11802404883E+01  0.00000000000E+00 0.  1.
         11    1    3    3    0    0 -0.34827829509E+00 -0.64067022255E+01  0.53054724055E+01  0.83255731865E+01  0.51100000000E-03 0. -1.
        -11    1    3    3    0    0 -0.75903189197E+01  0.17976173277E+02  0.34060082954E+02  0.39253598537E+02  0.51100000000E-03 0.  1.
         12    1    3    3    0    0  0.70916010917E+01 -0.11972701597E+02 -0.40081774813E+02  0.42428587788E+02  0.00000000000E+00 0. -1.
</event>
<event>
 7    1  0.2385752E-015  0.9000770E+02  0.7816164E-02  0.1186339E+00
        -11   -1    0    0    0    0  0.00000000000E+00  0.00000000000E+00  0.45593999997E+02  0.45594000000E+02  0.51100000000E-03 0. -1.
         11   -1    0    0    0    0 -0.00000000000E+00 -0.00000000000E+00 -0.45593999997E+02  0.45594000000E+02  0.51100000000E-03 0.  1.
    9900012    2    1    2    0    0  0.60291577447E+00 -0.10107036770E+01  0.89886114028E-01  0.90007699671E+02  0.89999960506E+02 0.  0.
        -12    1    1    2    0    0 -0.60291577447E+00  0.10107036770E+01 -0.89886114028E-01  0.11803003293E+01  0.00000000000E+00 0.  1.
         11    1    3    3    0    0 -0.33864601294E+02 -0.12531825093E+02 -0.70677785754E+01  0.36794175561E+02  0.51100000000E-03 0. -1.
        -11    1    3    3    0    0 -0.38534779333E+01 -0.60084288712E+01 -0.57228962106E+01  0.91488824990E+01  0.51100000000E-03 0.  1.
        -12    1    3    3    0    0  0.38320995002E+02  0.17529550287E+02  0.12880560900E+02  0.44064641611E+02  0.00000000000E+00 0.  1.
</event>
<event>
 7    1  0.2385752E-015  0.9000770E+02  0.7816164E-02  0.1186339E+00
        -11   -1    0    0    0    0  0.00000000000E+00  0.00000000000E+00  0.45593999997E+02  0.45594000000E+02  0.51100000000E-03 0.  1.
         11   -1    0    0    0    0 -0.00000000000E+00 -0.00000000000E+00 -0.45593999997E+02  0.45594000000E+02  0.51100000000E-03 0. -1.
    9900012    2    1    2    0    0 -0.20031257067E+00  0.82352389568E-01 -0.11602574495E+01  0.90007701567E+02  0.89999962428E+02 0.  0.
        -12    1    1    2    0    0  0.20031257067E+00 -0.82352389568E-01  0.11602574495E+01  0.11802984330E+01  0.00000000000E+00 0.  1.
         11    1    3    3    0    0 -0.55429274265E+01 -0.24450614051E+00  0.68606625268E+01  0.88234074074E+01  0.51100000000E-03 0. -1.
        -11    1    3    3    0    0 -0.10427884215E+02 -0.74511386508E+01  0.33621494929E+02  0.35981455750E+02  0.51100000000E-03 0.  1.
         12    1    3    3    0    0  0.15770499071E+02  0.77779971809E+01 -0.41642414905E+02  0.45202838409E+02  0.00000000000E+00 0. -1.
</event>
<event>
 7    1  0.2385752E-015  0.9000764E+02  0.7816164E-02  0.1186339E+00
        -11   -1    0    0    0    0  0.00000000000E+00  0.00000000000E+00  0.45593999997E+02  0.45594000000E+02  0.51100000000E-03 0.  1.
         11   -1    0    0    0    0 -0.00000000000E+00 -0.00000000000E+00 -0.45593999997E+02  0.45594000000E+02  0.51100000000E-03 0. -1.
    9900012    2    1    2    0    0  0.61022901578E-01 -0.11778676326E+01 -0.46435755889E-01  0.90007638939E+02  0.89999898973E+02 0.  0.
        -12    1    1    2    0    0 -0.61022901578E-01  0.11778676326E+01  0.46435755889E-01  0.11803610608E+01  0.00000000000E+00 0.  1.
         11    1    3    3    0    0 -0.77832909078E+01 -0.21707631915E+01  0.48075016408E+01  0.94023349481E+01  0.51100000000E-03 0. -1.
        -11    1    3    3    0    0 -0.33747527525E+02 -0.10072352688E+01 -0.16199015835E+02  0.37447539989E+02  0.51100000000E-03 0.  1.
         12    1    3    3    0    0  0.41591841334E+02  0.20001308276E+01  0.11345078439E+02  0.43157764002E+02  0.00000000000E+00 0. -1.
</event>
<event>
 7    1  0.2440323E-015  0.9000776E+02  0.7816164E-02  0.1186339E+00
        -11   -1    0    0    0    0  0.00000000000E+00  0.00000000000E+00  0.45593999997E+02  0.45594000000E+02  0.51100000000E-03 0.  1.
         11   -1    0    0    0    0 -0.00000000000E+00 -0.00000000000E+00 -0.45593999997E+02  0.45594000000E+02  0.51100000000E-03 0. -1.
    9900012    2    1    2    0    0  0.47163838672E+00  0.77879001372E+00  0.75100722630E+00  0.90007759132E+02  0.90000020752E+02 0.  0.
        -12    1    1    2    0    0 -0.47163838672E+00 -0.77879001372E+00 -0.75100722630E+00  0.11802408683E+01  0.00000000000E+00 0.  1.
         11    1    3    3    0    0 -0.28852195225E+02  0.15293255518E+02 -0.15505533513E+02  0.36149058126E+02  0.51100000000E-03 0. -1.
        -11    1    3    3    0    0 -0.33804489731E+01  0.71687632438E+01 -0.48609598297E+01  0.92977165171E+01  0.51100000000E-03 0.  1.
        -12    1    3    3    0    0  0.32704282585E+02 -0.21683228748E+02  0.21117500569E+02  0.44560984488E+02  0.00000000000E+00 0.  1.
</event>
<event>
 7    1  0.2385752E-015  0.9000831E+02  0.7816164E-02  0.1186338E+00
        -11   -1    0    0    0    0  0.00000000000E+00  0.00000000000E+00  0.45593999997E+02  0.45594000000E+02  0.51100000000E-03 0.  1.
         11   -1    0    0    0    0 -0.00000000000E+00 -0.00000000000E+00 -0.45593999997E+02  0.45594000000E+02  0.51100000000E-03 0. -1.
    9900012    2    1    2    0    0  0.42959925473E+00 -0.10912063814E+01 -0.12800633033E+00  0.90008308300E+02  0.90000577168E+02 0.  0.
        -12    1    1    2    0    0 -0.42959925473E+00  0.10912063814E+01  0.12800633033E+00  0.11796917000E+01  0.00000000000E+00 0.  1.
         11    1    3    3    0    0  0.37073490737E+02  0.17350893472E+02 -0.76791636087E+01  0.41646929943E+02  0.51100000000E-03 0. -1.
        -11    1    3    3    0    0 -0.60091616242E+01  0.96248843058E+00 -0.70106518102E+01  0.92836224864E+01  0.51100000000E-03 0.  1.
        -12    1    3    3    0    0 -0.30634729858E+02 -0.19404588284E+02  0.14561809089E+02  0.39077755871E+02  0.00000000000E+00 0.  1.
</event>
<event>
 7    1  0.2385752E-015  0.9000781E+02  0.7816164E-02  0.1186339E+00
        -11   -1    0    0    0    0  0.00000000000E+00  0.00000000000E+00  0.45593999997E+02  0.45594000000E+02  0.51100000000E-03 0.  1.
         11   -1    0    0    0    0 -0.00000000000E+00 -0.00000000000E+00 -0.45593999997E+02  0.45594000000E+02  0.51100000000E-03 0. -1.
    9900012    2    1    2    0    0 -0.52245756376E+00 -0.83095034625E+00  0.65529082434E+00  0.90007810842E+02  0.90000073145E+02 0.  0.
        -12    1    1    2    0    0  0.52245756376E+00  0.83095034625E+00 -0.65529082434E+00  0.11801891579E+01  0.00000000000E+00 0.  1.
         11    1    3    3    0    0  0.82189762618E+01 -0.36497263586E+01 -0.25139764153E+01  0.93376737447E+01  0.51100000000E-03 0. -1.
        -11    1    3    3    0    0  0.78181992638E+01 -0.30945558817E+02  0.21849002321E+02  0.38679849443E+02  0.51100000000E-03 0.  1.
         12    1    3    3    0    0 -0.16559633089E+02  0.33764334830E+02 -0.18679735082E+02  0.41990287654E+02  0.00000000000E+00 0. -1.
</event>
<event>
 7    1  0.2385752E-015  0.9000763E+02  0.7816164E-02  0.1186339E+00
        -11   -1    0    0    0    0  0.00000000000E+00  0.00000000000E+00  0.45593999997E+02  0.45594000000E+02  0.51100000000E-03 0.  1.
         11   -1    0    0    0    0 -0.00000000000E+00 -0.00000000000E+00 -0.45593999997E+02  0.45594000000E+02  0.51100000000E-03 0. -1.
    9900012    2    1    2    0    0  0.12283817057E+00 -0.10993399866E+01  0.41186148462E+00  0.90007632470E+02  0.89999892419E+02 0.  0.
        -12    1    1    2    0    0 -0.12283817057E+00  0.10993399866E+01 -0.41186148462E+00  0.11803675295E+01  0.00000000000E+00 0.  1.
         11    1    3    3    0    0 -0.85827931752E+01  0.10872224266E+02  0.35573092310E+00  0.13856267316E+02  0.51100000000E-03 0. -1.
        -11    1    3    3    0    0  0.33192110000E+02  0.17675690556E+02 -0.18666700752E+01  0.37651436364E+02  0.51100000000E-03 0.  1.
         12    1    3    3    0    0 -0.24486478654E+02 -0.29647254809E+02  0.19228006367E+01  0.38499928790E+02  0.00000000000E+00 0. -1.
</event>
<event>
 7    1  0.2385752E-015  0.9000766E+02  0.7816164E-02  0.1186339E+00
        -11   -1    0    0    0    0  0.00000000000E+00  0.00000000000E+00  0.45593999997E+02  0.45594000000E+02  0.51100000000E-03 0.  1.
         11   -1    0    0    0    0 -0.00000000000E+00 -0.00000000000E+00 -0.45593999997E+02  0.45594000000E+02  0.51100000000E-03 0. -1.
    9900012    2    1    2    0    0  0.20616066801E+00  0.10627188710E+01 -0.47046855406E+00  0.90007655017E+02  0.89999915263E+02 0.  0.
        -12    1    1    2    0    0 -0.20616066801E+00 -0.10627188710E+01  0.47046855406E+00  0.11803449835E+01  0.00000000000E+00 0.  1.
         11    1    3    3    0    0 -0.46123226558E+01  0.26859707178E+01 -0.93884252041E+01  0.10799559577E+02  0.51100000000E-03 0. -1.
        -11    1    3    3    0    0  0.33425736816E+02  0.70441753571E+01 -0.18324850982E+02  0.38764680470E+02  0.51100000000E-03 0.  1.
         12    1    3    3    0    0 -0.28607253492E+02 -0.86674272039E+01  0.27242807632E+02  0.40443414970E+02  0.00000000000E+00 0. -1.
</event>
<event>
 7    1  0.2385752E-015  0.9000780E+02  0.7816164E-02  0.1186339E+00
        -11   -1    0    0    0    0  0.00000000000E+00  0.00000000000E+00  0.45593999997E+02  0.45594000000E+02  0.51100000000E-03 0. -1.
         11   -1    0    0    0    0 -0.00000000000E+00 -0.00000000000E+00 -0.45593999997E+02  0.45594000000E+02  0.51100000000E-03 0.  1.
    9900012    2    1    2    0    0  0.62117698999E+00 -0.86920382357E+00  0.50150161563E+00  0.90007796623E+02  0.90000058739E+02 0.  0.
        -12    1    1    2    0    0 -0.62117698999E+00  0.86920382357E+00 -0.50150161563E+00  0.11802033767E+01  0.00000000000E+00 0.  1.
         11    1    3    3    0    0 -0.74738419474E+01  0.33483107719E+01 -0.58552171525E+01  0.10067426019E+02  0.51100000000E-03 0. -1.
        -11    1    3    3    0    0 -0.33666959286E+02  0.23982549089E+01 -0.90394616889E+01  0.34941775027E+02  0.51100000000E-03 0.  1.
         12    1    3    3    0    0  0.41761978223E+02 -0.66157695043E+01  0.15396180457E+02  0.44998595577E+02  0.00000000000E+00 0. -1.
</event>
<event>
 7    1  0.2385752E-015  0.9000779E+02  0.7816164E-02  0.1186339E+00
        -11   -1    0    0    0    0  0.00000000000E+00  0.00000000000E+00  0.45593999997E+02  0.45594000000E+02  0.51100000000E-03 0.  1.
         11   -1    0    0    0    0 -0.00000000000E+00 -0.00000000000E+00 -0.45593999997E+02  0.45594000000E+02  0.51100000000E-03 0. -1.
    9900012    2    1    2    0    0 -0.49053862166E+00 -0.83250204124E+00  0.67765614757E+00  0.90007785764E+02  0.90000047736E+02 0.  0.
        -12    1    1    2    0    0  0.49053862166E+00  0.83250204124E+00 -0.67765614757E+00  0.11802142358E+01  0.00000000000E+00 0.  1.
         11    1    3    3    0    0  0.54233877916E+01 -0.69005415382E+01  0.41218199743E+01  0.96963915360E+01  0.51100000000E-03 0. -1.
        -11    1    3    3    0    0 -0.15798911022E+02 -0.19314568915E+02  0.28796766604E+02  0.38103962116E+02  0.51100000000E-03 0.  1.
         12    1    3    3    0    0  0.98849846090E+01  0.25382608412E+02 -0.32240930430E+02  0.42207432112E+02  0.00000000000E+00 0. -1.
</event>
<event>
 8    1  0.2385752E-015  0.9000776E+02  0.7816164E-02  0.1186339E+00
        -11   -1    0    0    0    0  0.00000000000E+00  0.00000000000E+00  0.45593999997E+02  0.45594000000E+02  0.51100000000E-03 0.  1.
         11   -1    0    0    0    0 -0.00000000000E+00 -0.00000000000E+00 -0.45593999997E+02  0.45594000000E+02  0.51100000000E-03 0. -1.
    9900012    2    1    2    0    0 -0.62841715481E+00 -0.31890876435E+00  0.94675523401E+00  0.90007764264E+02  0.90000025952E+02 0.  0.
         23    2    3    3    0    0  0.70112133247E+01  0.10718420356E+02 -0.17726029816E+02  0.67010819042E+02  0.63341898365E+02 0.  0.
        -12    1    1    2    0    0  0.62841715481E+00  0.31890876435E+00 -0.94675523401E+00  0.11802357364E+01  0.00000000000E+00 0.  1.
         11    1    4    4    0    0  0.14698301489E+02  0.13798401750E+02 -0.39153391325E+02  0.44038892016E+02  0.51100000000E-03 0. -1.
        -11    1    4    4    0    0 -0.76870881638E+01 -0.30799813934E+01  0.21427361509E+02  0.22971927027E+02  0.51100000000E-03 0.  1.
        -12    1    3    3    0    0 -0.76396304795E+01 -0.11037329120E+02  0.18672785050E+02  0.22996945221E+02  0.00000000000E+00 0.  1.
</event>
<event>
 7    1  0.2385752E-015  0.9000770E+02  0.7816164E-02  0.1186339E+00
        -11   -1    0    0    0    0  0.00000000000E+00  0.00000000000E+00  0.45593999997E+02  0.45594000000E+02  0.51100000000E-03 0. -1.
         11   -1    0    0    0    0 -0.00000000000E+00 -0.00000000000E+00 -0.45593999997E+02  0.45594000000E+02  0.51100000000E-03 0.  1.
    9900012    2    1    2    0    0  0.38036558670E+00 -0.10817229402E+01  0.27982722599E+00  0.90007700981E+02  0.89999961834E+02 0.  0.
        -12    1    1    2    0    0 -0.38036558670E+00  0.10817229402E+01 -0.27982722599E+00  0.11802990194E+01  0.00000000000E+00 0.  1.
         11    1    3    3    0    0 -0.26461377661E+01 -0.24697891375E+02  0.75117795368E+01  0.25950235366E+02  0.51100000000E-03 0. -1.
        -11    1    3    3    0    0  0.86535304742E+01 -0.17195262329E+02  0.69816763514E+01  0.20476924602E+02  0.51100000000E-03 0.  1.
         12    1    3    3    0    0 -0.56270271214E+01  0.40811430764E+02 -0.14213628662E+02  0.43580541013E+02  0.00000000000E+00 0. -1.
</event>
<event>
 7    1  0.2385752E-015  0.9000777E+02  0.7816164E-02  0.1186339E+00
        -11   -1    0    0    0    0  0.00000000000E+00  0.00000000000E+00  0.45593999997E+02  0.45594000000E+02  0.51100000000E-03 0.  1.
         11   -1    0    0    0    0 -0.00000000000E+00 -0.00000000000E+00 -0.45593999997E+02  0.45594000000E+02  0.51100000000E-03 0. -1.
    9900012    2    1    2    0    0 -0.58966565961E+00 -0.10340310229E-01 -0.10223162389E+01  0.90007769936E+02  0.90000031699E+02 0.  0.
        -12    1    1    2    0    0  0.58966565961E+00  0.10340310229E-01  0.10223162389E+01  0.11802300642E+01  0.00000000000E+00 0.  1.
         11    1    3    3    0    0  0.32991476944E+01 -0.15056687181E+00 -0.10142169194E+02  0.10666332177E+02  0.51100000000E-03 0. -1.
        -11    1    3    3    0    0  0.27684249036E+02  0.64371404066E+01  0.29717346287E+02  0.41121467531E+02  0.51100000000E-03 0.  1.
         12    1    3    3    0    0 -0.31573062390E+02 -0.62969138451E+01 -0.20597493332E+02  0.38219970227E+02  0.00000000000E+00 0. -1.
</event>
<event>
 7    1  0.2385752E-015  0.9000771E+02  0.7816164E-02  0.1186339E+00
        -11   -1    0    0    0    0  0.00000000000E+00  0.00000000000E+00  0.45593999997E+02  0.45594000000E+02  0.51100000000E-03 0.  1.
         11   -1    0    0    0    0 -0.00000000000E+00 -0.00000000000E+00 -0.45593999997E+02  0.45594000000E+02  0.51100000000E-03 0. -1.
    9900012    2    1    2    0    0  0.35838707834E+00 -0.50026545305E+00 -0.10071622235E+01  0.90007710813E+02  0.89999971795E+02 0.  0.
        -12    1    1    2    0    0 -0.35838707834E+00  0.50026545305E+00  0.10071622235E+01  0.11802891874E+01  0.00000000000E+00 0.  1.
         11    1    3    3    0    0  0.56592266510E+01  0.42709583066E+01  0.70820894964E+01  0.10021173736E+02  0.51100000000E-03 0. -1.
        -11    1    3    3    0    0  0.46124051898E+01  0.20699397253E+02  0.27743059603E+02  0.34920147260E+02  0.51100000000E-03 0.  1.
         12    1    3    3    0    0 -0.99132447624E+01 -0.25470621012E+02 -0.35832311322E+02  0.45066389817E+02  0.00000000000E+00 0. -1.
</event>
<event>
 7    1  0.2385752E-015  0.9000775E+02  0.7816164E-02  0.1186339E+00
        -11   -1    0    0    0    0  0.00000000000E+00  0.00000000000E+00  0.45593999997E+02  0.45594000000E+02  0.51100000000E-03 0.  1.
         11   -1    0    0    0    0 -0.00000000000E+00 -0.00000000000E+00 -0.45593999997E+02  0.45594000000E+02  0.51100000000E-03 0. -1.
    9900012    2    1    2    0    0 -0.39904683558E+00  0.11001286614E+01  0.15322852846E+00  0.90007745608E+02  0.90000007050E+02 0.  0.
        -12    1    1    2    0    0  0.39904683558E+00 -0.11001286614E+01 -0.15322852846E+00  0.11802543923E+01  0.00000000000E+00 0.  1.
         11    1    3    3    0    0 -0.13492059669E+00 -0.29902588939E+00  0.13966674955E+02  0.13970527177E+02  0.51100000000E-03 0. -1.
        -11    1    3    3    0    0 -0.32677228256E+02 -0.78168792783E+01  0.96710318135E+01  0.34963319418E+02  0.51100000000E-03 0.  1.
         12    1    3    3    0    0  0.32413102017E+02  0.92160338291E+01 -0.23484478240E+02  0.41073899013E+02  0.00000000000E+00 0. -1.
</event>
<event>
 7    1  0.2385752E-015  0.9000741E+02  0.7816164E-02  0.1186340E+00
        -11   -1    0    0    0    0  0.00000000000E+00  0.00000000000E+00  0.45593999997E+02  0.45594000000E+02  0.51100000000E-03 0. -1.
         11   -1    0    0    0    0 -0.00000000000E+00 -0.00000000000E+00 -0.45593999997E+02  0.45594000000E+02  0.51100000000E-03 0.  1.
    9900012    2    1    2    0    0  0.34142433299E+00  0.11281695791E+01 -0.66664815536E-01  0.90007414818E+02  0.89999671893E+02 0.  0.
        -12    1    1    2    0    0 -0.34142433299E+00 -0.11281695791E+01  0.66664815536E-01  0.11805851820E+01  0.00000000000E+00 0.  1.
         11    1    3    3    0    0  0.19641118721E+01 -0.81831701985E+01  0.46609353426E+01  0.96201002320E+01  0.51100000000E-03 0. -1.
        -11    1    3    3    0    0  0.85763955911E+01 -0.32221988574E+02  0.10550215716E+02  0.34973106252E+02  0.51100000000E-03 0.  1.
         12    1    3    3    0    0 -0.10199083130E+02  0.41533328352E+02 -0.15277815874E+02  0.45414208334E+02  0.00000000000E+00 0. -1.
</event>
<event>
 7    1  0.2385752E-015  0.9000771E+02  0.7816164E-02  0.1186339E+00
        -11   -1    0    0    0    0  0.00000000000E+00  0.00000000000E+00  0.45593999997E+02  0.45594000000E+02  0.51100000000E-03 0. -1.
         11   -1    0    0    0    0 -0.00000000000E+00 -0.00000000000E+00 -0.45593999997E+02  0.45594000000E+02  0.51100000000E-03 0.  1.
    9900012    2    1    2    0    0  0.63768585145E+00  0.43095391227E+00  0.89482597952E+00  0.90007712724E+02  0.89999973732E+02 0.  0.
        -12    1    1    2    0    0 -0.63768585145E+00 -0.43095391227E+00 -0.89482597952E+00  0.11802872757E+01  0.00000000000E+00 0.  1.
         11    1    3    3    0    0 -0.24671756003E+01 -0.38420240014E+02  0.86838985686E+01  0.39466592110E+02  0.51100000000E-03 0. -1.
        -11    1    3    3    0    0  0.42364429560E+01 -0.12509710188E+01  0.65818333065E+01  0.79267210967E+01  0.51100000000E-03 0.  1.
        -12    1    3    3    0    0 -0.11315815043E+01  0.40102164945E+02 -0.14370905896E+02  0.42614399518E+02  0.00000000000E+00 0.  1.
</event>
<event>
 7    1  0.2385752E-015  0.9000773E+02  0.7816164E-02  0.1186339E+00
        -11   -1    0    0    0    0  0.00000000000E+00  0.00000000000E+00  0.45593999997E+02  0.45594000000E+02  0.51100000000E-03 0.  1.
         11   -1    0    0    0    0 -0.00000000000E+00 -0.00000000000E+00 -0.45593999997E+02  0.45594000000E+02  0.51100000000E-03 0. -1.
    9900012    2    1    2    0    0  0.64725767909E+00 -0.19157261806E+00 -0.96818570982E+00  0.90007734716E+02  0.89999996015E+02 0.  0.
        -12    1    1    2    0    0 -0.64725767909E+00  0.19157261806E+00  0.96818570982E+00  0.11802652837E+01  0.00000000000E+00 0.  1.
         11    1    3    3    0    0  0.51436145779E+01  0.89214015258E+01  0.28402672118E+01  0.10682476034E+02  0.51100000000E-03 0. -1.
        -11    1    3    3    0    0  0.15984852564E+02 -0.75166068945E+01  0.32852876288E+02  0.37300487549E+02  0.51100000000E-03 0.  1.
         12    1    3    3    0    0 -0.20481209463E+02 -0.15963672494E+01 -0.36661329210E+02  0.42024771134E+02  0.00000000000E+00 0. -1.
</event>
<event>
 7    1  0.2385752E-015  0.9000863E+02  0.7816164E-02  0.1186337E+00
        -11   -1    0    0    0    0  0.00000000000E+00  0.00000000000E+00  0.45593999997E+02  0.45594000000E+02  0.51100000000E-03 0.  1.
         11   -1    0    0    0    0 -0.00000000000E+00 -0.00000000000E+00 -0.45593999997E+02  0.45594000000E+02  0.51100000000E-03 0. -1.
    9900012    2    1    2    0    0 -0.10141048662E+01 -0.28090530166E+00  0.53254452872E+00  0.90008627225E+02  0.90000900300E+02 0.  0.
        -12    1    1    2    0    0  0.10141048662E+01  0.28090530166E+00 -0.53254452872E+00  0.11793727753E+01  0.00000000000E+00 0.  1.
         11    1    3    3    0    0  0.10659971565E+02 -0.19191098047E+01  0.89537472134E+01  0.14053026921E+02  0.51100000000E-03 0. -1.
        -11    1    3    3    0    0  0.86528262132E+00  0.33496708595E+02  0.12578592119E+02  0.35791048891E+02  0.51100000000E-03 0.  1.
         12    1    3    3    0    0 -0.12539359053E+02 -0.31858504092E+02 -0.20999794803E+02  0.40164551413E+02  0.00000000000E+00 0. -1.
</event>
<event>
 7    1  0.2385752E-015  0.9000682E+02  0.7816164E-02  0.1186341E+00
        -11   -1    0    0    0    0  0.00000000000E+00  0.00000000000E+00  0.45593999997E+02  0.45594000000E+02  0.51100000000E-03 0.  1.
         11   -1    0    0    0    0 -0.00000000000E+00 -0.00000000000E+00 -0.45593999997E+02  0.45594000000E+02  0.51100000000E-03 0. -1.
    9900012    2    1    2    0    0  0.64456353629E+00  0.89562033427E+00 -0.42141548633E+00  0.90006818834E+02  0.89999068037E+02 0.  0.
        -12    1    1    2    0    0 -0.64456353629E+00 -0.89562033427E+00  0.42141548633E+00  0.11811811663E+01  0.00000000000E+00 0.  1.
         11    1    3    3    0    0  0.22785277478E+02 -0.81413333502E+01 -0.23113296190E+02  0.33461539706E+02  0.51100000000E-03 0. -1.
        -11    1    3    3    0    0  0.33983943549E+01 -0.59566894905E+01 -0.10196414711E+02  0.12288128706E+02  0.51100000000E-03 0.  1.
        -12    1    3    3    0    0 -0.25539108297E+02  0.14993643175E+02  0.32888295414E+02  0.44257150422E+02  0.00000000000E+00 0.  1.
</event>
<event>
 7    1  0.2385752E-015  0.9000775E+02  0.7816164E-02  0.1186339E+00
        -11   -1    0    0    0    0  0.00000000000E+00  0.00000000000E+00  0.45593999997E+02  0.45594000000E+02  0.51100000000E-03 0.  1.
         11   -1    0    0    0    0 -0.00000000000E+00 -0.00000000000E+00 -0.45593999997E+02  0.45594000000E+02  0.51100000000E-03 0. -1.
    9900012    2    1    2    0    0  0.10063487961E+01  0.22480337717E+00 -0.57420090327E+00  0.90007753782E+02  0.90000015332E+02 0.  0.
        -12    1    1    2    0    0 -0.10063487961E+01 -0.22480337717E+00  0.57420090327E+00  0.11802462180E+01  0.00000000000E+00 0.  1.
         11    1    3    3    0    0  0.14408979815E+02 -0.37194864132E+02 -0.11146171183E+02  0.41416346403E+02  0.51100000000E-03 0. -1.
        -11    1    3    3    0    0 -0.44063266680E+01  0.23039820421E+01 -0.67757803196E+01  0.84044778039E+01  0.51100000000E-03 0.  1.
        -12    1    3    3    0    0 -0.89963043512E+01  0.35115685467E+02  0.17347750599E+02  0.40186929575E+02  0.00000000000E+00 0.  1.
</event>
<event>
 7    1  0.2385752E-015  0.9000776E+02  0.7816164E-02  0.1186339E+00
        -11   -1    0    0    0    0  0.00000000000E+00  0.00000000000E+00  0.45593999997E+02  0.45594000000E+02  0.51100000000E-03 0. -1.
         11   -1    0    0    0    0 -0.00000000000E+00 -0.00000000000E+00 -0.45593999997E+02  0.45594000000E+02  0.51100000000E-03 0.  1.
    9900012    2    1    2    0    0  0.41533760177E+00  0.10841007200E+01 -0.21256585770E+00  0.90007761067E+02  0.90000022713E+02 0.  0.
        -12    1    1    2    0    0 -0.41533760177E+00 -0.10841007200E+01  0.21256585770E+00  0.11802389328E+01  0.00000000000E+00 0.  1.
         11    1    3    3    0    0 -0.18850495018E+01 -0.72772175311E+01 -0.46755209790E+01  0.88527850593E+01  0.51100000000E-03 0. -1.
        -11    1    3    3    0    0 -0.20818443710E+01 -0.34442397774E+02 -0.97235597306E+01  0.35849134641E+02  0.51100000000E-03 0.  1.
         12    1    3    3    0    0  0.43822314746E+01  0.42803716026E+02  0.14186514852E+02  0.45305841367E+02  0.00000000000E+00 0. -1.
</event>
<event>
 7    1  0.2385752E-015  0.9000773E+02  0.7816164E-02  0.1186339E+00
        -11   -1    0    0    0    0  0.00000000000E+00  0.00000000000E+00  0.45593999997E+02  0.45594000000E+02  0.51100000000E-03 0.  1.
         11   -1    0    0    0    0 -0.00000000000E+00 -0.00000000000E+00 -0.45593999997E+02  0.45594000000E+02  0.51100000000E-03 0. -1.
    9900012    2    1    2    0    0  0.14693917624E+00 -0.11701281174E+01 -0.47360381186E-01  0.90007731413E+02  0.89999992667E+02 0.  0.
        -12    1    1    2    0    0 -0.14693917624E+00  0.11701281174E+01  0.47360381186E-01  0.11802685874E+01  0.00000000000E+00 0.  1.
         11    1    3    3    0    0 -0.18723111039E+00 -0.18027510895E+00 -0.81946401715E+01  0.81987610286E+01  0.51100000000E-03 0. -1.
        -11    1    3    3    0    0 -0.20615288039E+02  0.24694197713E+02 -0.20378148912E+02  0.38079685594E+02  0.51100000000E-03 0.  1.
         12    1    3    3    0    0  0.20949458326E+02 -0.25684050721E+02  0.28525428702E+02  0.43729284790E+02  0.00000000000E+00 0. -1.
</event>
<event>
 7    1  0.2385752E-015  0.9000785E+02  0.7816164E-02  0.1186339E+00
        -11   -1    0    0    0    0  0.00000000000E+00  0.00000000000E+00  0.45593999997E+02  0.45594000000E+02  0.51100000000E-03 0. -1.
         11   -1    0    0    0    0 -0.00000000000E+00 -0.00000000000E+00 -0.45593999997E+02  0.45594000000E+02  0.51100000000E-03 0.  1.
    9900012    2    1    2    0    0  0.87436174598E+00 -0.77893483734E+00 -0.14666549764E+00  0.90007848013E+02  0.90000110807E+02 0.  0.
        -12    1    1    2    0    0 -0.87436174598E+00  0.77893483734E+00  0.14666549764E+00  0.11801519868E+01  0.00000000000E+00 0.  1.
         11    1    3    3    0    0 -0.30705998829E+02 -0.13965551210E+02  0.14766815860E+02  0.36823278447E+02  0.51100000000E-03 0. -1.
        -11    1    3    3    0    0 -0.53642156969E+01 -0.66784093702E+01 -0.55462215545E+01  0.10204731038E+02  0.51100000000E-03 0.  1.
        -12    1    3    3    0    0  0.36944576272E+02  0.19865025743E+02 -0.93672598032E+01  0.42979838528E+02  0.00000000000E+00 0.  1.
</event>
<event>
 7    1  0.2516055E-015  0.9000777E+02  0.7816164E-02  0.1186339E+00
        -11   -1    0    0    0    0  0.00000000000E+00  0.00000000000E+00  0.45593999997E+02  0.45594000000E+02  0.51100000000E-03 0. -1.
         11   -1    0    0    0    0 -0.00000000000E+00 -0.00000000000E+00 -0.45593999997E+02  0.45594000000E+02  0.51100000000E-03 0.  1.
    9900012    2    1    2    0    0 -0.57084273126E-01  0.87972620923E+00  0.78471422697E+00  0.90007765601E+02  0.90000027307E+02 0.  0.
        -12    1    1    2    0    0  0.57084273126E-01 -0.87972620923E+00 -0.78471422697E+00  0.11802343985E+01  0.00000000000E+00 0.  1.
         11    1    3    3    0    0  0.11967154760E+01  0.14715186952E+02  0.34045350862E+02  0.37108688612E+02  0.51100000000E-03 0. -1.
        -11    1    3    3    0    0  0.65278353237E+01  0.25458827590E+01  0.62727611471E+01  0.94043439806E+01  0.51100000000E-03 0.  1.
        -12    1    3    3    0    0 -0.77816350728E+01 -0.16381343502E+02 -0.39533397782E+02  0.43494733009E+02  0.00000000000E+00 0.  1.
</event>
<event>
 7    1  0.2385752E-015  0.9000747E+02  0.7816164E-02  0.1186340E+00
        -11   -1    0    0    0    0  0.00000000000E+00  0.00000000000E+00  0.45593999997E+02  0.45594000000E+02  0.51100000000E-03 0.  1.
         11   -1    0    0    0    0 -0.00000000000E+00 -0.00000000000E+00 -0.45593999997E+02  0.45594000000E+02  0.51100000000E-03 0. -1.
    9900012    2    1    2    0    0  0.55702202940E+00 -0.90027403976E+00 -0.52237951629E+00  0.90007471624E+02  0.89999729449E+02 0.  0.
        -12    1    1    2    0    0 -0.55702202940E+00  0.90027403976E+00  0.52237951629E+00  0.11805283762E+01  0.00000000000E+00 0.  1.
         11    1    3    3    0    0  0.93458202172E+01 -0.11255232980E+01  0.21324187558E+01  0.96518582790E+01  0.51100000000E-03 0. -1.
        -11    1    3    3    0    0 -0.15502919460E+02 -0.23119314032E+02  0.29169629925E+02  0.40320100488E+02  0.51100000000E-03 0.  1.
         12    1    3    3    0    0  0.67141212724E+01  0.23344563291E+02 -0.31824428197E+02  0.40035512857E+02  0.00000000000E+00 0. -1.
</event>
<event>
 7    1  0.2385752E-015  0.9000803E+02  0.7816164E-02  0.1186338E+00
        -11   -1    0    0    0    0  0.00000000000E+00  0.00000000000E+00  0.45593999997E+02  0.45594000000E+02  0.51100000000E-03 0. -1.
         11   -1    0    0    0    0 -0.00000000000E+00 -0.00000000000E+00 -0.45593999997E+02  0.45594000000E+02  0.51100000000E-03 0.  1.
    9900012    2    1    2    0    0 -0.54410800920E+00 -0.80409152753E+00  0.67061108165E+00  0.90008027147E+02  0.90000292305E+02 0.  0.
        -12    1    1    2    0    0  0.54410800920E+00  0.80409152753E+00 -0.67061108165E+00  0.11799728527E+01  0.00000000000E+00 0.  1.
         11    1    3    3    0    0  0.82393549052E+01  0.12544798727E+01 -0.72181333639E+01  0.11025522143E+02  0.51100000000E-03 0. -1.
        -11    1    3    3    0    0 -0.10899577638E+02  0.33131957971E+02 -0.13891167841E+02  0.37543201461E+02  0.51100000000E-03 0.  1.
         12    1    3    3    0    0  0.21161147234E+01 -0.35190529371E+02  0.21779912287E+02  0.41439303543E+02  0.00000000000E+00 0. -1.
</event>
<event>
 7    1  0.2385752E-015  0.9000770E+02  0.7816164E-02  0.1186339E+00
        -11   -1    0    0    0    0  0.00000000000E+00  0.00000000000E+00  0.45593999997E+02  0.45594000000E+02  0.51100000000E-03 0.  1.
         11   -1    0    0    0    0 -0.00000000000E+00 -0.00000000000E+00 -0.45593999997E+02  0.45594000000E+02  0.51100000000E-03 0. -1.
    9900012    2    1    2    0    0  0.84768649075E+00 -0.53483374285E+00 -0.62329343508E+00  0.90007697401E+02  0.89999958207E+02 0.  0.
        -12    1    1    2    0    0 -0.84768649075E+00  0.53483374285E+00  0.62329343508E+00  0.11803025990E+01  0.00000000000E+00 0.  1.
         11    1    3    3    0    0 -0.26928097292E+02 -0.31904392483E+02  0.81815161205E+01  0.42543505847E+02  0.51100000000E-03 0. -1.
        -11    1    3    3    0    0  0.23639028641E+01  0.80863873235E+01  0.55929202143E+01  0.10112292197E+02  0.51100000000E-03 0.  1.
        -12    1    3    3    0    0  0.25411880919E+02  0.23283171417E+02 -0.14397729770E+02  0.37351899357E+02  0.00000000000E+00 0.  1.
</event>
<event>
 7    1  0.2385752E-015  0.9000752E+02  0.7816164E-02  0.1186339E+00
        -11   -1    0    0    0    0  0.00000000000E+00  0.00000000000E+00  0.45593999997E+02  0.45594000000E+02  0.51100000000E-03 0.  1.
         11   -1    0    0    0    0 -0.00000000000E+00 -0.00000000000E+00 -0.45593999997E+02  0.45594000000E+02  0.51100000000E-03 0. -1.
    9900012    2    1    2    0    0 -0.61180557647E+00 -0.15466980021E+00 -0.99765484002E+00  0.90007515358E+02  0.89999773760E+02 0.  0.
        -12    1    1    2    0    0  0.61180557647E+00  0.15466980021E+00  0.99765484002E+00  0.11804846421E+01  0.00000000000E+00 0.  1.
         11    1    3    3    0    0 -0.12386132993E+02  0.50816491250E+00  0.31566368582E+01  0.12792141284E+02  0.51100000000E-03 0. -1.
        -11    1    3    3    0    0 -0.78144425401E+01 -0.26108261669E+02  0.22611050451E+02  0.35411388597E+02  0.51100000000E-03 0.  1.
         12    1    3    3    0    0  0.19588769957E+02  0.25445426956E+02 -0.26765342149E+02  0.41803985477E+02  0.00000000000E+00 0. -1.
</event>
<event>
 7    1  0.2385752E-015  0.9000767E+02  0.7816164E-02  0.1186339E+00
        -11   -1    0    0    0    0  0.00000000000E+00  0.00000000000E+00  0.45593999997E+02  0.45594000000E+02  0.51100000000E-03 0.  1.
         11   -1    0    0    0    0 -0.00000000000E+00 -0.00000000000E+00 -0.45593999997E+02  0.45594000000E+02  0.51100000000E-03 0. -1.
    9900012    2    1    2    0    0  0.11719614461E+01  0.65730307223E-01  0.12399674594E+00  0.90007665599E+02  0.89999925985E+02 0.  0.
        -12    1    1    2    0    0 -0.11719614461E+01 -0.65730307223E-01 -0.12399674594E+00  0.11803344007E+01  0.00000000000E+00 0.  1.
         11    1    3    3    0    0 -0.49513390362E+01  0.22522700829E+02 -0.32177226237E+02  0.39587393188E+02  0.51100000000E-03 0. -1.
        -11    1    3    3    0    0 -0.96759743738E+01 -0.60393712995E+00  0.20765875377E+01  0.99147080745E+01  0.51100000000E-03 0.  1.
        -12    1    3    3    0    0  0.15799274856E+02 -0.21853033392E+02  0.30224635445E+02  0.40505564336E+02  0.00000000000E+00 0.  1.
</event>
<event>
 7    1  0.2385752E-015  0.9000775E+02  0.7816164E-02  0.1186339E+00
        -11   -1    0    0    0    0  0.00000000000E+00  0.00000000000E+00  0.45593999997E+02  0.45594000000E+02  0.51100000000E-03 0. -1.
         11   -1    0    0    0    0 -0.00000000000E+00 -0.00000000000E+00 -0.45593999997E+02  0.45594000000E+02  0.51100000000E-03 0.  1.
    9900012    2    1    2    0    0 -0.98869922101E+00 -0.62309967363E+00 -0.16497939096E+00  0.90007746827E+02  0.90000008285E+02 0.  0.
        -12    1    1    2    0    0  0.98869922101E+00  0.62309967363E+00  0.16497939096E+00  0.11802531730E+01  0.00000000000E+00 0.  1.
         11    1    3    3    0    0  0.21313937303E+02  0.26800294328E+02  0.18439410251E+02  0.38891535713E+02  0.51100000000E-03 0. -1.
        -11    1    3    3    0    0 -0.46614594742E+01  0.72561719603E+01 -0.22720429859E+01  0.89187115403E+01  0.51100000000E-03 0.  1.
        -12    1    3    3    0    0 -0.17641177050E+02 -0.34679565962E+02 -0.16332346656E+02  0.42197499574E+02  0.00000000000E+00 0.  1.
</event>
<event>
 7    1  0.2385752E-015  0.9000769E+02  0.7816164E-02  0.1186339E+00
        -11   -1    0    0    0    0  0.00000000000E+00  0.00000000000E+00  0.45593999997E+02  0.45594000000E+02  0.51100000000E-03 0.  1.
         11   -1    0    0    0    0 -0.00000000000E+00 -0.00000000000E+00 -0.45593999997E+02  0.45594000000E+02  0.51100000000E-03 0. -1.
    9900012    2    1    2    0    0 -0.10035728718E+01  0.62036166423E+00 -0.33658964190E-01  0.90007686470E+02  0.89999947131E+02 0.  0.
        -12    1    1    2    0    0  0.10035728718E+01 -0.62036166423E+00  0.33658964190E-01  0.11803135301E+01  0.00000000000E+00 0.  1.
         11    1    3    3    0    0 -0.56322078463E+01 -0.16370233096E+02 -0.35933936661E+02  0.39886765989E+02  0.51100000000E-03 0. -1.
        -11    1    3    3    0    0 -0.87222225662E+01  0.33730772291E+01 -0.13259933038E+00  0.93526680328E+01  0.51100000000E-03 0.  1.
        -12    1    3    3    0    0  0.13350857541E+02  0.13617517531E+02  0.36032877027E+02  0.40768252448E+02  0.00000000000E+00 0.  1.
</event>
<event>
 7    1  0.2385752E-015  0.9000794E+02  0.7816164E-02  0.1186339E+00
        -11   -1    0    0    0    0  0.00000000000E+00  0.00000000000E+00  0.45593999997E+02  0.45594000000E+02  0.51100000000E-03 0.  1.
         11   -1    0    0    0    0 -0.00000000000E+00 -0.00000000000E+00 -0.45593999997E+02  0.45594000000E+02  0.51100000000E-03 0. -1.
    9900012    2    1    2    0    0 -0.99427549013E+00 -0.58690387785E+00 -0.24391691130E+00  0.90007942640E+02  0.90000206683E+02 0.  0.
        -12    1    1    2    0    0  0.99427549013E+00  0.58690387785E+00  0.24391691130E+00  0.11800573595E+01  0.00000000000E+00 0.  1.
         11    1    3    3    0    0  0.45476769723E+01 -0.78140382052E+01  0.43316904753E+01  0.10025173393E+02  0.51100000000E-03 0. -1.
        -11    1    3    3    0    0  0.20439004835E+02  0.22926050744E+02  0.23469759971E+02  0.38654706760E+02  0.51100000000E-03 0.  1.
         12    1    3    3    0    0 -0.25980957297E+02 -0.15698916417E+02 -0.28045367358E+02  0.41328062488E+02  0.00000000000E+00 0. -1.
</event>
<event>
 7    1  0.2385752E-015  0.9000775E+02  0.7816164E-02  0.1186339E+00
        -11   -1    0    0    0    0  0.00000000000E+00  0.00000000000E+00  0.45593999997E+02  0.45594000000E+02  0.51100000000E-03 0.  1.
         11   -1    0    0    0    0 -0.00000000000E+00 -0.00000000000E+00 -0.45593999997E+02  0.45594000000E+02  0.51100000000E-03 0. -1.
    9900012    2    1    2    0    0 -0.83455900695E+00  0.43717321965E+00 -0.71090598291E+00  0.90007747283E+02  0.90000008747E+02 0.  0.
        -12    1    1    2    0    0  0.83455900695E+00 -0.43717321965E+00  0.71090598291E+00  0.11802527173E+01  0.00000000000E+00 0.  1.
         11    1    3    3    0    0 -0.87712076296E+01  0.28803825613E+01 -0.31431334446E+01  0.97524343163E+01  0.51100000000E-03 0. -1.
        -11    1    3    3    0    0 -0.23592289190E+02 -0.21399151383E+02  0.21879958496E+02  0.38642623788E+02  0.51100000000E-03 0.  1.
         12    1    3    3    0    0  0.31528937813E+02  0.18955942042E+02 -0.19447731034E+02  0.41612689179E+02  0.00000000000E+00 0. -1.
</event>
<event>
 7    1  0.2385752E-015  0.9000731E+02  0.7816164E-02  0.1186340E+00
        -11   -1    0    0    0    0  0.00000000000E+00  0.00000000000E+00  0.45593999997E+02  0.45594000000E+02  0.51100000000E-03 0. -1.
         11   -1    0    0    0    0 -0.00000000000E+00 -0.00000000000E+00 -0.45593999997E+02  0.45594000000E+02  0.51100000000E-03 0.  1.
    9900012    2    1    2    0    0 -0.60613159416E+00  0.60322513047E+00  0.81409590602E+00  0.90007310281E+02  0.89999565976E+02 0.  0.
        -12    1    1    2    0    0  0.60613159416E+00 -0.60322513047E+00 -0.81409590602E+00  0.11806897186E+01  0.00000000000E+00 0.  1.
         11    1    3    3    0    0 -0.16444679363E+01  0.55178660714E+00 -0.90377002446E+01  0.92026501197E+01  0.51100000000E-03 0. -1.
        -11    1    3    3    0    0 -0.18210128531E+02 -0.33094527920E+01 -0.30667669997E+02  0.35819928004E+02  0.51100000000E-03 0.  1.
         12    1    3    3    0    0  0.19248464873E+02  0.33608913153E+01  0.40519466148E+02  0.44984732158E+02  0.00000000000E+00 0. -1.
</event>
<event>
 7    1  0.2385752E-015  0.9000766E+02  0.7816164E-02  0.1186339E+00
        -11   -1    0    0    0    0  0.00000000000E+00  0.00000000000E+00  0.45593999997E+02  0.45594000000E+02  0.51100000000E-03 0. -1.
         11   -1    0    0    0    0 -0.00000000000E+00 -0.00000000000E+00 -0.45593999997E+02  0.45594000000E+02  0.51100000000E-03 0.  1.
    9900012    2    1    2    0    0  0.17428505230E+00  0.10972542367E+01  0.39857493675E+00  0.90007659321E+02  0.89999919623E+02 0.  0.
        -12    1    1    2    0    0 -0.17428505230E+00 -0.10972542367E+01 -0.39857493675E+00  0.11803406795E+01  0.00000000000E+00 0.  1.
         11    1    3    3    0    0  0.17759469309E+02  0.19936925671E+02  0.19574560305E+02  0.33106542658E+02  0.51100000000E-03 0. -1.
        -11    1    3    3    0    0 -0.73702017076E+01  0.43752177333E+01  0.13221478985E+02  0.15756583076E+02  0.51100000000E-03 0.  1.
        -12    1    3    3    0    0 -0.10214982549E+02 -0.23214889168E+02 -0.32397464353E+02  0.41144533587E+02  0.00000000000E+00 0.  1.
</event>
<event>
 7    1  0.2385752E-015  0.9000770E+02  0.7816164E-02  0.1186339E+00
        -11   -1    0    0    0    0  0.00000000000E+00  0.00000000000E+00  0.45593999997E+02  0.45594000000E+02  0.51100000000E-03 0.  1.
         11   -1    0    0    0    0 -0.00000000000E+00 -0.00000000000E+00 -0.45593999997E+02  0.45594000000E+02  0.51100000000E-03 0. -1.
    9900012    2    1    2    0    0  0.11693767793E+00  0.49117767608E+00 -0.10668542355E+01  0.90007700085E+02  0.89999960926E+02 0.  0.
        -12    1    1    2    0    0 -0.11693767793E+00 -0.49117767608E+00  0.10668542355E+01  0.11802999152E+01  0.00000000000E+00 0.  1.
         11    1    3    3    0    0  0.17286147208E+02 -0.28921857500E+02 -0.14123220518E+02  0.36534231683E+02  0.51100000000E-03 0. -1.
        -11    1    3    3    0    0  0.79462273109E+01 -0.40751450898E+01  0.66320537106E+01  0.11123554857E+02  0.51100000000E-03 0.  1.
        -12    1    3    3    0    0 -0.25115436841E+02  0.33488180266E+02  0.64243125723E+01  0.42349913545E+02  0.00000000000E+00 0.  1.
</event>
<event>
 7    1  0.2385752E-015  0.9000779E+02  0.7816164E-02  0.1186339E+00
        -11   -1    0    0    0    0  0.00000000000E+00  0.00000000000E+00  0.45593999997E+02  0.45594000000E+02  0.51100000000E-03 0.  1.
         11   -1    0    0    0    0 -0.00000000000E+00 -0.00000000000E+00 -0.45593999997E+02  0.45594000000E+02  0.51100000000E-03 0. -1.
    9900012    2    1    2    0    0 -0.98350548844E+00  0.48382837013E+00 -0.43763072483E+00  0.90007790871E+02  0.90000052910E+02 0.  0.
        -12    1    1    2    0    0  0.98350548844E+00 -0.48382837013E+00  0.43763072483E+00  0.11802091293E+01  0.00000000000E+00 0.  1.
         11    1    3    3    0    0  0.66002514990E+01 -0.56339133265E+01  0.14998787236E+01  0.88064712381E+01  0.51100000000E-03 0. -1.
        -11    1    3    3    0    0  0.85840406862E+00  0.19915458309E+02  0.35335120048E+02  0.40570100397E+02  0.51100000000E-03 0.  1.
         12    1    3    3    0    0 -0.84421610561E+01 -0.13797716612E+02 -0.37272629496E+02  0.40631219235E+02  0.00000000000E+00 0. -1.
</event>
<event>
 7    1  0.2385752E-015  0.9000801E+02  0.7816164E-02  0.1186339E+00
        -11   -1    0    0    0    0  0.00000000000E+00  0.00000000000E+00  0.45593999997E+02  0.45594000000E+02  0.51100000000E-03 0.  1.
         11   -1    0    0    0    0 -0.00000000000E+00 -0.00000000000E+00 -0.45593999997E+02  0.45594000000E+02  0.51100000000E-03 0. -1.
    9900012    2    1    2    0    0 -0.70373209363E+00  0.81846512231E+00 -0.47671421391E+00  0.90008008281E+02  0.90000273190E+02 0.  0.
        -12    1    1    2    0    0  0.70373209363E+00 -0.81846512231E+00  0.47671421391E+00  0.11799917194E+01  0.00000000000E+00 0.  1.
         11    1    3    3    0    0  0.14859742946E+02 -0.18280871068E+02 -0.19130572329E+02  0.30347668861E+02  0.51100000000E-03 0. -1.
        -11    1    3    3    0    0  0.10007313582E+02 -0.12498505124E+02  0.57659956778E+01  0.17017804262E+02  0.51100000000E-03 0.  1.
        -12    1    3    3    0    0 -0.25570788622E+02  0.31597841314E+02  0.12887862437E+02  0.42642535158E+02  0.00000000000E+00 0.  1.
</event>
<event>
 7    1  0.2385752E-015  0.9000814E+02  0.7816164E-02  0.1186338E+00
        -11   -1    0    0    0    0  0.00000000000E+00  0.00000000000E+00  0.45593999997E+02  0.45594000000E+02  0.51100000000E-03 0.  1.
         11   -1    0    0    0    0 -0.00000000000E+00 -0.00000000000E+00 -0.45593999997E+02  0.45594000000E+02  0.51100000000E-03 0. -1.
    9900012    2    1    2    0    0  0.99828296214E-02  0.10798807224E+01 -0.47521172042E+00  0.90008140597E+02  0.90000407252E+02 0.  0.
        -12    1    1    2    0    0 -0.99828296214E-02 -0.10798807224E+01  0.47521172042E+00  0.11798594029E+01  0.00000000000E+00 0.  1.
         11    1    3    3    0    0  0.18241142660E+02 -0.31176771737E+01  0.33313848504E+02  0.38108682723E+02  0.51100000000E-03 0. -1.
        -11    1    3    3    0    0  0.58110654041E+01 -0.51485897345E+01  0.17764677109E+01  0.79644394137E+01  0.51100000000E-03 0.  1.
        -12    1    3    3    0    0 -0.24042225234E+02  0.93461476306E+01 -0.35565527935E+02  0.43935018460E+02  0.00000000000E+00 0.  1.
</event>
<event>
 7    1  0.2385752E-015  0.9000773E+02  0.7816164E-02  0.1186339E+00
        -11   -1    0    0    0    0  0.00000000000E+00  0.00000000000E+00  0.45593999997E+02  0.45594000000E+02  0.51100000000E-03 0.  1.
         11   -1    0    0    0    0 -0.00000000000E+00 -0.00000000000E+00 -0.45593999997E+02  0.45594000000E+02  0.51100000000E-03 0. -1.
    9900012    2    1    2    0    0  0.39217083855E+00 -0.11128488108E+01 -0.28412007101E-01  0.90007729826E+02  0.89999991059E+02 0.  0.
        -12    1    1    2    0    0 -0.39217083855E+00  0.11128488108E+01  0.28412007101E-01  0.11802701744E+01  0.00000000000E+00 0.  1.
         11    1    3    3    0    0  0.77990506157E+01  0.15344577930E+01  0.39397151601E+01  0.88713644401E+01  0.51100000000E-03 0. -1.
        -11    1    3    3    0    0 -0.16729485187E+02 -0.34229959963E+02  0.17396330505E+02  0.41883148747E+02  0.51100000000E-03 0.  1.
         12    1    3    3    0    0  0.93226054094E+01  0.31582653359E+02 -0.21364457673E+02  0.39253216638E+02  0.00000000000E+00 0. -1.
</event>
<event>
 7    1  0.2385752E-015  0.9000750E+02  0.7816164E-02  0.1186340E+00
        -11   -1    0    0    0    0  0.00000000000E+00  0.00000000000E+00  0.45593999997E+02  0.45594000000E+02  0.51100000000E-03 0.  1.
         11   -1    0    0    0    0 -0.00000000000E+00 -0.00000000000E+00 -0.45593999997E+02  0.45594000000E+02  0.51100000000E-03 0. -1.
    9900012    2    1    2    0    0 -0.10596140493E+01 -0.46661878641E+00  0.23036713827E+00  0.90007498393E+02  0.89999756572E+02 0.  0.
        -12    1    1    2    0    0  0.10596140493E+01  0.46661878641E+00 -0.23036713827E+00  0.11805016068E+01  0.00000000000E+00 0.  1.
         11    1    3    3    0    0 -0.12609941162E+01  0.69958522724E+00  0.97221940227E+01  0.98285595347E+01  0.51100000000E-03 0. -1.
        -11    1    3    3    0    0 -0.10683282288E+02  0.21961102553E+01  0.33746400304E+02  0.35465123071E+02  0.51100000000E-03 0.  1.
         12    1    3    3    0    0  0.10884662355E+02 -0.33623142690E+01 -0.43238227189E+02  0.44713815787E+02  0.00000000000E+00 0. -1.
</event>
<event>
 7    1  0.2385752E-015  0.9000773E+02  0.7816164E-02  0.1186339E+00
        -11   -1    0    0    0    0  0.00000000000E+00  0.00000000000E+00  0.45593999997E+02  0.45594000000E+02  0.51100000000E-03 0.  1.
         11   -1    0    0    0    0 -0.00000000000E+00 -0.00000000000E+00 -0.45593999997E+02  0.45594000000E+02  0.51100000000E-03 0. -1.
    9900012    2    1    2    0    0 -0.34550314699E+00 -0.13528200841E+00 -0.11204255249E+01  0.90007734351E+02  0.89999995644E+02 0.  0.
        -12    1    1    2    0    0  0.34550314699E+00  0.13528200841E+00  0.11204255249E+01  0.11802656494E+01  0.00000000000E+00 0.  1.
         11    1    3    3    0    0 -0.17314446669E+02  0.36220872867E+02  0.45551001239E+01  0.40404091774E+02  0.51100000000E-03 0. -1.
        -11    1    3    3    0    0  0.61026061793E+01 -0.52362210446E-01  0.73307919208E+01  0.95386086212E+01  0.51100000000E-03 0.  1.
        -12    1    3    3    0    0  0.10866337342E+02 -0.36303792665E+02 -0.13006317570E+02  0.40065033955E+02  0.00000000000E+00 0.  1.
</event>
<event>
 7    1  0.2385752E-015  0.9000774E+02  0.7816164E-02  0.1186339E+00
        -11   -1    0    0    0    0  0.00000000000E+00  0.00000000000E+00  0.45593999997E+02  0.45594000000E+02  0.51100000000E-03 0.  1.
         11   -1    0    0    0    0 -0.00000000000E+00 -0.00000000000E+00 -0.45593999997E+02  0.45594000000E+02  0.51100000000E-03 0. -1.
    9900012    2    1    2    0    0  0.54891534315E+00  0.38542342109E+00 -0.97115756116E+00  0.90007743131E+02  0.90000004541E+02 0.  0.
        -12    1    1    2    0    0 -0.54891534315E+00 -0.38542342109E+00  0.97115756116E+00  0.11802568687E+01  0.00000000000E+00 0.  1.
         11    1    3    3    0    0  0.25647025079E+01 -0.13312481940E+02  0.17129722712E+01  0.13665070385E+02  0.51100000000E-03 0. -1.
        -11    1    3    3    0    0 -0.23007683142E+02 -0.21858526251E+02  0.97858084276E+01  0.33210099372E+02  0.51100000000E-03 0.  1.
         12    1    3    3    0    0  0.20991895978E+02  0.35556431612E+02 -0.12469938260E+02  0.43132573375E+02  0.00000000000E+00 0. -1.
</event>
<event>
 7    1  0.2385752E-015  0.9000772E+02  0.7816164E-02  0.1186339E+00
        -11   -1    0    0    0    0  0.00000000000E+00  0.00000000000E+00  0.45593999997E+02  0.45594000000E+02  0.51100000000E-03 0. -1.
         11   -1    0    0    0    0 -0.00000000000E+00 -0.00000000000E+00 -0.45593999997E+02  0.45594000000E+02  0.51100000000E-03 0.  1.
    9900012    2    1    2    0    0  0.25085866876E+00  0.68147938966E+00  0.93043574400E+00  0.90007722531E+02  0.89999983668E+02 0.  0.
        -12    1    1    2    0    0 -0.25085866876E+00 -0.68147938966E+00 -0.93043574400E+00  0.11802774690E+01  0.00000000000E+00 0.  1.
         11    1    3    3    0    0 -0.20075207934E+01 -0.94203780819E+01 -0.55103684286E+01  0.11096748327E+02  0.51100000000E-03 0. -1.
        -11    1    3    3    0    0 -0.30892297555E+02  0.18705195446E+02 -0.14333068292E+02  0.38854282027E+02  0.51100000000E-03 0.  1.
         12    1    3    3    0    0  0.33150677018E+02 -0.86033379741E+01  0.20773872465E+02  0.40056692177E+02  0.00000000000E+00 0. -1.
</event>
<event>
 7    1  0.2385752E-015  0.9000780E+02  0.7816164E-02  0.1186339E+00
        -11   -1    0    0    0    0  0.00000000000E+00  0.00000000000E+00  0.45593999997E+02  0.45594000000E+02  0.51100000000E-03 0. -1.
         11   -1    0    0    0    0 -0.00000000000E+00 -0.00000000000E+00 -0.45593999997E+02  0.45594000000E+02  0.51100000000E-03 0.  1.
    9900012    2    1    2    0    0 -0.87084184425E+00  0.30920984965E+00  0.73409395717E+00  0.90007800785E+02  0.90000062955E+02 0.  0.
        -12    1    1    2    0    0  0.87084184425E+00 -0.30920984965E+00 -0.73409395717E+00  0.11801992149E+01  0.00000000000E+00 0.  1.
         11    1    3    3    0    0  0.34851459028E+02 -0.65759583190E+00  0.17949102363E+02  0.39207485313E+02  0.51100000000E-03 0. -1.
        -11    1    3    3    0    0  0.33172897002E+01 -0.65841323188E+01 -0.59449979939E+01  0.94709139345E+01  0.51100000000E-03 0.  1.
        -12    1    3    3    0    0 -0.39039590572E+02  0.75509380004E+01 -0.11270010412E+02  0.41329401538E+02  0.00000000000E+00 0.  1.
</event>
<event>
 7    1  0.2385752E-015  0.9000766E+02  0.7816164E-02  0.1186339E+00
        -11   -1    0    0    0    0  0.00000000000E+00  0.00000000000E+00  0.45593999997E+02  0.45594000000E+02  0.51100000000E-03 0.  1.
         11   -1    0    0    0    0 -0.00000000000E+00 -0.00000000000E+00 -0.45593999997E+02  0.45594000000E+02  0.51100000000E-03 0. -1.
    9900012    2    1    2    0    0  0.11213716681E+01  0.21310150195E+00 -0.30054218721E+00  0.90007655866E+02  0.89999916124E+02 0.  0.
        -12    1    1    2    0    0 -0.11213716681E+01 -0.21310150195E+00  0.30054218721E+00  0.11803441339E+01  0.00000000000E+00 0.  1.
         11    1    3    3    0    0  0.24412146775E+02  0.24078021687E+02 -0.12762246819E+02  0.36586595669E+02  0.51100000000E-03 0. -1.
        -11    1    3    3    0    0 -0.47650072440E+01  0.76972177330E+01 -0.74799939303E+01  0.11743200770E+02  0.51100000000E-03 0.  1.
        -12    1    3    3    0    0 -0.18525767863E+02 -0.31562137918E+02  0.19941698562E+02  0.41677859427E+02  0.00000000000E+00 0.  1.
</event>
<event>
 7    1  0.2385752E-015  0.9000781E+02  0.7816164E-02  0.1186339E+00
        -11   -1    0    0    0    0  0.00000000000E+00  0.00000000000E+00  0.45593999997E+02  0.45594000000E+02  0.51100000000E-03 0.  1.
         11   -1    0    0    0    0 -0.00000000000E+00 -0.00000000000E+00 -0.45593999997E+02  0.45594000000E+02  0.51100000000E-03 0. -1.
    9900012    2    1    2    0    0  0.47616858117E+00  0.25036821711E+00 -0.10504454852E+01  0.90007806592E+02  0.90000068839E+02 0.  0.
        -12    1    1    2    0    0 -0.47616858117E+00 -0.25036821711E+00  0.10504454852E+01  0.11801934076E+01  0.00000000000E+00 0.  1.
         11    1    3    3    0    0 -0.70578485836E+01  0.30496608614E+02 -0.27417441178E+02  0.41612167026E+02  0.51100000000E-03 0. -1.
        -11    1    3    3    0    0  0.44333976955E+01  0.33855338820E+01  0.85528306935E+01  0.10211158990E+02  0.51100000000E-03 0.  1.
        -12    1    3    3    0    0  0.31006194693E+01 -0.33631774279E+02  0.17814164999E+02  0.38184480576E+02  0.00000000000E+00 0.  1.
</event>
<event>
 7    1  0.2385752E-015  0.9000786E+02  0.7816164E-02  0.1186339E+00
        -11   -1    0    0    0    0  0.00000000000E+00  0.00000000000E+00  0.45593999997E+02  0.45594000000E+02  0.51100000000E-03 0.  1.
         11   -1    0    0    0    0 -0.00000000000E+00 -0.00000000000E+00 -0.45593999997E+02  0.45594000000E+02  0.51100000000E-03 0. -1.
    9900012    2    1    2    0    0  0.91339550325E+00 -0.66856702653E+00  0.33384482537E+00  0.90007862050E+02  0.90000125029E+02 0.  0.
        -12    1    1    2    0    0 -0.91339550325E+00  0.66856702653E+00 -0.33384482537E+00  0.11801379503E+01  0.00000000000E+00 0.  1.
         11    1    3    3    0    0  0.55363519816E+01 -0.61084757912E+00 -0.11752599337E+01  0.56925885326E+01  0.51100000000E-03 0. -1.
        -11    1    3    3    0    0  0.36752311437E+02  0.15658477901E+02 -0.12632180452E+01  0.39968938518E+02  0.51100000000E-03 0.  1.
         12    1    3    3    0    0 -0.41375267915E+02 -0.15716197349E+02  0.27723228043E+01  0.44346334999E+02  0.00000000000E+00 0. -1.
</event>
<event>
 7    1  0.2385752E-015  0.9000773E+02  0.7816164E-02  0.1186339E+00
        -11   -1    0    0    0    0  0.00000000000E+00  0.00000000000E+00  0.45593999997E+02  0.45594000000E+02  0.51100000000E-03 0. -1.
         11   -1    0    0    0    0 -0.00000000000E+00 -0.00000000000E+00 -0.45593999997E+02  0.45594000000E+02  0.51100000000E-03 0.  1.
    9900012    2    1    2    0    0  0.10354818324E+01 -0.42613599752E+00  0.37311593342E+00  0.90007733075E+02  0.89999994352E+02 0.  0.
        -12    1    1    2    0    0 -0.10354818324E+01  0.42613599752E+00 -0.37311593342E+00  0.11802669246E+01  0.00000000000E+00 0.  1.
         11    1    3    3    0    0 -0.21703666575E+01 -0.69428297614E+01  0.37217130987E+02  0.37921342483E+02  0.51100000000E-03 0. -1.
        -11    1    3    3    0    0 -0.80390320114E+01 -0.69512652634E+01  0.69422572353E+00  0.10650261690E+02  0.51100000000E-03 0.  1.
        -12    1    3    3    0    0  0.11244880501E+02  0.13467959027E+02 -0.37538240777E+02  0.41436128903E+02  0.00000000000E+00 0.  1.
</event>
<event>
 7    1  0.2385752E-015  0.9000886E+02  0.7816164E-02  0.1186337E+00
        -11   -1    0    0    0    0  0.00000000000E+00  0.00000000000E+00  0.45593999997E+02  0.45594000000E+02  0.51100000000E-03 0. -1.
         11   -1    0    0    0    0 -0.00000000000E+00 -0.00000000000E+00 -0.45593999997E+02  0.45594000000E+02  0.51100000000E-03 0.  1.
    9900012    2    1    2    0    0 -0.45450394860E+00  0.84240785896E+00  0.68858511499E+00  0.90008858660E+02  0.90001134787E+02 0.  0.
        -12    1    1    2    0    0  0.45450394860E+00 -0.84240785896E+00 -0.68858511499E+00  0.11791413404E+01  0.00000000000E+00 0.  1.
         11    1    3    3    0    0 -0.74505674099E+01 -0.40389759853E+01 -0.40649550480E+01  0.93993692098E+01  0.51100000000E-03 0. -1.
        -11    1    3    3    0    0 -0.21494829278E+02 -0.81934437728E+01 -0.27351194472E+02  0.35738607218E+02  0.51100000000E-03 0.  1.
         12    1    3    3    0    0  0.28490892740E+02  0.13074827617E+02  0.32104734635E+02  0.44870882232E+02  0.00000000000E+00 0. -1.
</event>
<event>
 7    1  0.2385752E-015  0.9000772E+02  0.7816164E-02  0.1186339E+00
        -11   -1    0    0    0    0  0.00000000000E+00  0.00000000000E+00  0.45593999997E+02  0.45594000000E+02  0.51100000000E-03 0.  1.
         11   -1    0    0    0    0 -0.00000000000E+00 -0.00000000000E+00 -0.45593999997E+02  0.45594000000E+02  0.51100000000E-03 0. -1.
    9900012    2    1    2    0    0 -0.84909342538E+00  0.73626496532E+00 -0.36056725764E+00  0.90007722706E+02  0.89999983845E+02 0.  0.
        -12    1    1    2    0    0  0.84909342538E+00 -0.73626496532E+00  0.36056725764E+00  0.11802772943E+01  0.00000000000E+00 0.  1.
         11    1    3    3    0    0 -0.18248454104E+01  0.84469271658E+01 -0.61780801664E+01  0.10623055781E+02  0.51100000000E-03 0. -1.
        -11    1    3    3    0    0  0.29421329626E+01 -0.17565572009E+02 -0.33965644834E+02  0.38351929490E+02  0.51100000000E-03 0.  1.
         12    1    3    3    0    0 -0.19663809776E+01  0.98549098082E+01  0.39783157742E+02  0.41032737435E+02  0.00000000000E+00 0. -1.
</event>
<event>
 7    1  0.2385752E-015  0.9000775E+02  0.7816164E-02  0.1186339E+00
        -11   -1    0    0    0    0  0.00000000000E+00  0.00000000000E+00  0.45593999997E+02  0.45594000000E+02  0.51100000000E-03 0.  1.
         11   -1    0    0    0    0 -0.00000000000E+00 -0.00000000000E+00 -0.45593999997E+02  0.45594000000E+02  0.51100000000E-03 0. -1.
    9900012    2    1    2    0    0 -0.15696081949E+00  0.59513312006E+00 -0.10070636540E+01  0.90007746920E+02  0.90000008379E+02 0.  0.
        -12    1    1    2    0    0  0.15696081949E+00 -0.59513312006E+00  0.10070636540E+01  0.11802530799E+01  0.00000000000E+00 0.  1.
         11    1    3    3    0    0 -0.28653730896E+02  0.25280157591E+01 -0.25330105422E+02  0.38328075857E+02  0.51100000000E-03 0. -1.
        -11    1    3    3    0    0 -0.59759424259E+01 -0.31451640198E+01 -0.32737771641E+01  0.75047692683E+01  0.51100000000E-03 0.  1.
        -12    1    3    3    0    0  0.34472712502E+02  0.12122813807E+01  0.27596818932E+02  0.44174901795E+02  0.00000000000E+00 0.  1.
</event>
<event>
 7    1  0.2675112E-015  0.9000776E+02  0.7816164E-02  0.1186339E+00
        -11   -1    0    0    0    0  0.00000000000E+00  0.00000000000E+00  0.45593999997E+02  0.45594000000E+02  0.51100000000E-03 0. -1.
         11   -1    0    0    0    0 -0.00000000000E+00 -0.00000000000E+00 -0.45593999997E+02  0.45594000000E+02  0.51100000000E-03 0.  1.
    9900012    2    1    2    0    0 -0.11159534973E+01 -0.12534346412E+00  0.36319520065E+00  0.90007756828E+02  0.90000018418E+02 0.  0.
        -12    1    1    2    0    0  0.11159534973E+01  0.12534346412E+00 -0.36319520065E+00  0.11802431724E+01  0.00000000000E+00 0.  1.
         11    1    3    3    0    0 -0.11961307495E+02  0.35038519046E+02  0.88918049804E+00  0.37034596476E+02  0.51100000000E-03 0. -1.
        -11    1    3    3    0    0  0.42779137806E+01  0.80413303487E+01 -0.16526716122E+01  0.92571520356E+01  0.51100000000E-03 0.  1.
        -12    1    3    3    0    0  0.65674402167E+01 -0.43205192859E+02  0.11266863148E+01  0.43716008316E+02  0.00000000000E+00 0.  1.
</event>
<event>
 7    1  0.2385752E-015  0.9000777E+02  0.7816164E-02  0.1186339E+00
        -11   -1    0    0    0    0  0.00000000000E+00  0.00000000000E+00  0.45593999997E+02  0.45594000000E+02  0.51100000000E-03 0.  1.
         11   -1    0    0    0    0 -0.00000000000E+00 -0.00000000000E+00 -0.45593999997E+02  0.45594000000E+02  0.51100000000E-03 0. -1.
    9900012    2    1    2    0    0  0.67069335171E+00  0.96539361729E+00 -0.10548898504E+00  0.90007770220E+02  0.90000031987E+02 0.  0.
        -12    1    1    2    0    0 -0.67069335171E+00 -0.96539361729E+00  0.10548898504E+00  0.11802297803E+01  0.00000000000E+00 0.  1.
         11    1    3    3    0    0  0.70266938853E+01 -0.29010074771E+02 -0.12922286713E+02  0.32526056622E+02  0.51100000000E-03 0. -1.
        -11    1    3    3    0    0  0.10970695109E+02 -0.58193188071E+01 -0.56403222602E+01  0.13639422935E+02  0.51100000000E-03 0.  1.
        -12    1    3    3    0    0 -0.17326695642E+02  0.35794787196E+02  0.18457119988E+02  0.43842290663E+02  0.00000000000E+00 0.  1.
</event>
<event>
 7    1  0.2385752E-015  0.9000776E+02  0.7816164E-02  0.1186339E+00
        -11   -1    0    0    0    0  0.00000000000E+00  0.00000000000E+00  0.45593999997E+02  0.45594000000E+02  0.51100000000E-03 0.  1.
         11   -1    0    0    0    0 -0.00000000000E+00 -0.00000000000E+00 -0.45593999997E+02  0.45594000000E+02  0.51100000000E-03 0. -1.
    9900012    2    1    2    0    0  0.68541259389E+00 -0.96068479314E+00  0.15909960931E-01  0.90007763235E+02  0.90000024909E+02 0.  0.
        -12    1    1    2    0    0 -0.68541259389E+00  0.96068479314E+00 -0.15909960931E-01  0.11802367654E+01  0.00000000000E+00 0.  1.
         11    1    3    3    0    0  0.30918242789E+02 -0.23308594042E+02  0.52055809314E+01  0.39068227071E+02  0.51100000000E-03 0. -1.
        -11    1    3    3    0    0 -0.39179817808E+01 -0.56899823124E+01 -0.10034867027E+02  0.12182981427E+02  0.51100000000E-03 0.  1.
        -12    1    3    3    0    0 -0.26314848414E+02  0.28037891561E+02  0.48451960561E+01  0.38756554737E+02  0.00000000000E+00 0.  1.
</event>
<event>
 7    1  0.2385752E-015  0.9000793E+02  0.7816164E-02  0.1186339E+00
        -11   -1    0    0    0    0  0.00000000000E+00  0.00000000000E+00  0.45593999997E+02  0.45594000000E+02  0.51100000000E-03 0.  1.
         11   -1    0    0    0    0 -0.00000000000E+00 -0.00000000000E+00 -0.45593999997E+02  0.45594000000E+02  0.51100000000E-03 0. -1.
    9900012    2    1    2    0    0 -0.11581071807E+01  0.21102108112E+00 -0.82615215441E-01  0.90007929065E+02  0.90000192928E+02 0.  0.
        -12    1    1    2    0    0  0.11581071807E+01 -0.21102108112E+00  0.82615215441E-01  0.11800709354E+01  0.00000000000E+00 0.  1.
         11    1    3    3    0    0 -0.14987360533E+02  0.14643411669E+02 -0.24986029394E+01  0.21101978532E+02  0.51100000000E-03 0. -1.
        -11    1    3    3    0    0 -0.21527259512E+02  0.85114143325E+01 -0.96267159712E+01  0.25070714723E+02  0.51100000000E-03 0.  1.
        -12    1    3    3    0    0  0.35356512865E+02 -0.22943804921E+02  0.12042703695E+02  0.43835235810E+02  0.00000000000E+00 0.  1.
</event>
<event>
 7    1  0.2385752E-015  0.9000781E+02  0.7816164E-02  0.1186339E+00
        -11   -1    0    0    0    0  0.00000000000E+00  0.00000000000E+00  0.45593999997E+02  0.45594000000E+02  0.51100000000E-03 0. -1.
         11   -1    0    0    0    0 -0.00000000000E+00 -0.00000000000E+00 -0.45593999997E+02  0.45594000000E+02  0.51100000000E-03 0.  1.
    9900012    2    1    2    0    0  0.11524443842E+01 -0.96937570208E-01  0.23521938295E+00  0.90007808020E+02  0.90000070286E+02 0.  0.
        -12    1    1    2    0    0 -0.11524443842E+01  0.96937570208E-01 -0.23521938295E+00  0.11801919798E+01  0.00000000000E+00 0.  1.
         11    1    3    3    0    0 -0.14421201507E+02 -0.24236896419E+02  0.33903741337E+02  0.44100588180E+02  0.51100000000E-03 0. -1.
        -11    1    3    3    0    0 -0.78272483050E+00  0.74286372767E+01 -0.53818491117E+01  0.92066068707E+01  0.51100000000E-03 0.  1.
        -12    1    3    3    0    0  0.16356370721E+02  0.16711321572E+02 -0.28286672842E+02  0.36700612970E+02  0.00000000000E+00 0.  1.
</event>
<event>
 7    1  0.2385752E-015  0.9000807E+02  0.7816164E-02  0.1186338E+00
        -11   -1    0    0    0    0  0.00000000000E+00  0.00000000000E+00  0.45593999997E+02  0.45594000000E+02  0.51100000000E-03 0.  1.
         11   -1    0    0    0    0 -0.00000000000E+00 -0.00000000000E+00 -0.45593999997E+02  0.45594000000E+02  0.51100000000E-03 0. -1.
    9900012    2    1    2    0    0 -0.53559755917E+00  0.91411255780E+00 -0.51938334280E+00  0.90008073913E+02  0.90000339688E+02 0.  0.
        -12    1    1    2    0    0  0.53559755917E+00 -0.91411255780E+00  0.51938334280E+00  0.11799260869E+01  0.00000000000E+00 0.  1.
         11    1    3    3    0    0 -0.69625231769E+01  0.26160402701E+01  0.10325953066E+01  0.75091044081E+01  0.51100000000E-03 0. -1.
        -11    1    3    3    0    0 -0.31970810842E+02  0.19267625608E+02 -0.82770676890E+01  0.38234591567E+02  0.51100000000E-03 0.  1.
         12    1    3    3    0    0  0.38397736460E+02 -0.20969553320E+02  0.67250890395E+01  0.44264377938E+02  0.00000000000E+00 0. -1.
</event>
<event>
 7    1  0.2385752E-015  0.9000765E+02  0.7816164E-02  0.1186339E+00
        -11   -1    0    0    0    0  0.00000000000E+00  0.00000000000E+00  0.45593999997E+02  0.45594000000E+02  0.51100000000E-03 0.  1.
         11   -1    0    0    0    0 -0.00000000000E+00 -0.00000000000E+00 -0.45593999997E+02  0.45594000000E+02  0.51100000000E-03 0. -1.
    9900012    2    1    2    0    0  0.11216232057E+01  0.15322187633E+00 -0.33423149259E+00  0.90007649946E+02  0.89999910125E+02 0.  0.
        -12    1    1    2    0    0 -0.11216232057E+01 -0.15322187633E+00  0.33423149259E+00  0.11803500538E+01  0.00000000000E+00 0.  1.
         11    1    3    3    0    0  0.24077509929E+02 -0.12687409724E+02 -0.31862439914E+02  0.41903602798E+02  0.51100000000E-03 0. -1.
        -11    1    3    3    0    0  0.32058145693E+01  0.84061951950E+01  0.39264084530E+01  0.98162135424E+01  0.51100000000E-03 0.  1.
        -12    1    3    3    0    0 -0.26161701293E+02  0.44344364053E+01  0.27601799968E+02  0.38287833606E+02  0.00000000000E+00 0.  1.
</event>
<event>
 7    1  0.2385752E-015  0.9000766E+02  0.7816164E-02  0.1186339E+00
        -11   -1    0    0    0    0  0.00000000000E+00  0.00000000000E+00  0.45593999997E+02  0.45594000000E+02  0.51100000000E-03 0.  1.
         11   -1    0    0    0    0 -0.00000000000E+00 -0.00000000000E+00 -0.45593999997E+02  0.45594000000E+02  0.51100000000E-03 0. -1.
    9900012    2    1    2    0    0 -0.29880223099E+00 -0.37108078585E+00 -0.10799170903E+01  0.90007659098E+02  0.89999919398E+02 0.  0.
        -12    1    1    2    0    0  0.29880223099E+00  0.37108078585E+00  0.10799170903E+01  0.11803409020E+01  0.00000000000E+00 0.  1.
         11    1    3    3    0    0 -0.85214750875E+00  0.24626487033E+01  0.93999066589E+01  0.97544369120E+01  0.51100000000E-03 0. -1.
        -11    1    3    3    0    0 -0.30738757916E+02 -0.12985052154E+02  0.16944012082E+02  0.37424355217E+02  0.51100000000E-03 0.  1.
         12    1    3    3    0    0  0.31292103194E+02  0.10151322665E+02 -0.27423835832E+02  0.42828866969E+02  0.00000000000E+00 0. -1.
</event>
<event>
 7    1  0.2385752E-015  0.9000776E+02  0.7816164E-02  0.1186339E+00
        -11   -1    0    0    0    0  0.00000000000E+00  0.00000000000E+00  0.45593999997E+02  0.45594000000E+02  0.51100000000E-03 0.  1.
         11   -1    0    0    0    0 -0.00000000000E+00 -0.00000000000E+00 -0.45593999997E+02  0.45594000000E+02  0.51100000000E-03 0. -1.
    9900012    2    1    2    0    0  0.97772450155E+00 -0.61120947114E+00  0.25190292712E+00  0.90007755405E+02  0.90000016977E+02 0.  0.
        -12    1    1    2    0    0 -0.97772450155E+00  0.61120947114E+00 -0.25190292712E+00  0.11802445947E+01  0.00000000000E+00 0.  1.
         11    1    3    3    0    0  0.13623708688E+02  0.33905446928E+02  0.21437843656E+02  0.42364677630E+02  0.51100000000E-03 0. -1.
        -11    1    3    3    0    0  0.46069396083E+01 -0.25633179879E+01  0.58329947790E+00  0.53042181520E+01  0.51100000000E-03 0.  1.
        -12    1    3    3    0    0 -0.17252923795E+02 -0.31953338411E+02 -0.21769240207E+02  0.42338859624E+02  0.00000000000E+00 0.  1.
</event>
<event>
 7    1  0.2385752E-015  0.9000773E+02  0.7816164E-02  0.1186339E+00
        -11   -1    0    0    0    0  0.00000000000E+00  0.00000000000E+00  0.45593999997E+02  0.45594000000E+02  0.51100000000E-03 0.  1.
         11   -1    0    0    0    0 -0.00000000000E+00 -0.00000000000E+00 -0.45593999997E+02  0.45594000000E+02  0.51100000000E-03 0. -1.
    9900012    2    1    2    0    0 -0.49885010046E+00 -0.81156576508E+00 -0.69680393359E+00  0.90007734718E+02  0.89999996016E+02 0.  0.
        -12    1    1    2    0    0  0.49885010046E+00  0.81156576508E+00  0.69680393359E+00  0.11802652819E+01  0.00000000000E+00 0.  1.
         11    1    3    3    0    0  0.65366990912E+01 -0.51251509775E+01 -0.42816187141E+01  0.93449380215E+01  0.51100000000E-03 0. -1.
        -11    1    3    3    0    0  0.16575071889E+02  0.33515462824E+02 -0.13034368881E+02  0.39596894181E+02  0.51100000000E-03 0.  1.
         12    1    3    3    0    0 -0.23610621080E+02 -0.29201877611E+02  0.16619183661E+02  0.41065902515E+02  0.00000000000E+00 0. -1.
</event>
<event>
 7    1  0.2385752E-015  0.9000770E+02  0.7816164E-02  0.1186339E+00
        -11   -1    0    0    0    0  0.00000000000E+00  0.00000000000E+00  0.45593999997E+02  0.45594000000E+02  0.51100000000E-03 0. -1.
         11   -1    0    0    0    0 -0.00000000000E+00 -0.00000000000E+00 -0.45593999997E+02  0.45594000000E+02  0.51100000000E-03 0.  1.
    9900012    2    1    2    0    0  0.60857013882E+00 -0.10080962407E+01  0.80520366093E-01  0.90007703777E+02  0.89999964667E+02 0.  0.
        -12    1    1    2    0    0 -0.60857013882E+00  0.10080962407E+01 -0.80520366093E-01  0.11802962229E+01  0.00000000000E+00 0.  1.
         11    1    3    3    0    0 -0.14005444272E+02 -0.33431184438E+02 -0.12471563241E+02  0.38331924712E+02  0.51100000000E-03 0. -1.
        -11    1    3    3    0    0 -0.89966387759E+01 -0.29135036306E-01 -0.15670837727E+01  0.91321470600E+01  0.51100000000E-03 0.  1.
        -12    1    3    3    0    0  0.23610653187E+02  0.32452223233E+02  0.14119167379E+02  0.42543632005E+02  0.00000000000E+00 0.  1.
</event>
<event>
 7    1  0.2385752E-015  0.9000777E+02  0.7816164E-02  0.1186339E+00
        -11   -1    0    0    0    0  0.00000000000E+00  0.00000000000E+00  0.45593999997E+02  0.45594000000E+02  0.51100000000E-03 0.  1.
         11   -1    0    0    0    0 -0.00000000000E+00 -0.00000000000E+00 -0.45593999997E+02  0.45594000000E+02  0.51100000000E-03 0. -1.
    9900012    2    1    2    0    0  0.31874103430E+00 -0.11261772959E+00  0.11307788741E+01  0.90007771436E+02  0.90000033219E+02 0.  0.
        -12    1    1    2    0    0 -0.31874103430E+00  0.11261772959E+00 -0.11307788741E+01  0.11802285635E+01  0.00000000000E+00 0.  1.
         11    1    3    3    0    0 -0.75830637633E+01  0.13570066102E+01 -0.32868870524E+02  0.33759546394E+02  0.51100000000E-03 0. -1.
        -11    1    3    3    0    0  0.37898200611E+01  0.39758399683E+01 -0.10167916082E+02  0.11556667221E+02  0.51100000000E-03 0.  1.
        -12    1    3    3    0    0  0.41119847365E+01 -0.54454643081E+01  0.44167565480E+02  0.44691557821E+02  0.00000000000E+00 0.  1.
</event>
<event>
 7    1  0.2385752E-015  0.9000776E+02  0.7816164E-02  0.1186339E+00
        -11   -1    0    0    0    0  0.00000000000E+00  0.00000000000E+00  0.45593999997E+02  0.45594000000E+02  0.51100000000E-03 0. -1.
         11   -1    0    0    0    0 -0.00000000000E+00 -0.00000000000E+00 -0.45593999997E+02  0.45594000000E+02  0.51100000000E-03 0.  1.
    9900012    2    1    2    0    0  0.23618144535E+00  0.79124901582E-01  0.11536573846E+01  0.90007759437E+02  0.90000021062E+02 0.  0.
        -12    1    1    2    0    0 -0.23618144535E+00 -0.79124901582E-01 -0.11536573846E+01  0.11802405628E+01  0.00000000000E+00 0.  1.
         11    1    3    3    0    0  0.16202484252E+02  0.30716779267E+02  0.75723830540E+01  0.35544085441E+02  0.51100000000E-03 0. -1.
        -11    1    3    3    0    0  0.15276444000E+01 -0.36674304563E+01  0.15208444191E+02  0.15718795073E+02  0.51100000000E-03 0.  1.
        -12    1    3    3    0    0 -0.17493947207E+02 -0.26970223909E+02 -0.21627169860E+02  0.38744878923E+02  0.00000000000E+00 0.  1.
</event>
<event>
 7    1  0.2385752E-015  0.9000765E+02  0.7816164E-02  0.1186339E+00
        -11   -1    0    0    0    0  0.00000000000E+00  0.00000000000E+00  0.45593999997E+02  0.45594000000E+02  0.51100000000E-03 0.  1.
         11   -1    0    0    0    0 -0.00000000000E+00 -0.00000000000E+00 -0.45593999997E+02  0.45594000000E+02  0.51100000000E-03 0. -1.
    9900012    2    1    2    0    0 -0.99404833610E+00 -0.54592314562E+00 -0.32718798744E+00  0.90007654222E+02  0.89999914458E+02 0.  0.
        -12    1    1    2    0    0  0.99404833610E+00  0.54592314562E+00  0.32718798744E+00  0.11803457775E+01  0.00000000000E+00 0.  1.
         11    1    3    3    0    0  0.22340492468E+02  0.13805412218E+02  0.24286702976E+02  0.35770531894E+02  0.51100000000E-03 0. -1.
        -11    1    3    3    0    0  0.61169562430E+01  0.76312368259E+00  0.63924048668E+01  0.88804477182E+01  0.51100000000E-03 0.  1.
        -12    1    3    3    0    0 -0.29451497047E+02 -0.15114459047E+02 -0.31006295830E+02  0.45356674611E+02  0.00000000000E+00 0.  1.
</event>
<event>
 7    1  0.2385752E-015  0.9000776E+02  0.7816164E-02  0.1186339E+00
        -11   -1    0    0    0    0  0.00000000000E+00  0.00000000000E+00  0.45593999997E+02  0.45594000000E+02  0.51100000000E-03 0.  1.
         11   -1    0    0    0    0 -0.00000000000E+00 -0.00000000000E+00 -0.45593999997E+02  0.45594000000E+02  0.51100000000E-03 0. -1.
    9900012    2    1    2    0    0  0.10583698412E+00  0.47669566086E+00 -0.10744904456E+01  0.90007758526E+02  0.90000020138E+02 0.  0.
        -12    1    1    2    0    0 -0.10583698412E+00 -0.47669566086E+00  0.10744904456E+01  0.11802414744E+01  0.00000000000E+00 0.  1.
         11    1    3    3    0    0  0.37975912494E+01  0.58032427126E+00  0.80251860992E+01  0.88973078931E+01  0.51100000000E-03 0. -1.
        -11    1    3    3    0    0  0.12959081170E+02  0.32546470320E+02  0.14068548052E+02  0.37750954420E+02  0.51100000000E-03 0.  1.
         12    1    3    3    0    0 -0.16650835436E+02 -0.32650098930E+02 -0.23168224597E+02  0.43359496213E+02  0.00000000000E+00 0. -1.
</event>
<event>
 7    1  0.2385752E-015  0.9000772E+02  0.7816164E-02  0.1186339E+00
        -11   -1    0    0    0    0  0.00000000000E+00  0.00000000000E+00  0.45593999997E+02  0.45594000000E+02  0.51100000000E-03 0. -1.
         11   -1    0    0    0    0 -0.00000000000E+00 -0.00000000000E+00 -0.45593999997E+02  0.45594000000E+02  0.51100000000E-03 0.  1.
    9900012    2    1    2    0    0  0.55736987145E+00  0.38571768528E+00  0.96624620189E+00  0.90007715700E+02  0.89999976747E+02 0.  0.
        -12    1    1    2    0    0 -0.55736987145E+00 -0.38571768528E+00 -0.96624620189E+00  0.11802843001E+01  0.00000000000E+00 0.  1.
         11    1    3    3    0    0 -0.99404845591E+01  0.29875179757E+01 -0.42154523008E+01  0.11203059193E+02  0.51100000000E-03 0. -1.
        -11    1    3    3    0    0 -0.28703285862E+02 -0.20766998145E+02  0.21697932256E+01  0.35494433848E+02  0.51100000000E-03 0.  1.
         12    1    3    3    0    0  0.39201140293E+02  0.18165197855E+02  0.30119052772E+01  0.43310222659E+02  0.00000000000E+00 0. -1.
</event>
<event>
 7    1  0.2385752E-015  0.9000777E+02  0.7816164E-02  0.1186339E+00
        -11   -1    0    0    0    0  0.00000000000E+00  0.00000000000E+00  0.45593999997E+02  0.45594000000E+02  0.51100000000E-03 0.  1.
         11   -1    0    0    0    0 -0.00000000000E+00 -0.00000000000E+00 -0.45593999997E+02  0.45594000000E+02  0.51100000000E-03 0. -1.
    9900012    2    1    2    0    0  0.30468305960E+00 -0.22028611272E+00 -0.11187452437E+01  0.90007767540E+02  0.90000029272E+02 0.  0.
        -12    1    1    2    0    0 -0.30468305960E+00  0.22028611272E+00  0.11187452437E+01  0.11802324595E+01  0.00000000000E+00 0.  1.
         11    1    3    3    0    0  0.22529661343E+02  0.17320720088E+02 -0.59243252894E+01  0.29029133901E+02  0.51100000000E-03 0. -1.
        -11    1    3    3    0    0  0.16930346436E+02  0.17436674395E+01  0.30904585689E+01  0.17298206295E+02  0.51100000000E-03 0.  1.
        -12    1    3    3    0    0 -0.39155324720E+02 -0.19284673640E+02  0.17151214768E+01  0.43680427345E+02  0.00000000000E+00 0.  1.
</event>
<event>
 7    1  0.2385752E-015  0.9000762E+02  0.7816164E-02  0.1186339E+00
        -11   -1    0    0    0    0  0.00000000000E+00  0.00000000000E+00  0.45593999997E+02  0.45594000000E+02  0.51100000000E-03 0.  1.
         11   -1    0    0    0    0 -0.00000000000E+00 -0.00000000000E+00 -0.45593999997E+02  0.45594000000E+02  0.51100000000E-03 0. -1.
    9900012    2    1    2    0    0 -0.47721788405E+00 -0.30058774294E+00 -0.10369199046E+01  0.90007621760E+02  0.89999881567E+02 0.  0.
        -12    1    1    2    0    0  0.47721788405E+00  0.30058774294E+00  0.10369199046E+01  0.11803782397E+01  0.00000000000E+00 0.  1.
         11    1    3    3    0    0  0.68724412983E+01  0.46645432741E+01  0.18398729895E+01  0.85072643213E+01  0.51100000000E-03 0. -1.
        -11    1    3    3    0    0 -0.20885461761E+02  0.32285755433E+02  0.10169826640E+02  0.39774337091E+02  0.51100000000E-03 0.  1.
         12    1    3    3    0    0  0.13535802579E+02 -0.37250886450E+02 -0.13046619534E+02  0.41726020348E+02  0.00000000000E+00 0. -1.
</event>
<event>
 7    1  0.2385752E-015  0.9000781E+02  0.7816164E-02  0.1186339E+00
        -11   -1    0    0    0    0  0.00000000000E+00  0.00000000000E+00  0.45593999997E+02  0.45594000000E+02  0.51100000000E-03 0. -1.
         11   -1    0    0    0    0 -0.00000000000E+00 -0.00000000000E+00 -0.45593999997E+02  0.45594000000E+02  0.51100000000E-03 0.  1.
    9900012    2    1    2    0    0 -0.92186749158E+00 -0.73415511474E+00 -0.63460662109E-01  0.90007809058E+02  0.90000071337E+02 0.  0.
        -12    1    1    2    0    0  0.92186749158E+00  0.73415511474E+00  0.63460662109E-01  0.11801909423E+01  0.00000000000E+00 0.  1.
         11    1    3    3    0    0 -0.16774661073E+02  0.22610395461E+02  0.21566782544E+02  0.35464705646E+02  0.51100000000E-03 0. -1.
        -11    1    3    3    0    0 -0.63853933442E+01  0.48120207699E+01  0.53768197308E+01  0.96352987877E+01  0.51100000000E-03 0.  1.
        -12    1    3    3    0    0  0.22238186926E+02 -0.28156571345E+02 -0.27007062936E+02  0.44907804624E+02  0.00000000000E+00 0.  1.
</event>
<event>
 7    1  0.2385752E-015  0.9000771E+02  0.7816164E-02  0.1186339E+00
        -11   -1    0    0    0    0  0.00000000000E+00  0.00000000000E+00  0.45593999997E+02  0.45594000000E+02  0.51100000000E-03 0. -1.
         11   -1    0    0    0    0 -0.00000000000E+00 -0.00000000000E+00 -0.45593999997E+02  0.45594000000E+02  0.51100000000E-03 0.  1.
    9900012    2    1    2    0    0 -0.13215705190E-01 -0.75978077470E+00  0.90313557656E+00  0.90007705397E+02  0.89999966308E+02 0.  0.
        -12    1    1    2    0    0  0.13215705190E-01  0.75978077470E+00 -0.90313557656E+00  0.11802946031E+01  0.00000000000E+00 0.  1.
         11    1    3    3    0    0  0.71703129094E+01  0.71055166060E+01  0.29822992022E+01  0.10525961346E+02  0.51100000000E-03 0. -1.
        -11    1    3    3    0    0 -0.31410674363E+02  0.10715597897E+02 -0.24793944307E+02  0.41426974024E+02  0.51100000000E-03 0.  1.
         12    1    3    3    0    0  0.24227145749E+02 -0.18580895278E+02  0.22714780681E+02  0.38054770027E+02  0.00000000000E+00 0. -1.
</event>
<event>
 7    1  0.2385752E-015  0.9000769E+02  0.7816164E-02  0.1186339E+00
        -11   -1    0    0    0    0  0.00000000000E+00  0.00000000000E+00  0.45593999997E+02  0.45594000000E+02  0.51100000000E-03 0.  1.
         11   -1    0    0    0    0 -0.00000000000E+00 -0.00000000000E+00 -0.45593999997E+02  0.45594000000E+02  0.51100000000E-03 0. -1.
    9900012    2    1    2    0    0 -0.44919293701E+00  0.10499429560E+01  0.29830418331E+00  0.90007686528E+02  0.89999947191E+02 0.  0.
        -12    1    1    2    0    0  0.44919293701E+00 -0.10499429560E+01 -0.29830418331E+00  0.11803134717E+01  0.00000000000E+00 0.  1.
         11    1    3    3    0    0 -0.23142977568E+01  0.20511766876E+01  0.74638329096E+01  0.80791151666E+01  0.51100000000E-03 0. -1.
        -11    1    3    3    0    0  0.10562135661E+01  0.39400789996E+02  0.49906259331E+01  0.39729638645E+02  0.51100000000E-03 0.  1.
         12    1    3    3    0    0  0.80889125377E+00 -0.40402023727E+02 -0.12156154659E+02  0.42198932717E+02  0.00000000000E+00 0. -1.
</event>
<event>
 7    1  0.2385752E-015  0.9000775E+02  0.7816164E-02  0.1186339E+00
        -11   -1    0    0    0    0  0.00000000000E+00  0.00000000000E+00  0.45593999997E+02  0.45594000000E+02  0.51100000000E-03 0.  1.
         11   -1    0    0    0    0 -0.00000000000E+00 -0.00000000000E+00 -0.45593999997E+02  0.45594000000E+02  0.51100000000E-03 0. -1.
    9900012    2    1    2    0    0 -0.17573534052E+00 -0.49342499024E+00 -0.10576561974E+01  0.90007750974E+02  0.90000012487E+02 0.  0.
        -12    1    1    2    0    0  0.17573534052E+00  0.49342499024E+00  0.10576561974E+01  0.11802490257E+01  0.00000000000E+00 0.  1.
         11    1    3    3    0    0  0.69846463612E+01 -0.70765331697E+01 -0.63475099048E+01  0.11796333699E+02  0.51100000000E-03 0. -1.
        -11    1    3    3    0    0 -0.37124746428E+02 -0.94100740280E+00  0.21922016297E+02  0.43124321340E+02  0.51100000000E-03 0.  1.
         12    1    3    3    0    0  0.29964364726E+02  0.75241155822E+01 -0.16632162590E+02  0.35087095935E+02  0.00000000000E+00 0. -1.
</event>
<event>
 7    1  0.2385752E-015  0.9000779E+02  0.7816164E-02  0.1186339E+00
        -11   -1    0    0    0    0  0.00000000000E+00  0.00000000000E+00  0.45593999997E+02  0.45594000000E+02  0.51100000000E-03 0.  1.
         11   -1    0    0    0    0 -0.00000000000E+00 -0.00000000000E+00 -0.45593999997E+02  0.45594000000E+02  0.51100000000E-03 0. -1.
    9900012    2    1    2    0    0 -0.78113947647E+00 -0.88048147206E+00 -0.86405181258E-01  0.90007791391E+02  0.90000053438E+02 0.  0.
        -12    1    1    2    0    0  0.78113947647E+00  0.88048147206E+00  0.86405181258E-01  0.11802086086E+01  0.00000000000E+00 0.  1.
         11    1    3    3    0    0  0.10435308934E+02 -0.20287872618E+02 -0.35451883555E+02  0.42158385830E+02  0.51100000000E-03 0. -1.
        -11    1    3    3    0    0 -0.46401381137E+01  0.79555568430E+01 -0.90059782737E+00  0.92538015488E+01  0.51100000000E-03 0.  1.
        -12    1    3    3    0    0 -0.65763102967E+01  0.11451834303E+02  0.36266076202E+02  0.38595604012E+02  0.00000000000E+00 0.  1.
</event>
<event>
 7    1  0.2385752E-015  0.9000781E+02  0.7816164E-02  0.1186339E+00
        -11   -1    0    0    0    0  0.00000000000E+00  0.00000000000E+00  0.45593999997E+02  0.45594000000E+02  0.51100000000E-03 0. -1.
         11   -1    0    0    0    0 -0.00000000000E+00 -0.00000000000E+00 -0.45593999997E+02  0.45594000000E+02  0.51100000000E-03 0.  1.
    9900012    2    1    2    0    0 -0.56503232511E+00 -0.20539306023E+00  0.10155810658E+01  0.90007808177E+02  0.90000070445E+02 0.  0.
        -12    1    1    2    0    0  0.56503232511E+00  0.20539306023E+00 -0.10155810658E+01  0.11801918229E+01  0.00000000000E+00 0.  1.
         11    1    3    3    0    0  0.11526481545E+02  0.13237749750E+02  0.21066919552E+01  0.17678686221E+02  0.51100000000E-03 0. -1.
        -11    1    3    3    0    0 -0.23279590129E+01  0.15372998273E+02 -0.27794250304E+02  0.31847587339E+02  0.51100000000E-03 0.  1.
         12    1    3    3    0    0 -0.97635548570E+01 -0.28816141083E+02  0.26703139415E+02  0.40481534617E+02  0.00000000000E+00 0. -1.
</event>
<event>
 7    1  0.2385752E-015  0.9000774E+02  0.7816164E-02  0.1186339E+00
        -11   -1    0    0    0    0  0.00000000000E+00  0.00000000000E+00  0.45593999997E+02  0.45594000000E+02  0.51100000000E-03 0. -1.
         11   -1    0    0    0    0 -0.00000000000E+00 -0.00000000000E+00 -0.45593999997E+02  0.45594000000E+02  0.51100000000E-03 0.  1.
    9900012    2    1    2    0    0 -0.18828321030E-01  0.76898124469E+00  0.89517175739E+00  0.90007737684E+02  0.89999999021E+02 0.  0.
        -12    1    1    2    0    0  0.18828321030E-01 -0.76898124469E+00 -0.89517175739E+00  0.11802623164E+01  0.00000000000E+00 0.  1.
         11    1    3    3    0    0 -0.34615409030E+02  0.11885726872E+01  0.10457161414E+02  0.36179987182E+02  0.51100000000E-03 0. -1.
        -11    1    3    3    0    0 -0.58300445707E+01 -0.49120505600E+01  0.65760076815E+01  0.10067846725E+02  0.51100000000E-03 0.  1.
        -12    1    3    3    0    0  0.40426625280E+02  0.44924591174E+01 -0.16137997338E+02  0.43759903776E+02  0.00000000000E+00 0.  1.
</event>
<event>
 7    1  0.2385752E-015  0.9000765E+02  0.7816164E-02  0.1186339E+00
        -11   -1    0    0    0    0  0.00000000000E+00  0.00000000000E+00  0.45593999997E+02  0.45594000000E+02  0.51100000000E-03 0. -1.
         11   -1    0    0    0    0 -0.00000000000E+00 -0.00000000000E+00 -0.45593999997E+02  0.45594000000E+02  0.51100000000E-03 0.  1.
    9900012    2    1    2    0    0  0.80034209672E+00 -0.25500141661E+00 -0.82924305643E+00  0.90007653762E+02  0.89999913992E+02 0.  0.
        -12    1    1    2    0    0 -0.80034209672E+00  0.25500141661E+00  0.82924305643E+00  0.11803462377E+01  0.00000000000E+00 0.  1.
         11    1    3    3    0    0  0.38598497319E+02 -0.93867329629E+00  0.85619005698E+01  0.39547834890E+02  0.51100000000E-03 0. -1.
        -11    1    3    3    0    0 -0.57858795495E+01 -0.12781011192E+02  0.13844882307E+01  0.14097781995E+02  0.51100000000E-03 0.  1.
        -12    1    3    3    0    0 -0.32012275673E+02  0.13464683072E+02 -0.10775631857E+02  0.36362036878E+02  0.00000000000E+00 0.  1.
</event>
<event>
 7    1  0.2385752E-015  0.9000855E+02  0.7816164E-02  0.1186337E+00
        -11   -1    0    0    0    0  0.00000000000E+00  0.00000000000E+00  0.45593999997E+02  0.45594000000E+02  0.51100000000E-03 0.  1.
         11   -1    0    0    0    0 -0.00000000000E+00 -0.00000000000E+00 -0.45593999997E+02  0.45594000000E+02  0.51100000000E-03 0. -1.
    9900012    2    1    2    0    0  0.10480213010E+01  0.54034001302E+00 -0.28216134144E-01  0.90008545835E+02  0.90000817836E+02 0.  0.
        -12    1    1    2    0    0 -0.10480213010E+01 -0.54034001302E+00  0.28216134144E-01  0.11794541649E+01  0.00000000000E+00 0.  1.
         11    1    3    3    0    0  0.68897470450E+01  0.10734152653E+01 -0.66050991087E+01  0.96045910466E+01  0.51100000000E-03 0. -1.
        -11    1    3    3    0    0  0.33229604095E+02  0.16571988846E+02  0.68089194813E+01  0.37751805087E+02  0.51100000000E-03 0.  1.
         12    1    3    3    0    0 -0.39071329839E+02 -0.17105064098E+02 -0.23203650678E+00  0.42652149701E+02  0.00000000000E+00 0. -1.
</event>
<event>
 7    1  0.2385752E-015  0.9000769E+02  0.7816164E-02  0.1186339E+00
        -11   -1    0    0    0    0  0.00000000000E+00  0.00000000000E+00  0.45593999997E+02  0.45594000000E+02  0.51100000000E-03 0.  1.
         11   -1    0    0    0    0 -0.00000000000E+00 -0.00000000000E+00 -0.45593999997E+02  0.45594000000E+02  0.51100000000E-03 0. -1.
    9900012    2    1    2    0    0  0.11330795129E+01 -0.25022393374E+00 -0.21597948686E+00  0.90007691422E+02  0.89999952149E+02 0.  0.
        -12    1    1    2    0    0 -0.11330795129E+01  0.25022393374E+00  0.21597948686E+00  0.11803085776E+01  0.00000000000E+00 0.  1.
         11    1    3    3    0    0 -0.48063810563E+01  0.88843742616E+01  0.39670849449E+01  0.10852242538E+02  0.51100000000E-03 0. -1.
        -11    1    3    3    0    0 -0.55467131456E+01  0.28847415790E+02  0.17239876103E+02  0.34061015146E+02  0.51100000000E-03 0.  1.
         12    1    3    3    0    0  0.11486173715E+02 -0.37982013986E+02 -0.21422940535E+02  0.45094433738E+02  0.00000000000E+00 0. -1.
</event>
<event>
 7    1  0.2385752E-015  0.9000774E+02  0.7816164E-02  0.1186339E+00
        -11   -1    0    0    0    0  0.00000000000E+00  0.00000000000E+00  0.45593999997E+02  0.45594000000E+02  0.51100000000E-03 0. -1.
         11   -1    0    0    0    0 -0.00000000000E+00 -0.00000000000E+00 -0.45593999997E+02  0.45594000000E+02  0.51100000000E-03 0.  1.
    9900012    2    1    2    0    0  0.30601106502E+00 -0.61143676112E+00  0.96203158845E+00  0.90007744747E+02  0.90000006178E+02 0.  0.
        -12    1    1    2    0    0 -0.30601106502E+00  0.61143676112E+00 -0.96203158845E+00  0.11802552529E+01  0.00000000000E+00 0.  1.
         11    1    3    3    0    0 -0.12279913582E+02 -0.10295841844E+02 -0.34558558732E+00  0.16028726291E+02  0.51100000000E-03 0. -1.
        -11    1    3    3    0    0 -0.27507214446E+02 -0.91069202951E+01  0.55344131057E+01  0.29499365629E+02  0.51100000000E-03 0.  1.
         12    1    3    3    0    0  0.40093139093E+02  0.18791325378E+02 -0.42267959300E+01  0.44479652827E+02  0.00000000000E+00 0. -1.
</event>
<event>
 7    1  0.2385752E-015  0.9000780E+02  0.7816164E-02  0.1186339E+00
        -11   -1    0    0    0    0  0.00000000000E+00  0.00000000000E+00  0.45593999997E+02  0.45594000000E+02  0.51100000000E-03 0. -1.
         11   -1    0    0    0    0 -0.00000000000E+00 -0.00000000000E+00 -0.45593999997E+02  0.45594000000E+02  0.51100000000E-03 0.  1.
    9900012    2    1    2    0    0  0.58298543197E+00  0.81638212808E+00 -0.62170778298E+00  0.90007799864E+02  0.90000062022E+02 0.  0.
        -12    1    1    2    0    0 -0.58298543197E+00 -0.81638212808E+00  0.62170778298E+00  0.11802001357E+01  0.00000000000E+00 0.  1.
         11    1    3    3    0    0 -0.15041939908E+02 -0.45098402523E+01  0.34397356835E+02  0.37812389144E+02  0.51100000000E-03 0. -1.
        -11    1    3    3    0    0  0.18643508465E+01 -0.71246542555E+01  0.44336605556E+01  0.85961531235E+01  0.51100000000E-03 0.  1.
        -12    1    3    3    0    0  0.13760574493E+02  0.12450876636E+02 -0.39452725173E+02  0.43599257597E+02  0.00000000000E+00 0.  1.
</event>
<event>
 7    1  0.2385752E-015  0.9000782E+02  0.7816164E-02  0.1186339E+00
        -11   -1    0    0    0    0  0.00000000000E+00  0.00000000000E+00  0.45593999997E+02  0.45594000000E+02  0.51100000000E-03 0.  1.
         11   -1    0    0    0    0 -0.00000000000E+00 -0.00000000000E+00 -0.45593999997E+02  0.45594000000E+02  0.51100000000E-03 0. -1.
    9900012    2    1    2    0    0  0.27452106812E+00 -0.11397683752E+01  0.13564850680E+00  0.90007815996E+02  0.90000078367E+02 0.  0.
        -12    1    1    2    0    0 -0.27452106812E+00  0.11397683752E+01 -0.13564850680E+00  0.11801840040E+01  0.00000000000E+00 0.  1.
         11    1    3    3    0    0 -0.29533195552E+00 -0.24262982046E+01  0.86045016909E+01  0.89449199858E+01  0.51100000000E-03 0. -1.
        -11    1    3    3    0    0 -0.14717662715E+02 -0.37158492303E+00  0.33377752912E+02  0.36480433946E+02  0.51100000000E-03 0.  1.
         12    1    3    3    0    0  0.15287515739E+02  0.16581147524E+01 -0.41846606096E+02  0.44582462065E+02  0.00000000000E+00 0. -1.
</event>
<event>
 7    1  0.2385752E-015  0.9000774E+02  0.7816164E-02  0.1186339E+00
        -11   -1    0    0    0    0  0.00000000000E+00  0.00000000000E+00  0.45593999997E+02  0.45594000000E+02  0.51100000000E-03 0.  1.
         11   -1    0    0    0    0 -0.00000000000E+00 -0.00000000000E+00 -0.45593999997E+02  0.45594000000E+02  0.51100000000E-03 0. -1.
    9900012    2    1    2    0    0  0.15217620300E+00  0.74045779940E+00  0.90641541190E+00  0.90007735518E+02  0.89999996826E+02 0.  0.
        -12    1    1    2    0    0 -0.15217620300E+00 -0.74045779940E+00 -0.90641541190E+00  0.11802644824E+01  0.00000000000E+00 0.  1.
         11    1    3    3    0    0 -0.28784258989E+01  0.18326653164E+02 -0.49250699796E+01  0.19193953902E+02  0.51100000000E-03 0. -1.
        -11    1    3    3    0    0  0.33017412560E+01  0.16746161933E+01  0.35362459097E+02  0.35555721739E+02  0.51100000000E-03 0.  1.
         12    1    3    3    0    0 -0.27113915403E+00 -0.19260811558E+02 -0.29530973705E+02  0.35258059877E+02  0.00000000000E+00 0. -1.
</event>
<event>
 7    1  0.2385752E-015  0.9000773E+02  0.7816164E-02  0.1186339E+00
        -11   -1    0    0    0    0  0.00000000000E+00  0.00000000000E+00  0.45593999997E+02  0.45594000000E+02  0.51100000000E-03 0.  1.
         11   -1    0    0    0    0 -0.00000000000E+00 -0.00000000000E+00 -0.45593999997E+02  0.45594000000E+02  0.51100000000E-03 0. -1.
    9900012    2    1    2    0    0 -0.97769809992E+00 -0.48239940026E+00  0.45215338944E+00  0.90007726539E+02  0.89999987729E+02 0.  0.
        -12    1    1    2    0    0  0.97769809992E+00  0.48239940026E+00 -0.45215338944E+00  0.11802734613E+01  0.00000000000E+00 0.  1.
         11    1    3    3    0    0 -0.32938310465E+02 -0.13996827273E+02  0.11202014077E+02  0.37501047847E+02  0.51100000000E-03 0. -1.
        -11    1    3    3    0    0 -0.48368950645E+01  0.13738929646E+02 -0.22320925290E+01  0.14735534568E+02  0.51100000000E-03 0.  1.
        -12    1    3    3    0    0  0.36797507429E+02 -0.22450177275E+00 -0.85177681585E+01  0.37771144124E+02  0.00000000000E+00 0.  1.
</event>
<event>
 7    1  0.2385752E-015  0.9000777E+02  0.7816164E-02  0.1186339E+00
        -11   -1    0    0    0    0  0.00000000000E+00  0.00000000000E+00  0.45593999997E+02  0.45594000000E+02  0.51100000000E-03 0.  1.
         11   -1    0    0    0    0 -0.00000000000E+00 -0.00000000000E+00 -0.45593999997E+02  0.45594000000E+02  0.51100000000E-03 0. -1.
    9900012    2    1    2    0    0 -0.96410493394E+00  0.42204939917E+00 -0.53414389922E+00  0.90007773867E+02  0.90000035682E+02 0.  0.
        -12    1    1    2    0    0  0.96410493394E+00 -0.42204939917E+00  0.53414389922E+00  0.11802261326E+01  0.00000000000E+00 0.  1.
         11    1    3    3    0    0 -0.29476522170E+02 -0.20159943964E+01 -0.26528110100E+02  0.39707306864E+02  0.51100000000E-03 0. -1.
        -11    1    3    3    0    0  0.25852740288E+00  0.28114886623E+01 -0.65910916256E+01  0.71703412746E+01  0.51100000000E-03 0.  1.
        -12    1    3    3    0    0  0.28253889833E+02 -0.37344486679E+00  0.32585057827E+02  0.43130125729E+02  0.00000000000E+00 0.  1.
</event>
<event>
 7    1  0.2385752E-015  0.9000766E+02  0.7816164E-02  0.1186339E+00
        -11   -1    0    0    0    0  0.00000000000E+00  0.00000000000E+00  0.45593999997E+02  0.45594000000E+02  0.51100000000E-03 0.  1.
         11   -1    0    0    0    0 -0.00000000000E+00 -0.00000000000E+00 -0.45593999997E+02  0.45594000000E+02  0.51100000000E-03 0. -1.
    9900012    2    1    2    0    0 -0.98279873802E+00  0.40752678317E+00 -0.51111791735E+00  0.90007655574E+02  0.89999915828E+02 0.  0.
        -12    1    1    2    0    0  0.98279873802E+00 -0.40752678317E+00  0.51111791735E+00  0.11803444260E+01  0.00000000000E+00 0.  1.
         11    1    3    3    0    0 -0.38321129334E+01 -0.22283117507E+02 -0.35510478408E+02  0.42097701747E+02  0.51100000000E-03 0. -1.
        -11    1    3    3    0    0  0.10049479606E+02  0.13501973352E+01  0.96030348676E+01  0.13965434190E+02  0.51100000000E-03 0.  1.
        -12    1    3    3    0    0 -0.72001654106E+01  0.21340446955E+02  0.25396325624E+02  0.33944519636E+02  0.00000000000E+00 0.  1.
</event>
<event>
 7    1  0.2385752E-015  0.9000770E+02  0.7816164E-02  0.1186339E+00
        -11   -1    0    0    0    0  0.00000000000E+00  0.00000000000E+00  0.45593999997E+02  0.45594000000E+02  0.51100000000E-03 0. -1.
         11   -1    0    0    0    0 -0.00000000000E+00 -0.00000000000E+00 -0.45593999997E+02  0.45594000000E+02  0.51100000000E-03 0.  1.
    9900012    2    1    2    0    0 -0.54569940847E+00 -0.72385882766E+00  0.75587250470E+00  0.90007702287E+02  0.89999963158E+02 0.  0.
        -12    1    1    2    0    0  0.54569940847E+00  0.72385882766E+00 -0.75587250470E+00  0.11802977125E+01  0.00000000000E+00 0.  1.
         11    1    3    3    0    0  0.16695264266E+01 -0.71439366707E+01 -0.72854620721E+01  0.10339299179E+02  0.51100000000E-03 0. -1.
        -11    1    3    3    0    0  0.94766334865E+01 -0.29499829579E+02 -0.16020232792E+02  0.34881146575E+02  0.51100000000E-03 0.  1.
         12    1    3    3    0    0 -0.11691859322E+02  0.35919907422E+02  0.24061567368E+02  0.44787256534E+02  0.00000000000E+00 0. -1.
</event>
<event>
 7    1  0.2385752E-015  0.9000775E+02  0.7816164E-02  0.1186339E+00
        -11   -1    0    0    0    0  0.00000000000E+00  0.00000000000E+00  0.45593999997E+02  0.45594000000E+02  0.51100000000E-03 0. -1.
         11   -1    0    0    0    0 -0.00000000000E+00 -0.00000000000E+00 -0.45593999997E+02  0.45594000000E+02  0.51100000000E-03 0.  1.
    9900012    2    1    2    0    0 -0.42440492671E+00 -0.10342933778E+01  0.37828497053E+00  0.90007753478E+02  0.90000015024E+02 0.  0.
        -12    1    1    2    0    0  0.42440492671E+00  0.10342933778E+01 -0.37828497053E+00  0.11802465218E+01  0.00000000000E+00 0.  1.
         11    1    3    3    0    0  0.28673440769E+01  0.81190901050E+01  0.62327733104E+01  0.10629616625E+02  0.51100000000E-03 0. -1.
        -11    1    3    3    0    0 -0.20496063876E+02  0.28080227220E+02 -0.14145343451E+02  0.37532366522E+02  0.51100000000E-03 0.  1.
         12    1    3    3    0    0  0.17204314873E+02 -0.37233610702E+02  0.82908551110E+01  0.41845770332E+02  0.00000000000E+00 0. -1.
</event>
<event>
 7    1  0.2385752E-015  0.9000773E+02  0.7816164E-02  0.1186339E+00
        -11   -1    0    0    0    0  0.00000000000E+00  0.00000000000E+00  0.45593999997E+02  0.45594000000E+02  0.51100000000E-03 0.  1.
         11   -1    0    0    0    0 -0.00000000000E+00 -0.00000000000E+00 -0.45593999997E+02  0.45594000000E+02  0.51100000000E-03 0. -1.
    9900012    2    1    2    0    0 -0.20852316492E+00 -0.11469035560E+01 -0.18483952089E+00  0.90007730825E+02  0.89999992072E+02 0.  0.
        -12    1    1    2    0    0  0.20852316492E+00  0.11469035560E+01  0.18483952089E+00  0.11802691750E+01  0.00000000000E+00 0.  1.
         11    1    3    3    0    0 -0.13648611682E+02 -0.33405526245E+02 -0.15048640944E+01  0.36117563605E+02  0.51100000000E-03 0. -1.
        -11    1    3    3    0    0 -0.30277839335E+01 -0.88916300348E+01 -0.13362537927E+01  0.94875779145E+01  0.51100000000E-03 0.  1.
        -12    1    3    3    0    0  0.16467872451E+02  0.41150252724E+02  0.26562783662E+01  0.44402589306E+02  0.00000000000E+00 0.  1.
</event>
<event>
 7    1  0.2385752E-015  0.9000773E+02  0.7816164E-02  0.1186339E+00
        -11   -1    0    0    0    0  0.00000000000E+00  0.00000000000E+00  0.45593999997E+02  0.45594000000E+02  0.51100000000E-03 0. -1.
         11   -1    0    0    0    0 -0.00000000000E+00 -0.00000000000E+00 -0.45593999997E+02  0.45594000000E+02  0.51100000000E-03 0.  1.
    9900012    2    1    2    0    0  0.53228086038E+00 -0.81802137446E+00  0.66375047624E+00  0.90007726058E+02  0.89999987242E+02 0.  0.
        -12    1    1    2    0    0 -0.53228086038E+00  0.81802137446E+00 -0.66375047624E+00  0.11802739420E+01  0.00000000000E+00 0.  1.
         11    1    3    3    0    0 -0.26691895693E+02 -0.32367679934E+02 -0.20006445560E+01  0.42001506864E+02  0.51100000000E-03 0. -1.
        -11    1    3    3    0    0 -0.15239261990E+01  0.11130268419E+02 -0.43616441993E+01  0.12051106444E+02  0.51100000000E-03 0.  1.
        -12    1    3    3    0    0  0.28748102752E+02  0.20419390140E+02  0.70260392316E+01  0.35955112750E+02  0.00000000000E+00 0.  1.
</event>
<event>
 7    1  0.2385752E-015  0.9000687E+02  0.7816164E-02  0.1186341E+00
        -11   -1    0    0    0    0  0.00000000000E+00  0.00000000000E+00  0.45593999997E+02  0.45594000000E+02  0.51100000000E-03 0.  1.
         11   -1    0    0    0    0 -0.00000000000E+00 -0.00000000000E+00 -0.45593999997E+02  0.45594000000E+02  0.51100000000E-03 0. -1.
    9900012    2    1    2    0    0 -0.33020733527E-01 -0.95677404826E+00 -0.69178864073E+00  0.90006865600E+02  0.89999115421E+02 0.  0.
        -12    1    1    2    0    0  0.33020733527E-01  0.95677404826E+00  0.69178864073E+00  0.11811344004E+01  0.00000000000E+00 0.  1.
         11    1    3    3    0    0  0.28818724786E+02  0.18543679605E+02 -0.97390985145E+01  0.35626352489E+02  0.51100000000E-03 0. -1.
        -11    1    3    3    0    0  0.17835817110E+01  0.58057868569E+01 -0.89038454605E+01  0.10778069818E+02  0.51100000000E-03 0.  1.
        -12    1    3    3    0    0 -0.30635327230E+02 -0.25306240510E+02  0.17951155334E+02  0.43602443293E+02  0.00000000000E+00 0.  1.
</event>
<event>
 7    1  0.2385752E-015  0.9000772E+02  0.7816164E-02  0.1186339E+00
        -11   -1    0    0    0    0  0.00000000000E+00  0.00000000000E+00  0.45593999997E+02  0.45594000000E+02  0.51100000000E-03 0.  1.
         11   -1    0    0    0    0 -0.00000000000E+00 -0.00000000000E+00 -0.45593999997E+02  0.45594000000E+02  0.51100000000E-03 0. -1.
    9900012    2    1    2    0    0  0.11381163660E+00 -0.84724030506E+00  0.81381178371E+00  0.90007720862E+02  0.89999981978E+02 0.  0.
        -12    1    1    2    0    0 -0.11381163660E+00  0.84724030506E+00 -0.81381178371E+00  0.11802791375E+01  0.00000000000E+00 0.  1.
         11    1    3    3    0    0  0.69072757054E+01 -0.76649061598E-01  0.40325752595E+01  0.79986246464E+01  0.51100000000E-03 0. -1.
        -11    1    3    3    0    0  0.89117070342E+01 -0.81884362093E+01  0.36609651569E+02  0.38558210514E+02  0.51100000000E-03 0.  1.
         12    1    3    3    0    0 -0.15705171103E+02  0.74178449659E+01 -0.39828415045E+02  0.43450885702E+02  0.00000000000E+00 0. -1.
</event>
<event>
 7    1  0.2385752E-015  0.9000771E+02  0.7816164E-02  0.1186339E+00
        -11   -1    0    0    0    0  0.00000000000E+00  0.00000000000E+00  0.45593999997E+02  0.45594000000E+02  0.51100000000E-03 0. -1.
         11   -1    0    0    0    0 -0.00000000000E+00 -0.00000000000E+00 -0.45593999997E+02  0.45594000000E+02  0.51100000000E-03 0.  1.
    9900012    2    1    2    0    0 -0.54312753170E+00  0.17198422879E+00  0.10336930719E+01  0.90007708740E+02  0.89999969696E+02 0.  0.
        -12    1    1    2    0    0  0.54312753170E+00 -0.17198422879E+00 -0.10336930719E+01  0.11802912596E+01  0.00000000000E+00 0.  1.
         11    1    3    3    0    0 -0.70975549435E+01  0.14985771897E+01  0.19112792609E+01  0.75016003921E+01  0.51100000000E-03 0. -1.
        -11    1    3    3    0    0 -0.35818307148E+02  0.27633957365E+01 -0.13064176708E+02  0.38226433213E+02  0.51100000000E-03 0.  1.
         12    1    3    3    0    0  0.42372734559E+02 -0.40899886974E+01  0.12186590519E+02  0.44279675135E+02  0.00000000000E+00 0. -1.
</event>
<event>
 7    1  0.2385752E-015  0.9000775E+02  0.7816164E-02  0.1186339E+00
        -11   -1    0    0    0    0  0.00000000000E+00  0.00000000000E+00  0.45593999997E+02  0.45594000000E+02  0.51100000000E-03 0.  1.
         11   -1    0    0    0    0 -0.00000000000E+00 -0.00000000000E+00 -0.45593999997E+02  0.45594000000E+02  0.51100000000E-03 0. -1.
    9900012    2    1    2    0    0  0.74165343367E+00  0.66858185604E+00 -0.62923227256E+00  0.90007752243E+02  0.90000013773E+02 0.  0.
        -12    1    1    2    0    0 -0.74165343367E+00 -0.66858185604E+00  0.62923227256E+00  0.11802477565E+01  0.00000000000E+00 0.  1.
         11    1    3    3    0    0  0.84961928000E+01  0.17087197543E+02 -0.32322023040E+02  0.37534927543E+02  0.51100000000E-03 0. -1.
        -11    1    3    3    0    0 -0.52879678277E+01 -0.45129284605E+01 -0.82104858518E+01  0.10758308660E+02  0.51100000000E-03 0.  1.
        -12    1    3    3    0    0 -0.24665715386E+01 -0.11905687227E+02  0.39903276620E+02  0.41714516040E+02  0.00000000000E+00 0.  1.
</event>
<event>
 7    1  0.2385752E-015  0.9000774E+02  0.7816164E-02  0.1186339E+00
        -11   -1    0    0    0    0  0.00000000000E+00  0.00000000000E+00  0.45593999997E+02  0.45594000000E+02  0.51100000000E-03 0.  1.
         11   -1    0    0    0    0 -0.00000000000E+00 -0.00000000000E+00 -0.45593999997E+02  0.45594000000E+02  0.51100000000E-03 0. -1.
    9900012    2    1    2    0    0 -0.60512156137E+00  0.82190149027E+00 -0.59271874238E+00  0.90007741693E+02  0.90000003083E+02 0.  0.
        -12    1    1    2    0    0  0.60512156137E+00 -0.82190149027E+00  0.59271874238E+00  0.11802583070E+01  0.00000000000E+00 0.  1.
         11    1    3    3    0    0 -0.49845455043E+01 -0.10223543906E+02  0.26417468608E+01  0.11676702043E+02  0.51100000000E-03 0. -1.
        -11    1    3    3    0    0  0.29252201801E+02 -0.21069774875E+02  0.63241456989E+01  0.36600840736E+02  0.51100000000E-03 0.  1.
         12    1    3    3    0    0 -0.24872777858E+02  0.32115220270E+02 -0.95586113022E+01  0.41730198914E+02  0.00000000000E+00 0. -1.
</event>
<event>
 7    1  0.2385752E-015  0.9000772E+02  0.7816164E-02  0.1186339E+00
        -11   -1    0    0    0    0  0.00000000000E+00  0.00000000000E+00  0.45593999997E+02  0.45594000000E+02  0.51100000000E-03 0.  1.
         11   -1    0    0    0    0 -0.00000000000E+00 -0.00000000000E+00 -0.45593999997E+02  0.45594000000E+02  0.51100000000E-03 0. -1.
    9900012    2    1    2    0    0 -0.10114000628E+01  0.78371804218E-02 -0.60832976033E+00  0.90007721810E+02  0.89999982938E+02 0.  0.
        -12    1    1    2    0    0  0.10114000628E+01 -0.78371804218E-02  0.60832976033E+00  0.11802781900E+01  0.00000000000E+00 0.  1.
         11    1    3    3    0    0 -0.33517911037E+01 -0.72901815844E+01  0.24196020653E+01  0.83806757216E+01  0.51100000000E-03 0. -1.
        -11    1    3    3    0    0  0.21363500932E+02 -0.31293449267E+02  0.37327608037E+01  0.38073778937E+02  0.51100000000E-03 0.  1.
         12    1    3    3    0    0 -0.19023109891E+02  0.38591468032E+02 -0.67606926293E+01  0.43553267151E+02  0.00000000000E+00 0. -1.
</event>
<event>
 7    1  0.2385752E-015  0.9000748E+02  0.7816164E-02  0.1186340E+00
        -11   -1    0    0    0    0  0.00000000000E+00  0.00000000000E+00  0.45593999997E+02  0.45594000000E+02  0.51100000000E-03 0.  1.
         11   -1    0    0    0    0 -0.00000000000E+00 -0.00000000000E+00 -0.45593999997E+02  0.45594000000E+02  0.51100000000E-03 0. -1.
    9900012    2    1    2    0    0  0.29334683629E+00  0.35287356545E+00  0.10876783260E+01  0.90007484748E+02  0.89999742746E+02 0.  0.
        -12    1    1    2    0    0 -0.29334683629E+00 -0.35287356545E+00 -0.10876783260E+01  0.11805152521E+01  0.00000000000E+00 0.  1.
         11    1    3    3    0    0 -0.48105972991E+01  0.55598286340E+01  0.17560692432E+01  0.75589232211E+01  0.51100000000E-03 0. -1.
        -11    1    3    3    0    0 -0.13814389541E+02  0.34410977480E+02  0.73964473186E+01  0.37810847156E+02  0.51100000000E-03 0.  1.
         12    1    3    3    0    0  0.18918333676E+02 -0.39617932548E+02 -0.80648382358E+01  0.44637714371E+02  0.00000000000E+00 0. -1.
</event>
<event>
 7    1  0.2385752E-015  0.9000769E+02  0.7816164E-02  0.1186339E+00
        -11   -1    0    0    0    0  0.00000000000E+00  0.00000000000E+00  0.45593999997E+02  0.45594000000E+02  0.51100000000E-03 0. -1.
         11   -1    0    0    0    0 -0.00000000000E+00 -0.00000000000E+00 -0.45593999997E+02  0.45594000000E+02  0.51100000000E-03 0.  1.
    9900012    2    1    2    0    0 -0.11218159405E+01  0.33770821988E+00  0.14354653870E+00  0.90007693491E+02  0.89999954245E+02 0.  0.
        -12    1    1    2    0    0  0.11218159405E+01 -0.33770821988E+00 -0.14354653870E+00  0.11803065088E+01  0.00000000000E+00 0.  1.
         11    1    3    3    0    0  0.48418449391E+00 -0.17734094165E+02  0.38342522137E+02  0.42247858343E+02  0.51100000000E-03 0. -1.
        -11    1    3    3    0    0 -0.29477276500E+01 -0.48521954727E+01 -0.84224246565E+01  0.10157270133E+02  0.51100000000E-03 0.  1.
        -12    1    3    3    0    0  0.13417272157E+01  0.22923997858E+02 -0.29776550942E+02  0.37602565015E+02  0.00000000000E+00 0.  1.
</event>
<event>
 7    1  0.2385752E-015  0.9000776E+02  0.7816164E-02  0.1186339E+00
        -11   -1    0    0    0    0  0.00000000000E+00  0.00000000000E+00  0.45593999997E+02  0.45594000000E+02  0.51100000000E-03 0. -1.
         11   -1    0    0    0    0 -0.00000000000E+00 -0.00000000000E+00 -0.45593999997E+02  0.45594000000E+02  0.51100000000E-03 0.  1.
    9900012    2    1    2    0    0 -0.11456696673E+01  0.20948891967E-01 -0.28276754606E+00  0.90007764715E+02  0.90000026409E+02 0.  0.
        -12    1    1    2    0    0  0.11456696673E+01 -0.20948891967E-01  0.28276754606E+00  0.11802352849E+01  0.00000000000E+00 0.  1.
         11    1    3    3    0    0  0.10467072329E+02  0.25291459172E+02  0.24854476420E+02  0.36972456079E+02  0.51100000000E-03 0. -1.
        -11    1    3    3    0    0  0.68310757468E+01  0.43645992373E+01  0.25326253822E+01  0.84927918819E+01  0.51100000000E-03 0.  1.
        -12    1    3    3    0    0 -0.18443817743E+02 -0.29635109517E+02 -0.27669869348E+02  0.44542516754E+02  0.00000000000E+00 0.  1.
</event>
<event>
 7    1  0.2385752E-015  0.9000781E+02  0.7816164E-02  0.1186339E+00
        -11   -1    0    0    0    0  0.00000000000E+00  0.00000000000E+00  0.45593999997E+02  0.45594000000E+02  0.51100000000E-03 0. -1.
         11   -1    0    0    0    0 -0.00000000000E+00 -0.00000000000E+00 -0.45593999997E+02  0.45594000000E+02  0.51100000000E-03 0.  1.
    9900012    2    1    2    0    0 -0.85661735932E+00 -0.80368228275E+00  0.11470479664E+00  0.90007806922E+02  0.90000069173E+02 0.  0.
        -12    1    1    2    0    0  0.85661735932E+00  0.80368228275E+00 -0.11470479664E+00  0.11801930784E+01  0.00000000000E+00 0.  1.
         11    1    3    3    0    0 -0.38975044210E+01 -0.98199737505E+01  0.36547175825E+02  0.38043639234E+02  0.51100000000E-03 0. -1.
        -11    1    3    3    0    0 -0.75103931354E+01  0.25742618183E+01  0.45548227980E+01  0.91531000180E+01  0.51100000000E-03 0.  1.
        -12    1    3    3    0    0  0.10551280197E+02  0.64420296494E+01 -0.40987293826E+02  0.42811067669E+02  0.00000000000E+00 0.  1.
</event>
<event>
 7    1  0.2385752E-015  0.9000769E+02  0.7816164E-02  0.1186339E+00
        -11   -1    0    0    0    0  0.00000000000E+00  0.00000000000E+00  0.45593999997E+02  0.45594000000E+02  0.51100000000E-03 0.  1.
         11   -1    0    0    0    0 -0.00000000000E+00 -0.00000000000E+00 -0.45593999997E+02  0.45594000000E+02  0.51100000000E-03 0. -1.
    9900012    2    1    2    0    0 -0.57268679886E+00 -0.10272493094E+01 -0.99631440553E-01  0.90007687441E+02  0.89999948115E+02 0.  0.
        -12    1    1    2    0    0  0.57268679886E+00  0.10272493094E+01  0.99631440553E-01  0.11803125591E+01  0.00000000000E+00 0.  1.
         11    1    3    3    0    0 -0.22634783661E+02 -0.12289852512E+02 -0.31997013182E+02  0.41075330297E+02  0.51100000000E-03 0. -1.
        -11    1    3    3    0    0 -0.43969095159E+01 -0.44241184288E+01  0.68531948593E+01  0.92667101608E+01  0.51100000000E-03 0.  1.
        -12    1    3    3    0    0  0.26459006378E+02  0.15686721631E+02  0.25044186882E+02  0.39665646984E+02  0.00000000000E+00 0.  1.
</event>
<event>
 7    1  0.2385752E-015  0.9000773E+02  0.7816164E-02  0.1186339E+00
        -11   -1    0    0    0    0  0.00000000000E+00  0.00000000000E+00  0.45593999997E+02  0.45594000000E+02  0.51100000000E-03 0. -1.
         11   -1    0    0    0    0 -0.00000000000E+00 -0.00000000000E+00 -0.45593999997E+02  0.45594000000E+02  0.51100000000E-03 0.  1.
    9900012    2    1    2    0    0  0.43409130059E+00  0.65648184345E+00  0.87956635255E+00  0.90007728575E+02  0.89999989792E+02 0.  0.
        -12    1    1    2    0    0 -0.43409130059E+00 -0.65648184345E+00 -0.87956635255E+00  0.11802714250E+01  0.00000000000E+00 0.  1.
         11    1    3    3    0    0  0.11288366841E+02  0.29067978650E+02  0.17509770424E+02  0.35762643488E+02  0.51100000000E-03 0. -1.
        -11    1    3    3    0    0  0.14900007249E+01  0.72535327077E+01  0.66071247156E+01  0.99241088350E+01  0.51100000000E-03 0.  1.
        -12    1    3    3    0    0 -0.12344276266E+02 -0.35665029514E+02 -0.23237328787E+02  0.44320976252E+02  0.00000000000E+00 0.  1.
</event>
<event>
 7    1  0.2385752E-015  0.9000772E+02  0.7816164E-02  0.1186339E+00
        -11   -1    0    0    0    0  0.00000000000E+00  0.00000000000E+00  0.45593999997E+02  0.45594000000E+02  0.51100000000E-03 0.  1.
         11   -1    0    0    0    0 -0.00000000000E+00 -0.00000000000E+00 -0.45593999997E+02  0.45594000000E+02  0.51100000000E-03 0. -1.
    9900012    2    1    2    0    0  0.42618153855E+00  0.10909257790E+01  0.14600731141E+00  0.90007717028E+02  0.89999978093E+02 0.  0.
        -12    1    1    2    0    0 -0.42618153855E+00 -0.10909257790E+01 -0.14600731141E+00  0.11802829721E+01  0.00000000000E+00 0.  1.
         11    1    3    3    0    0  0.25856307448E+01  0.58728161556E+00  0.68327155656E+01  0.73291464923E+01  0.51100000000E-03 0. -1.
        -11    1    3    3    0    0 -0.81503395688E+01 -0.40316243653E+02 -0.42195888647E+01  0.41347702086E+02  0.51100000000E-03 0.  1.
         12    1    3    3    0    0  0.59908903626E+01  0.40819887816E+02 -0.24671193894E+01  0.41330868449E+02  0.00000000000E+00 0. -1.
</event>
<event>
 7    1  0.2385752E-015  0.9000821E+02  0.7816164E-02  0.1186338E+00
        -11   -1    0    0    0    0  0.00000000000E+00  0.00000000000E+00  0.45593999997E+02  0.45594000000E+02  0.51100000000E-03 0. -1.
         11   -1    0    0    0    0 -0.00000000000E+00 -0.00000000000E+00 -0.45593999997E+02  0.45594000000E+02  0.51100000000E-03 0.  1.
    9900012    2    1    2    0    0  0.82812982282E+00 -0.83520991109E+00  0.92334188988E-01  0.90008211798E+02  0.90000479392E+02 0.  0.
        -12    1    1    2    0    0 -0.82812982282E+00  0.83520991109E+00 -0.92334188988E-01  0.11797882020E+01  0.00000000000E+00 0.  1.
         11    1    3    3    0    0  0.14576804307E+01 -0.11076513781E+02  0.26913157777E+01  0.11491613057E+02  0.51100000000E-03 0. -1.
        -11    1    3    3    0    0 -0.14106317205E+02 -0.29860110999E+02 -0.12075272261E+02  0.35162858450E+02  0.51100000000E-03 0.  1.
         12    1    3    3    0    0  0.13476766597E+02  0.40101414868E+02  0.94762906720E+01  0.43353740291E+02  0.00000000000E+00 0. -1.
</event>
<event>
 7    1  0.2385752E-015  0.9000782E+02  0.7816164E-02  0.1186339E+00
        -11   -1    0    0    0    0  0.00000000000E+00  0.00000000000E+00  0.45593999997E+02  0.45594000000E+02  0.51100000000E-03 0. -1.
         11   -1    0    0    0    0 -0.00000000000E+00 -0.00000000000E+00 -0.45593999997E+02  0.45594000000E+02  0.51100000000E-03 0.  1.
    9900012    2    1    2    0    0  0.55630556957E+00  0.74582389746E-01  0.10381600753E+01  0.90007824267E+02  0.90000086747E+02 0.  0.
        -12    1    1    2    0    0 -0.55630556957E+00 -0.74582389746E-01 -0.10381600753E+01  0.11801757333E+01  0.00000000000E+00 0.  1.
         11    1    3    3    0    0  0.75937608563E+00  0.19399757534E+02 -0.26401483635E+02  0.32771414110E+02  0.51100000000E-03 0. -1.
        -11    1    3    3    0    0 -0.11245256592E+01 -0.13516240777E+01 -0.12923592997E+02  0.13042649341E+02  0.51100000000E-03 0.  1.
        -12    1    3    3    0    0  0.92145514313E+00 -0.17973551066E+02  0.40363236708E+02  0.44193760816E+02  0.00000000000E+00 0.  1.
</event>
<event>
 7    1  0.2385752E-015  0.9000764E+02  0.7816164E-02  0.1186339E+00
        -11   -1    0    0    0    0  0.00000000000E+00  0.00000000000E+00  0.45593999997E+02  0.45594000000E+02  0.51100000000E-03 0. -1.
         11   -1    0    0    0    0 -0.00000000000E+00 -0.00000000000E+00 -0.45593999997E+02  0.45594000000E+02  0.51100000000E-03 0.  1.
    9900012    2    1    2    0    0  0.85435022672E+00  0.77223356161E+00  0.25880439361E+00  0.90007644673E+02  0.89999904783E+02 0.  0.
        -12    1    1    2    0    0 -0.85435022672E+00 -0.77223356161E+00 -0.25880439361E+00  0.11803553269E+01  0.00000000000E+00 0.  1.
         11    1    3    3    0    0  0.43797191775E+00 -0.34176720643E+02 -0.38679210620E+01  0.34397686941E+02  0.51100000000E-03 0. -1.
        -11    1    3    3    0    0 -0.40695435299E+01 -0.75949450431E+01 -0.73411874800E+01  0.11319779531E+02  0.51100000000E-03 0.  1.
        -12    1    3    3    0    0  0.44859218388E+01  0.42543899248E+02  0.11467912936E+02  0.44290178201E+02  0.00000000000E+00 0.  1.
</event>
<event>
 7    1  0.2385752E-015  0.9000773E+02  0.7816164E-02  0.1186339E+00
        -11   -1    0    0    0    0  0.00000000000E+00  0.00000000000E+00  0.45593999997E+02  0.45594000000E+02  0.51100000000E-03 0.  1.
         11   -1    0    0    0    0 -0.00000000000E+00 -0.00000000000E+00 -0.45593999997E+02  0.45594000000E+02  0.51100000000E-03 0. -1.
    9900012    2    1    2    0    0 -0.49947157934E+00 -0.10440320615E+01 -0.23142397177E+00  0.90007732294E+02  0.89999993560E+02 0.  0.
        -12    1    1    2    0    0  0.49947157934E+00  0.10440320615E+01  0.23142397177E+00  0.11802677063E+01  0.00000000000E+00 0.  1.
         11    1    3    3    0    0 -0.44901665050E+01 -0.43526403518E+01  0.62233322621E+01  0.88225244675E+01  0.51100000000E-03 0. -1.
        -11    1    3    3    0    0 -0.26389190582E+02  0.18988998296E+02 -0.26156359531E+02  0.41726808889E+02  0.51100000000E-03 0.  1.
         12    1    3    3    0    0  0.30379885508E+02 -0.15680390006E+02  0.19701603297E+02  0.39458398937E+02  0.00000000000E+00 0. -1.
</event>
<event>
 7    1  0.2385752E-015  0.9000773E+02  0.7816164E-02  0.1186339E+00
        -11   -1    0    0    0    0  0.00000000000E+00  0.00000000000E+00  0.45593999997E+02  0.45594000000E+02  0.51100000000E-03 0. -1.
         11   -1    0    0    0    0 -0.00000000000E+00 -0.00000000000E+00 -0.45593999997E+02  0.45594000000E+02  0.51100000000E-03 0.  1.
    9900012    2    1    2    0    0 -0.33624066770E+00 -0.89898229381E+00  0.68688678501E+00  0.90007728672E+02  0.89999989891E+02 0.  0.
        -12    1    1    2    0    0  0.33624066770E+00  0.89898229381E+00 -0.68688678501E+00  0.11802713275E+01  0.00000000000E+00 0.  1.
         11    1    3    3    0    0 -0.33411338632E+01 -0.19729762499E+02  0.10372675607E+02  0.22539279120E+02  0.51100000000E-03 0. -1.
        -11    1    3    3    0    0 -0.22227387494E+01 -0.21188528317E+02 -0.15966011667E+02  0.26623445092E+02  0.51100000000E-03 0.  1.
        -12    1    3    3    0    0  0.52276319449E+01  0.40019308522E+02  0.62802228454E+01  0.40845004460E+02  0.00000000000E+00 0.  1.
</event>
<event>
 7    1  0.2385752E-015  0.9000775E+02  0.7816164E-02  0.1186339E+00
        -11   -1    0    0    0    0  0.00000000000E+00  0.00000000000E+00  0.45593999997E+02  0.45594000000E+02  0.51100000000E-03 0.  1.
         11   -1    0    0    0    0 -0.00000000000E+00 -0.00000000000E+00 -0.45593999997E+02  0.45594000000E+02  0.51100000000E-03 0. -1.
    9900012    2    1    2    0    0  0.68708894666E+00  0.35996234840E+00 -0.88956850605E+00  0.90007747383E+02  0.90000008848E+02 0.  0.
        -12    1    1    2    0    0 -0.68708894666E+00 -0.35996234840E+00  0.88956850605E+00  0.11802526170E+01  0.00000000000E+00 0.  1.
         11    1    3    3    0    0 -0.39301120966E+01 -0.26615910430E+01  0.87034677025E+01  0.99136369856E+01  0.51100000000E-03 0. -1.
        -11    1    3    3    0    0 -0.35191528309E+02  0.11432538038E+02 -0.13107611960E+02  0.39255013467E+02  0.51100000000E-03 0.  1.
         12    1    3    3    0    0  0.39808729353E+02 -0.84109846463E+01  0.35145757516E+01  0.40839096931E+02  0.00000000000E+00 0. -1.
</event>
<event>
 7    1  0.2385752E-015  0.9000769E+02  0.7816164E-02  0.1186339E+00
        -11   -1    0    0    0    0  0.00000000000E+00  0.00000000000E+00  0.45593999997E+02  0.45594000000E+02  0.51100000000E-03 0. -1.
         11   -1    0    0    0    0 -0.00000000000E+00 -0.00000000000E+00 -0.45593999997E+02  0.45594000000E+02  0.51100000000E-03 0.  1.
    9900012    2    1    2    0    0  0.62514211023E+00 -0.74723545278E+00  0.66630473820E+00  0.90007692632E+02  0.89999953374E+02 0.  0.
        -12    1    1    2    0    0 -0.62514211023E+00  0.74723545278E+00 -0.66630473820E+00  0.11803073685E+01  0.00000000000E+00 0.  1.
         11    1    3    3    0    0 -0.26934714576E+02 -0.19054949283E+02 -0.15623844202E+02  0.36505813912E+02  0.51100000000E-03 0. -1.
        -11    1    3    3    0    0 -0.64010838913E+01 -0.60124494231E+01  0.33801104912E+00  0.87884967303E+01  0.51100000000E-03 0.  1.
        -12    1    3    3    0    0  0.33960940578E+02  0.24320163253E+02  0.15952137891E+02  0.44713381989E+02  0.00000000000E+00 0.  1.
</event>
<event>
 7    1  0.2385752E-015  0.9000770E+02  0.7816164E-02  0.1186339E+00
        -11   -1    0    0    0    0  0.00000000000E+00  0.00000000000E+00  0.45593999997E+02  0.45594000000E+02  0.51100000000E-03 0.  1.
         11   -1    0    0    0    0 -0.00000000000E+00 -0.00000000000E+00 -0.45593999997E+02  0.45594000000E+02  0.51100000000E-03 0. -1.
    9900012    2    1    2    0    0  0.27720908896E+00 -0.62787054527E+00 -0.96022989845E+00  0.90007700140E+02  0.89999960982E+02 0.  0.
        -12    1    1    2    0    0 -0.27720908896E+00  0.62787054527E+00  0.96022989845E+00  0.11802998596E+01  0.00000000000E+00 0.  1.
         11    1    3    3    0    0 -0.13699927066E+02 -0.63906469248E+01  0.15611190035E+02  0.21731029067E+02  0.51100000000E-03 0. -1.
        -11    1    3    3    0    0  0.67738493025E+00  0.27163621498E+02  0.12411397861E+02  0.29872461906E+02  0.51100000000E-03 0.  1.
         12    1    3    3    0    0  0.13299751225E+02 -0.21400845118E+02 -0.28982817795E+02  0.38404209167E+02  0.00000000000E+00 0. -1.
</event>
<event>
 7    1  0.2385752E-015  0.9000763E+02  0.7816164E-02  0.1186339E+00
        -11   -1    0    0    0    0  0.00000000000E+00  0.00000000000E+00  0.45593999997E+02  0.45594000000E+02  0.51100000000E-03 0.  1.
         11   -1    0    0    0    0 -0.00000000000E+00 -0.00000000000E+00 -0.45593999997E+02  0.45594000000E+02  0.51100000000E-03 0. -1.
    9900012    2    1    2    0    0  0.83601407783E+00  0.92841893578E-01 -0.82808653784E+00  0.90007632909E+02  0.89999892863E+02 0.  0.
        -12    1    1    2    0    0 -0.83601407783E+00 -0.92841893578E-01  0.82808653784E+00  0.11803670911E+01  0.00000000000E+00 0.  1.
         11    1    3    3    0    0 -0.25441264251E+01  0.83839414765E+01 -0.32912338908E+01  0.93592347301E+01  0.51100000000E-03 0. -1.
        -11    1    3    3    0    0 -0.34362471000E+02 -0.18202954425E+02 -0.91237149726E+01  0.39942072282E+02  0.51100000000E-03 0.  1.
         12    1    3    3    0    0  0.37742611503E+02  0.99118548425E+01  0.11586862326E+02  0.40706325897E+02  0.00000000000E+00 0. -1.
</event>
<event>
 7    1  0.2385752E-015  0.9000776E+02  0.7816164E-02  0.1186339E+00
        -11   -1    0    0    0    0  0.00000000000E+00  0.00000000000E+00  0.45593999997E+02  0.45594000000E+02  0.51100000000E-03 0.  1.
         11   -1    0    0    0    0 -0.00000000000E+00 -0.00000000000E+00 -0.45593999997E+02  0.45594000000E+02  0.51100000000E-03 0. -1.
    9900012    2    1    2    0    0 -0.34525241675E+00  0.28163289572E-01 -0.11282590874E+01  0.90007762325E+02  0.90000023987E+02 0.  0.
        -12    1    1    2    0    0  0.34525241675E+00 -0.28163289572E-01  0.11282590874E+01  0.11802376754E+01  0.00000000000E+00 0.  1.
         11    1    3    3    0    0 -0.67540358393E+01  0.37597203851E+00  0.78305112723E+01  0.10347717726E+02  0.51100000000E-03 0. -1.
        -11    1    3    3    0    0  0.86754663912E+00  0.39205451259E+02 -0.43736573030E+01  0.39458192103E+02  0.51100000000E-03 0.  1.
         12    1    3    3    0    0  0.55412367835E+01 -0.39553260008E+02 -0.45851130567E+01  0.40201852495E+02  0.00000000000E+00 0. -1.
</event>
<event>
 7    1  0.2659557E-015  0.9000776E+02  0.7816164E-02  0.1186339E+00
        -11   -1    0    0    0    0  0.00000000000E+00  0.00000000000E+00  0.45593999997E+02  0.45594000000E+02  0.51100000000E-03 0. -1.
         11   -1    0    0    0    0 -0.00000000000E+00 -0.00000000000E+00 -0.45593999997E+02  0.45594000000E+02  0.51100000000E-03 0.  1.
    9900012    2    1    2    0    0  0.97755849409E+00  0.60199040475E+00  0.27378350217E+00  0.90007758303E+02  0.90000019913E+02 0.  0.
        -12    1    1    2    0    0 -0.97755849409E+00 -0.60199040475E+00 -0.27378350217E+00  0.11802416968E+01  0.00000000000E+00 0.  1.
         11    1    3    3    0    0  0.38774902731E+02  0.29625243995E+01 -0.52054482755E+01  0.39234759138E+02  0.51100000000E-03 0. -1.
        -11    1    3    3    0    0  0.26187185258E+00  0.94675450359E+01 -0.31753984568E+01  0.99893013517E+01  0.51100000000E-03 0.  1.
        -12    1    3    3    0    0 -0.38059216089E+02 -0.11828079031E+02  0.86546302344E+01  0.40783697814E+02  0.00000000000E+00 0.  1.
</event>
<event>
 7    1  0.2385752E-015  0.9000776E+02  0.7816164E-02  0.1186339E+00
        -11   -1    0    0    0    0  0.00000000000E+00  0.00000000000E+00  0.45593999997E+02  0.45594000000E+02  0.51100000000E-03 0. -1.
         11   -1    0    0    0    0 -0.00000000000E+00 -0.00000000000E+00 -0.45593999997E+02  0.45594000000E+02  0.51100000000E-03 0.  1.
    9900012    2    1    2    0    0  0.20029942453E+00 -0.11033778329E+01 -0.36796556078E+00  0.90007762246E+02  0.90000023908E+02 0.  0.
        -12    1    1    2    0    0 -0.20029942453E+00  0.11033778329E+01  0.36796556078E+00  0.11802377538E+01  0.00000000000E+00 0.  1.
         11    1    3    3    0    0 -0.25544159448E+02 -0.28644194917E+01 -0.32741959538E+02  0.41626252481E+02  0.51100000000E-03 0. -1.
        -11    1    3    3    0    0 -0.46280739909E+01  0.30667292040E+01  0.48376546161E+01  0.73638847983E+01  0.51100000000E-03 0.  1.
        -12    1    3    3    0    0  0.30372532864E+02 -0.13056875452E+01  0.27536339361E+02  0.41017624967E+02  0.00000000000E+00 0.  1.
</event>
<event>
 7    1  0.2385752E-015  0.9000762E+02  0.7816164E-02  0.1186339E+00
        -11   -1    0    0    0    0  0.00000000000E+00  0.00000000000E+00  0.45593999997E+02  0.45594000000E+02  0.51100000000E-03 0.  1.
         11   -1    0    0    0    0 -0.00000000000E+00 -0.00000000000E+00 -0.45593999997E+02  0.45594000000E+02  0.51100000000E-03 0. -1.
    9900012    2    1    2    0    0  0.51925256528E+00  0.95065385331E+00  0.46897871691E+00  0.90007615735E+02  0.89999875463E+02 0.  0.
        -12    1    1    2    0    0 -0.51925256528E+00 -0.95065385331E+00 -0.46897871691E+00  0.11803842647E+01  0.00000000000E+00 0.  1.
         11    1    3    3    0    0  0.24356336295E+02  0.27484625161E+01 -0.28264652645E+02  0.37412240689E+02  0.51100000000E-03 0. -1.
        -11    1    3    3    0    0  0.80271339827E+01  0.47866922096E+01  0.24597791844E+00  0.93492142816E+01  0.51100000000E-03 0.  1.
        -12    1    3    3    0    0 -0.31864217713E+02 -0.65845008724E+01  0.28487653444E+02  0.43246160765E+02  0.00000000000E+00 0.  1.
</event>
<event>
 7    1  0.2385752E-015  0.9000772E+02  0.7816164E-02  0.1186339E+00
        -11   -1    0    0    0    0  0.00000000000E+00  0.00000000000E+00  0.45593999997E+02  0.45594000000E+02  0.51100000000E-03 0.  1.
         11   -1    0    0    0    0 -0.00000000000E+00 -0.00000000000E+00 -0.45593999997E+02  0.45594000000E+02  0.51100000000E-03 0. -1.
    9900012    2    1    2    0    0  0.50095066386E+00 -0.33907004112E+00  0.10134773167E+01  0.90007721926E+02  0.89999983055E+02 0.  0.
        -12    1    1    2    0    0 -0.50095066386E+00  0.33907004112E+00 -0.10134773167E+01  0.11802780740E+01  0.00000000000E+00 0.  1.
         11    1    3    3    0    0  0.10275123878E+02  0.16967235479E+01  0.17512582207E+02  0.20375170609E+02  0.51100000000E-03 0. -1.
        -11    1    3    3    0    0  0.16828842149E+02 -0.23004677444E+02  0.57878340836E+01  0.29084774987E+02  0.51100000000E-03 0.  1.
         12    1    3    3    0    0 -0.26603015363E+02  0.20968883855E+02 -0.22286938974E+02  0.40547776331E+02  0.00000000000E+00 0. -1.
</event>
<event>
 7    1  0.2385752E-015  0.9000773E+02  0.7816164E-02  0.1186339E+00
        -11   -1    0    0    0    0  0.00000000000E+00  0.00000000000E+00  0.45593999997E+02  0.45594000000E+02  0.51100000000E-03 0.  1.
         11   -1    0    0    0    0 -0.00000000000E+00 -0.00000000000E+00 -0.45593999997E+02  0.45594000000E+02  0.51100000000E-03 0. -1.
    9900012    2    1    2    0    0  0.11730301060E+01 -0.16994357036E-01 -0.12939988401E+00  0.90007731909E+02  0.89999993170E+02 0.  0.
        -12    1    1    2    0    0 -0.11730301060E+01  0.16994357036E-01  0.12939988401E+00  0.11802680915E+01  0.00000000000E+00 0.  1.
         11    1    3    3    0    0 -0.23677163932E+01  0.49199880227E+01  0.77496943176E+01  0.94799855137E+01  0.51100000000E-03 0. -1.
        -11    1    3    3    0    0 -0.21353636619E+02 -0.13029030404E+02  0.27072899790E+02  0.36860213421E+02  0.51100000000E-03 0.  1.
         12    1    3    3    0    0  0.24894383118E+02  0.80920480241E+01 -0.34951993992E+02  0.43667532974E+02  0.00000000000E+00 0. -1.
</event>
<event>
 7    1  0.2385752E-015  0.9000777E+02  0.7816164E-02  0.1186339E+00
        -11   -1    0    0    0    0  0.00000000000E+00  0.00000000000E+00  0.45593999997E+02  0.45594000000E+02  0.51100000000E-03 0. -1.
         11   -1    0    0    0    0 -0.00000000000E+00 -0.00000000000E+00 -0.45593999997E+02  0.45594000000E+02  0.51100000000E-03 0.  1.
    9900012    2    1    2    0    0  0.22976760088E+00 -0.38521149623E+00  0.10916782991E+01  0.90007770126E+02  0.90000031891E+02 0.  0.
        -12    1    1    2    0    0 -0.22976760088E+00  0.38521149623E+00 -0.10916782991E+01  0.11802298742E+01  0.00000000000E+00 0.  1.
         11    1    3    3    0    0 -0.65231011117E+01 -0.59659948531E+01  0.11071902395E+01  0.89089737449E+01  0.51100000000E-03 0. -1.
        -11    1    3    3    0    0 -0.24707159362E+01 -0.32065973816E+02  0.19594780580E+02  0.37660145250E+02  0.51100000000E-03 0.  1.
         12    1    3    3    0    0  0.92235846488E+01  0.37646757173E+02 -0.19610292520E+02  0.43438651131E+02  0.00000000000E+00 0. -1.
</event>
<event>
 7    1  0.2385752E-015  0.9000783E+02  0.7816164E-02  0.1186339E+00
        -11   -1    0    0    0    0  0.00000000000E+00  0.00000000000E+00  0.45593999997E+02  0.45594000000E+02  0.51100000000E-03 0.  1.
         11   -1    0    0    0    0 -0.00000000000E+00 -0.00000000000E+00 -0.45593999997E+02  0.45594000000E+02  0.51100000000E-03 0. -1.
    9900012    2    1    2    0    0 -0.49227711269E+00  0.76966208876E+00 -0.74705234390E+00  0.90007828957E+02  0.90000091499E+02 0.  0.
        -12    1    1    2    0    0  0.49227711269E+00 -0.76966208876E+00  0.74705234390E+00  0.11801710431E+01  0.00000000000E+00 0.  1.
         11    1    3    3    0    0  0.40422651091E+02  0.14930030970E+02  0.13990565541E+01  0.43114428043E+02  0.51100000000E-03 0. -1.
        -11    1    3    3    0    0 -0.25890151338E+01  0.35845470770E+01 -0.14488891327E+01  0.46530911328E+01  0.51100000000E-03 0.  1.
        -12    1    3    3    0    0 -0.38325913070E+02 -0.17744915958E+02 -0.69721976528E+00  0.42240309781E+02  0.00000000000E+00 0.  1.
</event>
<event>
 7    1  0.2385752E-015  0.9000749E+02  0.7816164E-02  0.1186340E+00
        -11   -1    0    0    0    0  0.00000000000E+00  0.00000000000E+00  0.45593999997E+02  0.45594000000E+02  0.51100000000E-03 0.  1.
         11   -1    0    0    0    0 -0.00000000000E+00 -0.00000000000E+00 -0.45593999997E+02  0.45594000000E+02  0.51100000000E-03 0. -1.
    9900012    2    1    2    0    0 -0.61705685719E+00 -0.83209900940E+00  0.56608139871E+00  0.90007493297E+02  0.89999751408E+02 0.  0.
        -12    1    1    2    0    0  0.61705685719E+00  0.83209900940E+00 -0.56608139871E+00  0.11805067032E+01  0.00000000000E+00 0.  1.
         11    1    3    3    0    0 -0.95790031800E+01 -0.11932317365E+01 -0.25563485811E+01  0.99857910167E+01  0.51100000000E-03 0. -1.
        -11    1    3    3    0    0 -0.34277433917E+02 -0.10417242450E+01 -0.82870649301E+01  0.35280350207E+02  0.51100000000E-03 0.  1.
         12    1    3    3    0    0  0.43239380240E+02  0.14028569721E+01  0.11409494910E+02  0.44741352073E+02  0.00000000000E+00 0. -1.
</event>
<event>
 7    1  0.2385752E-015  0.9000778E+02  0.7816164E-02  0.1186339E+00
        -11   -1    0    0    0    0  0.00000000000E+00  0.00000000000E+00  0.45593999997E+02  0.45594000000E+02  0.51100000000E-03 0. -1.
         11   -1    0    0    0    0 -0.00000000000E+00 -0.00000000000E+00 -0.45593999997E+02  0.45594000000E+02  0.51100000000E-03 0.  1.
    9900012    2    1    2    0    0  0.76329279602E+00 -0.31509137026E+00  0.84322226046E+00  0.90007778731E+02  0.90000040610E+02 0.  0.
        -12    1    1    2    0    0 -0.76329279602E+00  0.31509137026E+00 -0.84322226046E+00  0.11802212693E+01  0.00000000000E+00 0.  1.
         11    1    3    3    0    0  0.71002466927E+01  0.29341498913E+01 -0.62399221705E+01  0.98974424796E+01  0.51100000000E-03 0. -1.
        -11    1    3    3    0    0 -0.15578389994E+02 -0.14648114830E+02 -0.31929866571E+02  0.38428763737E+02  0.51100000000E-03 0.  1.
         12    1    3    3    0    0  0.92414360977E+01  0.11398873568E+02  0.39013011002E+02  0.41681572514E+02  0.00000000000E+00 0. -1.
</event>
<event>
 7    1  0.2385752E-015  0.9000774E+02  0.7816164E-02  0.1186339E+00
        -11   -1    0    0    0    0  0.00000000000E+00  0.00000000000E+00  0.45593999997E+02  0.45594000000E+02  0.51100000000E-03 0.  1.
         11   -1    0    0    0    0 -0.00000000000E+00 -0.00000000000E+00 -0.45593999997E+02  0.45594000000E+02  0.51100000000E-03 0. -1.
    9900012    2    1    2    0    0  0.85086268599E+00  0.50794371233E+00  0.64112414966E+00  0.90007739732E+02  0.90000001096E+02 0.  0.
        -12    1    1    2    0    0 -0.85086268599E+00 -0.50794371233E+00 -0.64112414966E+00  0.11802602681E+01  0.00000000000E+00 0.  1.
         11    1    3    3    0    0  0.28442309792E+01  0.77695115646E+01  0.11070242248E+01  0.83474824176E+01  0.51100000000E-03 0. -1.
        -11    1    3    3    0    0  0.19883602752E+02  0.23943562638E+02  0.21355351398E+02  0.37745236571E+02  0.51100000000E-03 0.  1.
         12    1    3    3    0    0 -0.21876971045E+02 -0.31205130490E+02 -0.21821251473E+02  0.43915020743E+02  0.00000000000E+00 0. -1.
</event>
<event>
 7    1  0.2385752E-015  0.9000772E+02  0.7816164E-02  0.1186339E+00
        -11   -1    0    0    0    0  0.00000000000E+00  0.00000000000E+00  0.45593999997E+02  0.45594000000E+02  0.51100000000E-03 0. -1.
         11   -1    0    0    0    0 -0.00000000000E+00 -0.00000000000E+00 -0.45593999997E+02  0.45594000000E+02  0.51100000000E-03 0.  1.
    9900012    2    1    2    0    0 -0.10325556935E+01  0.42611989696E+00 -0.38118648329E+00  0.90007723523E+02  0.89999984674E+02 0.  0.
        -12    1    1    2    0    0  0.10325556935E+01 -0.42611989696E+00  0.38118648329E+00  0.11802764769E+01  0.00000000000E+00 0.  1.
         11    1    3    3    0    0 -0.55794286883E+01  0.79040610260E+01 -0.52949232468E+00  0.96894049132E+01  0.51100000000E-03 0. -1.
        -11    1    3    3    0    0 -0.21504146257E+02  0.26110334678E+02 -0.12353896147E+02  0.36011062654E+02  0.51100000000E-03 0.  1.
         12    1    3    3    0    0  0.26051019252E+02 -0.33588275807E+02  0.12502201988E+02  0.44307255955E+02  0.00000000000E+00 0. -1.
</event>
<event>
 7    1  0.2385752E-015  0.9000761E+02  0.7816164E-02  0.1186339E+00
        -11   -1    0    0    0    0  0.00000000000E+00  0.00000000000E+00  0.45593999997E+02  0.45594000000E+02  0.51100000000E-03 0. -1.
         11   -1    0    0    0    0 -0.00000000000E+00 -0.00000000000E+00 -0.45593999997E+02  0.45594000000E+02  0.51100000000E-03 0.  1.
    9900012    2    1    2    0    0  0.78261246366E-02  0.72959364353E+00  0.92787293130E+00  0.90007611797E+02  0.89999871473E+02 0.  0.
        -12    1    1    2    0    0 -0.78261246366E-02 -0.72959364353E+00 -0.92787293130E+00  0.11803882029E+01  0.00000000000E+00 0.  1.
         11    1    3    3    0    0  0.10737186235E+02 -0.40398336748E+02  0.96904253675E+01  0.42909406012E+02  0.51100000000E-03 0. -1.
        -11    1    3    3    0    0 -0.16176481828E+01 -0.10120183754E+01  0.18923123665E+01  0.26873431469E+01  0.51100000000E-03 0.  1.
        -12    1    3    3    0    0 -0.91117119271E+01  0.42139948767E+02 -0.10654864803E+02  0.44410862638E+02  0.00000000000E+00 0.  1.
</event>
<event>
 7    1  0.2385752E-015  0.9000780E+02  0.7816164E-02  0.1186339E+00
        -11   -1    0    0    0    0  0.00000000000E+00  0.00000000000E+00  0.45593999997E+02  0.45594000000E+02  0.51100000000E-03 0. -1.
         11   -1    0    0    0    0 -0.00000000000E+00 -0.00000000000E+00 -0.45593999997E+02  0.45594000000E+02  0.51100000000E-03 0.  1.
    9900012    2    1    2    0    0 -0.37693049229E+00 -0.82578846086E+00  0.75422763420E+00  0.90007804041E+02  0.90000066254E+02 0.  0.
        -12    1    1    2    0    0  0.37693049229E+00  0.82578846086E+00 -0.75422763420E+00  0.11801959593E+01  0.00000000000E+00 0.  1.
         11    1    3    3    0    0  0.55380985361E+00  0.11194999901E+02  0.16396555031E+01  0.11327982988E+02  0.51100000000E-03 0. -1.
        -11    1    3    3    0    0 -0.25168415375E+02  0.23881771687E+02 -0.54530638123E+01  0.35121561136E+02  0.51100000000E-03 0.  1.
         12    1    3    3    0    0  0.24237675029E+02 -0.35902560049E+02  0.45676359434E+01  0.43558259917E+02  0.00000000000E+00 0. -1.
</event>
<event>
 7    1  0.2385752E-015  0.9000787E+02  0.7816164E-02  0.1186339E+00
        -11   -1    0    0    0    0  0.00000000000E+00  0.00000000000E+00  0.45593999997E+02  0.45594000000E+02  0.51100000000E-03 0. -1.
         11   -1    0    0    0    0 -0.00000000000E+00 -0.00000000000E+00 -0.45593999997E+02  0.45594000000E+02  0.51100000000E-03 0.  1.
    9900012    2    1    2    0    0  0.63529847780E+00 -0.24395656688E+00  0.96414910409E+00  0.90007871847E+02  0.90000134955E+02 0.  0.
        -12    1    1    2    0    0 -0.63529847780E+00  0.24395656688E+00 -0.96414910409E+00  0.11801281529E+01  0.00000000000E+00 0.  1.
         11    1    3    3    0    0 -0.64884983956E+01  0.75465843198E-01 -0.11742931349E+02  0.13416510107E+02  0.51100000000E-03 0. -1.
        -11    1    3    3    0    0 -0.25099531338E+02  0.24332543875E+02  0.57830163057E+01  0.35433069902E+02  0.51100000000E-03 0.  1.
         12    1    3    3    0    0  0.32223328211E+02 -0.24651966285E+02  0.69240641477E+01  0.41158291838E+02  0.00000000000E+00 0. -1.
</event>
<event>
 7    1  0.2385752E-015  0.9000759E+02  0.7816164E-02  0.1186339E+00
        -11   -1    0    0    0    0  0.00000000000E+00  0.00000000000E+00  0.45593999997E+02  0.45594000000E+02  0.51100000000E-03 0. -1.
         11   -1    0    0    0    0 -0.00000000000E+00 -0.00000000000E+00 -0.45593999997E+02  0.45594000000E+02  0.51100000000E-03 0.  1.
    9900012    2    1    2    0    0 -0.34313745329E-01  0.11798959840E+01  0.63857603878E-02  0.90007587892E+02  0.89999847252E+02 0.  0.
        -12    1    1    2    0    0  0.34313745329E-01 -0.11798959840E+01 -0.63857603878E-02  0.11804121077E+01  0.00000000000E+00 0.  1.
         11    1    3    3    0    0  0.37056798339E+01  0.40099456461E+02  0.95549413647E+01  0.41388348315E+02  0.51100000000E-03 0. -1.
        -11    1    3    3    0    0  0.95878756424E+01 -0.57206426470E+01  0.12900273021E+01  0.11239096153E+02  0.51100000000E-03 0.  1.
        -12    1    3    3    0    0 -0.13327869222E+02 -0.33198917830E+02 -0.10838582906E+02  0.37380143425E+02  0.00000000000E+00 0.  1.
</event>
<event>
 7    1  0.2385752E-015  0.9000773E+02  0.7816164E-02  0.1186339E+00
        -11   -1    0    0    0    0  0.00000000000E+00  0.00000000000E+00  0.45593999997E+02  0.45594000000E+02  0.51100000000E-03 0. -1.
         11   -1    0    0    0    0 -0.00000000000E+00 -0.00000000000E+00 -0.45593999997E+02  0.45594000000E+02  0.51100000000E-03 0.  1.
    9900012    2    1    2    0    0  0.85918599230E+00  0.80788138172E+00 -0.46602421594E-01  0.90007726861E+02  0.89999988056E+02 0.  0.
        -12    1    1    2    0    0 -0.85918599230E+00 -0.80788138172E+00  0.46602421594E-01  0.11802731387E+01  0.00000000000E+00 0.  1.
         11    1    3    3    0    0 -0.41863847929E+01  0.29525759575E+02  0.27001418765E+02  0.40229005851E+02  0.51100000000E-03 0. -1.
        -11    1    3    3    0    0  0.76515639589E+01 -0.47012298273E+01  0.44991518587E+01  0.10044419377E+02  0.51100000000E-03 0.  1.
        -12    1    3    3    0    0 -0.26059931736E+01 -0.24016648366E+02 -0.31547173046E+02  0.39734301634E+02  0.00000000000E+00 0.  1.
</event>
<event>
 7    1  0.2385752E-015  0.9000793E+02  0.7816164E-02  0.1186339E+00
        -11   -1    0    0    0    0  0.00000000000E+00  0.00000000000E+00  0.45593999997E+02  0.45594000000E+02  0.51100000000E-03 0.  1.
         11   -1    0    0    0    0 -0.00000000000E+00 -0.00000000000E+00 -0.45593999997E+02  0.45594000000E+02  0.51100000000E-03 0. -1.
    9900012    2    1    2    0    0 -0.75067272834E+00  0.86175319292E+00 -0.29401407332E+00  0.90007926957E+02  0.90000190793E+02 0.  0.
        -12    1    1    2    0    0  0.75067272834E+00 -0.86175319292E+00  0.29401407332E+00  0.11800730426E+01  0.00000000000E+00 0.  1.
         11    1    3    3    0    0 -0.24688449854E+01 -0.54981636725E+01  0.87716790283E+01  0.10642713590E+02  0.51100000000E-03 0. -1.
        -11    1    3    3    0    0 -0.26065842418E+02 -0.24491496117E+02  0.36269428343E+01  0.35950191065E+02  0.51100000000E-03 0.  1.
         12    1    3    3    0    0  0.27784014675E+02  0.30851412982E+02 -0.12692635936E+02  0.43415022302E+02  0.00000000000E+00 0. -1.
</event>
<event>
 7    1  0.2385752E-015  0.9000777E+02  0.7816164E-02  0.1186339E+00
        -11   -1    0    0    0    0  0.00000000000E+00  0.00000000000E+00  0.45593999997E+02  0.45594000000E+02  0.51100000000E-03 0.  1.
         11   -1    0    0    0    0 -0.00000000000E+00 -0.00000000000E+00 -0.45593999997E+02  0.45594000000E+02  0.51100000000E-03 0. -1.
    9900012    2    1    2    0    0 -0.74248235681E+00  0.50316613601E+00 -0.76712632875E+00  0.90007771626E+02  0.90000033411E+02 0.  0.
        -12    1    1    2    0    0  0.74248235681E+00 -0.50316613601E+00  0.76712632875E+00  0.11802283740E+01  0.00000000000E+00 0.  1.
         11    1    3    3    0    0  0.58244126558E+01  0.38657070135E+01  0.62304427340E+01  0.93640744563E+01  0.51100000000E-03 0. -1.
        -11    1    3    3    0    0  0.28262009165E+01  0.36966838093E+02  0.52900940298E+01  0.37450228641E+02  0.51100000000E-03 0.  1.
         12    1    3    3    0    0 -0.93930959290E+01 -0.40329378970E+02 -0.12287663093E+02  0.43193468528E+02  0.00000000000E+00 0. -1.
</event>
<event>
 7    1  0.2385752E-015  0.9000788E+02  0.7816164E-02  0.1186339E+00
        -11   -1    0    0    0    0  0.00000000000E+00  0.00000000000E+00  0.45593999997E+02  0.45594000000E+02  0.51100000000E-03 0. -1.
         11   -1    0    0    0    0 -0.00000000000E+00 -0.00000000000E+00 -0.45593999997E+02  0.45594000000E+02  0.51100000000E-03 0.  1.
    9900012    2    1    2    0    0  0.67714703611E+00  0.79035130016E-01  0.96328437303E+00  0.90007876513E+02  0.90000139683E+02 0.  0.
        -12    1    1    2    0    0 -0.67714703611E+00 -0.79035130016E-01 -0.96328437303E+00  0.11801234866E+01  0.00000000000E+00 0.  1.
         11    1    3    3    0    0  0.62102259337E+01  0.62784186596E+01 -0.84456679654E+01  0.12219441667E+02  0.51100000000E-03 0. -1.
        -11    1    3    3    0    0  0.11557202146E+02 -0.11727584306E+02 -0.30144134722E+02  0.34347838557E+02  0.51100000000E-03 0.  1.
         12    1    3    3    0    0 -0.17090281044E+02  0.55282007764E+01  0.39553087061E+02  0.43440596290E+02  0.00000000000E+00 0. -1.
</event>
<event>
 7    1  0.2385752E-015  0.9000764E+02  0.7816164E-02  0.1186339E+00
        -11   -1    0    0    0    0  0.00000000000E+00  0.00000000000E+00  0.45593999997E+02  0.45594000000E+02  0.51100000000E-03 0. -1.
         11   -1    0    0    0    0 -0.00000000000E+00 -0.00000000000E+00 -0.45593999997E+02  0.45594000000E+02  0.51100000000E-03 0.  1.
    9900012    2    1    2    0    0  0.27497574211E-01  0.70595831598E+00  0.94557157103E+00  0.90007644606E+02  0.89999904715E+02 0.  0.
        -12    1    1    2    0    0 -0.27497574211E-01 -0.70595831598E+00 -0.94557157103E+00  0.11803553941E+01  0.00000000000E+00 0.  1.
         11    1    3    3    0    0 -0.83552159962E+01 -0.15463504641E+01 -0.30370182619E+01  0.90235422249E+01  0.51100000000E-03 0. -1.
        -11    1    3    3    0    0  0.94895126364E+01  0.18376032661E+02 -0.33949254137E+02  0.39752751894E+02  0.51100000000E-03 0.  1.
         12    1    3    3    0    0 -0.11067990660E+01 -0.16123723881E+02  0.37931843970E+02  0.41231350487E+02  0.00000000000E+00 0. -1.
</event>
<event>
 7    1  0.2385752E-015  0.9000743E+02  0.7816164E-02  0.1186340E+00
        -11   -1    0    0    0    0  0.00000000000E+00  0.00000000000E+00  0.45593999997E+02  0.45594000000E+02  0.51100000000E-03 0.  1.
         11   -1    0    0    0    0 -0.00000000000E+00 -0.00000000000E+00 -0.45593999997E+02  0.45594000000E+02  0.51100000000E-03 0. -1.
    9900012    2    1    2    0    0 -0.93280649419E+00 -0.65259288970E+00 -0.31263780522E+00  0.90007429023E+02  0.89999686285E+02 0.  0.
        -12    1    1    2    0    0  0.93280649419E+00  0.65259288970E+00  0.31263780522E+00  0.11805709773E+01  0.00000000000E+00 0.  1.
         11    1    3    3    0    0 -0.10580150824E+02 -0.28985360779E+01 -0.36774885102E+01  0.11570005396E+02  0.51100000000E-03 0. -1.
        -11    1    3    3    0    0  0.47921503471E+01 -0.33505905793E+02  0.19335880544E+02  0.38980593949E+02  0.51100000000E-03 0.  1.
         12    1    3    3    0    0  0.48551939825E+01  0.35751848981E+02 -0.15971029839E+02  0.39456829678E+02  0.00000000000E+00 0. -1.
</event>
<event>
 7    1  0.2385752E-015  0.9000772E+02  0.7816164E-02  0.1186339E+00
        -11   -1    0    0    0    0  0.00000000000E+00  0.00000000000E+00  0.45593999997E+02  0.45594000000E+02  0.51100000000E-03 0.  1.
         11   -1    0    0    0    0 -0.00000000000E+00 -0.00000000000E+00 -0.45593999997E+02  0.45594000000E+02  0.51100000000E-03 0. -1.
    9900012    2    1    2    0    0  0.10230967833E+01  0.57170083046E+00 -0.13962807958E+00  0.90007718310E+02  0.89999979392E+02 0.  0.
        -12    1    1    2    0    0 -0.10230967833E+01 -0.57170083046E+00  0.13962807958E+00  0.11802816901E+01  0.00000000000E+00 0.  1.
         11    1    3    3    0    0  0.58147581835E+01 -0.64691569280E+01  0.37789372024E+01  0.94837635321E+01  0.51100000000E-03 0. -1.
        -11    1    3    3    0    0  0.11986680880E+02  0.15819071192E+02  0.33299478555E+02  0.38765691071E+02  0.51100000000E-03 0.  1.
         12    1    3    3    0    0 -0.16778342280E+02 -0.87782134339E+01 -0.37218043837E+02  0.41758263707E+02  0.00000000000E+00 0. -1.
</event>
<event>
 7    1  0.2385752E-015  0.9000772E+02  0.7816164E-02  0.1186339E+00
        -11   -1    0    0    0    0  0.00000000000E+00  0.00000000000E+00  0.45593999997E+02  0.45594000000E+02  0.51100000000E-03 0. -1.
         11   -1    0    0    0    0 -0.00000000000E+00 -0.00000000000E+00 -0.45593999997E+02  0.45594000000E+02  0.51100000000E-03 0.  1.
    9900012    2    1    2    0    0  0.22637486465E+00  0.89381608582E+00  0.73682547210E+00  0.90007718444E+02  0.89999979528E+02 0.  0.
        -12    1    1    2    0    0 -0.22637486465E+00 -0.89381608582E+00 -0.73682547210E+00  0.11802815558E+01  0.00000000000E+00 0.  1.
         11    1    3    3    0    0 -0.13123741070E+02 -0.25922886018E+01  0.37634276106E+02  0.39941097608E+02  0.51100000000E-03 0. -1.
        -11    1    3    3    0    0 -0.54896378918E+01 -0.51346853741E+01  0.26234017549E+00  0.75212991366E+01  0.51100000000E-03 0.  1.
        -12    1    3    3    0    0  0.18839753826E+02  0.86207900618E+01 -0.37159790809E+02  0.42545321699E+02  0.00000000000E+00 0.  1.
</event>
<event>
 7    1  0.2385752E-015  0.9000773E+02  0.7816164E-02  0.1186339E+00
        -11   -1    0    0    0    0  0.00000000000E+00  0.00000000000E+00  0.45593999997E+02  0.45594000000E+02  0.51100000000E-03 0.  1.
         11   -1    0    0    0    0 -0.00000000000E+00 -0.00000000000E+00 -0.45593999997E+02  0.45594000000E+02  0.51100000000E-03 0. -1.
    9900012    2    1    2    0    0 -0.65477750887E+00 -0.87776942697E+00  0.44025043896E+00  0.90007731725E+02  0.89999992983E+02 0.  0.
        -12    1    1    2    0    0  0.65477750887E+00  0.87776942697E+00 -0.44025043896E+00  0.11802682755E+01  0.00000000000E+00 0.  1.
         11    1    3    3    0    0 -0.26159765869E+02 -0.17023066374E+02 -0.11110858734E+02  0.33129583775E+02  0.51100000000E-03 0. -1.
        -11    1    3    3    0    0  0.19944503305E+02 -0.13471021983E+02 -0.13351836316E+01  0.24104654342E+02  0.51100000000E-03 0.  1.
        -12    1    3    3    0    0  0.55604850546E+01  0.29616318930E+02  0.12886292804E+02  0.32773493607E+02  0.00000000000E+00 0.  1.
</event>
<event>
 7    1  0.2385752E-015  0.9000777E+02  0.7816164E-02  0.1186339E+00
        -11   -1    0    0    0    0  0.00000000000E+00  0.00000000000E+00  0.45593999997E+02  0.45594000000E+02  0.51100000000E-03 0.  1.
         11   -1    0    0    0    0 -0.00000000000E+00 -0.00000000000E+00 -0.45593999997E+02  0.45594000000E+02  0.51100000000E-03 0. -1.
    9900012    2    1    2    0    0 -0.11796876993E+00 -0.76392074911E+00 -0.89188662197E+00  0.90007765579E+02  0.90000027285E+02 0.  0.
        -12    1    1    2    0    0  0.11796876993E+00  0.76392074911E+00  0.89188662197E+00  0.11802344208E+01  0.00000000000E+00 0.  1.
         11    1    3    3    0    0  0.99905370943E+01  0.35576018001E+01 -0.20575032298E+02  0.23147339293E+02  0.51100000000E-03 0. -1.
        -11    1    3    3    0    0 -0.29296503535E+02  0.13083243971E+02 -0.32669087658E+01  0.32251032314E+02  0.51100000000E-03 0.  1.
        -12    1    3    3    0    0  0.19187997671E+02 -0.17404766520E+02  0.22950054442E+02  0.34609393972E+02  0.00000000000E+00 0.  1.
</event>
<event>
 7    1  0.2385752E-015  0.9000800E+02  0.7816164E-02  0.1186339E+00
        -11   -1    0    0    0    0  0.00000000000E+00  0.00000000000E+00  0.45593999997E+02  0.45594000000E+02  0.51100000000E-03 0.  1.
         11   -1    0    0    0    0 -0.00000000000E+00 -0.00000000000E+00 -0.45593999997E+02  0.45594000000E+02  0.51100000000E-03 0. -1.
    9900012    2    1    2    0    0 -0.43465614852E+00 -0.97782054790E+00 -0.49734307122E+00  0.90007996135E+02  0.90000260883E+02 0.  0.
        -12    1    1    2    0    0  0.43465614852E+00  0.97782054790E+00  0.49734307122E+00  0.11800038652E+01  0.00000000000E+00 0.  1.
         11    1    3    3    0    0  0.10510453414E+02 -0.29973614478E+02 -0.23577122625E+02  0.39557147361E+02  0.51100000000E-03 0. -1.
        -11    1    3    3    0    0 -0.68123895612E+01 -0.62014974183E+01  0.68065451156E+01  0.11454094396E+02  0.51100000000E-03 0.  1.
        -12    1    3    3    0    0 -0.41327200010E+01  0.35197291349E+02  0.16273234438E+02  0.38996754377E+02  0.00000000000E+00 0.  1.
</event>
<event>
 7    1  0.2385752E-015  0.9000781E+02  0.7816164E-02  0.1186339E+00
        -11   -1    0    0    0    0  0.00000000000E+00  0.00000000000E+00  0.45593999997E+02  0.45594000000E+02  0.51100000000E-03 0. -1.
         11   -1    0    0    0    0 -0.00000000000E+00 -0.00000000000E+00 -0.45593999997E+02  0.45594000000E+02  0.51100000000E-03 0.  1.
    9900012    2    1    2    0    0 -0.80007772536E+00  0.86369606609E+00  0.82187232680E-01  0.90007809336E+02  0.90000071620E+02 0.  0.
        -12    1    1    2    0    0  0.80007772536E+00 -0.86369606609E+00 -0.82187232680E-01  0.11801906636E+01  0.00000000000E+00 0.  1.
         11    1    3    3    0    0 -0.78803428154E+01 -0.75983340436E+01 -0.16169387372E+01  0.11065666463E+02  0.51100000000E-03 0. -1.
        -11    1    3    3    0    0 -0.15373309873E+02 -0.25744257029E+02 -0.16426626863E+02  0.34189757192E+02  0.51100000000E-03 0.  1.
         12    1    3    3    0    0  0.22453574963E+02  0.34206287139E+02  0.18125752833E+02  0.44752385682E+02  0.00000000000E+00 0. -1.
</event>
<event>
 7    1  0.2385752E-015  0.9000781E+02  0.7816164E-02  0.1186339E+00
        -11   -1    0    0    0    0  0.00000000000E+00  0.00000000000E+00  0.45593999997E+02  0.45594000000E+02  0.51100000000E-03 0. -1.
         11   -1    0    0    0    0 -0.00000000000E+00 -0.00000000000E+00 -0.45593999997E+02  0.45594000000E+02  0.51100000000E-03 0.  1.
    9900012    2    1    2    0    0 -0.95233479044E+00  0.25945845167E-02 -0.69706391326E+00  0.90007810869E+02  0.90000073173E+02 0.  0.
        -12    1    1    2    0    0  0.95233479044E+00 -0.25945845167E-02  0.69706391326E+00  0.11801891307E+01  0.00000000000E+00 0.  1.
         11    1    3    3    0    0  0.95709029967E+01  0.34184172807E+01 -0.12719608332E+01  0.10242345703E+02  0.51100000000E-03 0. -1.
        -11    1    3    3    0    0  0.30392351545E+02 -0.16196507447E+02  0.10030535701E+02  0.35869674276E+02  0.51100000000E-03 0.  1.
         12    1    3    3    0    0 -0.40915589333E+02  0.12780684751E+02 -0.94556387815E+01  0.43895790890E+02  0.00000000000E+00 0. -1.
</event>
<event>
 7    1  0.2385752E-015  0.9000746E+02  0.7816164E-02  0.1186340E+00
        -11   -1    0    0    0    0  0.00000000000E+00  0.00000000000E+00  0.45593999997E+02  0.45594000000E+02  0.51100000000E-03 0.  1.
         11   -1    0    0    0    0 -0.00000000000E+00 -0.00000000000E+00 -0.45593999997E+02  0.45594000000E+02  0.51100000000E-03 0. -1.
    9900012    2    1    2    0    0 -0.10007045567E+01  0.26240514446E+00 -0.56869638498E+00  0.90007457054E+02  0.89999714686E+02 0.  0.
        -12    1    1    2    0    0  0.10007045567E+01 -0.26240514446E+00  0.56869638498E+00  0.11805429463E+01  0.00000000000E+00 0.  1.
         11    1    3    3    0    0 -0.28908109546E+02  0.62982277746E+01 -0.69214651157E+01  0.30385081047E+02  0.51100000000E-03 0. -1.
        -11    1    3    3    0    0 -0.12207864169E+02  0.43649154818E+01 -0.86088167473E+01  0.15562652756E+02  0.51100000000E-03 0.  1.
        -12    1    3    3    0    0  0.40115269159E+02 -0.10400738112E+02  0.14961585478E+02  0.44059723251E+02  0.00000000000E+00 0.  1.
</event>
<event>
 7    1  0.2385752E-015  0.9000676E+02  0.7816164E-02  0.1186341E+00
        -11   -1    0    0    0    0  0.00000000000E+00  0.00000000000E+00  0.45593999997E+02  0.45594000000E+02  0.51100000000E-03 0. -1.
         11   -1    0    0    0    0 -0.00000000000E+00 -0.00000000000E+00 -0.45593999997E+02  0.45594000000E+02  0.51100000000E-03 0.  1.
    9900012    2    1    2    0    0  0.10525994763E+01 -0.45600276694E+00  0.28180924874E+00  0.90006763092E+02  0.89999011559E+02 0.  0.
        -12    1    1    2    0    0 -0.10525994763E+01  0.45600276694E+00 -0.28180924874E+00  0.11812369083E+01  0.00000000000E+00 0.  1.
         11    1    3    3    0    0 -0.44845082840E+01 -0.28162024819E+01 -0.87313902734E+01  0.10211708346E+02  0.51100000000E-03 0. -1.
        -11    1    3    3    0    0  0.94491285246E+01  0.12993684767E+01 -0.34652718979E+02  0.35941415126E+02  0.51100000000E-03 0.  1.
         12    1    3    3    0    0 -0.39120207644E+01  0.10608312383E+01  0.43665918501E+02  0.43853639620E+02  0.00000000000E+00 0. -1.
</event>
<event>
 7    1  0.2385752E-015  0.9000765E+02  0.7816164E-02  0.1186339E+00
        -11   -1    0    0    0    0  0.00000000000E+00  0.00000000000E+00  0.45593999997E+02  0.45594000000E+02  0.51100000000E-03 0.  1.
         11   -1    0    0    0    0 -0.00000000000E+00 -0.00000000000E+00 -0.45593999997E+02  0.45594000000E+02  0.51100000000E-03 0. -1.
    9900012    2    1    2    0    0 -0.67518297574E+00  0.11738636193E-01 -0.96809639271E+00  0.90007652394E+02  0.89999912605E+02 0.  0.
        -12    1    1    2    0    0  0.67518297574E+00 -0.11738636193E-01  0.96809639271E+00  0.11803476064E+01  0.00000000000E+00 0.  1.
         11    1    3    3    0    0 -0.52500993651E+01  0.49346731328E+01  0.81920080292E+01  0.10909790928E+02  0.51100000000E-03 0. -1.
        -11    1    3    3    0    0  0.89466251580E+01  0.35746735658E+02  0.13190660076E+01  0.36872905327E+02  0.51100000000E-03 0.  1.
         12    1    3    3    0    0 -0.43717087687E+01 -0.40669670154E+02 -0.10479170430E+02  0.42224956139E+02  0.00000000000E+00 0. -1.
</event>
<event>
 7    1  0.2385752E-015  0.9000755E+02  0.7816164E-02  0.1186339E+00
        -11   -1    0    0    0    0  0.00000000000E+00  0.00000000000E+00  0.45593999997E+02  0.45594000000E+02  0.51100000000E-03 0.  1.
         11   -1    0    0    0    0 -0.00000000000E+00 -0.00000000000E+00 -0.45593999997E+02  0.45594000000E+02  0.51100000000E-03 0. -1.
    9900012    2    1    2    0    0 -0.89768974855E+00 -0.59923860739E-01 -0.76420839905E+00  0.90007554224E+02  0.89999813139E+02 0.  0.
        -12    1    1    2    0    0  0.89768974855E+00  0.59923860739E-01  0.76420839905E+00  0.11804457764E+01  0.00000000000E+00 0.  1.
         11    1    3    3    0    0  0.35457342601E+01  0.63259503050E+01  0.61137330140E+01  0.94851257415E+01  0.51100000000E-03 0. -1.
        -11    1    3    3    0    0 -0.22693324959E+02 -0.11889816345E+01  0.30835429160E+02  0.38304364852E+02  0.51100000000E-03 0.  1.
         12    1    3    3    0    0  0.18249900950E+02 -0.51968925313E+01 -0.37713370573E+02  0.42218063630E+02  0.00000000000E+00 0. -1.
</event>
<event>
 7    1  0.2385752E-015  0.9000767E+02  0.7816164E-02  0.1186339E+00
        -11   -1    0    0    0    0  0.00000000000E+00  0.00000000000E+00  0.45593999997E+02  0.45594000000E+02  0.51100000000E-03 0. -1.
         11   -1    0    0    0    0 -0.00000000000E+00 -0.00000000000E+00 -0.45593999997E+02  0.45594000000E+02  0.51100000000E-03 0.  1.
    9900012    2    1    2    0    0  0.85020590301E+00  0.29122537354E+00 -0.76518803860E+00  0.90007671643E+02  0.89999932109E+02 0.  0.
        -12    1    1    2    0    0 -0.85020590301E+00 -0.29122537354E+00  0.76518803860E+00  0.11803283569E+01  0.00000000000E+00 0.  1.
         11    1    3    3    0    0 -0.10066066442E+01  0.90385778998E+01  0.16403115154E+01  0.92411995712E+01  0.51100000000E-03 0. -1.
        -11    1    3    3    0    0 -0.29364894022E+02  0.16200865289E+02 -0.17764286862E+02  0.37951744690E+02  0.51100000000E-03 0.  1.
         12    1    3    3    0    0  0.31221706569E+02 -0.24948217815E+02  0.15358787308E+02  0.42814727382E+02  0.00000000000E+00 0. -1.
</event>
<event>
 7    1  0.2385752E-015  0.9000768E+02  0.7816164E-02  0.1186339E+00
        -11   -1    0    0    0    0  0.00000000000E+00  0.00000000000E+00  0.45593999997E+02  0.45594000000E+02  0.51100000000E-03 0. -1.
         11   -1    0    0    0    0 -0.00000000000E+00 -0.00000000000E+00 -0.45593999997E+02  0.45594000000E+02  0.51100000000E-03 0.  1.
    9900012    2    1    2    0    0 -0.61711490143E+00  0.99504413213E+00  0.14900554384E+00  0.90007683823E+02  0.89999944449E+02 0.  0.
        -12    1    1    2    0    0  0.61711490143E+00 -0.99504413213E+00 -0.14900554384E+00  0.11803161774E+01  0.00000000000E+00 0.  1.
         11    1    3    3    0    0 -0.21318132200E+02 -0.23500557355E+02 -0.21149110363E+02  0.38131664347E+02  0.51100000000E-03 0. -1.
        -11    1    3    3    0    0  0.43150309806E+01  0.14577409747E+01 -0.92150482707E+01  0.10279183625E+02  0.51100000000E-03 0.  1.
        -12    1    3    3    0    0  0.16385986318E+02  0.23037860512E+02  0.30513164178E+02  0.41596835850E+02  0.00000000000E+00 0.  1.
</event>
<event>
 7    1  0.2385752E-015  0.9000781E+02  0.7816164E-02  0.1186339E+00
        -11   -1    0    0    0    0  0.00000000000E+00  0.00000000000E+00  0.45593999997E+02  0.45594000000E+02  0.51100000000E-03 0.  1.
         11   -1    0    0    0    0 -0.00000000000E+00 -0.00000000000E+00 -0.45593999997E+02  0.45594000000E+02  0.51100000000E-03 0. -1.
    9900012    2    1    2    0    0  0.95059767388E-02 -0.36712205980E+00 -0.11215985459E+01  0.90007808376E+02  0.90000070647E+02 0.  0.
        -12    1    1    2    0    0 -0.95059767388E-02  0.36712205980E+00  0.11215985459E+01  0.11801916236E+01  0.00000000000E+00 0.  1.
         11    1    3    3    0    0 -0.82150117650E+01  0.61798741331E+01  0.75058179476E+00  0.10307309828E+02  0.51100000000E-03 0. -1.
        -11    1    3    3    0    0 -0.19720813346E+02  0.28385791094E+02 -0.46694583345E+01  0.34877893521E+02  0.51100000000E-03 0.  1.
         12    1    3    3    0    0  0.27945331087E+02 -0.34932787287E+02  0.27972779939E+01  0.44822605027E+02  0.00000000000E+00 0. -1.
</event>
<event>
 7    1  0.2385752E-015  0.9000736E+02  0.7816164E-02  0.1186340E+00
        -11   -1    0    0    0    0  0.00000000000E+00  0.00000000000E+00  0.45593999997E+02  0.45594000000E+02  0.51100000000E-03 0.  1.
         11   -1    0    0    0    0 -0.00000000000E+00 -0.00000000000E+00 -0.45593999997E+02  0.45594000000E+02  0.51100000000E-03 0. -1.
    9900012    2    1    2    0    0  0.73441640556E+00  0.51833652944E+00 -0.76542107904E+00  0.90007360494E+02  0.89999616852E+02 0.  0.
        -12    1    1    2    0    0 -0.73441640556E+00 -0.51833652944E+00  0.76542107904E+00  0.11806395058E+01  0.00000000000E+00 0.  1.
         11    1    3    3    0    0  0.64494715958E+01  0.31405301705E-01  0.13723312820E+02  0.15163310495E+02  0.51100000000E-03 0. -1.
        -11    1    3    3    0    0  0.32627833076E+01  0.35536215711E+02  0.48024311742E+00  0.35688920069E+02  0.51100000000E-03 0.  1.
         12    1    3    3    0    0 -0.89778384978E+01 -0.35049284484E+02 -0.14968977016E+02  0.39155129930E+02  0.00000000000E+00 0. -1.
</event>
<event>
 7    1  0.2385752E-015  0.9000777E+02  0.7816164E-02  0.1186339E+00
        -11   -1    0    0    0    0  0.00000000000E+00  0.00000000000E+00  0.45593999997E+02  0.45594000000E+02  0.51100000000E-03 0.  1.
         11   -1    0    0    0    0 -0.00000000000E+00 -0.00000000000E+00 -0.45593999997E+02  0.45594000000E+02  0.51100000000E-03 0. -1.
    9900012    2    1    2    0    0  0.90075346328E+00 -0.29017555118E+00  0.70525588358E+00  0.90007769297E+02  0.90000031051E+02 0.  0.
        -12    1    1    2    0    0 -0.90075346328E+00  0.29017555118E+00 -0.70525588358E+00  0.11802307035E+01  0.00000000000E+00 0.  1.
         11    1    3    3    0    0 -0.21709553587E+02  0.90533756929E+01  0.30517807166E+02  0.38530570757E+02  0.51100000000E-03 0. -1.
        -11    1    3    3    0    0 -0.40652891950E+00  0.11143993432E+02 -0.78942970201E+01  0.13662861380E+02  0.51100000000E-03 0.  1.
        -12    1    3    3    0    0  0.23016835970E+02 -0.20487544676E+02 -0.21918254263E+02  0.37814337160E+02  0.00000000000E+00 0.  1.
</event>
<event>
 7    1  0.2385752E-015  0.9000777E+02  0.7816164E-02  0.1186339E+00
        -11   -1    0    0    0    0  0.00000000000E+00  0.00000000000E+00  0.45593999997E+02  0.45594000000E+02  0.51100000000E-03 0.  1.
         11   -1    0    0    0    0 -0.00000000000E+00 -0.00000000000E+00 -0.45593999997E+02  0.45594000000E+02  0.51100000000E-03 0. -1.
    9900012    2    1    2    0    0  0.97663235383E+00  0.58530701250E+00 -0.31072803387E+00  0.90007768258E+02  0.90000029999E+02 0.  0.
        -12    1    1    2    0    0 -0.97663235383E+00 -0.58530701250E+00  0.31072803387E+00  0.11802317418E+01  0.00000000000E+00 0.  1.
         11    1    3    3    0    0  0.61503650355E+00  0.28265085376E+01  0.91426391675E+01  0.95893311353E+01  0.51100000000E-03 0. -1.
        -11    1    3    3    0    0  0.20335758748E+02 -0.28225750781E+02  0.16604047679E+02  0.38547768944E+02  0.51100000000E-03 0.  1.
         12    1    3    3    0    0 -0.19974162898E+02  0.25984549256E+02 -0.26057414880E+02  0.41870668179E+02  0.00000000000E+00 0. -1.
</event>
<event>
 8    1  0.2385752E-015  0.9000769E+02  0.7816164E-02  0.1186339E+00
        -11   -1    0    0    0    0  0.00000000000E+00  0.00000000000E+00  0.45593999997E+02  0.45594000000E+02  0.51100000000E-03 0. -1.
         11   -1    0    0    0    0 -0.00000000000E+00 -0.00000000000E+00 -0.45593999997E+02  0.45594000000E+02  0.51100000000E-03 0.  1.
    9900012    2    1    2    0    0 -0.25063737011E+00  0.11303656101E+00  0.11478374761E+01  0.90007691893E+02  0.89999952626E+02 0.  0.
         23    2    3    3    0    0  0.21854777410E+02 -0.73650780196E+01  0.11474088625E+02  0.64489012008E+02  0.59121081605E+02 0.  0.
        -12    1    1    2    0    0  0.25063737011E+00 -0.11303656101E+00 -0.11478374761E+01  0.11803081068E+01  0.00000000000E+00 0.  1.
         11    1    4    4    0    0  0.30605033369E+02 -0.27368615913E+02  0.33535219089E+01  0.41194117468E+02  0.51100000000E-03 0. -1.
        -11    1    4    4    0    0 -0.87502559591E+01  0.20003537893E+02  0.81205667166E+01  0.23294894540E+02  0.51100000000E-03 0.  1.
        -12    1    3    3    0    0 -0.22105414780E+02  0.74781145806E+01 -0.10326251149E+02  0.25518679885E+02  0.00000000000E+00 0.  1.
</event>
<event>
 7    1  0.2385752E-015  0.9000774E+02  0.7816164E-02  0.1186339E+00
        -11   -1    0    0    0    0  0.00000000000E+00  0.00000000000E+00  0.45593999997E+02  0.45594000000E+02  0.51100000000E-03 0.  1.
         11   -1    0    0    0    0 -0.00000000000E+00 -0.00000000000E+00 -0.45593999997E+02  0.45594000000E+02  0.51100000000E-03 0. -1.
    9900012    2    1    2    0    0 -0.11020770201E+01 -0.20378455574E+00 -0.37003031730E+00  0.90007735479E+02  0.89999996787E+02 0.  0.
        -12    1    1    2    0    0  0.11020770201E+01  0.20378455574E+00  0.37003031730E+00  0.11802645208E+01  0.00000000000E+00 0.  1.
         11    1    3    3    0    0 -0.63512597316E+01  0.66692504219E+01 -0.16995015859E+01  0.93651325281E+01  0.51100000000E-03 0. -1.
        -11    1    3    3    0    0 -0.29751435220E+02  0.13680535414E+02 -0.16075325637E+02  0.36479049349E+02  0.51100000000E-03 0.  1.
         12    1    3    3    0    0  0.35000617931E+02 -0.20553570392E+02  0.17404796905E+02  0.44163553602E+02  0.00000000000E+00 0. -1.
</event>
<event>
 7    1  0.2385752E-015  0.9000775E+02  0.7816164E-02  0.1186339E+00
        -11   -1    0    0    0    0  0.00000000000E+00  0.00000000000E+00  0.45593999997E+02  0.45594000000E+02  0.51100000000E-03 0. -1.
         11   -1    0    0    0    0 -0.00000000000E+00 -0.00000000000E+00 -0.45593999997E+02  0.45594000000E+02  0.51100000000E-03 0.  1.
    9900012    2    1    2    0    0 -0.74475973106E+00 -0.90631921918E+00 -0.13002739400E+00  0.90007750574E+02  0.90000012082E+02 0.  0.
        -12    1    1    2    0    0  0.74475973106E+00  0.90631921918E+00  0.13002739400E+00  0.11802494259E+01  0.00000000000E+00 0.  1.
         11    1    3    3    0    0 -0.24191115819E+01  0.32980810875E+01 -0.52228459808E+01  0.66338194206E+01  0.51100000000E-03 0. -1.
        -11    1    3    3    0    0 -0.24053334669E+02 -0.33183828308E+02  0.14539493986E+02  0.43487081478E+02  0.51100000000E-03 0.  1.
         12    1    3    3    0    0  0.25727686520E+02  0.28979428001E+02 -0.94466753987E+01  0.39886849675E+02  0.00000000000E+00 0. -1.
</event>
<event>
 7    1  0.2385752E-015  0.9000778E+02  0.7816164E-02  0.1186339E+00
        -11   -1    0    0    0    0  0.00000000000E+00  0.00000000000E+00  0.45593999997E+02  0.45594000000E+02  0.51100000000E-03 0.  1.
         11   -1    0    0    0    0 -0.00000000000E+00 -0.00000000000E+00 -0.45593999997E+02  0.45594000000E+02  0.51100000000E-03 0. -1.
    9900012    2    1    2    0    0  0.86770764854E+00 -0.57838206947E+00 -0.55269916163E+00  0.90007780213E+02  0.90000042112E+02 0.  0.
        -12    1    1    2    0    0 -0.86770764854E+00  0.57838206947E+00  0.55269916163E+00  0.11802197867E+01  0.00000000000E+00 0.  1.
         11    1    3    3    0    0 -0.11467408276E+02  0.40682913078E+02  0.35948563377E+01  0.42420795153E+02  0.51100000000E-03 0. -1.
        -11    1    3    3    0    0  0.68393800927E+01 -0.30807515922E+01 -0.49802616491E+01  0.90039522866E+01  0.51100000000E-03 0.  1.
        -12    1    3    3    0    0  0.54957358315E+01 -0.38180543555E+02  0.83270614974E+00  0.38583032774E+02  0.00000000000E+00 0.  1.
</event>
<event>
 7    1  0.2385752E-015  0.9000778E+02  0.7816164E-02  0.1186339E+00
        -11   -1    0    0    0    0  0.00000000000E+00  0.00000000000E+00  0.45593999997E+02  0.45594000000E+02  0.51100000000E-03 0. -1.
         11   -1    0    0    0    0 -0.00000000000E+00 -0.00000000000E+00 -0.45593999997E+02  0.45594000000E+02  0.51100000000E-03 0.  1.
    9900012    2    1    2    0    0 -0.11443394892E+01 -0.99396404945E-01 -0.27113667725E+00  0.90007784931E+02  0.90000046892E+02 0.  0.
        -12    1    1    2    0    0  0.11443394892E+01  0.99396404945E-01  0.27113667725E+00  0.11802150693E+01  0.00000000000E+00 0.  1.
         11    1    3    3    0    0 -0.77166213067E+01 -0.60732984946E+01  0.10948138592E+01  0.98807801637E+01  0.51100000000E-03 0. -1.
        -11    1    3    3    0    0 -0.31787805924E+02 -0.13616669542E+02 -0.10410735688E+02  0.36114563721E+02  0.51100000000E-03 0.  1.
         12    1    3    3    0    0  0.38360087742E+02  0.19590571632E+02  0.90447851521E+01  0.44012441046E+02  0.00000000000E+00 0. -1.
</event>
<event>
 7    1  0.2385752E-015  0.9000793E+02  0.7816164E-02  0.1186339E+00
        -11   -1    0    0    0    0  0.00000000000E+00  0.00000000000E+00  0.45593999997E+02  0.45594000000E+02  0.51100000000E-03 0. -1.
         11   -1    0    0    0    0 -0.00000000000E+00 -0.00000000000E+00 -0.45593999997E+02  0.45594000000E+02  0.51100000000E-03 0.  1.
    9900012    2    1    2    0    0 -0.23522376236E+00 -0.48944026121E-01  0.11553553079E+01  0.90007927280E+02  0.90000191120E+02 0.  0.
        -12    1    1    2    0    0  0.23522376236E+00  0.48944026121E-01 -0.11553553079E+01  0.11800727196E+01  0.00000000000E+00 0.  1.
         11    1    3    3    0    0 -0.12042655112E+01  0.68398210371E+01  0.68195075982E+01  0.97334008129E+01  0.51100000000E-03 0. -1.
        -11    1    3    3    0    0 -0.21857770601E+02  0.14551556809E+02 -0.30542522422E+02  0.40278475857E+02  0.51100000000E-03 0.  1.
         12    1    3    3    0    0  0.22826812350E+02 -0.21440321872E+02  0.24878370131E+02  0.39996050611E+02  0.00000000000E+00 0. -1.
</event>
<event>
 7    1  0.2385752E-015  0.9000772E+02  0.7816164E-02  0.1186339E+00
        -11   -1    0    0    0    0  0.00000000000E+00  0.00000000000E+00  0.45593999997E+02  0.45594000000E+02  0.51100000000E-03 0.  1.
         11   -1    0    0    0    0 -0.00000000000E+00 -0.00000000000E+00 -0.45593999997E+02  0.45594000000E+02  0.51100000000E-03 0. -1.
    9900012    2    1    2    0    0 -0.86564174685E+00 -0.66026031878E+00 -0.45584153911E+00  0.90007715784E+02  0.89999976832E+02 0.  0.
        -12    1    1    2    0    0  0.86564174685E+00  0.66026031878E+00  0.45584153911E+00  0.11802842163E+01  0.00000000000E+00 0.  1.
         11    1    3    3    0    0 -0.30957917229E+01  0.88018964247E+01 -0.38235765045E+01  0.10083503588E+02  0.51100000000E-03 0. -1.
        -11    1    3    3    0    0  0.19433122403E+02 -0.26151008852E+02 -0.26238210317E+02  0.41832585280E+02  0.51100000000E-03 0.  1.
         12    1    3    3    0    0 -0.17202972427E+02  0.16688852108E+02  0.29605945282E+02  0.38091626916E+02  0.00000000000E+00 0. -1.
</event>
<event>
 7    1  0.2385752E-015  0.9000774E+02  0.7816164E-02  0.1186339E+00
        -11   -1    0    0    0    0  0.00000000000E+00  0.00000000000E+00  0.45593999997E+02  0.45594000000E+02  0.51100000000E-03 0.  1.
         11   -1    0    0    0    0 -0.00000000000E+00 -0.00000000000E+00 -0.45593999997E+02  0.45594000000E+02  0.51100000000E-03 0. -1.
    9900012    2    1    2    0    0  0.99974890250E+00 -0.52820672968E+00 -0.33839028507E+00  0.90007742315E+02  0.90000003714E+02 0.  0.
        -12    1    1    2    0    0 -0.99974890250E+00  0.52820672968E+00  0.33839028507E+00  0.11802576847E+01  0.00000000000E+00 0.  1.
         11    1    3    3    0    0 -0.16834606087E+02  0.14415876776E+02 -0.29157202948E+02  0.36624635826E+02  0.51100000000E-03 0. -1.
        -11    1    3    3    0    0 -0.72148949228E+01  0.10292743504E+01 -0.46388765082E+01  0.86390560801E+01  0.51100000000E-03 0.  1.
        -12    1    3    3    0    0  0.25049249913E+02 -0.15973357856E+02  0.33457689171E+02  0.44744050410E+02  0.00000000000E+00 0.  1.
</event>
<event>
 7    1  0.2385752E-015  0.9000769E+02  0.7816164E-02  0.1186339E+00
        -11   -1    0    0    0    0  0.00000000000E+00  0.00000000000E+00  0.45593999997E+02  0.45594000000E+02  0.51100000000E-03 0.  1.
         11   -1    0    0    0    0 -0.00000000000E+00 -0.00000000000E+00 -0.45593999997E+02  0.45594000000E+02  0.51100000000E-03 0. -1.
    9900012    2    1    2    0    0 -0.10096960499E+01  0.11186274738E+00 -0.60094079602E+00  0.90007691046E+02  0.89999951767E+02 0.  0.
        -12    1    1    2    0    0  0.10096960499E+01 -0.11186274738E+00  0.60094079602E+00  0.11803089544E+01  0.00000000000E+00 0.  1.
         11    1    3    3    0    0  0.31409736382E+01 -0.76296078757E+01  0.43398869618E+01  0.93226203846E+01  0.51100000000E-03 0. -1.
        -11    1    3    3    0    0  0.23583110005E+02 -0.22853692527E+02 -0.17904600877E+02  0.37403597052E+02  0.51100000000E-03 0.  1.
         12    1    3    3    0    0 -0.27733779693E+02  0.30595163150E+02  0.12963773119E+02  0.43281473609E+02  0.00000000000E+00 0. -1.
</event>
<event>
 7    1  0.2385752E-015  0.9000780E+02  0.7816164E-02  0.1186339E+00
        -11   -1    0    0    0    0  0.00000000000E+00  0.00000000000E+00  0.45593999997E+02  0.45594000000E+02  0.51100000000E-03 0. -1.
         11   -1    0    0    0    0 -0.00000000000E+00 -0.00000000000E+00 -0.45593999997E+02  0.45594000000E+02  0.51100000000E-03 0.  1.
    9900012    2    1    2    0    0 -0.22392500744E+00 -0.83264299317E+00  0.80588050268E+00  0.90007796565E+02  0.90000058680E+02 0.  0.
        -12    1    1    2    0    0  0.22392500744E+00  0.83264299317E+00 -0.80588050268E+00  0.11802034349E+01  0.00000000000E+00 0.  1.
         11    1    3    3    0    0  0.22045379099E+02 -0.50418697413E+01 -0.26938187126E+01  0.22774456077E+02  0.51100000000E-03 0. -1.
        -11    1    3    3    0    0 -0.82762081424E+01 -0.24449876486E+02 -0.15501170700E+02  0.30109439960E+02  0.51100000000E-03 0.  1.
         12    1    3    3    0    0 -0.13993095964E+02  0.28659103234E+02  0.19000869915E+02  0.37123900528E+02  0.00000000000E+00 0. -1.
</event>
<event>
 7    1  0.2385752E-015  0.9000769E+02  0.7816164E-02  0.1186339E+00
        -11   -1    0    0    0    0  0.00000000000E+00  0.00000000000E+00  0.45593999997E+02  0.45594000000E+02  0.51100000000E-03 0.  1.
         11   -1    0    0    0    0 -0.00000000000E+00 -0.00000000000E+00 -0.45593999997E+02  0.45594000000E+02  0.51100000000E-03 0. -1.
    9900012    2    1    2    0    0  0.63079053584E+00  0.35922388432E+00 -0.93069274611E+00  0.90007691783E+02  0.89999952515E+02 0.  0.
        -12    1    1    2    0    0 -0.63079053584E+00 -0.35922388432E+00  0.93069274611E+00  0.11803082169E+01  0.00000000000E+00 0.  1.
         11    1    3    3    0    0 -0.32239887859E+02  0.18851019920E+02 -0.60346025799E+01  0.37831042145E+02  0.51100000000E-03 0. -1.
        -11    1    3    3    0    0 -0.27445180625E+01  0.22924430789E+01 -0.81194964944E+01  0.88720853383E+01  0.51100000000E-03 0.  1.
        -12    1    3    3    0    0  0.35615196458E+02 -0.20784239114E+02  0.13223406328E+02  0.43304564300E+02  0.00000000000E+00 0.  1.
</event>
<event>
 7    1  0.2385752E-015  0.9000750E+02  0.7816164E-02  0.1186340E+00
        -11   -1    0    0    0    0  0.00000000000E+00  0.00000000000E+00  0.45593999997E+02  0.45594000000E+02  0.51100000000E-03 0.  1.
         11   -1    0    0    0    0 -0.00000000000E+00 -0.00000000000E+00 -0.45593999997E+02  0.45594000000E+02  0.51100000000E-03 0. -1.
    9900012    2    1    2    0    0  0.11008394888E+01 -0.39528854048E+00  0.15960105865E+00  0.90007503025E+02  0.89999761265E+02 0.  0.
        -12    1    1    2    0    0 -0.11008394888E+01  0.39528854048E+00 -0.15960105865E+00  0.11804969751E+01  0.00000000000E+00 0.  1.
         11    1    3    3    0    0 -0.24958469140E+01 -0.88679287769E+01  0.23182268422E+00  0.92153759895E+01  0.51100000000E-03 0. -1.
        -11    1    3    3    0    0  0.24822936299E+02 -0.23789170611E+02 -0.17319187635E+02  0.38497494275E+02  0.51100000000E-03 0.  1.
         12    1    3    3    0    0 -0.21226249896E+02  0.32261810847E+02  0.17246966010E+02  0.42294632760E+02  0.00000000000E+00 0. -1.
</event>
<event>
 7    1  0.2385752E-015  0.9000782E+02  0.7816164E-02  0.1186339E+00
        -11   -1    0    0    0    0  0.00000000000E+00  0.00000000000E+00  0.45593999997E+02  0.45594000000E+02  0.51100000000E-03 0. -1.
         11   -1    0    0    0    0 -0.00000000000E+00 -0.00000000000E+00 -0.45593999997E+02  0.45594000000E+02  0.51100000000E-03 0.  1.
    9900012    2    1    2    0    0  0.42891245335E+00  0.97789890707E+00  0.50257692073E+00  0.90007815385E+02  0.90000077748E+02 0.  0.
        -12    1    1    2    0    0 -0.42891245335E+00 -0.97789890707E+00 -0.50257692073E+00  0.11801846154E+01  0.00000000000E+00 0.  1.
         11    1    3    3    0    0  0.48582399321E+01 -0.88424220510E+01 -0.22372249370E+01  0.10334219789E+02  0.51100000000E-03 0. -1.
        -11    1    3    3    0    0  0.14111400434E+02 -0.28544565643E+02 -0.12799542665E+02  0.34318393649E+02  0.51100000000E-03 0.  1.
         12    1    3    3    0    0 -0.18540727912E+02  0.38364886601E+02  0.15539344523E+02  0.45355201947E+02  0.00000000000E+00 0. -1.
</event>
<event>
 7    1  0.2385752E-015  0.9000779E+02  0.7816164E-02  0.1186339E+00
        -11   -1    0    0    0    0  0.00000000000E+00  0.00000000000E+00  0.45593999997E+02  0.45594000000E+02  0.51100000000E-03 0.  1.
         11   -1    0    0    0    0 -0.00000000000E+00 -0.00000000000E+00 -0.45593999997E+02  0.45594000000E+02  0.51100000000E-03 0. -1.
    9900012    2    1    2    0    0  0.52550974813E+00  0.68925459702E-01  0.10545052441E+01  0.90007791322E+02  0.90000053367E+02 0.  0.
        -12    1    1    2    0    0 -0.52550974813E+00 -0.68925459702E-01 -0.10545052441E+01  0.11802086783E+01  0.00000000000E+00 0.  1.
         11    1    3    3    0    0  0.71924279791E+01 -0.40729448926E+01  0.43848753800E+01  0.93566571324E+01  0.51100000000E-03 0. -1.
        -11    1    3    3    0    0  0.29671686478E+02 -0.13804778171E+02  0.15204297439E+02  0.36085336906E+02  0.51100000000E-03 0.  1.
         12    1    3    3    0    0 -0.36338604709E+02  0.17946648523E+02 -0.18534667575E+02  0.44565797283E+02  0.00000000000E+00 0. -1.
</event>
<event>
 7    1  0.2385752E-015  0.9000770E+02  0.7816164E-02  0.1186339E+00
        -11   -1    0    0    0    0  0.00000000000E+00  0.00000000000E+00  0.45593999997E+02  0.45594000000E+02  0.51100000000E-03 0.  1.
         11   -1    0    0    0    0 -0.00000000000E+00 -0.00000000000E+00 -0.45593999997E+02  0.45594000000E+02  0.51100000000E-03 0. -1.
    9900012    2    1    2    0    0  0.38726858491E+00  0.45171982442E+00 -0.10193530753E+01  0.90007699848E+02  0.89999960686E+02 0.  0.
        -12    1    1    2    0    0 -0.38726858491E+00 -0.45171982442E+00  0.10193530753E+01  0.11803001520E+01  0.00000000000E+00 0.  1.
         11    1    3    3    0    0  0.36117599859E+02 -0.84377422961E+01  0.34224917216E+00  0.37091692458E+02  0.51100000000E-03 0. -1.
        -11    1    3    3    0    0  0.63432067547E+01  0.43203121169E+01  0.62727093763E+01  0.99120256204E+01  0.51100000000E-03 0.  1.
        -12    1    3    3    0    0 -0.42073538029E+02  0.45691500036E+01 -0.76343116237E+01  0.43003981769E+02  0.00000000000E+00 0.  1.
</event>
<event>
 7    1  0.2385752E-015  0.9000677E+02  0.7816164E-02  0.1186341E+00
        -11   -1    0    0    0    0  0.00000000000E+00  0.00000000000E+00  0.45593999997E+02  0.45594000000E+02  0.51100000000E-03 0. -1.
         11   -1    0    0    0    0 -0.00000000000E+00 -0.00000000000E+00 -0.45593999997E+02  0.45594000000E+02  0.51100000000E-03 0.  1.
    9900012    2    1    2    0    0 -0.86634237455E+00  0.80063181858E+00  0.61179816763E-01  0.90006770391E+02  0.89999018955E+02 0.  0.
        -12    1    1    2    0    0  0.86634237455E+00 -0.80063181858E+00 -0.61179816763E-01  0.11812296089E+01  0.00000000000E+00 0.  1.
         11    1    3    3    0    0 -0.11259570657E+02  0.77298253445E+00  0.22818602566E+02  0.25457102284E+02  0.51100000000E-03 0. -1.
        -11    1    3    3    0    0 -0.69384702600E+01  0.64553565104E+01  0.17695430283E+02  0.20073421492E+02  0.51100000000E-03 0.  1.
        -12    1    3    3    0    0  0.17331698542E+02 -0.64277072263E+01 -0.40452853032E+02  0.44476246615E+02  0.00000000000E+00 0.  1.
</event>
<event>
 7    1  0.2385752E-015  0.9000782E+02  0.7816164E-02  0.1186339E+00
        -11   -1    0    0    0    0  0.00000000000E+00  0.00000000000E+00  0.45593999997E+02  0.45594000000E+02  0.51100000000E-03 0.  1.
         11   -1    0    0    0    0 -0.00000000000E+00 -0.00000000000E+00 -0.45593999997E+02  0.45594000000E+02  0.51100000000E-03 0. -1.
    9900012    2    1    2    0    0 -0.11750631616E+01  0.10220226594E+00  0.39933237992E-01  0.90007824843E+02  0.90000087331E+02 0.  0.
        -12    1    1    2    0    0  0.11750631616E+01 -0.10220226594E+00 -0.39933237992E-01  0.11801751567E+01  0.00000000000E+00 0.  1.
         11    1    3    3    0    0  0.26130370938E+01  0.89983568911E+01 -0.35884116823E+01  0.10033697636E+02  0.51100000000E-03 0. -1.
        -11    1    3    3    0    0 -0.25722170859E+02  0.27255456833E+02  0.39812530283E+01  0.37687403423E+02  0.51100000000E-03 0.  1.
         12    1    3    3    0    0  0.21934070603E+02 -0.36151611458E+02 -0.35290810799E+00  0.42286723784E+02  0.00000000000E+00 0. -1.
</event>
<event>
 7    1  0.2385752E-015  0.9000791E+02  0.7816164E-02  0.1186339E+00
        -11   -1    0    0    0    0  0.00000000000E+00  0.00000000000E+00  0.45593999997E+02  0.45594000000E+02  0.51100000000E-03 0. -1.
         11   -1    0    0    0    0 -0.00000000000E+00 -0.00000000000E+00 -0.45593999997E+02  0.45594000000E+02  0.51100000000E-03 0.  1.
    9900012    2    1    2    0    0  0.48281553641E+00  0.94476786648E+00  0.51664309691E+00  0.90007907947E+02  0.90000171532E+02 0.  0.
        -12    1    1    2    0    0 -0.48281553641E+00 -0.94476786648E+00 -0.51664309691E+00  0.11800920529E+01  0.00000000000E+00 0.  1.
         11    1    3    3    0    0  0.20652972789E+02 -0.26616020090E+02 -0.20036073465E+02  0.39196964814E+02  0.51100000000E-03 0. -1.
        -11    1    3    3    0    0  0.50043426382E+01 -0.75756919668E+00 -0.32959577605E+01  0.60399250118E+01  0.51100000000E-03 0.  1.
        -12    1    3    3    0    0 -0.25174499891E+02  0.28318357153E+02  0.23848674323E+02  0.44771018121E+02  0.00000000000E+00 0.  1.
</event>
<event>
 7    1  0.2385752E-015  0.9000774E+02  0.7816164E-02  0.1186339E+00
        -11   -1    0    0    0    0  0.00000000000E+00  0.00000000000E+00  0.45593999997E+02  0.45594000000E+02  0.51100000000E-03 0. -1.
         11   -1    0    0    0    0 -0.00000000000E+00 -0.00000000000E+00 -0.45593999997E+02  0.45594000000E+02  0.51100000000E-03 0.  1.
    9900012    2    1    2    0    0  0.26493540999E+00  0.26393339041E+00  0.11194498965E+01  0.90007737454E+02  0.89999998789E+02 0.  0.
        -12    1    1    2    0    0 -0.26493540999E+00 -0.26393339041E+00 -0.11194498965E+01  0.11802625457E+01  0.00000000000E+00 0.  1.
         11    1    3    3    0    0  0.11296706004E+02 -0.18199866300E+01 -0.22877435775E+01  0.11668834081E+02  0.51100000000E-03 0. -1.
        -11    1    3    3    0    0  0.32133499007E+02 -0.73035057690E+01 -0.51221370949E+01  0.33348751755E+02  0.51100000000E-03 0.  1.
         12    1    3    3    0    0 -0.43165269601E+02  0.93874257894E+01  0.85293305689E+01  0.44990151618E+02  0.00000000000E+00 0. -1.
</event>
<event>
 7    1  0.2385752E-015  0.9000752E+02  0.7816164E-02  0.1186339E+00
        -11   -1    0    0    0    0  0.00000000000E+00  0.00000000000E+00  0.45593999997E+02  0.45594000000E+02  0.51100000000E-03 0.  1.
         11   -1    0    0    0    0 -0.00000000000E+00 -0.00000000000E+00 -0.45593999997E+02  0.45594000000E+02  0.51100000000E-03 0. -1.
    9900012    2    1    2    0    0 -0.18435006454E-01 -0.42318305698E+00 -0.11018651750E+01  0.90007521024E+02  0.89999779501E+02 0.  0.
        -12    1    1    2    0    0  0.18435006454E-01  0.42318305698E+00  0.11018651750E+01  0.11804789761E+01  0.00000000000E+00 0.  1.
         11    1    3    3    0    0 -0.24926922742E+02  0.52039016324E+01 -0.18218868241E+02  0.31310688747E+02  0.51100000000E-03 0. -1.
        -11    1    3    3    0    0 -0.40242824948E+01  0.13834473409E+02 -0.72775363076E+01  0.16141562473E+02  0.51100000000E-03 0.  1.
        -12    1    3    3    0    0  0.28932770230E+02 -0.19461558098E+02  0.24394539374E+02  0.42555269804E+02  0.00000000000E+00 0.  1.
</event>
<event>
 7    1  0.2385752E-015  0.9000776E+02  0.7816164E-02  0.1186339E+00
        -11   -1    0    0    0    0  0.00000000000E+00  0.00000000000E+00  0.45593999997E+02  0.45594000000E+02  0.51100000000E-03 0.  1.
         11   -1    0    0    0    0 -0.00000000000E+00 -0.00000000000E+00 -0.45593999997E+02  0.45594000000E+02  0.51100000000E-03 0. -1.
    9900012    2    1    2    0    0 -0.80157322825E+00  0.50886264306E-01 -0.86478314300E+00  0.90007763186E+02  0.90000024860E+02 0.  0.
        -12    1    1    2    0    0  0.80157322825E+00 -0.50886264306E-01  0.86478314300E+00  0.11802368138E+01  0.00000000000E+00 0.  1.
         11    1    3    3    0    0  0.10090799453E+02  0.13396103941E+02 -0.23019873049E+02  0.28481474503E+02  0.51100000000E-03 0. -1.
        -11    1    3    3    0    0  0.86069661094E+01  0.16697732441E+02 -0.11082501383E+01  0.18818138933E+02  0.51100000000E-03 0.  1.
        -12    1    3    3    0    0 -0.19499338791E+02 -0.30042950118E+02  0.23263340044E+02  0.42708149750E+02  0.00000000000E+00 0.  1.
</event>
<event>
 7    1  0.2385752E-015  0.9000780E+02  0.7816164E-02  0.1186339E+00
        -11   -1    0    0    0    0  0.00000000000E+00  0.00000000000E+00  0.45593999997E+02  0.45594000000E+02  0.51100000000E-03 0.  1.
         11   -1    0    0    0    0 -0.00000000000E+00 -0.00000000000E+00 -0.45593999997E+02  0.45594000000E+02  0.51100000000E-03 0. -1.
    9900012    2    1    2    0    0 -0.38060481974E+00 -0.78837605880E+00  0.79150092529E+00  0.90007800630E+02  0.90000062798E+02 0.  0.
        -12    1    1    2    0    0  0.38060481974E+00  0.78837605880E+00 -0.79150092529E+00  0.11801993703E+01  0.00000000000E+00 0.  1.
         11    1    3    3    0    0 -0.38745884837E+01  0.20794264286E+01 -0.35371540021E+02  0.35643825467E+02  0.51100000000E-03 0. -1.
        -11    1    3    3    0    0  0.10643560130E+01 -0.76135279512E+01 -0.72844126123E+01  0.10590624578E+02  0.51100000000E-03 0.  1.
        -12    1    3    3    0    0  0.24296276510E+01  0.47457254638E+01  0.43447453559E+02  0.43773350585E+02  0.00000000000E+00 0.  1.
</event>
<event>
 7    1  0.2385752E-015  0.9000776E+02  0.7816164E-02  0.1186339E+00
        -11   -1    0    0    0    0  0.00000000000E+00  0.00000000000E+00  0.45593999997E+02  0.45594000000E+02  0.51100000000E-03 0.  1.
         11   -1    0    0    0    0 -0.00000000000E+00 -0.00000000000E+00 -0.45593999997E+02  0.45594000000E+02  0.51100000000E-03 0. -1.
    9900012    2    1    2    0    0  0.11483032230E+01 -0.13094142803E+00  0.23922934721E+00  0.90007755690E+02  0.90000017266E+02 0.  0.
        -12    1    1    2    0    0 -0.11483032230E+01  0.13094142803E+00 -0.23922934721E+00  0.11802443095E+01  0.00000000000E+00 0.  1.
         11    1    3    3    0    0  0.63553701999E+01 -0.97677063163E+01 -0.44989390606E+01  0.12491567956E+02  0.51100000000E-03 0.  1.
        -11    1    3    3    0    0  0.20664305214E+02 -0.17363719501E+02 -0.19193350582E+02  0.33119434954E+02  0.51100000000E-03 0. -1.
        -12    1    3    3    0    0 -0.25871372190E+02  0.27000484390E+02  0.23931518990E+02  0.44396752780E+02  0.00000000000E+00 0.  1.
</event>
<event>
 7    1  0.2385752E-015  0.9000774E+02  0.7816164E-02  0.1186339E+00
        -11   -1    0    0    0    0  0.00000000000E+00  0.00000000000E+00  0.45593999997E+02  0.45594000000E+02  0.51100000000E-03 0. -1.
         11   -1    0    0    0    0 -0.00000000000E+00 -0.00000000000E+00 -0.45593999997E+02  0.45594000000E+02  0.51100000000E-03 0.  1.
    9900012    2    1    2    0    0 -0.96672237610E+00  0.26424537397E+00  0.62341379902E+00  0.90007736243E+02  0.89999997562E+02 0.  0.
        -12    1    1    2    0    0  0.96672237610E+00 -0.26424537397E+00 -0.62341379902E+00  0.11802637565E+01  0.00000000000E+00 0.  1.
         11    1    3    3    0    0  0.29840788041E+02  0.11839472340E+02 -0.17791563602E+02  0.36704025282E+02  0.51100000000E-03 0. -1.
        -11    1    3    3    0    0  0.84793607521E+01 -0.39064354146E+01  0.23135441235E+00  0.93388072867E+01  0.51100000000E-03 0.  1.
        -12    1    3    3    0    0 -0.39286871170E+02 -0.76687915511E+01  0.18183622989E+02  0.43964903675E+02  0.00000000000E+00 0.  1.
</event>
<event>
 7    1  0.2385752E-015  0.9000664E+02  0.7816164E-02  0.1186341E+00
        -11   -1    0    0    0    0  0.00000000000E+00  0.00000000000E+00  0.45593999997E+02  0.45594000000E+02  0.51100000000E-03 0.  1.
         11   -1    0    0    0    0 -0.00000000000E+00 -0.00000000000E+00 -0.45593999997E+02  0.45594000000E+02  0.51100000000E-03 0. -1.
    9900012    2    1    2    0    0  0.18977642793E+00 -0.76961059458E+00 -0.87594771514E+00  0.90006644863E+02  0.89998891768E+02 0.  0.
        -12    1    1    2    0    0 -0.18977642793E+00  0.76961059458E+00  0.87594771514E+00  0.11813551369E+01  0.00000000000E+00 0.  1.
         11    1    3    3    0    0 -0.14432078806E+01 -0.81189944605E+01 -0.16619212382E+02  0.18552604682E+02  0.51100000000E-03 0. -1.
        -11    1    3    3    0    0 -0.29595650560E+02  0.46836005867E+01 -0.92581009757E+01  0.31361617951E+02  0.51100000000E-03 0.  1.
        -12    1    3    3    0    0  0.31228634869E+02  0.26657832793E+01  0.25001365643E+02  0.40092422230E+02  0.00000000000E+00 0.  1.
</event>
<event>
 7    1  0.2385752E-015  0.9000809E+02  0.7816164E-02  0.1186338E+00
        -11   -1    0    0    0    0  0.00000000000E+00  0.00000000000E+00  0.45593999997E+02  0.45594000000E+02  0.51100000000E-03 0.  1.
         11   -1    0    0    0    0 -0.00000000000E+00 -0.00000000000E+00 -0.45593999997E+02  0.45594000000E+02  0.51100000000E-03 0. -1.
    9900012    2    1    2    0    0 -0.68424558243E-01 -0.11217442046E+01 -0.35945281358E+00  0.90008085467E+02  0.90000351394E+02 0.  0.
        -12    1    1    2    0    0  0.68424558243E-01  0.11217442046E+01  0.35945281358E+00  0.11799145333E+01  0.00000000000E+00 0.  1.
         11    1    3    3    0    0 -0.51330725263E+01  0.77148719936E+01  0.19185594995E+01  0.94630097883E+01  0.51100000000E-03 0. -1.
        -11    1    3    3    0    0  0.20205290896E+02 -0.18717573858E+02  0.31738133245E+02  0.42022737339E+02  0.51100000000E-03 0.  1.
         12    1    3    3    0    0 -0.15140642928E+02  0.98809576593E+01 -0.34016145558E+02  0.38522338340E+02  0.00000000000E+00 0. -1.
</event>
<event>
 7    1  0.2385752E-015  0.9000773E+02  0.7816164E-02  0.1186339E+00
        -11   -1    0    0    0    0  0.00000000000E+00  0.00000000000E+00  0.45593999997E+02  0.45594000000E+02  0.51100000000E-03 0.  1.
         11   -1    0    0    0    0 -0.00000000000E+00 -0.00000000000E+00 -0.45593999997E+02  0.45594000000E+02  0.51100000000E-03 0. -1.
    9900012    2    1    2    0    0  0.11130373344E+01  0.34625184933E+00 -0.18519391004E+00  0.90007729169E+02  0.89999990394E+02 0.  0.
        -12    1    1    2    0    0 -0.11130373344E+01 -0.34625184933E+00  0.18519391004E+00  0.11802708313E+01  0.00000000000E+00 0.  1.
         11    1    3    3    0    0 -0.20675263333E+02  0.20181142779E+02 -0.23903558628E+02  0.37498335338E+02  0.51100000000E-03 0. -1.
        -11    1    3    3    0    0  0.54446025205E+01 -0.10580468323E+00 -0.92639354276E+01  0.10745947660E+02  0.51100000000E-03 0.  1.
        -12    1    3    3    0    0  0.16343698147E+02 -0.19729086247E+02  0.32982300145E+02  0.41763446171E+02  0.00000000000E+00 0.  1.
</event>
<event>
 7    1  0.2385752E-015  0.9000810E+02  0.7816164E-02  0.1186338E+00
        -11   -1    0    0    0    0  0.00000000000E+00  0.00000000000E+00  0.45593999997E+02  0.45594000000E+02  0.51100000000E-03 0.  1.
         11   -1    0    0    0    0 -0.00000000000E+00 -0.00000000000E+00 -0.45593999997E+02  0.45594000000E+02  0.51100000000E-03 0. -1.
    9900012    2    1    2    0    0 -0.58944447051E+00  0.24208036704E+00 -0.99303279204E+00  0.90008100931E+02  0.90000367062E+02 0.  0.
        -12    1    1    2    0    0  0.58944447051E+00 -0.24208036704E+00  0.99303279204E+00  0.11798990694E+01  0.00000000000E+00 0.  1.
         11    1    3    3    0    0  0.27655772205E+01  0.53159292463E+01  0.64500318594E+01  0.88040009293E+01  0.51100000000E-03 0. -1.
        -11    1    3    3    0    0  0.34142300859E+02  0.14174553600E+02  0.48848551563E+01  0.37289093418E+02  0.51100000000E-03 0.  1.
         12    1    3    3    0    0 -0.37497322551E+02 -0.19248402479E+02 -0.12327919808E+02  0.43915006584E+02  0.00000000000E+00 0. -1.
</event>
<event>
 7    1  0.2385752E-015  0.9000772E+02  0.7816164E-02  0.1186339E+00
        -11   -1    0    0    0    0  0.00000000000E+00  0.00000000000E+00  0.45593999997E+02  0.45594000000E+02  0.51100000000E-03 0.  1.
         11   -1    0    0    0    0 -0.00000000000E+00 -0.00000000000E+00 -0.45593999997E+02  0.45594000000E+02  0.51100000000E-03 0. -1.
    9900012    2    1    2    0    0  0.50989688784E+00  0.52981961619E+00 -0.92323043169E+00  0.90007721180E+02  0.89999982300E+02 0.  0.
        -12    1    1    2    0    0 -0.50989688784E+00 -0.52981961619E+00  0.92323043169E+00  0.11802788196E+01  0.00000000000E+00 0.  1.
         11    1    3    3    0    0 -0.86981253742E+01  0.18014994128E+02 -0.31379928312E+02  0.37214208302E+02  0.51100000000E-03 0. -1.
        -11    1    3    3    0    0 -0.45439469671E+01  0.95192810118E+01  0.11067045483E+01  0.10606081286E+02  0.51100000000E-03 0.  1.
        -12    1    3    3    0    0  0.13751969229E+02 -0.27004455523E+02  0.29349993332E+02  0.42187431592E+02  0.00000000000E+00 0.  1.
</event>
<event>
 7    1  0.2385752E-015  0.9000766E+02  0.7816164E-02  0.1186339E+00
        -11   -1    0    0    0    0  0.00000000000E+00  0.00000000000E+00  0.45593999997E+02  0.45594000000E+02  0.51100000000E-03 0.  1.
         11   -1    0    0    0    0 -0.00000000000E+00 -0.00000000000E+00 -0.45593999997E+02  0.45594000000E+02  0.51100000000E-03 0. -1.
    9900012    2    1    2    0    0  0.11637224306E+01 -0.48118636313E-01 -0.19140872425E+00  0.90007659965E+02  0.89999920276E+02 0.  0.
        -12    1    1    2    0    0 -0.11637224306E+01  0.48118636313E-01  0.19140872425E+00  0.11803400351E+01  0.00000000000E+00 0.  1.
         11    1    3    3    0    0 -0.44187923138E+00 -0.35255322098E+01 -0.83709670965E+01  0.90938289520E+01  0.51100000000E-03 0. -1.
        -11    1    3    3    0    0  0.25315354572E+02  0.61119615301E+01  0.35893948460E+02  0.44346350325E+02  0.51100000000E-03 0.  1.
         12    1    3    3    0    0 -0.23709752910E+02 -0.26345479567E+01 -0.27714390087E+02  0.36567480688E+02  0.00000000000E+00 0. -1.
</event>
<event>
 7    1  0.2385752E-015  0.9000775E+02  0.7816164E-02  0.1186339E+00
        -11   -1    0    0    0    0  0.00000000000E+00  0.00000000000E+00  0.45593999997E+02  0.45594000000E+02  0.51100000000E-03 0.  1.
         11   -1    0    0    0    0 -0.00000000000E+00 -0.00000000000E+00 -0.45593999997E+02  0.45594000000E+02  0.51100000000E-03 0. -1.
    9900012    2    1    2    0    0  0.27602748230E+00 -0.45144062154E+00 -0.10549863510E+01  0.90007751718E+02  0.90000013241E+02 0.  0.
        -12    1    1    2    0    0 -0.27602748230E+00  0.45144062154E+00  0.10549863510E+01  0.11802482817E+01  0.00000000000E+00 0.  1.
         11    1    3    3    0    0  0.15867544492E+02  0.22235028756E+02 -0.33597438826E+02  0.43300847196E+02  0.51100000000E-03 0. -1.
        -11    1    3    3    0    0 -0.36208751975E+01 -0.83711528602E+01 -0.83767852387E-01  0.91210720159E+01  0.51100000000E-03 0.  1.
        -12    1    3    3    0    0 -0.11970641812E+02 -0.14315316517E+02  0.32626220327E+02  0.37585832507E+02  0.00000000000E+00 0.  1.
</event>
<event>
 7    1  0.2385752E-015  0.9000786E+02  0.7816164E-02  0.1186339E+00
        -11   -1    0    0    0    0  0.00000000000E+00  0.00000000000E+00  0.45593999997E+02  0.45594000000E+02  0.51100000000E-03 0. -1.
         11   -1    0    0    0    0 -0.00000000000E+00 -0.00000000000E+00 -0.45593999997E+02  0.45594000000E+02  0.51100000000E-03 0.  1.
    9900012    2    1    2    0    0 -0.77405719941E+00 -0.17583360484E+00  0.87329798322E+00  0.90007859596E+02  0.90000122543E+02 0.  0.
        -12    1    1    2    0    0  0.77405719941E+00  0.17583360484E+00 -0.87329798322E+00  0.11801404035E+01  0.00000000000E+00 0.  1.
         11    1    3    3    0    0 -0.87394764603E+01  0.50943486842E+01 -0.11210441263E+01  0.10177798264E+02  0.51100000000E-03 0. -1.
        -11    1    3    3    0    0 -0.99959830197E+01  0.14336348066E+02  0.33994671082E+02  0.38224183636E+02  0.51100000000E-03 0.  1.
         12    1    3    3    0    0  0.17961402281E+02 -0.19606530355E+02 -0.32000328973E+02  0.41605877696E+02  0.00000000000E+00 0. -1.
</event>
<event>
 7    1  0.2385752E-015  0.9000769E+02  0.7816164E-02  0.1186339E+00
        -11   -1    0    0    0    0  0.00000000000E+00  0.00000000000E+00  0.45593999997E+02  0.45594000000E+02  0.51100000000E-03 0.  1.
         11   -1    0    0    0    0 -0.00000000000E+00 -0.00000000000E+00 -0.45593999997E+02  0.45594000000E+02  0.51100000000E-03 0. -1.
    9900012    2    1    2    0    0  0.49195902493E+00  0.39974699654E+00 -0.99564522250E+00  0.90007690400E+02  0.89999951113E+02 0.  0.
        -12    1    1    2    0    0 -0.49195902493E+00 -0.39974699654E+00  0.99564522250E+00  0.11803096003E+01  0.00000000000E+00 0.  1.
         11    1    3    3    0    0 -0.45678107936E+01 -0.27789631860E+01 -0.46901968801E+01  0.71123469312E+01  0.51100000000E-03 0. -1.
        -11    1    3    3    0    0 -0.24716678971E+02 -0.20406717136E+02 -0.20324355110E+02  0.37952967401E+02  0.51100000000E-03 0.  1.
         12    1    3    3    0    0  0.29776448790E+02  0.23585427318E+02  0.24018906767E+02  0.44942376068E+02  0.00000000000E+00 0. -1.
</event>
<event>
 7    1  0.2944839E-015  0.9000771E+02  0.7816164E-02  0.1186339E+00
        -11   -1    0    0    0    0  0.00000000000E+00  0.00000000000E+00  0.45593999997E+02  0.45594000000E+02  0.51100000000E-03 0. -1.
         11   -1    0    0    0    0 -0.00000000000E+00 -0.00000000000E+00 -0.45593999997E+02  0.45594000000E+02  0.51100000000E-03 0.  1.
    9900012    2    1    2    0    0  0.10614448453E+01  0.49532725638E+00 -0.14513804052E+00  0.90007712196E+02  0.89999973197E+02 0.  0.
        -12    1    1    2    0    0 -0.10614448453E+01 -0.49532725638E+00  0.14513804052E+00  0.11802878044E+01  0.00000000000E+00 0.  1.
         11    1    3    3    0    0  0.37095066606E+02 -0.12360894657E+02 -0.70402341120E+01  0.39729089844E+02  0.51100000000E-03 0. -1.
        -11    1    3    3    0    0 -0.24306799866E+01 -0.91973982162E+01  0.93238096523E-01  0.95136235341E+01  0.51100000000E-03 0.  1.
        -12    1    3    3    0    0 -0.33602941774E+02  0.22053620129E+02  0.68018579750E+01  0.40764998818E+02  0.00000000000E+00 0.  1.
</event>
<event>
 7    1  0.2385752E-015  0.9000785E+02  0.7816164E-02  0.1186339E+00
        -11   -1    0    0    0    0  0.00000000000E+00  0.00000000000E+00  0.45593999997E+02  0.45594000000E+02  0.51100000000E-03 0.  1.
         11   -1    0    0    0    0 -0.00000000000E+00 -0.00000000000E+00 -0.45593999997E+02  0.45594000000E+02  0.51100000000E-03 0. -1.
    9900012    2    1    2    0    0  0.84358929127E+00 -0.27717263235E+00 -0.77735883457E+00  0.90007849875E+02  0.90000112693E+02 0.  0.
        -12    1    1    2    0    0 -0.84358929127E+00  0.27717263235E+00  0.77735883457E+00  0.11801501253E+01  0.00000000000E+00 0.  1.
         11    1    3    3    0    0  0.16898252056E+02  0.20893413686E+02 -0.34646109666E+02  0.43845622053E+02  0.51100000000E-03 0. -1.
        -11    1    3    3    0    0 -0.29300578202E+00 -0.27721644416E+00 -0.18432355468E+01  0.18868542305E+01  0.51100000000E-03 0.  1.
        -12    1    3    3    0    0 -0.15761656982E+02 -0.20893369875E+02  0.35711986378E+02  0.44275373591E+02  0.00000000000E+00 0.  1.
</event>
<event>
 7    1  0.2385752E-015  0.9000786E+02  0.7816164E-02  0.1186339E+00
        -11   -1    0    0    0    0  0.00000000000E+00  0.00000000000E+00  0.45593999997E+02  0.45594000000E+02  0.51100000000E-03 0.  1.
         11   -1    0    0    0    0 -0.00000000000E+00 -0.00000000000E+00 -0.45593999997E+02  0.45594000000E+02  0.51100000000E-03 0. -1.
    9900012    2    1    2    0    0  0.51570014291E+00 -0.99283773195E+00 -0.37557551277E+00  0.90007860023E+02  0.90000122975E+02 0.  0.
        -12    1    1    2    0    0 -0.51570014291E+00  0.99283773195E+00  0.37557551277E+00  0.11801399769E+01  0.00000000000E+00 0.  1.
         11    1    3    3    0    0 -0.33247061200E+02 -0.16413855592E+02  0.77097584695E+00  0.37086063930E+02  0.51100000000E-03 0. -1.
        -11    1    3    3    0    0 -0.88305968179E+00 -0.99013712629E+01  0.72990156531E+00  0.99674321589E+01  0.51100000000E-03 0.  1.
        -12    1    3    3    0    0  0.34645821024E+02  0.25322389123E+02 -0.18764529250E+01  0.42954363934E+02  0.00000000000E+00 0.  1.
</event>
<event>
 7    1  0.2385752E-015  0.9000781E+02  0.7816164E-02  0.1186339E+00
        -11   -1    0    0    0    0  0.00000000000E+00  0.00000000000E+00  0.45593999997E+02  0.45594000000E+02  0.51100000000E-03 0.  1.
         11   -1    0    0    0    0 -0.00000000000E+00 -0.00000000000E+00 -0.45593999997E+02  0.45594000000E+02  0.51100000000E-03 0. -1.
    9900012    2    1    2    0    0 -0.95429184370E+00  0.69327616103E+00  0.39234506776E-01  0.90007811835E+02  0.90000074151E+02 0.  0.
        -12    1    1    2    0    0  0.95429184370E+00 -0.69327616103E+00 -0.39234506776E-01  0.11801881650E+01  0.00000000000E+00 0.  1.
         11    1    3    3    0    0  0.60672447881E+01 -0.38690281796E+02 -0.99677643787E+01  0.40411702411E+02  0.51100000000E-03 0. -1.
        -11    1    3    3    0    0 -0.46411933724E+01  0.25254722400E+01 -0.71339468889E+01  0.88776057825E+01  0.51100000000E-03 0.  1.
        -12    1    3    3    0    0 -0.23803432594E+01  0.36858085717E+02  0.17140945774E+02  0.40718503641E+02  0.00000000000E+00 0.  1.
</event>
<event>
 7    1  0.2385752E-015  0.9000774E+02  0.7816164E-02  0.1186339E+00
        -11   -1    0    0    0    0  0.00000000000E+00  0.00000000000E+00  0.45593999997E+02  0.45594000000E+02  0.51100000000E-03 0. -1.
         11   -1    0    0    0    0 -0.00000000000E+00 -0.00000000000E+00 -0.45593999997E+02  0.45594000000E+02  0.51100000000E-03 0.  1.
    9900012    2    1    2    0    0  0.24586087480E+00  0.66158714737E+00  0.94598012845E+00  0.90007735823E+02  0.89999997136E+02 0.  0.
        -12    1    1    2    0    0 -0.24586087480E+00 -0.66158714737E+00 -0.94598012845E+00  0.11802641767E+01  0.00000000000E+00 0.  1.
         11    1    3    3    0    0 -0.70095051505E+01  0.23405173945E+01  0.48689948985E+01  0.88497624664E+01  0.51100000000E-03 0. -1.
        -11    1    3    3    0    0 -0.23048021795E+02 -0.23886643016E+01 -0.32222713797E+02  0.39689045220E+02  0.51100000000E-03 0.  1.
         12    1    3    3    0    0  0.30303387820E+02  0.70973405452E+00  0.28299699027E+02  0.41468928137E+02  0.00000000000E+00 0. -1.
</event>
<event>
 7    1  0.2385752E-015  0.9000772E+02  0.7816164E-02  0.1186339E+00
        -11   -1    0    0    0    0  0.00000000000E+00  0.00000000000E+00  0.45593999997E+02  0.45594000000E+02  0.51100000000E-03 0.  1.
         11   -1    0    0    0    0 -0.00000000000E+00 -0.00000000000E+00 -0.45593999997E+02  0.45594000000E+02  0.51100000000E-03 0. -1.
    9900012    2    1    2    0    0  0.60491797411E+00  0.49440274572E+00 -0.88469888106E+00  0.90007723786E+02  0.89999984940E+02 0.  0.
        -12    1    1    2    0    0 -0.60491797411E+00 -0.49440274572E+00  0.88469888106E+00  0.11802762137E+01  0.00000000000E+00 0.  1.
         11    1    3    3    0    0  0.16348565922E+02  0.33488826404E+02  0.23097273648E+02  0.43843598756E+02  0.51100000000E-03 0. -1.
        -11    1    3    3    0    0  0.35745222422E+00 -0.10047088050E+02 -0.13657103553E+01  0.10145783134E+02  0.51100000000E-03 0.  1.
        -12    1    3    3    0    0 -0.16101100172E+02 -0.22947335609E+02 -0.22616262173E+02  0.36018341896E+02  0.00000000000E+00 0.  1.
</event>
<event>
 7    1  0.2385752E-015  0.9000775E+02  0.7816164E-02  0.1186339E+00
        -11   -1    0    0    0    0  0.00000000000E+00  0.00000000000E+00  0.45593999997E+02  0.45594000000E+02  0.51100000000E-03 0. -1.
         11   -1    0    0    0    0 -0.00000000000E+00 -0.00000000000E+00 -0.45593999997E+02  0.45594000000E+02  0.51100000000E-03 0.  1.
    9900012    2    1    2    0    0 -0.43634691353E+00 -0.42712451971E+00  0.10100324690E+01  0.90007745971E+02  0.90000007418E+02 0.  0.
        -12    1    1    2    0    0  0.43634691353E+00  0.42712451971E+00 -0.10100324690E+01  0.11802540289E+01  0.00000000000E+00 0.  1.
         11    1    3    3    0    0  0.34246868882E+02 -0.12449237490E+02 -0.11586255273E+02  0.38237061261E+02  0.51100000000E-03 0. -1.
        -11    1    3    3    0    0  0.83387297698E+00  0.89857427025E+01 -0.66969835722E+01  0.11237815859E+02  0.51100000000E-03 0.  1.
        -12    1    3    3    0    0 -0.35517088773E+02  0.30363702676E+01  0.19293271314E+02  0.40532868851E+02  0.00000000000E+00 0.  1.
</event>
<event>
 7    1  0.2385752E-015  0.9000775E+02  0.7816164E-02  0.1186339E+00
        -11   -1    0    0    0    0  0.00000000000E+00  0.00000000000E+00  0.45593999997E+02  0.45594000000E+02  0.51100000000E-03 0.  1.
         11   -1    0    0    0    0 -0.00000000000E+00 -0.00000000000E+00 -0.45593999997E+02  0.45594000000E+02  0.51100000000E-03 0. -1.
    9900012    2    1    2    0    0 -0.28914424840E+00  0.11107916960E+01 -0.27481757710E+00  0.90007751175E+02  0.90000012690E+02 0.  0.
        -12    1    1    2    0    0  0.28914424840E+00 -0.11107916960E+01  0.27481757710E+00  0.11802488251E+01  0.00000000000E+00 0.  1.
         11    1    3    3    0    0 -0.63952196461E+01 -0.28029774133E+01 -0.75374037965E+01  0.10274627631E+02  0.51100000000E-03 0. -1.
        -11    1    3    3    0    0  0.24093505795E+02  0.34680994950E+02 -0.38434927931E+01  0.42403312009E+02  0.51100000000E-03 0.  1.
         12    1    3    3    0    0 -0.17987430398E+02 -0.30767225840E+02  0.11106079012E+02  0.37329811535E+02  0.00000000000E+00 0. -1.
</event>
<event>
 7    1  0.2385752E-015  0.9000776E+02  0.7816164E-02  0.1186339E+00
        -11   -1    0    0    0    0  0.00000000000E+00  0.00000000000E+00  0.45593999997E+02  0.45594000000E+02  0.51100000000E-03 0.  1.
         11   -1    0    0    0    0 -0.00000000000E+00 -0.00000000000E+00 -0.45593999997E+02  0.45594000000E+02  0.51100000000E-03 0. -1.
    9900012    2    1    2    0    0 -0.43290786946E+00 -0.33508484409E+00 -0.10455966788E+01  0.90007761257E+02  0.90000022905E+02 0.  0.
        -12    1    1    2    0    0  0.43290786946E+00  0.33508484409E+00  0.10455966788E+01  0.11802387432E+01  0.00000000000E+00 0.  1.
         11    1    3    3    0    0 -0.29407670949E+01 -0.86541331461E+01 -0.59210760787E+01  0.10890421195E+02  0.51100000000E-03 0. -1.
        -11    1    3    3    0    0 -0.31766496502E+02 -0.16817291704E+02  0.67523103826E+01  0.36572192935E+02  0.51100000000E-03 0.  1.
         12    1    3    3    0    0  0.34274355728E+02  0.25136340007E+02 -0.18768309827E+01  0.42545147127E+02  0.00000000000E+00 0. -1.
</event>
<event>
 7    1  0.2385752E-015  0.9000772E+02  0.7816164E-02  0.1186339E+00
        -11   -1    0    0    0    0  0.00000000000E+00  0.00000000000E+00  0.45593999997E+02  0.45594000000E+02  0.51100000000E-03 0.  1.
         11   -1    0    0    0    0 -0.00000000000E+00 -0.00000000000E+00 -0.45593999997E+02  0.45594000000E+02  0.51100000000E-03 0. -1.
    9900012    2    1    2    0    0 -0.14127762043E+00 -0.11384731013E+01 -0.27745725332E+00  0.90007719145E+02  0.89999980238E+02 0.  0.
        -12    1    1    2    0    0  0.14127762043E+00  0.11384731013E+01  0.27745725332E+00  0.11802808546E+01  0.00000000000E+00 0.  1.
         11    1    3    3    0    0  0.19598666465E+01 -0.92158462082E+01  0.61380760616E+00  0.94419096926E+01  0.51100000000E-03 0. -1.
        -11    1    3    3    0    0  0.28259672973E+02 -0.19277125752E+02 -0.14972600671E+02  0.37341605012E+02  0.51100000000E-03 0.  1.
         12    1    3    3    0    0 -0.30360817240E+02  0.27354498859E+02  0.14081335811E+02  0.43224204440E+02  0.00000000000E+00 0. -1.
</event>
<event>
 7    1  0.2385752E-015  0.9000751E+02  0.7816164E-02  0.1186339E+00
        -11   -1    0    0    0    0  0.00000000000E+00  0.00000000000E+00  0.45593999997E+02  0.45594000000E+02  0.51100000000E-03 0.  1.
         11   -1    0    0    0    0 -0.00000000000E+00 -0.00000000000E+00 -0.45593999997E+02  0.45594000000E+02  0.51100000000E-03 0. -1.
    9900012    2    1    2    0    0  0.15606441992E+00 -0.89897745779E+00 -0.74902169688E+00  0.90007512781E+02  0.89999771149E+02 0.  0.
        -12    1    1    2    0    0 -0.15606441992E+00  0.89897745779E+00  0.74902169688E+00  0.11804872194E+01  0.00000000000E+00 0.  1.
         11    1    3    3    0    0 -0.63271134317E+01 -0.91036489178E+00 -0.66199306683E+01  0.92024241876E+01  0.51100000000E-03 0. -1.
        -11    1    3    3    0    0  0.46291427032E+00  0.35799017549E+02  0.20978525356E+02  0.41495571734E+02  0.51100000000E-03 0.  1.
         12    1    3    3    0    0  0.60202635813E+01 -0.35787630116E+02 -0.15107616385E+02  0.39309516859E+02  0.00000000000E+00 0. -1.
</event>
<event>
 7    1  0.2385752E-015  0.9000773E+02  0.7816164E-02  0.1186339E+00
        -11   -1    0    0    0    0  0.00000000000E+00  0.00000000000E+00  0.45593999997E+02  0.45594000000E+02  0.51100000000E-03 0. -1.
         11   -1    0    0    0    0 -0.00000000000E+00 -0.00000000000E+00 -0.45593999997E+02  0.45594000000E+02  0.51100000000E-03 0.  1.
    9900012    2    1    2    0    0 -0.13014763795E+00 -0.10557899804E+01  0.51128072377E+00  0.90007729324E+02  0.89999990551E+02 0.  0.
        -12    1    1    2    0    0  0.13014763795E+00  0.10557899804E+01 -0.51128072377E+00  0.11802706761E+01  0.00000000000E+00 0.  1.
         11    1    3    3    0    0 -0.69788001729E+01 -0.95238746555E+01 -0.78890991648E+00  0.11833436501E+02  0.51100000000E-03 0. -1.
        -11    1    3    3    0    0 -0.18148640216E+02 -0.22279737182E+02 -0.18194422918E+02  0.34011716454E+02  0.51100000000E-03 0.  1.
         12    1    3    3    0    0  0.24997292751E+02  0.30747821857E+02  0.19494613558E+02  0.44162576369E+02  0.00000000000E+00 0. -1.
</event>
<event>
 7    1  0.2385752E-015  0.9000775E+02  0.7816164E-02  0.1186339E+00
        -11   -1    0    0    0    0  0.00000000000E+00  0.00000000000E+00  0.45593999997E+02  0.45594000000E+02  0.51100000000E-03 0. -1.
         11   -1    0    0    0    0 -0.00000000000E+00 -0.00000000000E+00 -0.45593999997E+02  0.45594000000E+02  0.51100000000E-03 0.  1.
    9900012    2    1    2    0    0 -0.64344259043E-01 -0.80466264257E+00  0.86102236855E+00  0.90007753555E+02  0.90000015102E+02 0.  0.
        -12    1    1    2    0    0  0.64344259043E-01  0.80466264257E+00 -0.86102236855E+00  0.11802464451E+01  0.00000000000E+00 0.  1.
         11    1    3    3    0    0 -0.11087288708E+02  0.16044197440E+01 -0.41611827088E+01  0.11950630754E+02  0.51100000000E-03 0. -1.
        -11    1    3    3    0    0  0.22534931504E+01 -0.51277261713E+01 -0.35789658051E+02  0.36225287172E+02  0.51100000000E-03 0.  1.
         12    1    3    3    0    0  0.87694512988E+01  0.27186437848E+01  0.40811863128E+02  0.41831835629E+02  0.00000000000E+00 0. -1.
</event>
<event>
 7    1  0.2385752E-015  0.9000775E+02  0.7816164E-02  0.1186339E+00
        -11   -1    0    0    0    0  0.00000000000E+00  0.00000000000E+00  0.45593999997E+02  0.45594000000E+02  0.51100000000E-03 0.  1.
         11   -1    0    0    0    0 -0.00000000000E+00 -0.00000000000E+00 -0.45593999997E+02  0.45594000000E+02  0.51100000000E-03 0. -1.
    9900012    2    1    2    0    0  0.65754721240E+00  0.94150095794E+00  0.27240271048E+00  0.90007747643E+02  0.90000009112E+02 0.  0.
        -12    1    1    2    0    0 -0.65754721240E+00 -0.94150095794E+00 -0.27240271048E+00  0.11802523573E+01  0.00000000000E+00 0.  1.
         11    1    3    3    0    0  0.63238989522E+01 -0.16653462871E+02  0.32300594253E+02  0.36887096835E+02  0.51100000000E-03 0. -1.
        -11    1    3    3    0    0 -0.39147882139E+01 -0.12004512247E+02 -0.79159433327E+01  0.14902886974E+02  0.51100000000E-03 0.  1.
        -12    1    3    3    0    0 -0.17515635259E+01  0.29599476075E+02 -0.24112248210E+02  0.38217763834E+02  0.00000000000E+00 0.  1.
</event>
<event>
 7    1  0.2385752E-015  0.9000771E+02  0.7816164E-02  0.1186339E+00
        -11   -1    0    0    0    0  0.00000000000E+00  0.00000000000E+00  0.45593999997E+02  0.45594000000E+02  0.51100000000E-03 0.  1.
         11   -1    0    0    0    0 -0.00000000000E+00 -0.00000000000E+00 -0.45593999997E+02  0.45594000000E+02  0.51100000000E-03 0. -1.
    9900012    2    1    2    0    0 -0.11347644244E+01  0.23952554356E+00  0.21911925583E+00  0.90007713580E+02  0.89999974599E+02 0.  0.
        -12    1    1    2    0    0  0.11347644244E+01 -0.23952554356E+00 -0.21911925583E+00  0.11802864200E+01  0.00000000000E+00 0.  1.
         11    1    3    3    0    0 -0.30061016162E+02 -0.24384175880E+00 -0.27778990340E+02  0.40931607055E+02  0.51100000000E-03 0. -1.
        -11    1    3    3    0    0 -0.11503043107E+01 -0.87297011000E+01  0.51840662091E+01  0.10217897241E+02  0.51100000000E-03 0.  1.
        -12    1    3    3    0    0  0.30076556049E+02  0.92130684023E+01  0.22814043387E+02  0.38858209284E+02  0.00000000000E+00 0.  1.
</event>
<event>
 7    1  0.2385752E-015  0.9000790E+02  0.7816164E-02  0.1186339E+00
        -11   -1    0    0    0    0  0.00000000000E+00  0.00000000000E+00  0.45593999997E+02  0.45594000000E+02  0.51100000000E-03 0.  1.
         11   -1    0    0    0    0 -0.00000000000E+00 -0.00000000000E+00 -0.45593999997E+02  0.45594000000E+02  0.51100000000E-03 0. -1.
    9900012    2    1    2    0    0  0.38662670135E+00 -0.11121674648E+01 -0.79023935995E-01  0.90007897692E+02  0.90000161141E+02 0.  0.
        -12    1    1    2    0    0 -0.38662670135E+00  0.11121674648E+01  0.79023935995E-01  0.11801023085E+01  0.00000000000E+00 0.  1.
         11    1    3    3    0    0  0.78439561522E+01 -0.93628840282E+00 -0.68501209774E+01  0.10456024185E+02  0.51100000000E-03 0. -1.
        -11    1    3    3    0    0  0.24594469833E+02 -0.27396048476E+02 -0.80114291320E+00  0.36824899846E+02  0.51100000000E-03 0.  1.
         12    1    3    3    0    0 -0.32051799284E+02  0.27220169414E+02  0.75722399546E+01  0.42726973660E+02  0.00000000000E+00 0. -1.
</event>
<event>
 7    1  0.2385752E-015  0.9000773E+02  0.7816164E-02  0.1186339E+00
        -11   -1    0    0    0    0  0.00000000000E+00  0.00000000000E+00  0.45593999997E+02  0.45594000000E+02  0.51100000000E-03 0.  1.
         11   -1    0    0    0    0 -0.00000000000E+00 -0.00000000000E+00 -0.45593999997E+02  0.45594000000E+02  0.51100000000E-03 0. -1.
    9900012    2    1    2    0    0  0.13565032833E+00 -0.41269081622E+00 -0.10974151672E+01  0.90007731060E+02  0.89999992310E+02 0.  0.
        -12    1    1    2    0    0 -0.13565032833E+00  0.41269081622E+00  0.10974151672E+01  0.11802689399E+01  0.00000000000E+00 0.  1.
         11    1    3    3    0    0 -0.68463598411E+01 -0.22610834270E+01  0.58177023078E+01  0.92644914453E+01  0.51100000000E-03 0. -1.
        -11    1    3    3    0    0 -0.35078023789E+01 -0.37660489450E+02  0.50287792239E+01  0.38156333208E+02  0.51100000000E-03 0.  1.
         12    1    3    3    0    0  0.10489812548E+02  0.39508882060E+02 -0.11943896699E+02  0.42586906407E+02  0.00000000000E+00 0. -1.
</event>
<event>
 7    1  0.2385752E-015  0.9000778E+02  0.7816164E-02  0.1186339E+00
        -11   -1    0    0    0    0  0.00000000000E+00  0.00000000000E+00  0.45593999997E+02  0.45594000000E+02  0.51100000000E-03 0.  1.
         11   -1    0    0    0    0 -0.00000000000E+00 -0.00000000000E+00 -0.45593999997E+02  0.45594000000E+02  0.51100000000E-03 0. -1.
    9900012    2    1    2    0    0  0.37897003653E+00  0.73798621142E+00 -0.83945179179E+00  0.90007779153E+02  0.90000041038E+02 0.  0.
        -12    1    1    2    0    0 -0.37897003653E+00 -0.73798621142E+00  0.83945179179E+00  0.11802208470E+01  0.00000000000E+00 0.  1.
         11    1    3    3    0    0  0.34814652279E+00  0.38465364441E+01  0.76567950038E+01  0.85757541131E+01  0.51100000000E-03 0. -1.
        -11    1    3    3    0    0  0.34090418627E+02 -0.10231722660E+02 -0.24420474138E+02  0.43164850841E+02  0.51100000000E-03 0.  1.
         12    1    3    3    0    0 -0.34059595113E+02  0.71231724268E+01  0.15924227343E+02  0.38267174199E+02  0.00000000000E+00 0. -1.
</event>
<event>
 7    1  0.2385752E-015  0.9000756E+02  0.7816164E-02  0.1186339E+00
        -11   -1    0    0    0    0  0.00000000000E+00  0.00000000000E+00  0.45593999997E+02  0.45594000000E+02  0.51100000000E-03 0.  1.
         11   -1    0    0    0    0 -0.00000000000E+00 -0.00000000000E+00 -0.45593999997E+02  0.45594000000E+02  0.51100000000E-03 0. -1.
    9900012    2    1    2    0    0 -0.61742974134E+00  0.65644970352E+00 -0.76242694708E+00  0.90007559172E+02  0.89999818153E+02 0.  0.
        -12    1    1    2    0    0  0.61742974134E+00 -0.65644970352E+00  0.76242694708E+00  0.11804408280E+01  0.00000000000E+00 0.  1.
         11    1    3    3    0    0  0.27493130776E+01 -0.86040913938E+01  0.24602237699E+01  0.93617205882E+01  0.51100000000E-03 0. -1.
        -11    1    3    3    0    0  0.17043229906E+01  0.80846356976E+01  0.38105586370E+02  0.38991047230E+02  0.51100000000E-03 0.  1.
         12    1    3    3    0    0 -0.50710658095E+01  0.11759053997E+01 -0.41328237087E+02  0.41654791354E+02  0.00000000000E+00 0. -1.
</event>
<event>
 7    1  0.2385752E-015  0.9000765E+02  0.7816164E-02  0.1186339E+00
        -11   -1    0    0    0    0  0.00000000000E+00  0.00000000000E+00  0.45593999997E+02  0.45594000000E+02  0.51100000000E-03 0. -1.
         11   -1    0    0    0    0 -0.00000000000E+00 -0.00000000000E+00 -0.45593999997E+02  0.45594000000E+02  0.51100000000E-03 0.  1.
    9900012    2    1    2    0    0 -0.28938253607E+00  0.49169574352E+00  0.10333019723E+01  0.90007652626E+02  0.89999912841E+02 0.  0.
        -12    1    1    2    0    0  0.28938253607E+00 -0.49169574352E+00 -0.10333019723E+01  0.11803473736E+01  0.00000000000E+00 0.  1.
         11    1    3    3    0    0  0.18999618117E+02 -0.92178905668E+01  0.29861005818E+02  0.36573688136E+02  0.51100000000E-03 0. -1.
        -11    1    3    3    0    0  0.27870839706E+01 -0.17538482960E+01  0.81943801634E+01  0.88312902470E+01  0.51100000000E-03 0.  1.
        -12    1    3    3    0    0 -0.22076084624E+02  0.11463434606E+02 -0.37022084009E+02  0.44602674244E+02  0.00000000000E+00 0.  1.
</event>
<event>
 7    1  0.2385752E-015  0.9000807E+02  0.7816164E-02  0.1186338E+00
        -11   -1    0    0    0    0  0.00000000000E+00  0.00000000000E+00  0.45593999997E+02  0.45594000000E+02  0.51100000000E-03 0.  1.
         11   -1    0    0    0    0 -0.00000000000E+00 -0.00000000000E+00 -0.45593999997E+02  0.45594000000E+02  0.51100000000E-03 0. -1.
    9900012    2    1    2    0    0 -0.18094623093E+00 -0.86064117395E+00 -0.78663302315E+00  0.90008069374E+02  0.90000335089E+02 0.  0.
        -12    1    1    2    0    0  0.18094623093E+00  0.86064117395E+00  0.78663302315E+00  0.11799306259E+01  0.00000000000E+00 0.  1.
         11    1    3    3    0    0  0.84243489511E+01 -0.50698989970E-01 -0.55521513772E+01  0.10089529762E+02  0.51100000000E-03 0. -1.
        -11    1    3    3    0    0 -0.84009392871E+01  0.34566678636E+02  0.20657358126E+02  0.41135842010E+02  0.51100000000E-03 0.  1.
         12    1    3    3    0    0 -0.20435589486E+00 -0.35376620820E+02 -0.15891839772E+02  0.38782697603E+02  0.00000000000E+00 0. -1.
</event>
<event>
 7    1  0.2385752E-015  0.9000766E+02  0.7816164E-02  0.1186339E+00
        -11   -1    0    0    0    0  0.00000000000E+00  0.00000000000E+00  0.45593999997E+02  0.45594000000E+02  0.51100000000E-03 0.  1.
         11   -1    0    0    0    0 -0.00000000000E+00 -0.00000000000E+00 -0.45593999997E+02  0.45594000000E+02  0.51100000000E-03 0. -1.
    9900012    2    1    2    0    0 -0.10253154230E+01 -0.45084724096E+00  0.37238716127E+00  0.90007658037E+02  0.89999918323E+02 0.  0.
        -12    1    1    2    0    0  0.10253154230E+01  0.45084724096E+00 -0.37238716127E+00  0.11803419628E+01  0.00000000000E+00 0.  1.
         11    1    3    3    0    0 -0.80912113153E+01 -0.10023875683E+02 -0.33820489251E+02  0.36190762325E+02  0.51100000000E-03 0. -1.
        -11    1    3    3    0    0 -0.46928805053E+01 -0.15366350541E+01 -0.75655794897E+01  0.90345098374E+01  0.51100000000E-03 0.  1.
        -12    1    3    3    0    0  0.11758776398E+02  0.11109663496E+02  0.41758455902E+02  0.44782385875E+02  0.00000000000E+00 0.  1.
</event>
<event>
 7    1  0.2385752E-015  0.9000780E+02  0.7816164E-02  0.1186339E+00
        -11   -1    0    0    0    0  0.00000000000E+00  0.00000000000E+00  0.45593999997E+02  0.45594000000E+02  0.51100000000E-03 0. -1.
         11   -1    0    0    0    0 -0.00000000000E+00 -0.00000000000E+00 -0.45593999997E+02  0.45594000000E+02  0.51100000000E-03 0.  1.
    9900012    2    1    2    0    0  0.23263651089E+00  0.97475130843E+00  0.62339445451E+00  0.90007796414E+02  0.90000058526E+02 0.  0.
        -12    1    1    2    0    0 -0.23263651089E+00 -0.97475130843E+00 -0.62339445451E+00  0.11802035864E+01  0.00000000000E+00 0.  1.
         11    1    3    3    0    0  0.53801257813E+01  0.32355893361E+01 -0.71900650434E+01  0.95452515611E+01  0.51100000000E-03 0. -1.
        -11    1    3    3    0    0 -0.44738490584E+01  0.35568256922E+02 -0.11935626277E+02  0.37783268794E+02  0.51100000000E-03 0.  1.
         12    1    3    3    0    0 -0.67364021194E+00 -0.37829094950E+02  0.19749085775E+02  0.42679276058E+02  0.00000000000E+00 0. -1.
</event>
<event>
 7    1  0.2385752E-015  0.9000773E+02  0.7816164E-02  0.1186339E+00
        -11   -1    0    0    0    0  0.00000000000E+00  0.00000000000E+00  0.45593999997E+02  0.45594000000E+02  0.51100000000E-03 0. -1.
         11   -1    0    0    0    0 -0.00000000000E+00 -0.00000000000E+00 -0.45593999997E+02  0.45594000000E+02  0.51100000000E-03 0.  1.
    9900012    2    1    2    0    0  0.91077529195E+00 -0.12786213284E+00 -0.73971946994E+00  0.90007726620E+02  0.89999987811E+02 0.  0.
        -12    1    1    2    0    0 -0.91077529195E+00  0.12786213284E+00  0.73971946994E+00  0.11802733800E+01  0.00000000000E+00 0.  1.
         11    1    3    3    0    0 -0.16108263937E+02  0.35457322455E+02 -0.17913856360E+02  0.42867285110E+02  0.51100000000E-03 0. -1.
        -11    1    3    3    0    0 -0.34401266716E+01 -0.72556831358E+01  0.72378564685E+01  0.10810456781E+02  0.51100000000E-03 0.  1.
        -12    1    3    3    0    0  0.20459165900E+02 -0.28329501452E+02  0.99362804211E+01  0.36329984730E+02  0.00000000000E+00 0.  1.
</event>
<event>
 7    1  0.2385752E-015  0.9000772E+02  0.7816164E-02  0.1186339E+00
        -11   -1    0    0    0    0  0.00000000000E+00  0.00000000000E+00  0.45593999997E+02  0.45594000000E+02  0.51100000000E-03 0. -1.
         11   -1    0    0    0    0 -0.00000000000E+00 -0.00000000000E+00 -0.45593999997E+02  0.45594000000E+02  0.51100000000E-03 0.  1.
    9900012    2    1    2    0    0  0.83700981056E+00 -0.45104653719E+00  0.69930426941E+00  0.90007722548E+02  0.89999983686E+02 0.  0.
        -12    1    1    2    0    0 -0.83700981056E+00  0.45104653719E+00 -0.69930426941E+00  0.11802774517E+01  0.00000000000E+00 0.  1.
         11    1    3    3    0    0  0.26702422701E+02 -0.23290289368E+02 -0.26133555136E+02  0.44027487564E+02  0.51100000000E-03 0. -1.
        -11    1    3    3    0    0 -0.91729471949E+01  0.14708099614E+01  0.26835409347E+01  0.96699345598E+01  0.51100000000E-03 0.  1.
        -12    1    3    3    0    0 -0.16692465696E+02  0.21368432869E+02  0.24149318471E+02  0.36310300424E+02  0.00000000000E+00 0.  1.
</event>
<event>
 7    1  0.2385752E-015  0.9000769E+02  0.7816164E-02  0.1186339E+00
        -11   -1    0    0    0    0  0.00000000000E+00  0.00000000000E+00  0.45593999997E+02  0.45594000000E+02  0.51100000000E-03 0.  1.
         11   -1    0    0    0    0 -0.00000000000E+00 -0.00000000000E+00 -0.45593999997E+02  0.45594000000E+02  0.51100000000E-03 0. -1.
    9900012    2    1    2    0    0 -0.33596425268E+00  0.86743737216E+00 -0.72650179757E+00  0.90007693076E+02  0.89999953824E+02 0.  0.
        -12    1    1    2    0    0  0.33596425268E+00 -0.86743737216E+00  0.72650179757E+00  0.11803069243E+01  0.00000000000E+00 0.  1.
         11    1    3    3    0    0  0.76654058467E+01 -0.13898683527E+02 -0.34304220451E+02  0.37798298792E+02  0.51100000000E-03 0. -1.
        -11    1    3    3    0    0 -0.51945172413E+01 -0.84474741462E+01 -0.15233979368E+01  0.10033123659E+02  0.51100000000E-03 0.  1.
        -12    1    3    3    0    0 -0.28068528581E+01  0.23213595045E+02  0.35101116591E+02  0.42176270624E+02  0.00000000000E+00 0.  1.
</event>
<event>
 7    1  0.2385752E-015  0.9000770E+02  0.7816164E-02  0.1186339E+00
        -11   -1    0    0    0    0  0.00000000000E+00  0.00000000000E+00  0.45593999997E+02  0.45594000000E+02  0.51100000000E-03 0.  1.
         11   -1    0    0    0    0 -0.00000000000E+00 -0.00000000000E+00 -0.45593999997E+02  0.45594000000E+02  0.51100000000E-03 0. -1.
    9900012    2    1    2    0    0 -0.17543299789E+00  0.10233594799E+01 -0.56130558689E+00  0.90007701172E+02  0.89999962027E+02 0.  0.
        -12    1    1    2    0    0  0.17543299789E+00 -0.10233594799E+01  0.56130558689E+00  0.11802988282E+01  0.00000000000E+00 0.  1.
         11    1    3    3    0    0  0.12245067932E+02  0.23262030660E+02  0.19846871002E+02  0.32938762088E+02  0.51100000000E-03 0. -1.
        -11    1    3    3    0    0 -0.67327771185E+01  0.10232559805E+02  0.70788569078E+01  0.14147288902E+02  0.51100000000E-03 0.  1.
        -12    1    3    3    0    0 -0.56877238118E+01 -0.32471230985E+02 -0.27487033497E+02  0.42921650181E+02  0.00000000000E+00 0.  1.
</event>
<event>
 7    1  0.2385752E-015  0.9000768E+02  0.7816164E-02  0.1186339E+00
        -11   -1    0    0    0    0  0.00000000000E+00  0.00000000000E+00  0.45593999997E+02  0.45594000000E+02  0.51100000000E-03 0.  1.
         11   -1    0    0    0    0 -0.00000000000E+00 -0.00000000000E+00 -0.45593999997E+02  0.45594000000E+02  0.51100000000E-03 0. -1.
    9900012    2    1    2    0    0 -0.35504783262E+00 -0.11211900296E+01 -0.10009821338E+00  0.90007684068E+02  0.89999944698E+02 0.  0.
        -12    1    1    2    0    0  0.35504783262E+00  0.11211900296E+01  0.10009821338E+00  0.11803159316E+01  0.00000000000E+00 0.  1.
         11    1    3    3    0    0 -0.17541032404E+01  0.31685933385E+01  0.61416697558E+01  0.71300048789E+01  0.51100000000E-03 0. -1.
        -11    1    3    3    0    0 -0.15092095415E+02  0.60460577299E+01  0.34271325046E+02  0.37932174717E+02  0.51100000000E-03 0.  1.
         12    1    3    3    0    0  0.16491150823E+02 -0.10335841098E+02 -0.40513093015E+02  0.44945504473E+02  0.00000000000E+00 0. -1.
</event>
<event>
 7    1  0.2385752E-015  0.9000778E+02  0.7816164E-02  0.1186339E+00
        -11   -1    0    0    0    0  0.00000000000E+00  0.00000000000E+00  0.45593999997E+02  0.45594000000E+02  0.51100000000E-03 0.  1.
         11   -1    0    0    0    0 -0.00000000000E+00 -0.00000000000E+00 -0.45593999997E+02  0.45594000000E+02  0.51100000000E-03 0. -1.
    9900012    2    1    2    0    0  0.77955256578E+00  0.80590377900E+00  0.36842282800E+00  0.90007780324E+02  0.90000042224E+02 0.  0.
        -12    1    1    2    0    0 -0.77955256578E+00 -0.80590377900E+00 -0.36842282800E+00  0.11802196762E+01  0.00000000000E+00 0.  1.
         11    1    3    3    0    0 -0.55773687378E+01  0.53911217518E+01  0.53148287072E+00  0.77751983951E+01  0.51100000000E-03 0. -1.
        -11    1    3    3    0    0  0.25002028019E+02  0.31377023214E+02  0.80002041761E+01  0.40909928598E+02  0.51100000000E-03 0.  1.
         12    1    3    3    0    0 -0.18645106715E+02 -0.35962241186E+02 -0.81632642188E+01  0.41322653330E+02  0.00000000000E+00 0. -1.
</event>
<event>
 7    1  0.2385752E-015  0.9000766E+02  0.7816164E-02  0.1186339E+00
        -11   -1    0    0    0    0  0.00000000000E+00  0.00000000000E+00  0.45593999997E+02  0.45594000000E+02  0.51100000000E-03 0. -1.
         11   -1    0    0    0    0 -0.00000000000E+00 -0.00000000000E+00 -0.45593999997E+02  0.45594000000E+02  0.51100000000E-03 0.  1.
    9900012    2    1    2    0    0 -0.31799361272E-01  0.10272217331E+01  0.58051897929E+00  0.90007661924E+02  0.89999922261E+02 0.  0.
        -12    1    1    2    0    0  0.31799361272E-01 -0.10272217331E+01 -0.58051897929E+00  0.11803380760E+01  0.00000000000E+00 0.  1.
         11    1    3    3    0    0 -0.36054765021E+02  0.13817408346E+02 -0.46834497701E+01  0.38894749725E+02  0.51100000000E-03 0. -1.
        -11    1    3    3    0    0 -0.53501581070E+00 -0.39333854606E+01 -0.98151607388E+01  0.10587499407E+02  0.51100000000E-03 0.  1.
        -12    1    3    3    0    0  0.36557981471E+02 -0.88568011524E+01  0.15079129488E+02  0.40525412792E+02  0.00000000000E+00 0.  1.
</event>
<event>
 7    1  0.2385752E-015  0.9000783E+02  0.7816164E-02  0.1186339E+00
        -11   -1    0    0    0    0  0.00000000000E+00  0.00000000000E+00  0.45593999997E+02  0.45594000000E+02  0.51100000000E-03 0.  1.
         11   -1    0    0    0    0 -0.00000000000E+00 -0.00000000000E+00 -0.45593999997E+02  0.45594000000E+02  0.51100000000E-03 0. -1.
    9900012    2    1    2    0    0  0.13066020482E+00  0.76185159895E+00 -0.89180043812E+00  0.90007831381E+02  0.90000093955E+02 0.  0.
        -12    1    1    2    0    0 -0.13066020482E+00 -0.76185159895E+00  0.89180043812E+00  0.11801686190E+01  0.00000000000E+00 0.  1.
         11    1    3    3    0    0  0.37732449956E+00 -0.12184096447E+02 -0.21932657495E+01  0.12385677007E+02  0.51100000000E-03 0. -1.
        -11    1    3    3    0    0  0.70203301465E+01 -0.46398653724E+01  0.36582011242E+02  0.37537407114E+02  0.51100000000E-03 0.  1.
         12    1    3    3    0    0 -0.72669944412E+01  0.17585813418E+02 -0.35280545931E+02  0.40084747261E+02  0.00000000000E+00 0. -1.
</event>
<event>
 7    1  0.2385752E-015  0.9000771E+02  0.7816164E-02  0.1186339E+00
        -11   -1    0    0    0    0  0.00000000000E+00  0.00000000000E+00  0.45593999997E+02  0.45594000000E+02  0.51100000000E-03 0.  1.
         11   -1    0    0    0    0 -0.00000000000E+00 -0.00000000000E+00 -0.45593999997E+02  0.45594000000E+02  0.51100000000E-03 0. -1.
    9900012    2    1    2    0    0  0.80054929128E+00  0.32711643973E+00 -0.80323830382E+00  0.90007713549E+02  0.89999974568E+02 0.  0.
        -12    1    1    2    0    0 -0.80054929128E+00 -0.32711643973E+00  0.80323830382E+00  0.11802864507E+01  0.00000000000E+00 0.  1.
         11    1    3    3    0    0  0.10347164893E+02  0.28371620622E+01  0.38578351185E+01  0.11401587694E+02  0.51100000000E-03 0. -1.
        -11    1    3    3    0    0  0.18303035594E+02 -0.32218479071E+02  0.29815817761E+01  0.37174202557E+02  0.51100000000E-03 0.  1.
         12    1    3    3    0    0 -0.27849651196E+02  0.29708433449E+02 -0.76426551985E+01  0.41431923298E+02  0.00000000000E+00 0. -1.
</event>
<event>
 7    1  0.2385752E-015  0.9000783E+02  0.7816164E-02  0.1186339E+00
        -11   -1    0    0    0    0  0.00000000000E+00  0.00000000000E+00  0.45593999997E+02  0.45594000000E+02  0.51100000000E-03 0. -1.
         11   -1    0    0    0    0 -0.00000000000E+00 -0.00000000000E+00 -0.45593999997E+02  0.45594000000E+02  0.51100000000E-03 0.  1.
    9900012    2    1    2    0    0  0.10121571809E+01  0.16520935212E+00  0.58399345507E+00  0.90007828553E+02  0.90000091090E+02 0.  0.
        -12    1    1    2    0    0 -0.10121571809E+01 -0.16520935212E+00 -0.58399345507E+00  0.11801714470E+01  0.00000000000E+00 0.  1.
         11    1    3    3    0    0  0.42664710983E+01  0.59147383381E+01 -0.78481991084E+01  0.10713595790E+02  0.51100000000E-03 0. -1.
        -11    1    3    3    0    0 -0.18274422588E+02 -0.28692875559E+02 -0.20268643766E+02  0.39598655901E+02  0.51100000000E-03 0.  1.
         12    1    3    3    0    0  0.15020108670E+02  0.22943346573E+02  0.28700836329E+02  0.39695576863E+02  0.00000000000E+00 0. -1.
</event>
<event>
 7    1  0.2385752E-015  0.9000774E+02  0.7816164E-02  0.1186339E+00
        -11   -1    0    0    0    0  0.00000000000E+00  0.00000000000E+00  0.45593999997E+02  0.45594000000E+02  0.51100000000E-03 0.  1.
         11   -1    0    0    0    0 -0.00000000000E+00 -0.00000000000E+00 -0.45593999997E+02  0.45594000000E+02  0.51100000000E-03 0. -1.
    9900012    2    1    2    0    0 -0.12561299212E+00  0.75488104073E+00 -0.89854779236E+00  0.90007740645E+02  0.90000002022E+02 0.  0.
        -12    1    1    2    0    0  0.12561299212E+00 -0.75488104073E+00  0.89854779236E+00  0.11802593548E+01  0.00000000000E+00 0.  1.
         11    1    3    3    0    0 -0.23843441514E+02  0.72938309478E+01 -0.31732784896E+02  0.40356899170E+02  0.51100000000E-03 0. -1.
        -11    1    3    3    0    0 -0.46004269085E+01  0.61806266488E+01  0.80520592598E+01  0.11144493353E+02  0.51100000000E-03 0.  1.
        -12    1    3    3    0    0  0.28318255430E+02 -0.12719576556E+02  0.22782177844E+02  0.38506348122E+02  0.00000000000E+00 0.  1.
</event>
<event>
 7    1  0.2385752E-015  0.9000773E+02  0.7816164E-02  0.1186339E+00
        -11   -1    0    0    0    0  0.00000000000E+00  0.00000000000E+00  0.45593999997E+02  0.45594000000E+02  0.51100000000E-03 0. -1.
         11   -1    0    0    0    0 -0.00000000000E+00 -0.00000000000E+00 -0.45593999997E+02  0.45594000000E+02  0.51100000000E-03 0.  1.
    9900012    2    1    2    0    0 -0.50474238311E+00 -0.10305446453E+01  0.27611777112E+00  0.90007733859E+02  0.89999995146E+02 0.  0.
        -12    1    1    2    0    0  0.50474238311E+00  0.10305446453E+01 -0.27611777112E+00  0.11802661407E+01  0.00000000000E+00 0.  1.
         11    1    3    3    0    0 -0.52607556733E+01  0.28900584273E+02 -0.42868414681E+01  0.29686635573E+02  0.51100000000E-03 0. -1.
        -11    1    3    3    0    0 -0.15911159820E+01  0.12833138909E+02  0.10532777884E+02  0.16678144818E+02  0.51100000000E-03 0.  1.
        -12    1    3    3    0    0  0.63471292722E+01 -0.42764267828E+02 -0.59698186452E+01  0.43642953469E+02  0.00000000000E+00 0.  1.
</event>
<event>
 7    1  0.2385752E-015  0.9000772E+02  0.7816164E-02  0.1186339E+00
        -11   -1    0    0    0    0  0.00000000000E+00  0.00000000000E+00  0.45593999997E+02  0.45594000000E+02  0.51100000000E-03 0.  1.
         11   -1    0    0    0    0 -0.00000000000E+00 -0.00000000000E+00 -0.45593999997E+02  0.45594000000E+02  0.51100000000E-03 0. -1.
    9900012    2    1    2    0    0 -0.67736366497E+00 -0.69215136741E+00 -0.67465350274E+00  0.90007723592E+02  0.89999984744E+02 0.  0.
        -12    1    1    2    0    0  0.67736366497E+00  0.69215136741E+00  0.67465350274E+00  0.11802764078E+01  0.00000000000E+00 0.  1.
         11    1    3    3    0    0 -0.75377714692E+01  0.42744215205E+01  0.12007678550E+01  0.87481724812E+01  0.51100000000E-03 0. -1.
        -11    1    3    3    0    0  0.30509653587E+02  0.26163830446E+02  0.79009664066E+01  0.40961082213E+02  0.51100000000E-03 0.  1.
         12    1    3    3    0    0 -0.23649245783E+02 -0.31130403334E+02 -0.97763877644E+01  0.40298468898E+02  0.00000000000E+00 0. -1.
</event>
<event>
 7    1  0.2385752E-015  0.9000779E+02  0.7816164E-02  0.1186339E+00
        -11   -1    0    0    0    0  0.00000000000E+00  0.00000000000E+00  0.45593999997E+02  0.45594000000E+02  0.51100000000E-03 0.  1.
         11   -1    0    0    0    0 -0.00000000000E+00 -0.00000000000E+00 -0.45593999997E+02  0.45594000000E+02  0.51100000000E-03 0. -1.
    9900012    2    1    2    0    0  0.12459707594E+00  0.11254620805E+01 -0.33273015995E+00  0.90007788712E+02  0.90000050723E+02 0.  0.
        -12    1    1    2    0    0 -0.12459707594E+00 -0.11254620805E+01  0.33273015995E+00  0.11802112884E+01  0.00000000000E+00 0.  1.
         11    1    3    3    0    0 -0.20053401289E+02  0.30988311888E+02 -0.42310204456E+01  0.37152603021E+02  0.51100000000E-03 0. -1.
        -11    1    3    3    0    0  0.88498336783E+00  0.79404980691E+01  0.65488145900E+01  0.10330618468E+02  0.51100000000E-03 0.  1.
        -12    1    3    3    0    0  0.19293014997E+02 -0.37803347877E+02 -0.26505243043E+01  0.42524567222E+02  0.00000000000E+00 0.  1.
</event>
<event>
 7    1  0.2738477E-015  0.9000777E+02  0.7816164E-02  0.1186339E+00
        -11   -1    0    0    0    0  0.00000000000E+00  0.00000000000E+00  0.45593999997E+02  0.45594000000E+02  0.51100000000E-03 0.  1.
         11   -1    0    0    0    0 -0.00000000000E+00 -0.00000000000E+00 -0.45593999997E+02  0.45594000000E+02  0.51100000000E-03 0. -1.
    9900012    2    1    2    0    0 -0.29967982363E+00  0.56042766594E+00 -0.99451460782E+00  0.90007768467E+02  0.90000030211E+02 0.  0.
        -12    1    1    2    0    0  0.29967982363E+00 -0.56042766594E+00  0.99451460782E+00  0.11802315326E+01  0.00000000000E+00 0.  1.
         11    1    3    3    0    0 -0.28619682269E+02 -0.61903575667E+00 -0.22942927035E+02  0.36685791795E+02  0.51100000000E-03 0. -1.
        -11    1    3    3    0    0 -0.96041036834E+01  0.20999163036E+01  0.73539532993E+00  0.98584614721E+01  0.51100000000E-03 0.  1.
        -12    1    3    3    0    0  0.37924106129E+02 -0.92045288103E+00  0.21213017097E+02  0.43463515200E+02  0.00000000000E+00 0.  1.
</event>
<event>
 7    1  0.2385752E-015  0.9000775E+02  0.7816164E-02  0.1186339E+00
        -11   -1    0    0    0    0  0.00000000000E+00  0.00000000000E+00  0.45593999997E+02  0.45594000000E+02  0.51100000000E-03 0.  1.
         11   -1    0    0    0    0 -0.00000000000E+00 -0.00000000000E+00 -0.45593999997E+02  0.45594000000E+02  0.51100000000E-03 0. -1.
    9900012    2    1    2    0    0  0.25736224062E+00  0.73333242972E+00 -0.88824261871E+00  0.90007751414E+02  0.90000012933E+02 0.  0.
        -12    1    1    2    0    0 -0.25736224062E+00 -0.73333242972E+00  0.88824261871E+00  0.11802485861E+01  0.00000000000E+00 0.  1.
         11    1    3    3    0    0  0.10152092095E+02  0.13870037510E+02 -0.98692984592E+01  0.19820342247E+02  0.51100000000E-03 0. -1.
        -11    1    3    3    0    0  0.12040797943E+02  0.10640328680E+02  0.28274237901E+02  0.32521222896E+02  0.51100000000E-03 0.  1.
         12    1    3    3    0    0 -0.21935527798E+02 -0.23777033760E+02 -0.19293182061E+02  0.37666186271E+02  0.00000000000E+00 0. -1.
</event>
<event>
 7    1  0.2385752E-015  0.9000766E+02  0.7816164E-02  0.1186339E+00
        -11   -1    0    0    0    0  0.00000000000E+00  0.00000000000E+00  0.45593999997E+02  0.45594000000E+02  0.51100000000E-03 0.  1.
         11   -1    0    0    0    0 -0.00000000000E+00 -0.00000000000E+00 -0.45593999997E+02  0.45594000000E+02  0.51100000000E-03 0. -1.
    9900012    2    1    2    0    0  0.77215805549E+00  0.89229522534E+00  0.28135724599E-01  0.90007656639E+02  0.89999916906E+02 0.  0.
        -12    1    1    2    0    0 -0.77215805549E+00 -0.89229522534E+00 -0.28135724599E-01  0.11803433614E+01  0.00000000000E+00 0.  1.
         11    1    3    3    0    0  0.34450729370E+02  0.21958643496E+01 -0.26350225776E+02  0.43428204811E+02  0.51100000000E-03 0. -1.
        -11    1    3    3    0    0 -0.61187007012E+01  0.33105359321E+01 -0.14898417696E+01  0.71146170093E+01  0.51100000000E-03 0.  1.
        -12    1    3    3    0    0 -0.27559870614E+02 -0.46141050564E+01  0.27868203270E+02  0.39464834818E+02  0.00000000000E+00 0.  1.
</event>
<event>
 7    1  0.2385752E-015  0.9000777E+02  0.7816164E-02  0.1186339E+00
        -11   -1    0    0    0    0  0.00000000000E+00  0.00000000000E+00  0.45593999997E+02  0.45594000000E+02  0.51100000000E-03 0. -1.
         11   -1    0    0    0    0 -0.00000000000E+00 -0.00000000000E+00 -0.45593999997E+02  0.45594000000E+02  0.51100000000E-03 0.  1.
    9900012    2    1    2    0    0 -0.94330156846E+00 -0.46136572661E+00  0.53875816602E+00  0.90007772673E+02  0.90000034472E+02 0.  0.
        -12    1    1    2    0    0  0.94330156846E+00  0.46136572661E+00 -0.53875816602E+00  0.11802273273E+01  0.00000000000E+00 0.  1.
         11    1    3    3    0    0  0.82023255237E+00  0.12631648059E+01 -0.39377944495E+01  0.42159924282E+01  0.51100000000E-03 0. -1.
        -11    1    3    3    0    0  0.31872578075E+02  0.11919976560E+02 -0.22301095906E+02  0.40685205582E+02  0.51100000000E-03 0.  1.
         12    1    3    3    0    0 -0.33636112196E+02 -0.13644507093E+02  0.26777648522E+02  0.45106574663E+02  0.00000000000E+00 0. -1.
</event>
<event>
 7    1  0.2385752E-015  0.9000777E+02  0.7816164E-02  0.1186339E+00
        -11   -1    0    0    0    0  0.00000000000E+00  0.00000000000E+00  0.45593999997E+02  0.45594000000E+02  0.51100000000E-03 0.  1.
         11   -1    0    0    0    0 -0.00000000000E+00 -0.00000000000E+00 -0.45593999997E+02  0.45594000000E+02  0.51100000000E-03 0. -1.
    9900012    2    1    2    0    0 -0.28867294584E+00 -0.11205928118E+01 -0.23213986361E+00  0.90007767296E+02  0.90000029024E+02 0.  0.
        -12    1    1    2    0    0  0.28867294584E+00  0.11205928118E+01  0.23213986361E+00  0.11802327041E+01  0.00000000000E+00 0.  1.
         11    1    3    3    0    0 -0.70809428209E+01  0.11293799411E+02 -0.14085265861E+02  0.19392894859E+02  0.51100000000E-03 0. -1.
        -11    1    3    3    0    0  0.12970907252E+02  0.24919304162E+02  0.16673563926E+02  0.32668392815E+02  0.51100000000E-03 0.  1.
         12    1    3    3    0    0 -0.61786373770E+01 -0.37333696385E+02 -0.28204379286E+01  0.37946479622E+02  0.00000000000E+00 0. -1.
</event>
<event>
 7    1  0.3344667E-015  0.9000775E+02  0.7816164E-02  0.1186339E+00
        -11   -1    0    0    0    0  0.00000000000E+00  0.00000000000E+00  0.45593999997E+02  0.45594000000E+02  0.51100000000E-03 0.  1.
         11   -1    0    0    0    0 -0.00000000000E+00 -0.00000000000E+00 -0.45593999997E+02  0.45594000000E+02  0.51100000000E-03 0. -1.
    9900012    2    1    2    0    0 -0.92566620135E+00  0.24359207953E+00 -0.69049523748E+00  0.90007754818E+02  0.90000016381E+02 0.  0.
        -12    1    1    2    0    0  0.92566620135E+00 -0.24359207953E+00  0.69049523748E+00  0.11802451824E+01  0.00000000000E+00 0.  1.
         11    1    3    3    0    0 -0.11371902212E+02 -0.11333220734E+02 -0.32546556256E+02  0.36291050915E+02  0.51100000000E-03 0. -1.
        -11    1    3    3    0    0 -0.32321159193E+00  0.28496042890E+00 -0.95025875094E+01  0.95123518551E+01  0.51100000000E-03 0.  1.
        -12    1    3    3    0    0  0.10769447603E+02  0.11291852385E+02  0.41358648527E+02  0.44204352048E+02  0.00000000000E+00 0.  1.
</event>
<event>
 7    1  0.2385752E-015  0.9000779E+02  0.7816164E-02  0.1186339E+00
        -11   -1    0    0    0    0  0.00000000000E+00  0.00000000000E+00  0.45593999997E+02  0.45594000000E+02  0.51100000000E-03 0.  1.
         11   -1    0    0    0    0 -0.00000000000E+00 -0.00000000000E+00 -0.45593999997E+02  0.45594000000E+02  0.51100000000E-03 0. -1.
    9900012    2    1    2    0    0 -0.25572247454E+00  0.38983488395E-01 -0.11515096439E+01  0.90007793172E+02  0.90000055242E+02 0.  0.
        -12    1    1    2    0    0  0.25572247454E+00 -0.38983488395E-01  0.11515096439E+01  0.11802068278E+01  0.00000000000E+00 0.  1.
         11    1    3    3    0    0  0.31758546003E+02  0.14429068914E+01  0.88839651265E+01  0.33009272351E+02  0.51100000000E-03 0. -1.
        -11    1    3    3    0    0  0.11087330922E+02  0.16591049018E+01  0.34553174155E+01  0.11731187269E+02  0.51100000000E-03 0.  1.
        -12    1    3    3    0    0 -0.43101599399E+02 -0.30630283047E+01 -0.13490792186E+02  0.45267333552E+02  0.00000000000E+00 0.  1.
</event>
<event>
 7    1  0.2385752E-015  0.9000762E+02  0.7816164E-02  0.1186339E+00
        -11   -1    0    0    0    0  0.00000000000E+00  0.00000000000E+00  0.45593999997E+02  0.45594000000E+02  0.51100000000E-03 0.  1.
         11   -1    0    0    0    0 -0.00000000000E+00 -0.00000000000E+00 -0.45593999997E+02  0.45594000000E+02  0.51100000000E-03 0. -1.
    9900012    2    1    2    0    0  0.57523943891E+00  0.39023851164E+00 -0.95400215859E+00  0.90007615899E+02  0.89999875628E+02 0.  0.
        -12    1    1    2    0    0 -0.57523943891E+00 -0.39023851164E+00  0.95400215859E+00  0.11803841013E+01  0.00000000000E+00 0.  1.
         11    1    3    3    0    0  0.15652158656E+02 -0.20518895934E+02 -0.24935695078E+02  0.35885986822E+02  0.51100000000E-03 0. -1.
        -11    1    3    3    0    0  0.35304554787E+01 -0.37352374274E+01 -0.80998720343E+01  0.95929162281E+01  0.51100000000E-03 0.  1.
        -12    1    3    3    0    0 -0.18607374696E+02  0.24644371873E+02  0.32081564953E+02  0.44528712848E+02  0.00000000000E+00 0.  1.
</event>
<event>
 7    1  0.2385752E-015  0.9000768E+02  0.7816164E-02  0.1186339E+00
        -11   -1    0    0    0    0  0.00000000000E+00  0.00000000000E+00  0.45593999997E+02  0.45594000000E+02  0.51100000000E-03 0.  1.
         11   -1    0    0    0    0 -0.00000000000E+00 -0.00000000000E+00 -0.45593999997E+02  0.45594000000E+02  0.51100000000E-03 0. -1.
    9900012    2    1    2    0    0  0.70689273563E+00  0.22566823639E+00 -0.91790113957E+00  0.90007675471E+02  0.89999935987E+02 0.  0.
        -12    1    1    2    0    0 -0.70689273563E+00 -0.22566823639E+00  0.91790113957E+00  0.11803245294E+01  0.00000000000E+00 0.  1.
         11    1    3    3    0    0 -0.37792470849E+01 -0.17069919587E+01 -0.10713976141E+02  0.11488507957E+02  0.51100000000E-03 0. -1.
        -11    1    3    3    0    0 -0.28277621366E+02 -0.67035340116E+01 -0.18436086892E+02  0.34415847200E+02  0.51100000000E-03 0.  1.
         12    1    3    3    0    0  0.32763761186E+02  0.86361942067E+01  0.28232161894E+02  0.44103320313E+02  0.00000000000E+00 0. -1.
</event>
<event>
 7    1  0.2385752E-015  0.9000770E+02  0.7816164E-02  0.1186339E+00
        -11   -1    0    0    0    0  0.00000000000E+00  0.00000000000E+00  0.45593999997E+02  0.45594000000E+02  0.51100000000E-03 0.  1.
         11   -1    0    0    0    0 -0.00000000000E+00 -0.00000000000E+00 -0.45593999997E+02  0.45594000000E+02  0.51100000000E-03 0. -1.
    9900012    2    1    2    0    0 -0.10626293300E+01  0.17261132061E+00 -0.48386976547E+00  0.90007701008E+02  0.89999961861E+02 0.  0.
        -12    1    1    2    0    0  0.10626293300E+01 -0.17261132061E+00  0.48386976547E+00  0.11802989922E+01  0.00000000000E+00 0.  1.
         11    1    3    3    0    0 -0.63207817763E+01  0.66102768208E+01  0.36825678162E+01  0.98594801026E+01  0.51100000000E-03 0. -1.
        -11    1    3    3    0    0 -0.90520048135E+01  0.23217303336E+02  0.25625169580E+02  0.35743968465E+02  0.51100000000E-03 0.  1.
         12    1    3    3    0    0  0.14310157260E+02 -0.29654968837E+02 -0.29791607162E+02  0.44404252440E+02  0.00000000000E+00 0. -1.
</event>
<event>
 7    1  0.2385752E-015  0.9000775E+02  0.7816164E-02  0.1186339E+00
        -11   -1    0    0    0    0  0.00000000000E+00  0.00000000000E+00  0.45593999997E+02  0.45594000000E+02  0.51100000000E-03 0. -1.
         11   -1    0    0    0    0 -0.00000000000E+00 -0.00000000000E+00 -0.45593999997E+02  0.45594000000E+02  0.51100000000E-03 0.  1.
    9900012    2    1    2    0    0 -0.87070997424E+00  0.13309710238E+00  0.78558506009E+00  0.90007748084E+02  0.90000009559E+02 0.  0.
        -12    1    1    2    0    0  0.87070997424E+00 -0.13309710238E+00 -0.78558506009E+00  0.11802519157E+01  0.00000000000E+00 0.  1.
         11    1    3    3    0    0 -0.63634770571E+01 -0.58658115065E+01 -0.30112608270E+01  0.91634751550E+01  0.51100000000E-03 0. -1.
        -11    1    3    3    0    0 -0.21255790893E+02 -0.16827732147E+02 -0.23853717425E+02  0.36110677797E+02  0.51100000000E-03 0.  1.
         12    1    3    3    0    0  0.26748557976E+02  0.22826640756E+02  0.27650563312E+02  0.44733595132E+02  0.00000000000E+00 0. -1.
</event>
<event>
 7    1  0.2385752E-015  0.9000777E+02  0.7816164E-02  0.1186339E+00
        -11   -1    0    0    0    0  0.00000000000E+00  0.00000000000E+00  0.45593999997E+02  0.45594000000E+02  0.51100000000E-03 0.  1.
         11   -1    0    0    0    0 -0.00000000000E+00 -0.00000000000E+00 -0.45593999997E+02  0.45594000000E+02  0.51100000000E-03 0. -1.
    9900012    2    1    2    0    0 -0.26146182415E+00  0.60797839762E+00  0.97721214482E+00  0.90007769686E+02  0.90000031446E+02 0.  0.
        -12    1    1    2    0    0  0.26146182415E+00 -0.60797839762E+00 -0.97721214482E+00  0.11802303137E+01  0.00000000000E+00 0.  1.
         11    1    3    3    0    0 -0.16269992732E+02 -0.33705610456E+02 -0.56743914158E+01  0.37854716456E+02  0.51100000000E-03 0. -1.
        -11    1    3    3    0    0  0.39666639701E+01 -0.72125496586E+01  0.30048339056E+01  0.87626664145E+01  0.51100000000E-03 0.  1.
        -12    1    3    3    0    0  0.12041866938E+02  0.41526138513E+02  0.36467696550E+01  0.43390386816E+02  0.00000000000E+00 0.  1.
</event>
<event>
 7    1  0.2385752E-015  0.9000807E+02  0.7816164E-02  0.1186338E+00
        -11   -1    0    0    0    0  0.00000000000E+00  0.00000000000E+00  0.45593999997E+02  0.45594000000E+02  0.51100000000E-03 0.  1.
         11   -1    0    0    0    0 -0.00000000000E+00 -0.00000000000E+00 -0.45593999997E+02  0.45594000000E+02  0.51100000000E-03 0. -1.
    9900012    2    1    2    0    0 -0.15705004942E+00  0.11557415888E+01 -0.17842034882E+00  0.90008069002E+02  0.90000334713E+02 0.  0.
        -12    1    1    2    0    0  0.15705004942E+00 -0.11557415888E+01  0.17842034882E+00  0.11799309976E+01  0.00000000000E+00 0.  1.
         11    1    3    3    0    0 -0.13247187918E+02  0.45034282929E+01 -0.50975635358E+01  0.14891407199E+02  0.51100000000E-03 0. -1.
        -11    1    3    3    0    0  0.33575333469E+01 -0.21318014825E+02  0.33579421413E+02  0.39916266471E+02  0.51100000000E-03 0.  1.
         12    1    3    3    0    0  0.97326045213E+01  0.17970328121E+02 -0.28660278226E+02  0.35200395332E+02  0.00000000000E+00 0. -1.
</event>
<event>
 7    1  0.2385752E-015  0.9000750E+02  0.7816164E-02  0.1186340E+00
        -11   -1    0    0    0    0  0.00000000000E+00  0.00000000000E+00  0.45593999997E+02  0.45594000000E+02  0.51100000000E-03 0. -1.
         11   -1    0    0    0    0 -0.00000000000E+00 -0.00000000000E+00 -0.45593999997E+02  0.45594000000E+02  0.51100000000E-03 0.  1.
    9900012    2    1    2    0    0  0.85222550031E+00  0.76904604885E+00 -0.27544114586E+00  0.90007496737E+02  0.89999754894E+02 0.  0.
        -12    1    1    2    0    0 -0.85222550031E+00 -0.76904604885E+00  0.27544114586E+00  0.11805032628E+01  0.00000000000E+00 0.  1.
         11    1    3    3    0    0  0.25336553959E+02  0.22975263247E+02 -0.13928988506E+02  0.36929939193E+02  0.51100000000E-03 0. -1.
        -11    1    3    3    0    0  0.32439757547E+01  0.13606224218E+01 -0.93747259794E+01  0.10012999527E+02  0.51100000000E-03 0.  1.
        -12    1    3    3    0    0 -0.27728304213E+02 -0.23566839620E+02  0.23028273339E+02  0.43064558017E+02  0.00000000000E+00 0.  1.
</event>
<event>
 7    1  0.2385752E-015  0.9000777E+02  0.7816164E-02  0.1186339E+00
        -11   -1    0    0    0    0  0.00000000000E+00  0.00000000000E+00  0.45593999997E+02  0.45594000000E+02  0.51100000000E-03 0.  1.
         11   -1    0    0    0    0 -0.00000000000E+00 -0.00000000000E+00 -0.45593999997E+02  0.45594000000E+02  0.51100000000E-03 0. -1.
    9900012    2    1    2    0    0 -0.11428776438E+01  0.21777646890E+00 -0.19838715444E+00  0.90007765548E+02  0.90000027253E+02 0.  0.
        -12    1    1    2    0    0  0.11428776438E+01 -0.21777646890E+00  0.19838715444E+00  0.11802344522E+01  0.00000000000E+00 0.  1.
         11    1    3    3    0    0  0.95294934602E+01  0.42613442716E+01 -0.31484222766E+01  0.10903341859E+02  0.51100000000E-03 0. -1.
        -11    1    3    3    0    0  0.32431945069E+02  0.28978312101E+01 -0.91066055826E+01  0.33810630757E+02  0.51100000000E-03 0.  1.
         12    1    3    3    0    0 -0.43104316173E+02 -0.69413990128E+01  0.12056640705E+02  0.45293792931E+02  0.00000000000E+00 0. -1.
</event>
<event>
 7    1  0.2861496E-015  0.9000776E+02  0.7816164E-02  0.1186339E+00
        -11   -1    0    0    0    0  0.00000000000E+00  0.00000000000E+00  0.45593999997E+02  0.45594000000E+02  0.51100000000E-03 0. -1.
         11   -1    0    0    0    0 -0.00000000000E+00 -0.00000000000E+00 -0.45593999997E+02  0.45594000000E+02  0.51100000000E-03 0.  1.
    9900012    2    1    2    0    0  0.85043459005E+00  0.35807749115E+00  0.73587896677E+00  0.90007755815E+02  0.90000017392E+02 0.  0.
        -12    1    1    2    0    0 -0.85043459005E+00 -0.35807749115E+00 -0.73587896677E+00  0.11802441846E+01  0.00000000000E+00 0.  1.
         11    1    3    3    0    0 -0.18366455239E+01 -0.99000471707E+01  0.41369059778E+02  0.42576793068E+02  0.51100000000E-03 0. -1.
        -11    1    3    3    0    0  0.54678722383E+01 -0.46365908122E+01 -0.50882210532E+01  0.87912226068E+01  0.51100000000E-03 0.  1.
        -12    1    3    3    0    0 -0.27807921243E+01  0.14894715474E+02 -0.35544959758E+02  0.38639740140E+02  0.00000000000E+00 0.  1.
</event>
<event>
 7    1  0.2385752E-015  0.9000779E+02  0.7816164E-02  0.1186339E+00
        -11   -1    0    0    0    0  0.00000000000E+00  0.00000000000E+00  0.45593999997E+02  0.45594000000E+02  0.51100000000E-03 0. -1.
         11   -1    0    0    0    0 -0.00000000000E+00 -0.00000000000E+00 -0.45593999997E+02  0.45594000000E+02  0.51100000000E-03 0.  1.
    9900012    2    1    2    0    0  0.92477041544E+00 -0.11353435168E+00  0.72442647167E+00  0.90007794898E+02  0.90000056990E+02 0.  0.
        -12    1    1    2    0    0 -0.92477041544E+00  0.11353435168E+00 -0.72442647167E+00  0.11802051021E+01  0.00000000000E+00 0.  1.
         11    1    3    3    0    0  0.36557667842E+02 -0.14283947167E+02 -0.18424753432E+01  0.39292352187E+02  0.51100000000E-03 0. -1.
        -11    1    3    3    0    0  0.10353752885E+01 -0.25169679385E+01  0.94594845633E+01  0.98432199029E+01  0.51100000000E-03 0.  1.
        -12    1    3    3    0    0 -0.36668272715E+02  0.16687380754E+02 -0.68925827485E+01  0.40872222808E+02  0.00000000000E+00 0.  1.
</event>
<event>
 7    1  0.2385752E-015  0.9000716E+02  0.7816164E-02  0.1186340E+00
        -11   -1    0    0    0    0  0.00000000000E+00  0.00000000000E+00  0.45593999997E+02  0.45594000000E+02  0.51100000000E-03 0.  1.
         11   -1    0    0    0    0 -0.00000000000E+00 -0.00000000000E+00 -0.45593999997E+02  0.45594000000E+02  0.51100000000E-03 0. -1.
    9900012    2    1    2    0    0  0.41004511552E+00 -0.79694143983E+00 -0.76884881942E+00  0.90007160823E+02  0.89999414544E+02 0.  0.
        -12    1    1    2    0    0 -0.41004511552E+00  0.79694143983E+00  0.76884881942E+00  0.11808391772E+01  0.00000000000E+00 0.  1.
         11    1    3    3    0    0  0.28347481416E+02  0.76303119181E+01 -0.29396386200E+02  0.41544540971E+02  0.51100000000E-03 0. -1.
        -11    1    3    3    0    0  0.26189313044E+01  0.42881862501E+01  0.80539311308E+01  0.94927946051E+01  0.51100000000E-03 0.  1.
        -12    1    3    3    0    0 -0.30556367605E+02 -0.12715439608E+02  0.20573606250E+02  0.38969825247E+02  0.00000000000E+00 0.  1.
</event>
<event>
 7    1  0.2385752E-015  0.9000782E+02  0.7816164E-02  0.1186339E+00
        -11   -1    0    0    0    0  0.00000000000E+00  0.00000000000E+00  0.45593999997E+02  0.45594000000E+02  0.51100000000E-03 0.  1.
         11   -1    0    0    0    0 -0.00000000000E+00 -0.00000000000E+00 -0.45593999997E+02  0.45594000000E+02  0.51100000000E-03 0. -1.
    9900012    2    1    2    0    0  0.78210250869E+00  0.18465481520E+00 -0.86431623168E+00  0.90007820233E+02  0.90000082660E+02 0.  0.
        -12    1    1    2    0    0 -0.78210250869E+00 -0.18465481520E+00  0.86431623168E+00  0.11801797673E+01  0.00000000000E+00 0.  1.
         11    1    3    3    0    0 -0.10594433465E+02  0.13224981667E+01 -0.99858611497E+01  0.14618770297E+02  0.51100000000E-03 0. -1.
        -11    1    3    3    0    0  0.22440120997E+02  0.23090622292E+02  0.28058365580E+02  0.42708403709E+02  0.51100000000E-03 0.  1.
         12    1    3    3    0    0 -0.11063585023E+02 -0.24228465643E+02 -0.18936820661E+02  0.32680646226E+02  0.00000000000E+00 0. -1.
</event>
<event>
 7    1  0.2385752E-015  0.9000774E+02  0.7816164E-02  0.1186339E+00
        -11   -1    0    0    0    0  0.00000000000E+00  0.00000000000E+00  0.45593999997E+02  0.45594000000E+02  0.51100000000E-03 0.  1.
         11   -1    0    0    0    0 -0.00000000000E+00 -0.00000000000E+00 -0.45593999997E+02  0.45594000000E+02  0.51100000000E-03 0. -1.
    9900012    2    1    2    0    0 -0.28854519495E+00 -0.33250056409E+00 -0.10950797205E+01  0.90007739627E+02  0.90000000990E+02 0.  0.
        -12    1    1    2    0    0  0.28854519495E+00  0.33250056409E+00  0.10950797205E+01  0.11802603734E+01  0.00000000000E+00 0.  1.
         11    1    3    3    0    0  0.34215780271E+02  0.95554161787E+00 -0.21736911235E+02  0.40547823488E+02  0.51100000000E-03 0. -1.
        -11    1    3    3    0    0 -0.42568734699E+01 -0.51234723395E+01 -0.60040321230E+01  0.89676832319E+01  0.51100000000E-03 0.  1.
        -12    1    3    3    0    0 -0.30247451996E+02  0.38354301575E+01  0.26645863637E+02  0.40492232906E+02  0.00000000000E+00 0.  1.
</event>
<event>
 7    1  0.2540674E-015  0.9000776E+02  0.7816164E-02  0.1186339E+00
        -11   -1    0    0    0    0  0.00000000000E+00  0.00000000000E+00  0.45593999997E+02  0.45594000000E+02  0.51100000000E-03 0. -1.
         11   -1    0    0    0    0 -0.00000000000E+00 -0.00000000000E+00 -0.45593999997E+02  0.45594000000E+02  0.51100000000E-03 0.  1.
    9900012    2    1    2    0    0  0.67913994012E+00 -0.95439473692E+00  0.14445051437E+00  0.90007760057E+02  0.90000021690E+02 0.  0.
        -12    1    1    2    0    0 -0.67913994012E+00  0.95439473692E+00 -0.14445051437E+00  0.11802399431E+01  0.00000000000E+00 0.  1.
         11    1    3    3    0    0 -0.55447851541E+01 -0.28597273305E+02  0.30052351429E+02  0.41853225797E+02  0.51100000000E-03 0. -1.
        -11    1    3    3    0    0  0.86480609427E+01  0.21831640791E+01 -0.15527827322E+00  0.89207216674E+01  0.51100000000E-03 0.  1.
        -12    1    3    3    0    0 -0.24241358484E+01  0.25459714489E+02 -0.29752622642E+02  0.39233812593E+02  0.00000000000E+00 0.  1.
</event>
<event>
 7    1  0.2385752E-015  0.9000772E+02  0.7816164E-02  0.1186339E+00
        -11   -1    0    0    0    0  0.00000000000E+00  0.00000000000E+00  0.45593999997E+02  0.45594000000E+02  0.51100000000E-03 0.  1.
         11   -1    0    0    0    0 -0.00000000000E+00 -0.00000000000E+00 -0.45593999997E+02  0.45594000000E+02  0.51100000000E-03 0. -1.
    9900012    2    1    2    0    0  0.11726978426E+01  0.11030465271E+00 -0.75258481933E-01  0.90007724106E+02  0.89999985264E+02 0.  0.
        -12    1    1    2    0    0 -0.11726978426E+01 -0.11030465271E+00  0.75258481933E-01  0.11802758938E+01  0.00000000000E+00 0.  1.
         11    1    3    3    0    0  0.21358084140E+01 -0.56430835754E+01  0.78400562661E+01  0.98930557633E+01  0.51100000000E-03 0. -1.
        -11    1    3    3    0    0 -0.58033840286E+00  0.12361922923E+02  0.34776418229E+02  0.36912778223E+02  0.51100000000E-03 0.  1.
         12    1    3    3    0    0 -0.38277216852E+00 -0.66085346952E+01 -0.42691732977E+02  0.43201890120E+02  0.00000000000E+00 0. -1.
</event>
<event>
 7    1  0.2385752E-015  0.9000865E+02  0.7816164E-02  0.1186337E+00
        -11   -1    0    0    0    0  0.00000000000E+00  0.00000000000E+00  0.45593999997E+02  0.45594000000E+02  0.51100000000E-03 0. -1.
         11   -1    0    0    0    0 -0.00000000000E+00 -0.00000000000E+00 -0.45593999997E+02  0.45594000000E+02  0.51100000000E-03 0.  1.
    9900012    2    1    2    0    0 -0.20665063876E+00 -0.11604782864E+01 -0.38168516748E-01  0.90008647985E+02  0.90000921334E+02 0.  0.
        -12    1    1    2    0    0  0.20665063876E+00  0.11604782864E+01  0.38168516748E-01  0.11793520150E+01  0.00000000000E+00 0.  1.
         11    1    3    3    0    0 -0.14914178844E+00 -0.10132436379E+02  0.32630385127E+01  0.10645934945E+02  0.51100000000E-03 0. -1.
        -11    1    3    3    0    0  0.15496262506E+02  0.17498961613E+02  0.32134005968E+02  0.39735905036E+02  0.51100000000E-03 0.  1.
         12    1    3    3    0    0 -0.15553771356E+02 -0.85270035196E+01 -0.35435212998E+02  0.39626808004E+02  0.00000000000E+00 0. -1.
</event>
<event>
 7    1  0.2385752E-015  0.9000791E+02  0.7816164E-02  0.1186339E+00
        -11   -1    0    0    0    0  0.00000000000E+00  0.00000000000E+00  0.45593999997E+02  0.45594000000E+02  0.51100000000E-03 0.  1.
         11   -1    0    0    0    0 -0.00000000000E+00 -0.00000000000E+00 -0.45593999997E+02  0.45594000000E+02  0.51100000000E-03 0. -1.
    9900012    2    1    2    0    0  0.69376263448E+00 -0.76940845826E+00 -0.56509080788E+00  0.90007905262E+02  0.90000168812E+02 0.  0.
        -12    1    1    2    0    0 -0.69376263448E+00  0.76940845826E+00  0.56509080788E+00  0.11800947376E+01  0.00000000000E+00 0.  1.
         11    1    3    3    0    0 -0.17624464665E+02 -0.31018057021E+02 -0.14811870475E+02  0.38628139009E+02  0.51100000000E-03 0. -1.
        -11    1    3    3    0    0 -0.24591224831E+01 -0.10880135405E+01 -0.74841690402E+01  0.79525997847E+01  0.51100000000E-03 0.  1.
        -12    1    3    3    0    0  0.20777349783E+02  0.31336662103E+02  0.21730948707E+02  0.43427166468E+02  0.00000000000E+00 0.  1.
</event>
<event>
 7    1  0.2385752E-015  0.9000778E+02  0.7816164E-02  0.1186339E+00
        -11   -1    0    0    0    0  0.00000000000E+00  0.00000000000E+00  0.45593999997E+02  0.45594000000E+02  0.51100000000E-03 0. -1.
         11   -1    0    0    0    0 -0.00000000000E+00 -0.00000000000E+00 -0.45593999997E+02  0.45594000000E+02  0.51100000000E-03 0.  1.
    9900012    2    1    2    0    0 -0.97531867900E+00  0.38457734214E+00  0.54200409628E+00  0.90007781928E+02  0.90000043849E+02 0.  0.
        -12    1    1    2    0    0  0.97531867900E+00 -0.38457734214E+00 -0.54200409628E+00  0.11802180723E+01  0.00000000000E+00 0.  1.
         11    1    3    3    0    0  0.92843382815E+01  0.19468582494E+02  0.30711769422E+02  0.37529154307E+02  0.51100000000E-03 0. -1.
        -11    1    3    3    0    0 -0.57880250751E+01  0.86745860670E+01  0.10300556040E+01  0.10479059715E+02  0.51100000000E-03 0.  1.
        -12    1    3    3    0    0 -0.44716318854E+01 -0.27758591219E+02 -0.31199820930E+02  0.41999567906E+02  0.00000000000E+00 0.  1.
</event>
<event>
 7    1  0.2385752E-015  0.9000785E+02  0.7816164E-02  0.1186339E+00
        -11   -1    0    0    0    0  0.00000000000E+00  0.00000000000E+00  0.45593999997E+02  0.45594000000E+02  0.51100000000E-03 0. -1.
         11   -1    0    0    0    0 -0.00000000000E+00 -0.00000000000E+00 -0.45593999997E+02  0.45594000000E+02  0.51100000000E-03 0.  1.
    9900012    2    1    2    0    0 -0.88068993496E+00 -0.51952558198E+00  0.58927270499E+00  0.90007845810E+02  0.90000108574E+02 0.  0.
        -12    1    1    2    0    0  0.88068993496E+00  0.51952558198E+00 -0.58927270499E+00  0.11801541902E+01  0.00000000000E+00 0.  1.
         11    1    3    3    0    0 -0.15951620993E+02  0.29223348253E+02 -0.16966612186E+02  0.37367421971E+02  0.51100000000E-03 0. -1.
        -11    1    3    3    0    0 -0.47825027650E+01  0.49495955822E+01 -0.32124604152E+01  0.75954414819E+01  0.51100000000E-03 0.  1.
        -12    1    3    3    0    0  0.19853433823E+02 -0.34692469417E+02  0.20768345306E+02  0.45044982357E+02  0.00000000000E+00 0.  1.
</event>
<event>
 7    1  0.2385752E-015  0.9000769E+02  0.7816164E-02  0.1186339E+00
        -11   -1    0    0    0    0  0.00000000000E+00  0.00000000000E+00  0.45593999997E+02  0.45594000000E+02  0.51100000000E-03 0.  1.
         11   -1    0    0    0    0 -0.00000000000E+00 -0.00000000000E+00 -0.45593999997E+02  0.45594000000E+02  0.51100000000E-03 0. -1.
    9900012    2    1    2    0    0  0.21706676309E+00 -0.24306693097E-01 -0.11599246275E+01  0.90007689051E+02  0.89999949746E+02 0.  0.
        -12    1    1    2    0    0 -0.21706676309E+00  0.24306693097E-01  0.11599246275E+01  0.11803109491E+01  0.00000000000E+00 0.  1.
         11    1    3    3    0    0  0.70068556863E+01  0.78293129072E+01  0.22142348746E+01  0.10737644227E+02  0.51100000000E-03 0. -1.
        -11    1    3    3    0    0  0.22332928986E+02  0.21038918398E+02  0.15196337385E+02  0.34239224212E+02  0.51100000000E-03 0.  1.
         12    1    3    3    0    0 -0.29122717909E+02 -0.28892537998E+02 -0.18570496887E+02  0.45030820612E+02  0.00000000000E+00 0. -1.
</event>
<event>
 7    1  0.2385752E-015  0.9000766E+02  0.7816164E-02  0.1186339E+00
        -11   -1    0    0    0    0  0.00000000000E+00  0.00000000000E+00  0.45593999997E+02  0.45594000000E+02  0.51100000000E-03 0. -1.
         11   -1    0    0    0    0 -0.00000000000E+00 -0.00000000000E+00 -0.45593999997E+02  0.45594000000E+02  0.51100000000E-03 0.  1.
    9900012    2    1    2    0    0  0.11185048540E+01 -0.32957609732E+00  0.18308747163E+00  0.90007663381E+02  0.89999923737E+02 0.  0.
        -12    1    1    2    0    0 -0.11185048540E+01  0.32957609732E+00 -0.18308747163E+00  0.11803366192E+01  0.00000000000E+00 0.  1.
         11    1    3    3    0    0  0.31247242580E+02  0.85086535391E+01  0.26497309941E+02  0.41843694725E+02  0.51100000000E-03 0. -1.
        -11    1    3    3    0    0  0.27221802689E+01  0.86010147344E+00 -0.96679780549E+01  0.10080666639E+02  0.51100000000E-03 0.  1.
        -12    1    3    3    0    0 -0.32850917994E+02 -0.96983311098E+01 -0.16646244414E+02  0.38083302017E+02  0.00000000000E+00 0.  1.
</event>
<event>
 7    1  0.2385752E-015  0.9000774E+02  0.7816164E-02  0.1186339E+00
        -11   -1    0    0    0    0  0.00000000000E+00  0.00000000000E+00  0.45593999997E+02  0.45594000000E+02  0.51100000000E-03 0.  1.
         11   -1    0    0    0    0 -0.00000000000E+00 -0.00000000000E+00 -0.45593999997E+02  0.45594000000E+02  0.51100000000E-03 0. -1.
    9900012    2    1    2    0    0 -0.26417493409E+00 -0.10876691941E+01 -0.37442944202E+00  0.90007741520E+02  0.90000002908E+02 0.  0.
        -12    1    1    2    0    0  0.26417493409E+00  0.10876691941E+01  0.37442944202E+00  0.11802584796E+01  0.00000000000E+00 0.  1.
         11    1    3    3    0    0  0.51252190678E+01  0.76666521415E+01  0.53243206362E+01  0.10648653251E+02  0.51100000000E-03 0. -1.
        -11    1    3    3    0    0  0.24529505528E+02 -0.26577666849E+01  0.25655069323E+02  0.35594142038E+02  0.51100000000E-03 0.  1.
         12    1    3    3    0    0 -0.29918899530E+02 -0.60965546507E+01 -0.31353819401E+02  0.43764946232E+02  0.00000000000E+00 0. -1.
</event>
<event>
 7    1  0.2385752E-015  0.9000783E+02  0.7816164E-02  0.1186339E+00
        -11   -1    0    0    0    0  0.00000000000E+00  0.00000000000E+00  0.45593999997E+02  0.45594000000E+02  0.51100000000E-03 0.  1.
         11   -1    0    0    0    0 -0.00000000000E+00 -0.00000000000E+00 -0.45593999997E+02  0.45594000000E+02  0.51100000000E-03 0. -1.
    9900012    2    1    2    0    0 -0.10014200818E+01 -0.29192539507E+00 -0.55203459434E+00  0.90007828483E+02  0.90000091019E+02 0.  0.
        -12    1    1    2    0    0  0.10014200818E+01  0.29192539507E+00  0.55203459434E+00  0.11801715171E+01  0.00000000000E+00 0.  1.
         11    1    3    3    0    0  0.45938966459E+01  0.18945970850E+01 -0.14146238711E+02  0.14993647136E+02  0.51100000000E-03 0. -1.
        -11    1    3    3    0    0 -0.36968333396E+02  0.21115341398E+01 -0.63808309782E+01  0.37574343038E+02  0.51100000000E-03 0.  1.
         12    1    3    3    0    0  0.31373016668E+02 -0.42980566199E+01  0.19975035095E+02  0.37439838309E+02  0.00000000000E+00 0. -1.
</event>
<event>
 7    1  0.2385752E-015  0.9000773E+02  0.7816164E-02  0.1186339E+00
        -11   -1    0    0    0    0  0.00000000000E+00  0.00000000000E+00  0.45593999997E+02  0.45594000000E+02  0.51100000000E-03 0.  1.
         11   -1    0    0    0    0 -0.00000000000E+00 -0.00000000000E+00 -0.45593999997E+02  0.45594000000E+02  0.51100000000E-03 0. -1.
    9900012    2    1    2    0    0  0.23368445754E+00 -0.10713439342E+01  0.43664283353E+00  0.90007727483E+02  0.89999988686E+02 0.  0.
        -12    1    1    2    0    0 -0.23368445754E+00  0.10713439342E+01 -0.43664283353E+00  0.11802725173E+01  0.00000000000E+00 0.  1.
         11    1    3    3    0    0  0.87038706197E+01  0.32943548351E+01 -0.52539955657E+01  0.10687123430E+02  0.51100000000E-03 0. -1.
        -11    1    3    3    0    0  0.22702847760E+02  0.24085767503E+02  0.14615862910E+02  0.36182412047E+02  0.51100000000E-03 0.  1.
         12    1    3    3    0    0 -0.31173033922E+02 -0.28451466273E+02 -0.89252245106E+01  0.43138192006E+02  0.00000000000E+00 0. -1.
</event>
<event>
 7    1  0.2385752E-015  0.9000776E+02  0.7816164E-02  0.1186339E+00
        -11   -1    0    0    0    0  0.00000000000E+00  0.00000000000E+00  0.45593999997E+02  0.45594000000E+02  0.51100000000E-03 0.  1.
         11   -1    0    0    0    0 -0.00000000000E+00 -0.00000000000E+00 -0.45593999997E+02  0.45594000000E+02  0.51100000000E-03 0. -1.
    9900012    2    1    2    0    0  0.52094916249E+00  0.75651217966E+00 -0.74112239247E+00  0.90007762266E+02  0.90000023928E+02 0.  0.
        -12    1    1    2    0    0 -0.52094916249E+00 -0.75651217966E+00  0.74112239247E+00  0.11802377339E+01  0.00000000000E+00 0.  1.
         11    1    3    3    0    0  0.81015061618E+01 -0.44858692949E+01 -0.69228039211E+01  0.11562120905E+02  0.51100000000E-03 0. -1.
        -11    1    3    3    0    0 -0.37066217421E+02 -0.26815821561E+01  0.22884201716E+02  0.43643808784E+02  0.51100000000E-03 0.  1.
         12    1    3    3    0    0  0.29485660422E+02  0.79239636307E+01 -0.16702520187E+02  0.34801832577E+02  0.00000000000E+00 0. -1.
</event>
<event>
 7    1  0.2385752E-015  0.9000782E+02  0.7816164E-02  0.1186339E+00
        -11   -1    0    0    0    0  0.00000000000E+00  0.00000000000E+00  0.45593999997E+02  0.45594000000E+02  0.51100000000E-03 0.  1.
         11   -1    0    0    0    0 -0.00000000000E+00 -0.00000000000E+00 -0.45593999997E+02  0.45594000000E+02  0.51100000000E-03 0. -1.
    9900012    2    1    2    0    0 -0.41550066265E+00 -0.57026614023E+00 -0.94603112154E+00  0.90007822406E+02  0.90000084861E+02 0.  0.
        -12    1    1    2    0    0  0.41550066265E+00  0.57026614023E+00  0.94603112154E+00  0.11801775944E+01  0.00000000000E+00 0.  1.
         11    1    3    3    0    0  0.71962397529E+00  0.73786261092E+01 -0.79809701267E+01  0.10893019157E+02  0.51100000000E-03 0. -1.
        -11    1    3    3    0    0 -0.26827655894E+02 -0.25186709297E+02  0.23899081979E+02  0.43877779862E+02  0.51100000000E-03 0.  1.
         12    1    3    3    0    0  0.25692531256E+02  0.17237817048E+02 -0.16864142974E+02  0.35237023386E+02  0.00000000000E+00 0. -1.
</event>
<event>
 7    1  0.2385752E-015  0.9000773E+02  0.7816164E-02  0.1186339E+00
        -11   -1    0    0    0    0  0.00000000000E+00  0.00000000000E+00  0.45593999997E+02  0.45594000000E+02  0.51100000000E-03 0.  1.
         11   -1    0    0    0    0 -0.00000000000E+00 -0.00000000000E+00 -0.45593999997E+02  0.45594000000E+02  0.51100000000E-03 0. -1.
    9900012    2    1    2    0    0  0.49915542461E+00  0.34301050733E-01 -0.10689685065E+01  0.90007734620E+02  0.89999995917E+02 0.  0.
        -12    1    1    2    0    0 -0.49915542461E+00 -0.34301050733E-01  0.10689685065E+01  0.11802653802E+01  0.00000000000E+00 0.  1.
         11    1    3    3    0    0 -0.66460213715E+01  0.67158297212E+01  0.41809983434E+01  0.10332120611E+02  0.51100000000E-03 0. -1.
        -11    1    3    3    0    0  0.77906722508E+01 -0.39535775587E+02  0.12676994580E+02  0.42243086029E+02  0.51100000000E-03 0.  1.
         12    1    3    3    0    0 -0.64549545472E+00  0.32854246917E+02 -0.17926961430E+02  0.37432527980E+02  0.00000000000E+00 0. -1.
</event>
<event>
 7    1  0.2385752E-015  0.9000773E+02  0.7816164E-02  0.1186339E+00
        -11   -1    0    0    0    0  0.00000000000E+00  0.00000000000E+00  0.45593999997E+02  0.45594000000E+02  0.51100000000E-03 0.  1.
         11   -1    0    0    0    0 -0.00000000000E+00 -0.00000000000E+00 -0.45593999997E+02  0.45594000000E+02  0.51100000000E-03 0. -1.
    9900012    2    1    2    0    0  0.94294550084E-02  0.77195154305E+00 -0.89277328337E+00  0.90007727898E+02  0.89999989106E+02 0.  0.
        -12    1    1    2    0    0 -0.94294550084E-02 -0.77195154305E+00  0.89277328337E+00  0.11802721021E+01  0.00000000000E+00 0.  1.
         11    1    3    3    0    0 -0.69654475593E+01 -0.94189642233E+01  0.33697883031E+01  0.12189742418E+02  0.51100000000E-03 0. -1.
        -11    1    3    3    0    0 -0.26300021927E+02 -0.14406028511E+02  0.13377595486E+02  0.32835725545E+02  0.51100000000E-03 0.  1.
         12    1    3    3    0    0  0.33274898941E+02  0.24596944277E+02 -0.17640157073E+02  0.44982259935E+02  0.00000000000E+00 0. -1.
</event>
<event>
 7    1  0.2385752E-015  0.9000792E+02  0.7816164E-02  0.1186339E+00
        -11   -1    0    0    0    0  0.00000000000E+00  0.00000000000E+00  0.45593999997E+02  0.45594000000E+02  0.51100000000E-03 0. -1.
         11   -1    0    0    0    0 -0.00000000000E+00 -0.00000000000E+00 -0.45593999997E+02  0.45594000000E+02  0.51100000000E-03 0.  1.
    9900012    2    1    2    0    0  0.28371328332E+00  0.45759943386E-01 -0.11445537644E+01  0.90007919274E+02  0.90000183009E+02 0.  0.
        -12    1    1    2    0    0 -0.28371328332E+00 -0.45759943386E-01  0.11445537644E+01  0.11800807257E+01  0.00000000000E+00 0.  1.
         11    1    3    3    0    0  0.87461007368E+01 -0.85562911993E+01 -0.56187856091E+01  0.13463846002E+02  0.51100000000E-03 0. -1.
        -11    1    3    3    0    0 -0.33330377717E+02 -0.16224886558E+02 -0.10224818191E+02  0.38453971575E+02  0.51100000000E-03 0.  1.
         12    1    3    3    0    0  0.24867990263E+02  0.24826937701E+02  0.14699050036E+02  0.38090101697E+02  0.00000000000E+00 0. -1.
</event>
<event>
 7    1  0.2385752E-015  0.9000766E+02  0.7816164E-02  0.1186339E+00
        -11   -1    0    0    0    0  0.00000000000E+00  0.00000000000E+00  0.45593999997E+02  0.45594000000E+02  0.51100000000E-03 0.  1.
         11   -1    0    0    0    0 -0.00000000000E+00 -0.00000000000E+00 -0.45593999997E+02  0.45594000000E+02  0.51100000000E-03 0. -1.
    9900012    2    1    2    0    0 -0.92289179544E+00 -0.33645598110E+00 -0.65442072360E+00  0.90007661753E+02  0.89999922088E+02 0.  0.
        -12    1    1    2    0    0  0.92289179544E+00  0.33645598110E+00  0.65442072360E+00  0.11803382468E+01  0.00000000000E+00 0.  1.
         11    1    3    3    0    0 -0.20558662170E+01 -0.41197396383E+01  0.10443883960E+02  0.11413744041E+02  0.51100000000E-03 0. -1.
        -11    1    3    3    0    0 -0.17310502326E+02 -0.25070586882E+01  0.29082493313E+02  0.33937151495E+02  0.51100000000E-03 0.  1.
         12    1    3    3    0    0  0.18443476748E+02  0.62903423454E+01 -0.40180797997E+02  0.44656766218E+02  0.00000000000E+00 0. -1.
</event>
<event>
 7    1  0.3486907E-015  0.9000772E+02  0.7816164E-02  0.1186339E+00
        -11   -1    0    0    0    0  0.00000000000E+00  0.00000000000E+00  0.45593999997E+02  0.45594000000E+02  0.51100000000E-03 0. -1.
         11   -1    0    0    0    0 -0.00000000000E+00 -0.00000000000E+00 -0.45593999997E+02  0.45594000000E+02  0.51100000000E-03 0.  1.
    9900012    2    1    2    0    0  0.88561250394E-01 -0.33996855914E-01  0.11764648137E+01  0.90007716839E+02  0.89999977902E+02 0.  0.
        -12    1    1    2    0    0 -0.88561250394E-01  0.33996855914E-01 -0.11764648137E+01  0.11802831606E+01  0.00000000000E+00 0.  1.
         11    1    3    3    0    0  0.23921009857E+02 -0.97465809414E+01  0.29689373721E+02  0.39353137929E+02  0.51100000000E-03 0. -1.
        -11    1    3    3    0    0  0.10285270258E+01  0.83817003239E+01  0.42914733794E+01  0.94724607251E+01  0.51100000000E-03 0.  1.
        -12    1    3    3    0    0 -0.24860975632E+02  0.13308837617E+01 -0.32804382287E+02  0.41182118185E+02  0.00000000000E+00 0.  1.
</event>
<event>
 7    1  0.2385752E-015  0.9000772E+02  0.7816164E-02  0.1186339E+00
        -11   -1    0    0    0    0  0.00000000000E+00  0.00000000000E+00  0.45593999997E+02  0.45594000000E+02  0.51100000000E-03 0. -1.
         11   -1    0    0    0    0 -0.00000000000E+00 -0.00000000000E+00 -0.45593999997E+02  0.45594000000E+02  0.51100000000E-03 0.  1.
    9900012    2    1    2    0    0  0.25168341733E+00  0.10862858940E+01  0.38691356362E+00  0.90007718808E+02  0.89999979896E+02 0.  0.
        -12    1    1    2    0    0 -0.25168341733E+00 -0.10862858940E+01 -0.38691356362E+00  0.11802811918E+01  0.00000000000E+00 0.  1.
         11    1    3    3    0    0  0.76270346944E+01  0.15537493619E-01  0.57717983827E+01  0.95648082299E+01  0.51100000000E-03 0. -1.
        -11    1    3    3    0    0  0.22924578812E+02 -0.28693784616E+02  0.40019033313E+01  0.36944347603E+02  0.51100000000E-03 0.  1.
         12    1    3    3    0    0 -0.30299930090E+02  0.29764533016E+02 -0.93867881503E+01  0.43498562975E+02  0.00000000000E+00 0. -1.
</event>
<event>
 7    1  0.2385752E-015  0.9000762E+02  0.7816164E-02  0.1186339E+00
        -11   -1    0    0    0    0  0.00000000000E+00  0.00000000000E+00  0.45593999997E+02  0.45594000000E+02  0.51100000000E-03 0. -1.
         11   -1    0    0    0    0 -0.00000000000E+00 -0.00000000000E+00 -0.45593999997E+02  0.45594000000E+02  0.51100000000E-03 0.  1.
    9900012    2    1    2    0    0 -0.47205479013E+00  0.77414064710E+00  0.75575208510E+00  0.90007622653E+02  0.89999882472E+02 0.  0.
        -12    1    1    2    0    0  0.47205479013E+00 -0.77414064710E+00 -0.75575208510E+00  0.11803773467E+01  0.00000000000E+00 0.  1.
         11    1    3    3    0    0  0.29102476677E+02 -0.61741814041E+01  0.23632487737E+02  0.37994330388E+02  0.51100000000E-03 0. -1.
        -11    1    3    3    0    0 -0.37363885688E+00 -0.73324436929E+01  0.52516034791E+01  0.90268308873E+01  0.51100000000E-03 0.  1.
        -12    1    3    3    0    0 -0.29200892611E+02  0.14280765744E+02 -0.28128339131E+02  0.42986461378E+02  0.00000000000E+00 0.  1.
</event>
<event>
 7    1  0.2385752E-015  0.9000778E+02  0.7816164E-02  0.1186339E+00
        -11   -1    0    0    0    0  0.00000000000E+00  0.00000000000E+00  0.45593999997E+02  0.45594000000E+02  0.51100000000E-03 0.  1.
         11   -1    0    0    0    0 -0.00000000000E+00 -0.00000000000E+00 -0.45593999997E+02  0.45594000000E+02  0.51100000000E-03 0. -1.
    9900012    2    1    2    0    0  0.59221850523E+00  0.10451829439E+00 -0.10155205946E+01  0.90007775907E+02  0.90000037749E+02 0.  0.
        -12    1    1    2    0    0 -0.59221850523E+00 -0.10451829439E+00  0.10155205946E+01  0.11802240930E+01  0.00000000000E+00 0.  1.
         11    1    3    3    0    0  0.32615769113E+02  0.14187203873E+01 -0.21939817036E+02  0.39333913283E+02  0.51100000000E-03 0. -1.
        -11    1    3    3    0    0  0.70446829889E+01 -0.42172611673E+00  0.36916209494E+01  0.79645135963E+01  0.51100000000E-03 0.  1.
        -12    1    3    3    0    0 -0.39068233596E+02 -0.89247597616E+00  0.17232675492E+02  0.42709349027E+02  0.00000000000E+00 0.  1.
</event>
<event>
 7    1  0.2385752E-015  0.9000781E+02  0.7816164E-02  0.1186339E+00
        -11   -1    0    0    0    0  0.00000000000E+00  0.00000000000E+00  0.45593999997E+02  0.45594000000E+02  0.51100000000E-03 0.  1.
         11   -1    0    0    0    0 -0.00000000000E+00 -0.00000000000E+00 -0.45593999997E+02  0.45594000000E+02  0.51100000000E-03 0. -1.
    9900012    2    1    2    0    0 -0.17726143384E+00  0.11339923476E+01  0.27474223192E+00  0.90007812068E+02  0.90000074387E+02 0.  0.
        -12    1    1    2    0    0  0.17726143384E+00 -0.11339923476E+01 -0.27474223192E+00  0.11801879318E+01  0.00000000000E+00 0.  1.
         11    1    3    3    0    0  0.18450576910E+02 -0.19717100742E+02 -0.18446652208E+02  0.32702703680E+02  0.51100000000E-03 0. -1.
        -11    1    3    3    0    0  0.73921083948E+01 -0.88252354824E+01 -0.34732241655E+01  0.12024613682E+02  0.51100000000E-03 0.  1.
        -12    1    3    3    0    0 -0.26019946739E+02  0.29676328572E+02  0.22194618606E+02  0.45280494707E+02  0.00000000000E+00 0.  1.
</event>
<event>
 7    1  0.2385752E-015  0.9000774E+02  0.7816164E-02  0.1186339E+00
        -11   -1    0    0    0    0  0.00000000000E+00  0.00000000000E+00  0.45593999997E+02  0.45594000000E+02  0.51100000000E-03 0. -1.
         11   -1    0    0    0    0 -0.00000000000E+00 -0.00000000000E+00 -0.45593999997E+02  0.45594000000E+02  0.51100000000E-03 0.  1.
    9900012    2    1    2    0    0  0.93951010713E+00 -0.53304434244E+00 -0.47560351344E+00  0.90007739768E+02  0.90000001133E+02 0.  0.
        -12    1    1    2    0    0 -0.93951010713E+00  0.53304434244E+00  0.47560351344E+00  0.11802602316E+01  0.00000000000E+00 0.  1.
         11    1    3    3    0    0  0.25642635772E+02  0.96762333937E+00  0.25119098045E+02  0.35908914647E+02  0.51100000000E-03 0. -1.
        -11    1    3    3    0    0  0.93185311227E+01  0.16642039220E+01  0.25810582498E+01  0.98115472240E+01  0.51100000000E-03 0.  1.
        -12    1    3    3    0    0 -0.34021656787E+02 -0.31648716038E+01 -0.28175759808E+02  0.44287277898E+02  0.00000000000E+00 0.  1.
</event>
<event>
 7    1  0.2385752E-015  0.9000772E+02  0.7816164E-02  0.1186339E+00
        -11   -1    0    0    0    0  0.00000000000E+00  0.00000000000E+00  0.45593999997E+02  0.45594000000E+02  0.51100000000E-03 0.  1.
         11   -1    0    0    0    0 -0.00000000000E+00 -0.00000000000E+00 -0.45593999997E+02  0.45594000000E+02  0.51100000000E-03 0. -1.
    9900012    2    1    2    0    0  0.30256410236E+00 -0.83888589326E+00 -0.77316083420E+00  0.90007723654E+02  0.89999984806E+02 0.  0.
        -12    1    1    2    0    0 -0.30256410236E+00  0.83888589326E+00  0.77316083420E+00  0.11802763462E+01  0.00000000000E+00 0.  1.
         11    1    3    3    0    0  0.85600750285E+01  0.13306025633E+02 -0.31418697872E+02  0.35177546516E+02  0.51100000000E-03 0. -1.
        -11    1    3    3    0    0 -0.91401072629E+01  0.33587094744E+01 -0.78663013170E+01  0.12518034462E+02  0.51100000000E-03 0.  1.
        -12    1    3    3    0    0  0.88259633677E+00 -0.17503621000E+02  0.38511838355E+02  0.42312142677E+02  0.00000000000E+00 0.  1.
</event>
<event>
 7    1  0.2385752E-015  0.9000774E+02  0.7816164E-02  0.1186339E+00
        -11   -1    0    0    0    0  0.00000000000E+00  0.00000000000E+00  0.45593999997E+02  0.45594000000E+02  0.51100000000E-03 0. -1.
         11   -1    0    0    0    0 -0.00000000000E+00 -0.00000000000E+00 -0.45593999997E+02  0.45594000000E+02  0.51100000000E-03 0.  1.
    9900012    2    1    2    0    0  0.79008991791E+00 -0.29154800258E+00  0.82690219032E+00  0.90007741745E+02  0.90000003136E+02 0.  0.
        -12    1    1    2    0    0 -0.79008991791E+00  0.29154800258E+00 -0.82690219032E+00  0.11802582550E+01  0.00000000000E+00 0.  1.
         11    1    3    3    0    0 -0.21465926238E+01 -0.30829025332E+02  0.77971500902E+01  0.31872122813E+02  0.51100000000E-03 0. -1.
        -11    1    3    3    0    0 -0.47337850728E+01 -0.12829770637E+02 -0.15335076588E+01  0.13760936804E+02  0.51100000000E-03 0.  1.
        -12    1    3    3    0    0  0.76704676145E+01  0.43367247966E+02 -0.54367402411E+01  0.44374682129E+02  0.00000000000E+00 0.  1.
</event>
<event>
 7    1  0.2385752E-015  0.9000776E+02  0.7816164E-02  0.1186339E+00
        -11   -1    0    0    0    0  0.00000000000E+00  0.00000000000E+00  0.45593999997E+02  0.45594000000E+02  0.51100000000E-03 0. -1.
         11   -1    0    0    0    0 -0.00000000000E+00 -0.00000000000E+00 -0.45593999997E+02  0.45594000000E+02  0.51100000000E-03 0.  1.
    9900012    2    1    2    0    0 -0.18569762136E+00  0.11191485437E+01  0.32557255791E+00  0.90007756568E+02  0.90000018154E+02 0.  0.
        -12    1    1    2    0    0  0.18569762136E+00 -0.11191485437E+01 -0.32557255791E+00  0.11802434325E+01  0.00000000000E+00 0.  1.
         11    1    3    3    0    0  0.47720276410E+01 -0.22616606125E+01  0.77093253311E+01  0.93445734978E+01  0.51100000000E-03 0. -1.
        -11    1    3    3    0    0 -0.35374554873E+02 -0.20625250859E+02 -0.88213406610E+01  0.41887661152E+02  0.51100000000E-03 0.  1.
         12    1    3    3    0    0  0.30416829611E+02  0.24006060015E+02  0.14375878878E+01  0.38775521918E+02  0.00000000000E+00 0. -1.
</event>
<event>
 7    1  0.2385752E-015  0.9000789E+02  0.7816164E-02  0.1186339E+00
        -11   -1    0    0    0    0  0.00000000000E+00  0.00000000000E+00  0.45593999997E+02  0.45594000000E+02  0.51100000000E-03 0. -1.
         11   -1    0    0    0    0 -0.00000000000E+00 -0.00000000000E+00 -0.45593999997E+02  0.45594000000E+02  0.51100000000E-03 0.  1.
    9900012    2    1    2    0    0  0.10581016410E+01 -0.49636312730E+00 -0.16344540915E+00  0.90007885667E+02  0.90000148958E+02 0.  0.
        -12    1    1    2    0    0 -0.10581016410E+01  0.49636312730E+00  0.16344540915E+00  0.11801143328E+01  0.00000000000E+00 0.  1.
         11    1    3    3    0    0 -0.17883523921E+01 -0.53538326520E+01  0.67904702659E+01  0.88301877124E+01  0.51100000000E-03 0. -1.
        -11    1    3    3    0    0 -0.36563045267E+02 -0.10408422470E+02  0.16351050885E+01  0.38050822678E+02  0.51100000000E-03 0.  1.
         12    1    3    3    0    0  0.39409499300E+02  0.15265891994E+02 -0.85890207636E+01  0.43126875277E+02  0.00000000000E+00 0. -1.
</event>
<event>
 7    1  0.2385752E-015  0.9000775E+02  0.7816164E-02  0.1186339E+00
        -11   -1    0    0    0    0  0.00000000000E+00  0.00000000000E+00  0.45593999997E+02  0.45594000000E+02  0.51100000000E-03 0.  1.
         11   -1    0    0    0    0 -0.00000000000E+00 -0.00000000000E+00 -0.45593999997E+02  0.45594000000E+02  0.51100000000E-03 0. -1.
    9900012    2    1    2    0    0 -0.62139701311E+00  0.86749043572E+00  0.50428621658E+00  0.90007754902E+02  0.90000016466E+02 0.  0.
        -12    1    1    2    0    0  0.62139701311E+00 -0.86749043572E+00 -0.50428621658E+00  0.11802450984E+01  0.00000000000E+00 0.  1.
         11    1    3    3    0    0  0.32660391618E+02 -0.22561141883E+02 -0.17230485178E+02  0.43273501401E+02  0.51100000000E-03 0. -1.
        -11    1    3    3    0    0 -0.98974221913E+01  0.41797296411E+01 -0.15102793666E+01  0.10849426249E+02  0.51100000000E-03 0.  1.
        -12    1    3    3    0    0 -0.23384366440E+02  0.19248902678E+02  0.19245050762E+02  0.35884827252E+02  0.00000000000E+00 0.  1.
</event>
<event>
 7    1  0.2385752E-015  0.9000774E+02  0.7816164E-02  0.1186339E+00
        -11   -1    0    0    0    0  0.00000000000E+00  0.00000000000E+00  0.45593999997E+02  0.45594000000E+02  0.51100000000E-03 0. -1.
         11   -1    0    0    0    0 -0.00000000000E+00 -0.00000000000E+00 -0.45593999997E+02  0.45594000000E+02  0.51100000000E-03 0.  1.
    9900012    2    1    2    0    0  0.11732522739E+01 -0.68082751353E-01 -0.10886529433E+00  0.90007742481E+02  0.90000003882E+02 0.  0.
        -12    1    1    2    0    0 -0.11732522739E+01  0.68082751353E-01  0.10886529433E+00  0.11802575192E+01  0.00000000000E+00 0.  1.
         11    1    3    3    0    0  0.17238802078E+02  0.22877283336E+01  0.35082289861E+02  0.39155804936E+02  0.51100000000E-03 0. -1.
        -11    1    3    3    0    0 -0.87448093602E+01 -0.13089007905E+01  0.48831521669E+01  0.10100994375E+02  0.51100000000E-03 0.  1.
        -12    1    3    3    0    0 -0.73207404437E+01 -0.10469102945E+01 -0.40074307323E+02  0.40750943169E+02  0.00000000000E+00 0.  1.
</event>
<event>
 7    1  0.2385752E-015  0.9000788E+02  0.7816164E-02  0.1186339E+00
        -11   -1    0    0    0    0  0.00000000000E+00  0.00000000000E+00  0.45593999997E+02  0.45594000000E+02  0.51100000000E-03 0.  1.
         11   -1    0    0    0    0 -0.00000000000E+00 -0.00000000000E+00 -0.45593999997E+02  0.45594000000E+02  0.51100000000E-03 0. -1.
    9900012    2    1    2    0    0  0.60607677474E+00  0.98243419254E+00  0.24531307678E+00  0.90007879453E+02  0.90000142662E+02 0.  0.
        -12    1    1    2    0    0 -0.60607677474E+00 -0.98243419254E+00 -0.24531307678E+00  0.11801205469E+01  0.00000000000E+00 0.  1.
         11    1    3    3    0    0  0.33208016946E+02 -0.13279812202E+02 -0.15719142169E+02  0.39066830334E+02  0.51100000000E-03 0. -1.
        -11    1    3    3    0    0 -0.17176215600E+01  0.15723822720E+02 -0.66986315948E+00  0.15831536302E+02  0.51100000000E-03 0.  1.
        -12    1    3    3    0    0 -0.30884318611E+02 -0.14615763258E+01  0.16634318405E+02  0.35109512817E+02  0.00000000000E+00 0.  1.
</event>
<event>
 7    1  0.2385752E-015  0.9000775E+02  0.7816164E-02  0.1186339E+00
        -11   -1    0    0    0    0  0.00000000000E+00  0.00000000000E+00  0.45593999997E+02  0.45594000000E+02  0.51100000000E-03 0. -1.
         11   -1    0    0    0    0 -0.00000000000E+00 -0.00000000000E+00 -0.45593999997E+02  0.45594000000E+02  0.51100000000E-03 0.  1.
    9900012    2    1    2    0    0 -0.54060652496E+00  0.80774594024E+00  0.66953684297E+00  0.90007750661E+02  0.90000012169E+02 0.  0.
        -12    1    1    2    0    0  0.54060652496E+00 -0.80774594024E+00 -0.66953684297E+00  0.11802493393E+01  0.00000000000E+00 0.  1.
         11    1    3    3    0    0 -0.14887138732E+02 -0.33898306247E+02 -0.19299235787E+02  0.41751437918E+02  0.51100000000E-03 0. -1.
        -11    1    3    3    0    0  0.69891248092E+01 -0.81311420316E+00  0.64518851336E+01  0.95465094325E+01  0.51100000000E-03 0.  1.
        -12    1    3    3    0    0  0.73574073977E+01  0.35519166391E+02  0.13516887496E+02  0.38709803310E+02  0.00000000000E+00 0.  1.
</event>
<event>
 7    1  0.2385752E-015  0.9000776E+02  0.7816164E-02  0.1186339E+00
        -11   -1    0    0    0    0  0.00000000000E+00  0.00000000000E+00  0.45593999997E+02  0.45594000000E+02  0.51100000000E-03 0.  1.
         11   -1    0    0    0    0 -0.00000000000E+00 -0.00000000000E+00 -0.45593999997E+02  0.45594000000E+02  0.51100000000E-03 0. -1.
    9900012    2    1    2    0    0 -0.22031195830E+00 -0.98426288182E+00 -0.61291231196E+00  0.90007757533E+02  0.90000019132E+02 0.  0.
        -12    1    1    2    0    0  0.22031195830E+00  0.98426288182E+00  0.61291231196E+00  0.11802424673E+01  0.00000000000E+00 0.  1.
         11    1    3    3    0    0  0.79908985400E+01  0.20045919440E+02 -0.34507796107E+02  0.40699893588E+02  0.51100000000E-03 0. -1.
        -11    1    3    3    0    0 -0.75729070301E+01  0.34871542777E+01  0.11796019307E+01  0.84202509950E+01  0.51100000000E-03 0.  1.
        -12    1    3    3    0    0 -0.63830346822E+00 -0.24517336600E+02  0.32715281864E+02  0.40887612950E+02  0.00000000000E+00 0.  1.
</event>
<event>
 7    1  0.2385752E-015  0.9000765E+02  0.7816164E-02  0.1186339E+00
        -11   -1    0    0    0    0  0.00000000000E+00  0.00000000000E+00  0.45593999997E+02  0.45594000000E+02  0.51100000000E-03 0. -1.
         11   -1    0    0    0    0 -0.00000000000E+00 -0.00000000000E+00 -0.45593999997E+02  0.45594000000E+02  0.51100000000E-03 0.  1.
    9900012    2    1    2    0    0  0.75067500355E+00 -0.89175483426E+00 -0.18570784084E+00  0.90007649608E+02  0.89999909783E+02 0.  0.
        -12    1    1    2    0    0 -0.75067500355E+00  0.89175483426E+00  0.18570784084E+00  0.11803503918E+01  0.00000000000E+00 0.  1.
         11    1    3    3    0    0  0.10161251159E+02  0.16477806428E+01  0.22514241202E+01  0.10537320200E+02  0.51100000000E-03 0. -1.
        -11    1    3    3    0    0  0.27792466599E+02  0.40098554286E+01  0.20956417317E+02  0.35038144460E+02  0.51100000000E-03 0.  1.
         12    1    3    3    0    0 -0.37203042754E+02 -0.65493909056E+01 -0.23393549278E+02  0.44432184948E+02  0.00000000000E+00 0. -1.
</event>
<event>
 7    1  0.2385752E-015  0.9000779E+02  0.7816164E-02  0.1186339E+00
        -11   -1    0    0    0    0  0.00000000000E+00  0.00000000000E+00  0.45593999997E+02  0.45594000000E+02  0.51100000000E-03 0.  1.
         11   -1    0    0    0    0 -0.00000000000E+00 -0.00000000000E+00 -0.45593999997E+02  0.45594000000E+02  0.51100000000E-03 0. -1.
    9900012    2    1    2    0    0 -0.10193593252E+00 -0.46056468566E+00 -0.10818475128E+01  0.90007786119E+02  0.90000048096E+02 0.  0.
        -12    1    1    2    0    0  0.10193593252E+00  0.46056468566E+00  0.10818475128E+01  0.11802138810E+01  0.00000000000E+00 0.  1.
         11    1    3    3    0    0 -0.15767847600E+01 -0.58295197231E+00 -0.79272397542E+01  0.81035309318E+01  0.51100000000E-03 0. -1.
        -11    1    3    3    0    0 -0.24748250704E+00 -0.40667154101E+02  0.11604715713E+01  0.40684460975E+02  0.51100000000E-03 0.  1.
         12    1    3    3    0    0  0.17223313345E+01  0.40789541388E+02  0.56849206701E+01  0.41219794212E+02  0.00000000000E+00 0. -1.
</event>
<event>
 7    1  0.2385752E-015  0.9000769E+02  0.7816164E-02  0.1186339E+00
        -11   -1    0    0    0    0  0.00000000000E+00  0.00000000000E+00  0.45593999997E+02  0.45594000000E+02  0.51100000000E-03 0. -1.
         11   -1    0    0    0    0 -0.00000000000E+00 -0.00000000000E+00 -0.45593999997E+02  0.45594000000E+02  0.51100000000E-03 0.  1.
    9900012    2    1    2    0    0 -0.42407903336E+00 -0.10611235311E+01  0.29547459419E+00  0.90007690121E+02  0.89999950831E+02 0.  0.
        -12    1    1    2    0    0  0.42407903336E+00  0.10611235311E+01 -0.29547459419E+00  0.11803098790E+01  0.00000000000E+00 0.  1.
         11    1    3    3    0    0 -0.32084443056E+02  0.23820313782E+02  0.94297137950E+01  0.41057743939E+02  0.51100000000E-03 0. -1.
        -11    1    3    3    0    0 -0.18346907913E+01 -0.50931666696E+01 -0.84559306908E+01  0.10040378535E+02  0.51100000000E-03 0.  1.
        -12    1    3    3    0    0  0.33495054814E+02 -0.19788270643E+02 -0.67830850998E+00  0.38909567647E+02  0.00000000000E+00 0.  1.
</event>
<event>
 7    1  0.2385752E-015  0.9000775E+02  0.7816164E-02  0.1186339E+00
        -11   -1    0    0    0    0  0.00000000000E+00  0.00000000000E+00  0.45593999997E+02  0.45594000000E+02  0.51100000000E-03 0. -1.
         11   -1    0    0    0    0 -0.00000000000E+00 -0.00000000000E+00 -0.45593999997E+02  0.45594000000E+02  0.51100000000E-03 0.  1.
    9900012    2    1    2    0    0  0.11264202180E+01  0.24324080148E+00  0.25493162783E+00  0.90007754801E+02  0.90000016364E+02 0.  0.
        -12    1    1    2    0    0 -0.11264202180E+01 -0.24324080148E+00 -0.25493162783E+00  0.11802451991E+01  0.00000000000E+00 0.  1.
         11    1    3    3    0    0  0.30037380207E+01 -0.96172588146E+00 -0.79153546519E+01  0.85205749979E+01  0.51100000000E-03 0. -1.
        -11    1    3    3    0    0  0.37566257358E+01  0.28066204632E-01 -0.36376573221E+02  0.36570043809E+02  0.51100000000E-03 0.  1.
         12    1    3    3    0    0 -0.56339435385E+01  0.11769004783E+01  0.44546859501E+02  0.44917135994E+02  0.00000000000E+00 0. -1.
</event>
<event>
 7    1  0.2385752E-015  0.9000768E+02  0.7816164E-02  0.1186339E+00
        -11   -1    0    0    0    0  0.00000000000E+00  0.00000000000E+00  0.45593999997E+02  0.45594000000E+02  0.51100000000E-03 0. -1.
         11   -1    0    0    0    0 -0.00000000000E+00 -0.00000000000E+00 -0.45593999997E+02  0.45594000000E+02  0.51100000000E-03 0.  1.
    9900012    2    1    2    0    0  0.52348176533E+00  0.93738082482E+00  0.49034732059E+00  0.90007679508E+02  0.89999940077E+02 0.  0.
        -12    1    1    2    0    0 -0.52348176533E+00 -0.93738082482E+00 -0.49034732059E+00  0.11803204922E+01  0.00000000000E+00 0.  1.
         11    1    3    3    0    0  0.77330825141E+01  0.40524065624E+01  0.10535450574E+01  0.87938911504E+01  0.51100000000E-03 0. -1.
        -11    1    3    3    0    0  0.12969519553E+02 -0.19948794091E+02 -0.32231077215E+02  0.40062515670E+02  0.51100000000E-03 0.  1.
         12    1    3    3    0    0 -0.20179120302E+02  0.16833768354E+02  0.31667879478E+02  0.41151272687E+02  0.00000000000E+00 0. -1.
</event>
<event>
 7    1  0.2385752E-015  0.9000768E+02  0.7816164E-02  0.1186339E+00
        -11   -1    0    0    0    0  0.00000000000E+00  0.00000000000E+00  0.45593999997E+02  0.45594000000E+02  0.51100000000E-03 0. -1.
         11   -1    0    0    0    0 -0.00000000000E+00 -0.00000000000E+00 -0.45593999997E+02  0.45594000000E+02  0.51100000000E-03 0.  1.
    9900012    2    1    2    0    0 -0.82976497200E+00  0.83939836655E+00 -0.68093582179E-02  0.90007683986E+02  0.89999944614E+02 0.  0.
        -12    1    1    2    0    0  0.82976497200E+00 -0.83939836655E+00  0.68093582179E-02  0.11803160144E+01  0.00000000000E+00 0.  1.
         11    1    3    3    0    0  0.99169868044E+01  0.38210838084E+02 -0.37042373609E+01  0.39650172119E+02  0.51100000000E-03 0. -1.
        -11    1    3    3    0    0  0.60321671244E+01  0.90039561696E+00  0.59339304461E+01  0.85093644466E+01  0.51100000000E-03 0.  1.
        -12    1    3    3    0    0 -0.16778918901E+02 -0.38271835334E+02 -0.22365024434E+01  0.41848147420E+02  0.00000000000E+00 0.  1.
</event>
<event>
 7    1  0.2385752E-015  0.9000772E+02  0.7816164E-02  0.1186339E+00
        -11   -1    0    0    0    0  0.00000000000E+00  0.00000000000E+00  0.45593999997E+02  0.45594000000E+02  0.51100000000E-03 0.  1.
         11   -1    0    0    0    0 -0.00000000000E+00 -0.00000000000E+00 -0.45593999997E+02  0.45594000000E+02  0.51100000000E-03 0. -1.
    9900012    2    1    2    0    0  0.83578872506E+00 -0.50526275287E+00 -0.66273780253E+00  0.90007722644E+02  0.89999983783E+02 0.  0.
        -12    1    1    2    0    0 -0.83578872506E+00  0.50526275287E+00  0.66273780253E+00  0.11802773561E+01  0.00000000000E+00 0.  1.
         11    1    3    3    0    0 -0.11753688309E+02 -0.13643834740E+02 -0.25221739688E+02  0.30990959463E+02  0.51100000000E-03 0. -1.
        -11    1    3    3    0    0 -0.79579561823E+01 -0.10308977057E+02 -0.68898336943E+01  0.14733427407E+02  0.51100000000E-03 0.  1.
        -12    1    3    3    0    0  0.20547433217E+02  0.23447549044E+02  0.31448835579E+02  0.44283335774E+02  0.00000000000E+00 0.  1.
</event>
<event>
 7    1  0.2385752E-015  0.9000767E+02  0.7816164E-02  0.1186339E+00
        -11   -1    0    0    0    0  0.00000000000E+00  0.00000000000E+00  0.45593999997E+02  0.45594000000E+02  0.51100000000E-03 0. -1.
         11   -1    0    0    0    0 -0.00000000000E+00 -0.00000000000E+00 -0.45593999997E+02  0.45594000000E+02  0.51100000000E-03 0.  1.
    9900012    2    1    2    0    0 -0.80402183250E+00  0.61707057391E+00  0.60494729393E+00  0.90007665967E+02  0.89999926358E+02 0.  0.
        -12    1    1    2    0    0  0.80402183250E+00 -0.61707057391E+00 -0.60494729393E+00  0.11803340327E+01  0.00000000000E+00 0.  1.
         11    1    3    3    0    0 -0.19534175978E+01  0.94019792069E+01  0.13448979008E+01  0.96964841021E+01  0.51100000000E-03 0. -1.
        -11    1    3    3    0    0 -0.23806182011E+02  0.27417393226E+02 -0.13717957506E+01  0.36336339622E+02  0.51100000000E-03 0.  1.
         12    1    3    3    0    0  0.24955577777E+02 -0.36202301859E+02  0.63184514380E+00  0.43974842243E+02  0.00000000000E+00 0. -1.
</event>
<event>
 7    1  0.2385752E-015  0.9000672E+02  0.7816164E-02  0.1186341E+00
        -11   -1    0    0    0    0  0.00000000000E+00  0.00000000000E+00  0.45593999997E+02  0.45594000000E+02  0.51100000000E-03 0.  1.
         11   -1    0    0    0    0 -0.00000000000E+00 -0.00000000000E+00 -0.45593999997E+02  0.45594000000E+02  0.51100000000E-03 0. -1.
    9900012    2    1    2    0    0  0.80884818577E-01 -0.66850606437E-01 -0.11766146732E+01  0.90006715341E+02  0.89998963177E+02 0.  0.
        -12    1    1    2    0    0 -0.80884818577E-01  0.66850606437E-01  0.11766146732E+01  0.11812846594E+01  0.00000000000E+00 0.  1.
         11    1    3    3    0    0 -0.27078096657E+01  0.87672817715E+01 -0.64738621687E+01  0.11229797616E+02  0.51100000000E-03 0. -1.
        -11    1    3    3    0    0  0.10701197961E+02  0.27763957278E+02  0.22759775428E+02  0.37461451377E+02  0.51100000000E-03 0.  1.
         12    1    3    3    0    0 -0.79125034764E+01 -0.36598089656E+02 -0.17462527932E+02  0.41315466348E+02  0.00000000000E+00 0. -1.
</event>
<event>
 7    1  0.2385752E-015  0.9000762E+02  0.7816164E-02  0.1186339E+00
        -11   -1    0    0    0    0  0.00000000000E+00  0.00000000000E+00  0.45593999997E+02  0.45594000000E+02  0.51100000000E-03 0.  1.
         11   -1    0    0    0    0 -0.00000000000E+00 -0.00000000000E+00 -0.45593999997E+02  0.45594000000E+02  0.51100000000E-03 0. -1.
    9900012    2    1    2    0    0 -0.46110425270E+00  0.32076368325E+00 -0.10381711842E+01  0.90007616215E+02  0.89999875949E+02 0.  0.
        -12    1    1    2    0    0  0.46110425270E+00 -0.32076368325E+00  0.10381711842E+01  0.11803837850E+01  0.00000000000E+00 0.  1.
         11    1    3    3    0    0  0.11579705659E+00  0.63960251962E+01  0.78644444400E+01  0.10137654259E+02  0.51100000000E-03 0. -1.
        -11    1    3    3    0    0  0.11418912097E+02  0.20902340248E+02  0.25259172675E+02  0.34717793504E+02  0.51100000000E-03 0.  1.
         12    1    3    3    0    0 -0.11995813406E+02 -0.26977601761E+02 -0.34161788299E+02  0.45152168451E+02  0.00000000000E+00 0. -1.
</event>
<event>
 7    1  0.2385752E-015  0.9000772E+02  0.7816164E-02  0.1186339E+00
        -11   -1    0    0    0    0  0.00000000000E+00  0.00000000000E+00  0.45593999997E+02  0.45594000000E+02  0.51100000000E-03 0.  1.
         11   -1    0    0    0    0 -0.00000000000E+00 -0.00000000000E+00 -0.45593999997E+02  0.45594000000E+02  0.51100000000E-03 0. -1.
    9900012    2    1    2    0    0 -0.10168255696E+01  0.14726835453E+00 -0.58089551082E+00  0.90007719609E+02  0.89999980708E+02 0.  0.
        -12    1    1    2    0    0  0.10168255696E+01 -0.14726835453E+00  0.58089551082E+00  0.11802803912E+01  0.00000000000E+00 0.  1.
         11    1    3    3    0    0 -0.82916437103E+01  0.46217991498E+01 -0.28626339922E+00  0.94970695372E+01  0.51100000000E-03 0. -1.
        -11    1    3    3    0    0 -0.24948809223E+02  0.22886361409E+02 -0.13159733088E+02  0.36323645128E+02  0.51100000000E-03 0.  1.
         12    1    3    3    0    0  0.32223627364E+02 -0.27360892204E+02  0.12865100976E+02  0.44187004943E+02  0.00000000000E+00 0. -1.
</event>
<event>
 7    1  0.2385752E-015  0.9000792E+02  0.7816164E-02  0.1186339E+00
        -11   -1    0    0    0    0  0.00000000000E+00  0.00000000000E+00  0.45593999997E+02  0.45594000000E+02  0.51100000000E-03 0. -1.
         11   -1    0    0    0    0 -0.00000000000E+00 -0.00000000000E+00 -0.45593999997E+02  0.45594000000E+02  0.51100000000E-03 0.  1.
    9900012    2    1    2    0    0 -0.99749242541E+00 -0.29863388702E+00  0.55534365481E+00  0.90007923768E+02  0.90000187562E+02 0.  0.
        -12    1    1    2    0    0  0.99749242541E+00  0.29863388702E+00 -0.55534365481E+00  0.11800762315E+01  0.00000000000E+00 0.  1.
         11    1    3    3    0    0 -0.80617590938E+01  0.81343498075E+01  0.31738063724E+02  0.33741136550E+02  0.51100000000E-03 0. -1.
        -11    1    3    3    0    0 -0.30040083478E+01 -0.82126209019E-01  0.11364010763E+02  0.11754639584E+02  0.51100000000E-03 0.  1.
        -12    1    3    3    0    0  0.10068275016E+02 -0.83508574855E+01 -0.42546730832E+02  0.44512147635E+02  0.00000000000E+00 0.  1.
</event>
<event>
 7    1  0.2385752E-015  0.9000705E+02  0.7816164E-02  0.1186340E+00
        -11   -1    0    0    0    0  0.00000000000E+00  0.00000000000E+00  0.45593999997E+02  0.45594000000E+02  0.51100000000E-03 0. -1.
         11   -1    0    0    0    0 -0.00000000000E+00 -0.00000000000E+00 -0.45593999997E+02  0.45594000000E+02  0.51100000000E-03 0.  1.
    9900012    2    1    2    0    0  0.85700517184E+00  0.58534162446E+00  0.56351885234E+00  0.90007052847E+02  0.89999305142E+02 0.  0.
        -12    1    1    2    0    0 -0.85700517184E+00 -0.58534162446E+00 -0.56351885234E+00  0.11809471533E+01  0.00000000000E+00 0.  1.
         11    1    3    3    0    0 -0.51210159264E+01 -0.70257162468E+01 -0.21118357689E+01  0.89468063282E+01  0.51100000000E-03 0. -1.
        -11    1    3    3    0    0 -0.20977168979E+02  0.11696693796E+02 -0.30048475033E+02  0.38467715245E+02  0.51100000000E-03 0.  1.
         12    1    3    3    0    0  0.26955190077E+02 -0.40856359249E+01  0.32723829654E+02  0.42592531273E+02  0.00000000000E+00 0. -1.
</event>
<event>
 7    1  0.2385752E-015  0.9000767E+02  0.7816164E-02  0.1186339E+00
        -11   -1    0    0    0    0  0.00000000000E+00  0.00000000000E+00  0.45593999997E+02  0.45594000000E+02  0.51100000000E-03 0. -1.
         11   -1    0    0    0    0 -0.00000000000E+00 -0.00000000000E+00 -0.45593999997E+02  0.45594000000E+02  0.51100000000E-03 0.  1.
    9900012    2    1    2    0    0  0.49727553656E+00 -0.92862491411E-01  0.10664313921E+01  0.90007668557E+02  0.89999928982E+02 0.  0.
        -12    1    1    2    0    0 -0.49727553656E+00  0.92862491411E-01 -0.10664313921E+01  0.11803314431E+01  0.00000000000E+00 0.  1.
         11    1    3    3    0    0  0.29054080382E+02 -0.44900806373E+01  0.95001370137E+01  0.30895841379E+02  0.51100000000E-03 0. -1.
        -11    1    3    3    0    0  0.10397503658E+02 -0.93924682558E+00 -0.15968384698E+02  0.19078248794E+02  0.51100000000E-03 0.  1.
        -12    1    3    3    0    0 -0.38954308504E+02  0.53364649714E+01  0.75346790768E+01  0.40033578383E+02  0.00000000000E+00 0.  1.
</event>
<event>
 7    1  0.2385752E-015  0.9000774E+02  0.7816164E-02  0.1186339E+00
        -11   -1    0    0    0    0  0.00000000000E+00  0.00000000000E+00  0.45593999997E+02  0.45594000000E+02  0.51100000000E-03 0.  1.
         11   -1    0    0    0    0 -0.00000000000E+00 -0.00000000000E+00 -0.45593999997E+02  0.45594000000E+02  0.51100000000E-03 0. -1.
    9900012    2    1    2    0    0 -0.10076270134E+01  0.61042149159E+00 -0.71319669049E-01  0.90007740244E+02  0.90000001616E+02 0.  0.
        -12    1    1    2    0    0  0.10076270134E+01 -0.61042149159E+00  0.71319669049E-01  0.11802597557E+01  0.00000000000E+00 0.  1.
         11    1    3    3    0    0  0.34891881510E+00  0.75192958378E+01  0.87021574018E+01  0.11506046147E+02  0.51100000000E-03 0. -1.
        -11    1    3    3    0    0 -0.66838115603E+01 -0.11104964274E+02  0.33379041325E+02  0.35807177612E+02  0.51100000000E-03 0.  1.
         12    1    3    3    0    0  0.53272657318E+01  0.41960899274E+01 -0.42152518395E+02  0.42694516486E+02  0.00000000000E+00 0. -1.
</event>
<event>
 7    1  0.2385752E-015  0.9000763E+02  0.7816164E-02  0.1186339E+00
        -11   -1    0    0    0    0  0.00000000000E+00  0.00000000000E+00  0.45593999997E+02  0.45594000000E+02  0.51100000000E-03 0.  1.
         11   -1    0    0    0    0 -0.00000000000E+00 -0.00000000000E+00 -0.45593999997E+02  0.45594000000E+02  0.51100000000E-03 0. -1.
    9900012    2    1    2    0    0 -0.21038745247E+00  0.62384162944E+00 -0.97970508145E+00  0.90007634249E+02  0.89999894221E+02 0.  0.
        -12    1    1    2    0    0  0.21038745247E+00 -0.62384162944E+00  0.97970508145E+00  0.11803657507E+01  0.00000000000E+00 0.  1.
         11    1    3    3    0    0 -0.14582818317E+01  0.12468695675E+02 -0.24047924933E+02  0.27127433560E+02  0.51100000000E-03 0. -1.
        -11    1    3    3    0    0  0.46142248259E+01 -0.16016267611E+02 -0.16202663778E+02  0.23245176117E+02  0.51100000000E-03 0.  1.
        -12    1    3    3    0    0 -0.33663304467E+01  0.41714135652E+01  0.39270883629E+02  0.39635024572E+02  0.00000000000E+00 0.  1.
</event>
<event>
 7    1  0.3244555E-015  0.9000769E+02  0.7816164E-02  0.1186339E+00
        -11   -1    0    0    0    0  0.00000000000E+00  0.00000000000E+00  0.45593999997E+02  0.45594000000E+02  0.51100000000E-03 0. -1.
         11   -1    0    0    0    0 -0.00000000000E+00 -0.00000000000E+00 -0.45593999997E+02  0.45594000000E+02  0.51100000000E-03 0.  1.
    9900012    2    1    2    0    0 -0.64930127028E+00  0.93376472379E+00  0.31561678728E+00  0.90007693830E+02  0.89999954588E+02 0.  0.
        -12    1    1    2    0    0  0.64930127028E+00 -0.93376472379E+00 -0.31561678728E+00  0.11803061702E+01  0.00000000000E+00 0.  1.
         11    1    3    3    0    0  0.28417640972E+02  0.22652881551E+02 -0.79382567476E+01  0.37198538700E+02  0.51100000000E-03 0. -1.
        -11    1    3    3    0    0  0.75975821807E+01  0.75688737187E+00  0.60601737248E+01  0.97479146140E+01  0.51100000000E-03 0.  1.
        -12    1    3    3    0    0 -0.36664524423E+02 -0.22476004199E+02  0.21936998101E+01  0.43061240516E+02  0.00000000000E+00 0.  1.
</event>
<event>
 7    1  0.2385752E-015  0.9000765E+02  0.7816164E-02  0.1186339E+00
        -11   -1    0    0    0    0  0.00000000000E+00  0.00000000000E+00  0.45593999997E+02  0.45594000000E+02  0.51100000000E-03 0. -1.
         11   -1    0    0    0    0 -0.00000000000E+00 -0.00000000000E+00 -0.45593999997E+02  0.45594000000E+02  0.51100000000E-03 0.  1.
    9900012    2    1    2    0    0 -0.11763579131E+01  0.79212757173E-01  0.55938830710E-01  0.90007651851E+02  0.89999912055E+02 0.  0.
        -12    1    1    2    0    0  0.11763579131E+01 -0.79212757173E-01 -0.55938830710E-01  0.11803481492E+01  0.00000000000E+00 0.  1.
         11    1    3    3    0    0  0.34385982699E+00  0.25291066231E+02  0.23372735975E+02  0.34438946817E+02  0.51100000000E-03 0. -1.
        -11    1    3    3    0    0  0.14575293772E+01  0.12513168096E+02 -0.58058615808E+01  0.13871257933E+02  0.51100000000E-03 0.  1.
        -12    1    3    3    0    0 -0.29777471172E+01 -0.37725021570E+02 -0.17510935564E+02  0.41697447100E+02  0.00000000000E+00 0.  1.
</event>
<event>
 7    1  0.2385752E-015  0.9000785E+02  0.7816164E-02  0.1186339E+00
        -11   -1    0    0    0    0  0.00000000000E+00  0.00000000000E+00  0.45593999997E+02  0.45594000000E+02  0.51100000000E-03 0. -1.
         11   -1    0    0    0    0 -0.00000000000E+00 -0.00000000000E+00 -0.45593999997E+02  0.45594000000E+02  0.51100000000E-03 0.  1.
    9900012    2    1    2    0    0 -0.72410110683E+00 -0.92405399003E+00 -0.12065795426E+00  0.90007848937E+02  0.90000111743E+02 0.  0.
        -12    1    1    2    0    0  0.72410110683E+00  0.92405399003E+00  0.12065795426E+00  0.11801510629E+01  0.00000000000E+00 0.  1.
         11    1    3    3    0    0  0.25238430682E+02 -0.21655291070E+02 -0.86718427340E+01  0.34367584601E+02  0.51100000000E-03 0. -1.
        -11    1    3    3    0    0  0.79171072313E+01 -0.54705343560E+01 -0.48323552283E+01  0.10768425621E+02  0.51100000000E-03 0.  1.
        -12    1    3    3    0    0 -0.33879639020E+02  0.26201771436E+02  0.13383540008E+02  0.44871838715E+02  0.00000000000E+00 0.  1.
</event>
<event>
 7    1  0.2387626E-015  0.9000764E+02  0.7816164E-02  0.1186339E+00
        -11   -1    0    0    0    0  0.00000000000E+00  0.00000000000E+00  0.45593999997E+02  0.45594000000E+02  0.51100000000E-03 0. -1.
         11   -1    0    0    0    0 -0.00000000000E+00 -0.00000000000E+00 -0.45593999997E+02  0.45594000000E+02  0.51100000000E-03 0.  1.
    9900012    2    1    2    0    0  0.34411308114E+00  0.10596398695E+01  0.38985751548E+00  0.90007644398E+02  0.89999904504E+02 0.  0.
        -12    1    1    2    0    0 -0.34411308114E+00 -0.10596398695E+01 -0.38985751548E+00  0.11803556023E+01  0.00000000000E+00 0.  1.
         11    1    3    3    0    0 -0.25431356505E+01  0.94859514899E+01  0.35916242210E+02  0.37234758886E+02  0.51100000000E-03 0. -1.
        -11    1    3    3    0    0  0.59404797220E+01 -0.33345420411E+01  0.70388437977E+01  0.97956006565E+01  0.51100000000E-03 0.  1.
        -12    1    3    3    0    0 -0.30532309904E+01 -0.50917695793E+01 -0.42565228492E+02  0.42977284855E+02  0.00000000000E+00 0.  1.
</event>
<event>
 7    1  0.2385752E-015  0.9000777E+02  0.7816164E-02  0.1186339E+00
        -11   -1    0    0    0    0  0.00000000000E+00  0.00000000000E+00  0.45593999997E+02  0.45594000000E+02  0.51100000000E-03 0.  1.
         11   -1    0    0    0    0 -0.00000000000E+00 -0.00000000000E+00 -0.45593999997E+02  0.45594000000E+02  0.51100000000E-03 0. -1.
    9900012    2    1    2    0    0  0.11063461003E+01 -0.13199183483E+00 -0.38926194100E+00  0.90007767651E+02  0.90000029384E+02 0.  0.
        -12    1    1    2    0    0 -0.11063461003E+01  0.13199183483E+00  0.38926194100E+00  0.11802323487E+01  0.00000000000E+00 0.  1.
         11    1    3    3    0    0  0.15025999884E+01  0.13897877419E+02 -0.38409346296E+02  0.40874034381E+02  0.51100000000E-03 0. -1.
        -11    1    3    3    0    0 -0.58600402530E+01 -0.10420607276E+02  0.15207316060E+01  0.12051628630E+02  0.51100000000E-03 0.  1.
        -12    1    3    3    0    0  0.54637863648E+01 -0.36092619780E+01  0.36499352749E+02  0.37082104640E+02  0.00000000000E+00 0.  1.
</event>
<event>
 7    1  0.2385752E-015  0.9000767E+02  0.7816164E-02  0.1186339E+00
        -11   -1    0    0    0    0  0.00000000000E+00  0.00000000000E+00  0.45593999997E+02  0.45594000000E+02  0.51100000000E-03 0. -1.
         11   -1    0    0    0    0 -0.00000000000E+00 -0.00000000000E+00 -0.45593999997E+02  0.45594000000E+02  0.51100000000E-03 0.  1.
    9900012    2    1    2    0    0 -0.17243311658E+00  0.63596578460E+00  0.97927934787E+00  0.90007672207E+02  0.89999932680E+02 0.  0.
        -12    1    1    2    0    0  0.17243311658E+00 -0.63596578460E+00 -0.97927934787E+00  0.11803277935E+01  0.00000000000E+00 0.  1.
         11    1    3    3    0    0  0.74469741773E+01 -0.32681227648E+01 -0.72295556815E+01  0.10881384398E+02  0.51100000000E-03 0. -1.
        -11    1    3    3    0    0  0.14920678971E+02  0.24737453200E+02 -0.21807165270E+02  0.36195589637E+02  0.51100000000E-03 0.  1.
         12    1    3    3    0    0 -0.22540086265E+02 -0.20833364651E+02  0.30016000299E+02  0.42930698172E+02  0.00000000000E+00 0. -1.
</event>
<event>
 7    1  0.2385752E-015  0.9000772E+02  0.7816164E-02  0.1186339E+00
        -11   -1    0    0    0    0  0.00000000000E+00  0.00000000000E+00  0.45593999997E+02  0.45594000000E+02  0.51100000000E-03 0. -1.
         11   -1    0    0    0    0 -0.00000000000E+00 -0.00000000000E+00 -0.45593999997E+02  0.45594000000E+02  0.51100000000E-03 0.  1.
    9900012    2    1    2    0    0  0.18026087117E+00 -0.76062562495E+00  0.88431854105E+00  0.90007718421E+02  0.89999979504E+02 0.  0.
        -12    1    1    2    0    0 -0.18026087117E+00  0.76062562495E+00 -0.88431854105E+00  0.11802815787E+01  0.00000000000E+00 0.  1.
         11    1    3    3    0    0 -0.53522784753E+01 -0.77123188560E+01 -0.56796257904E+01  0.10972005122E+02  0.51100000000E-03 0. -1.
        -11    1    3    3    0    0 -0.33923755921E+01  0.17103944291E+02 -0.32946816297E+02  0.37276612331E+02  0.51100000000E-03 0.  1.
         12    1    3    3    0    0  0.89249149385E+01 -0.10152251060E+02  0.39510760629E+02  0.41759100969E+02  0.00000000000E+00 0. -1.
</event>
<event>
 7    1  0.2385752E-015  0.9000778E+02  0.7816164E-02  0.1186339E+00
        -11   -1    0    0    0    0  0.00000000000E+00  0.00000000000E+00  0.45593999997E+02  0.45594000000E+02  0.51100000000E-03 0. -1.
         11   -1    0    0    0    0 -0.00000000000E+00 -0.00000000000E+00 -0.45593999997E+02  0.45594000000E+02  0.51100000000E-03 0.  1.
    9900012    2    1    2    0    0 -0.38057817667E+00 -0.98391071075E+00 -0.52914615744E+00  0.90007781507E+02  0.90000043423E+02 0.  0.
        -12    1    1    2    0    0  0.38057817667E+00  0.98391071075E+00  0.52914615744E+00  0.11802184930E+01  0.00000000000E+00 0.  1.
         11    1    3    3    0    0 -0.63655945643E+00  0.22951445915E+00 -0.94138583072E+01  0.94381467099E+01  0.51100000000E-03 0. -1.
        -11    1    3    3    0    0  0.72997196268E+01  0.36010531575E+02  0.18990487236E+02  0.41360402520E+02  0.51100000000E-03 0.  1.
         12    1    3    3    0    0 -0.70437383470E+01 -0.37223956745E+02 -0.10105775087E+02  0.39209232277E+02  0.00000000000E+00 0. -1.
</event>
<event>
 7    1  0.2385752E-015  0.9000688E+02  0.7816164E-02  0.1186341E+00
        -11   -1    0    0    0    0  0.00000000000E+00  0.00000000000E+00  0.45593999997E+02  0.45594000000E+02  0.51100000000E-03 0. -1.
         11   -1    0    0    0    0 -0.00000000000E+00 -0.00000000000E+00 -0.45593999997E+02  0.45594000000E+02  0.51100000000E-03 0.  1.
    9900012    2    1    2    0    0  0.72407010308E+00 -0.62835229814E+00  0.68987745141E+00  0.90006883993E+02  0.89999134057E+02 0.  0.
        -12    1    1    2    0    0 -0.72407010308E+00  0.62835229814E+00 -0.68987745141E+00  0.11811160073E+01  0.00000000000E+00 0.  1.
         11    1    3    3    0    0  0.81914004186E+01 -0.24071069188E+02  0.22235424936E+02  0.33777648453E+02  0.51100000000E-03 0. -1.
        -11    1    3    3    0    0  0.61493611484E+01 -0.44278606247E+01  0.96279770601E+01  0.12252286920E+02  0.51100000000E-03 0.  1.
        -12    1    3    3    0    0 -0.13616691464E+02  0.27870577514E+02 -0.31173524544E+02  0.43976948620E+02  0.00000000000E+00 0.  1.
</event>
<event>
 7    1  0.2385752E-015  0.9000774E+02  0.7816164E-02  0.1186339E+00
        -11   -1    0    0    0    0  0.00000000000E+00  0.00000000000E+00  0.45593999997E+02  0.45594000000E+02  0.51100000000E-03 0.  1.
         11   -1    0    0    0    0 -0.00000000000E+00 -0.00000000000E+00 -0.45593999997E+02  0.45594000000E+02  0.51100000000E-03 0. -1.
    9900012    2    1    2    0    0 -0.10472316833E+01  0.45256328666E+00 -0.30251277821E+00  0.90007736594E+02  0.89999997917E+02 0.  0.
        -12    1    1    2    0    0  0.10472316833E+01 -0.45256328666E+00  0.30251277821E+00  0.11802634062E+01  0.00000000000E+00 0.  1.
         11    1    3    3    0    0 -0.43984876560E+00 -0.32063751376E+02 -0.29382279356E+02  0.43492481645E+02  0.51100000000E-03 0. -1.
        -11    1    3    3    0    0 -0.21037442835E+01  0.14456338742E+02  0.32554831197E+01  0.14966951608E+02  0.51100000000E-03 0.  1.
        -12    1    3    3    0    0  0.14963613658E+01  0.18059975920E+02  0.25824283458E+02  0.31548303341E+02  0.00000000000E+00 0.  1.
</event>
<event>
 7    1  0.2385752E-015  0.9000768E+02  0.7816164E-02  0.1186339E+00
        -11   -1    0    0    0    0  0.00000000000E+00  0.00000000000E+00  0.45593999997E+02  0.45594000000E+02  0.51100000000E-03 0. -1.
         11   -1    0    0    0    0 -0.00000000000E+00 -0.00000000000E+00 -0.45593999997E+02  0.45594000000E+02  0.51100000000E-03 0.  1.
    9900012    2    1    2    0    0  0.29161688698E+00  0.77172641454E+00  0.84413325514E+00  0.90007676731E+02  0.89999937264E+02 0.  0.
        -12    1    1    2    0    0 -0.29161688698E+00 -0.77172641454E+00 -0.84413325514E+00  0.11803232693E+01  0.00000000000E+00 0.  1.
         11    1    3    3    0    0  0.57696468568E+00 -0.17927698889E+02  0.32500632288E+02  0.37121777639E+02  0.51100000000E-03 0. -1.
        -11    1    3    3    0    0  0.55454922807E+01 -0.45041888644E+01  0.52759552668E+01  0.88812108521E+01  0.51100000000E-03 0.  1.
        -12    1    3    3    0    0 -0.58308400794E+01  0.23203614168E+02 -0.36932454299E+02  0.44004688240E+02  0.00000000000E+00 0.  1.
</event>
<event>
 7    1  0.2385752E-015  0.9000771E+02  0.7816164E-02  0.1186339E+00
        -11   -1    0    0    0    0  0.00000000000E+00  0.00000000000E+00  0.45593999997E+02  0.45594000000E+02  0.51100000000E-03 0.  1.
         11   -1    0    0    0    0 -0.00000000000E+00 -0.00000000000E+00 -0.45593999997E+02  0.45594000000E+02  0.51100000000E-03 0. -1.
    9900012    2    1    2    0    0 -0.95264566164E+00 -0.41574310998E+00 -0.55920052583E+00  0.90007711341E+02  0.89999972331E+02 0.  0.
        -12    1    1    2    0    0  0.95264566164E+00  0.41574310998E+00  0.55920052583E+00  0.11802886589E+01  0.00000000000E+00 0.  1.
         11    1    3    3    0    0  0.33419805611E+02 -0.77288790516E+01  0.82333211336E+01  0.35276147119E+02  0.51100000000E-03 0. -1.
        -11    1    3    3    0    0  0.70473022565E+01 -0.31915123761E+01 -0.91717748743E+01  0.11998819731E+02  0.51100000000E-03 0.  1.
        -12    1    3    3    0    0 -0.41419753529E+02  0.10504648318E+02  0.37925321486E+00  0.42732744490E+02  0.00000000000E+00 0.  1.
</event>
<event>
 7    1  0.2385752E-015  0.9000772E+02  0.7816164E-02  0.1186339E+00
        -11   -1    0    0    0    0  0.00000000000E+00  0.00000000000E+00  0.45593999997E+02  0.45594000000E+02  0.51100000000E-03 0. -1.
         11   -1    0    0    0    0 -0.00000000000E+00 -0.00000000000E+00 -0.45593999997E+02  0.45594000000E+02  0.51100000000E-03 0.  1.
    9900012    2    1    2    0    0  0.94135154110E+00  0.64601152857E+00  0.29929942130E+00  0.90007723014E+02  0.89999984158E+02 0.  0.
        -12    1    1    2    0    0 -0.94135154110E+00 -0.64601152857E+00 -0.29929942130E+00  0.11802769855E+01  0.00000000000E+00 0.  1.
         11    1    3    3    0    0  0.17254437013E+02  0.34595842519E+02 -0.65222930909E+01  0.39206226848E+02  0.51100000000E-03 0. -1.
        -11    1    3    3    0    0 -0.56041720423E+01  0.47034517769E+01 -0.51459671415E+01  0.89448410260E+01  0.51100000000E-03 0.  1.
        -12    1    3    3    0    0 -0.10708913430E+02 -0.38653282767E+02  0.11967559654E+02  0.41856655141E+02  0.00000000000E+00 0.  1.
</event>
<event>
 7    1  0.2385752E-015  0.9000669E+02  0.7816164E-02  0.1186341E+00
        -11   -1    0    0    0    0  0.00000000000E+00  0.00000000000E+00  0.45593999997E+02  0.45594000000E+02  0.51100000000E-03 0.  1.
         11   -1    0    0    0    0 -0.00000000000E+00 -0.00000000000E+00 -0.45593999997E+02  0.45594000000E+02  0.51100000000E-03 0. -1.
    9900012    2    1    2    0    0  0.10905962215E+01  0.66987573645E-01  0.44901721400E+00  0.90006685515E+02  0.89998932958E+02 0.  0.
        -12    1    1    2    0    0 -0.10905962215E+01 -0.66987573645E-01 -0.44901721400E+00  0.11813144847E+01  0.00000000000E+00 0.  1.
         11    1    3    3    0    0 -0.30012948482E+02  0.21333348599E+02 -0.44280383851E+01  0.37087684792E+02  0.51100000000E-03 0. -1.
        -11    1    3    3    0    0  0.50565549786E+01  0.93293131985E+01 -0.47098523141E+01  0.11609803706E+02  0.51100000000E-03 0.  1.
        -12    1    3    3    0    0  0.26046989724E+02 -0.30595674224E+02  0.95869079132E+01  0.41309197018E+02  0.00000000000E+00 0.  1.
</event>
<event>
 7    1  0.2385752E-015  0.9000770E+02  0.7816164E-02  0.1186339E+00
        -11   -1    0    0    0    0  0.00000000000E+00  0.00000000000E+00  0.45593999997E+02  0.45594000000E+02  0.51100000000E-03 0.  1.
         11   -1    0    0    0    0 -0.00000000000E+00 -0.00000000000E+00 -0.45593999997E+02  0.45594000000E+02  0.51100000000E-03 0. -1.
    9900012    2    1    2    0    0  0.11399276005E+01  0.28427981091E+00 -0.11335709857E+00  0.90007703522E+02  0.89999964408E+02 0.  0.
        -12    1    1    2    0    0 -0.11399276005E+01 -0.28427981091E+00  0.11335709857E+00  0.11802964784E+01  0.00000000000E+00 0.  1.
         11    1    3    3    0    0 -0.35227771193E+01 -0.80711383820E+01  0.60177690569E+01  0.10666151044E+02  0.51100000000E-03 0. -1.
        -11    1    3    3    0    0 -0.18125341711E+02 -0.23085004328E+02  0.17221682756E+02  0.34029866209E+02  0.51100000000E-03 0.  1.
         12    1    3    3    0    0  0.22788046431E+02  0.31440422521E+02 -0.23352808911E+02  0.45311686269E+02  0.00000000000E+00 0. -1.
</event>
<event>
 7    1  0.2385752E-015  0.9000788E+02  0.7816164E-02  0.1186339E+00
        -11   -1    0    0    0    0  0.00000000000E+00  0.00000000000E+00  0.45593999997E+02  0.45594000000E+02  0.51100000000E-03 0.  1.
         11   -1    0    0    0    0 -0.00000000000E+00 -0.00000000000E+00 -0.45593999997E+02  0.45594000000E+02  0.51100000000E-03 0. -1.
    9900012    2    1    2    0    0 -0.62650398954E+00  0.34728805454E+00 -0.93785353037E+00  0.90007879037E+02  0.90000142241E+02 0.  0.
        -12    1    1    2    0    0  0.62650398954E+00 -0.34728805454E+00  0.93785353037E+00  0.11801209625E+01  0.00000000000E+00 0.  1.
         11    1    3    3    0    0  0.17935115553E+02 -0.35815740629E+02 -0.81930465665E+01  0.40884736259E+02  0.51100000000E-03 0. -1.
        -11    1    3    3    0    0 -0.10531927000E+01  0.17870457211E+01 -0.75289077412E+01  0.78094301527E+01  0.51100000000E-03 0.  1.
        -12    1    3    3    0    0 -0.17508426843E+02  0.34375982962E+02  0.14784100777E+02  0.41313712626E+02  0.00000000000E+00 0.  1.
</event>
<event>
 7    1  0.2385752E-015  0.9000786E+02  0.7816164E-02  0.1186339E+00
        -11   -1    0    0    0    0  0.00000000000E+00  0.00000000000E+00  0.45593999997E+02  0.45594000000E+02  0.51100000000E-03 0. -1.
         11   -1    0    0    0    0 -0.00000000000E+00 -0.00000000000E+00 -0.45593999997E+02  0.45594000000E+02  0.51100000000E-03 0.  1.
    9900012    2    1    2    0    0 -0.13985698954E+00 -0.61874323646E+00  0.99515265335E+00  0.90007859342E+02  0.90000122285E+02 0.  0.
        -12    1    1    2    0    0  0.13985698954E+00  0.61874323646E+00 -0.99515265335E+00  0.11801406584E+01  0.00000000000E+00 0.  1.
         11    1    3    3    0    0  0.68594990982E+01  0.56831234373E+00  0.73197066098E+01  0.10047577415E+02  0.51100000000E-03 0. -1.
        -11    1    3    3    0    0 -0.36892978150E+02 -0.20714186808E+02  0.47495789572E+01  0.42576142057E+02  0.51100000000E-03 0.  1.
         12    1    3    3    0    0  0.29893622063E+02  0.19527131228E+02 -0.11074132914E+02  0.37384139870E+02  0.00000000000E+00 0. -1.
</event>
<event>
 7    1  0.2385752E-015  0.9000764E+02  0.7816164E-02  0.1186339E+00
        -11   -1    0    0    0    0  0.00000000000E+00  0.00000000000E+00  0.45593999997E+02  0.45594000000E+02  0.51100000000E-03 0. -1.
         11   -1    0    0    0    0 -0.00000000000E+00 -0.00000000000E+00 -0.45593999997E+02  0.45594000000E+02  0.51100000000E-03 0.  1.
    9900012    2    1    2    0    0 -0.37817104435E-01 -0.11196943425E+01  0.37163698056E+00  0.90007635819E+02  0.89999895812E+02 0.  0.
        -12    1    1    2    0    0  0.37817104435E-01  0.11196943425E+01 -0.37163698056E+00  0.11803641808E+01  0.00000000000E+00 0.  1.
         11    1    3    3    0    0 -0.21088591719E+02 -0.57200530468E+01  0.30235650672E+02  0.37304721944E+02  0.51100000000E-03 0. -1.
        -11    1    3    3    0    0  0.63750331482E+01 -0.13810122180E+02 -0.70713991187E+00  0.15226968489E+02  0.51100000000E-03 0.  1.
        -12    1    3    3    0    0  0.14675741466E+02  0.18410480884E+02 -0.29156873779E+02  0.37475945386E+02  0.00000000000E+00 0.  1.
</event>
<event>
 7    1  0.2385752E-015  0.9000772E+02  0.7816164E-02  0.1186339E+00
        -11   -1    0    0    0    0  0.00000000000E+00  0.00000000000E+00  0.45593999997E+02  0.45594000000E+02  0.51100000000E-03 0.  1.
         11   -1    0    0    0    0 -0.00000000000E+00 -0.00000000000E+00 -0.45593999997E+02  0.45594000000E+02  0.51100000000E-03 0. -1.
    9900012    2    1    2    0    0 -0.38468414857E+00 -0.10954983395E+01 -0.21206134878E+00  0.90007716762E+02  0.89999977823E+02 0.  0.
        -12    1    1    2    0    0  0.38468414857E+00  0.10954983395E+01  0.21206134878E+00  0.11802832379E+01  0.00000000000E+00 0.  1.
         11    1    3    3    0    0  0.57475980812E+00 -0.54680805454E+01  0.67264847078E+01  0.86876838383E+01  0.51100000000E-03 0. -1.
        -11    1    3    3    0    0 -0.14571068328E+02 -0.41976773015E-01  0.34515793750E+02  0.37465421561E+02  0.51100000000E-03 0.  1.
         12    1    3    3    0    0  0.13611624372E+02  0.44145589790E+01 -0.41454339807E+02  0.43854611363E+02  0.00000000000E+00 0. -1.
</event>
<event>
 7    1  0.2385752E-015  0.9000779E+02  0.7816164E-02  0.1186339E+00
        -11   -1    0    0    0    0  0.00000000000E+00  0.00000000000E+00  0.45593999997E+02  0.45594000000E+02  0.51100000000E-03 0.  1.
         11   -1    0    0    0    0 -0.00000000000E+00 -0.00000000000E+00 -0.45593999997E+02  0.45594000000E+02  0.51100000000E-03 0. -1.
    9900012    2    1    2    0    0  0.92789231281E+00 -0.93899774516E-01 -0.72325017351E+00  0.90007791491E+02  0.90000053538E+02 0.  0.
        -12    1    1    2    0    0 -0.92789231281E+00  0.93899774516E-01  0.72325017351E+00  0.11802085093E+01  0.00000000000E+00 0.  1.
         11    1    3    3    0    0 -0.10283371183E+02  0.26361714310E+01  0.92985012417E+00  0.10656535282E+02  0.51100000000E-03 0. -1.
        -11    1    3    3    0    0  0.84707171789E+01  0.19286282582E+01  0.38178583641E+02  0.39154525991E+02  0.51100000000E-03 0.  1.
         12    1    3    3    0    0  0.27405463169E+01 -0.46586994637E+01 -0.39831683939E+02  0.40196730218E+02  0.00000000000E+00 0. -1.
</event>
<event>
 7    1  0.2385752E-015  0.9000799E+02  0.7816164E-02  0.1186339E+00
        -11   -1    0    0    0    0  0.00000000000E+00  0.00000000000E+00  0.45593999997E+02  0.45594000000E+02  0.51100000000E-03 0. -1.
         11   -1    0    0    0    0 -0.00000000000E+00 -0.00000000000E+00 -0.45593999997E+02  0.45594000000E+02  0.51100000000E-03 0.  1.
    9900012    2    1    2    0    0  0.73694029769E-01  0.77217997679E+00  0.88923535614E+00  0.90007986337E+02  0.90000250956E+02 0.  0.
        -12    1    1    2    0    0 -0.73694029769E-01 -0.77217997679E+00 -0.88923535614E+00  0.11800136631E+01  0.00000000000E+00 0.  1.
         11    1    3    3    0    0 -0.23225323645E+01  0.88131404649E+01  0.37820347823E+01  0.98675928571E+01  0.51100000000E-03 0. -1.
        -11    1    3    3    0    0  0.20188395483E+02 -0.37442573990E+02  0.95392838198E+01  0.43594903317E+02  0.51100000000E-03 0.  1.
         12    1    3    3    0    0 -0.17792169088E+02  0.29401613502E+02 -0.12432083246E+02  0.36545490163E+02  0.00000000000E+00 0. -1.
</event>
<event>
 7    1  0.2385752E-015  0.9000806E+02  0.7816164E-02  0.1186338E+00
        -11   -1    0    0    0    0  0.00000000000E+00  0.00000000000E+00  0.45593999997E+02  0.45594000000E+02  0.51100000000E-03 0. -1.
         11   -1    0    0    0    0 -0.00000000000E+00 -0.00000000000E+00 -0.45593999997E+02  0.45594000000E+02  0.51100000000E-03 0.  1.
    9900012    2    1    2    0    0  0.36100752644E+00  0.10453119283E+01 -0.41140280028E+00  0.90008061135E+02  0.90000326741E+02 0.  0.
        -12    1    1    2    0    0 -0.36100752644E+00 -0.10453119283E+01  0.41140280028E+00  0.11799388652E+01  0.00000000000E+00 0.  1.
         11    1    3    3    0    0  0.29203711387E+02 -0.24671999086E+02 -0.18521077953E+02  0.42480520553E+02  0.51100000000E-03 0. -1.
        -11    1    3    3    0    0 -0.48810344305E+01 -0.33625154987E+01  0.45852718900E+01  0.74937124416E+01  0.51100000000E-03 0.  1.
        -12    1    3    3    0    0 -0.23961669430E+02  0.29079826513E+02  0.13524403263E+02  0.40033828140E+02  0.00000000000E+00 0.  1.
</event>
<event>
 7    1  0.2385752E-015  0.9000768E+02  0.7816164E-02  0.1186339E+00
        -11   -1    0    0    0    0  0.00000000000E+00  0.00000000000E+00  0.45593999997E+02  0.45594000000E+02  0.51100000000E-03 0.  1.
         11   -1    0    0    0    0 -0.00000000000E+00 -0.00000000000E+00 -0.45593999997E+02  0.45594000000E+02  0.51100000000E-03 0. -1.
    9900012    2    1    2    0    0 -0.17619997774E+00 -0.72976111149E-01 -0.11648076785E+01  0.90007682724E+02  0.89999943336E+02 0.  0.
        -12    1    1    2    0    0  0.17619997774E+00  0.72976111149E-01  0.11648076785E+01  0.11803172763E+01  0.00000000000E+00 0.  1.
         11    1    3    3    0    0 -0.29793003797E+02  0.10643050789E+02  0.51343510773E+01  0.32050884022E+02  0.51100000000E-03 0. -1.
        -11    1    3    3    0    0 -0.12449816557E+02 -0.78108406477E+01  0.24278441306E+01  0.14896361680E+02  0.51100000000E-03 0.  1.
        -12    1    3    3    0    0  0.42066620377E+02 -0.29051862527E+01 -0.87270028864E+01  0.43060437021E+02  0.00000000000E+00 0.  1.
</event>
<event>
 7    1  0.2385752E-015  0.9000774E+02  0.7816164E-02  0.1186339E+00
        -11   -1    0    0    0    0  0.00000000000E+00  0.00000000000E+00  0.45593999997E+02  0.45594000000E+02  0.51100000000E-03 0. -1.
         11   -1    0    0    0    0 -0.00000000000E+00 -0.00000000000E+00 -0.45593999997E+02  0.45594000000E+02  0.51100000000E-03 0.  1.
    9900012    2    1    2    0    0  0.70979564515E+00 -0.82721795429E+00  0.45267585234E+00  0.90007739508E+02  0.90000000869E+02 0.  0.
        -12    1    1    2    0    0 -0.70979564515E+00  0.82721795429E+00 -0.45267585234E+00  0.11802604920E+01  0.00000000000E+00 0.  1.
         11    1    3    3    0    0 -0.29338993509E+01 -0.61870108281E+01  0.82529541846E+01  0.10723717705E+02  0.51100000000E-03 0. -1.
        -11    1    3    3    0    0 -0.10667870435E+02 -0.26742197368E+02 -0.26796004924E+02  0.39331596203E+02  0.51100000000E-03 0.  1.
         12    1    3    3    0    0  0.14311565431E+02  0.32101990242E+02  0.18995726592E+02  0.39952425600E+02  0.00000000000E+00 0. -1.
</event>
<event>
 7    1  0.2385752E-015  0.9000774E+02  0.7816164E-02  0.1186339E+00
        -11   -1    0    0    0    0  0.00000000000E+00  0.00000000000E+00  0.45593999997E+02  0.45594000000E+02  0.51100000000E-03 0.  1.
         11   -1    0    0    0    0 -0.00000000000E+00 -0.00000000000E+00 -0.45593999997E+02  0.45594000000E+02  0.51100000000E-03 0. -1.
    9900012    2    1    2    0    0 -0.19902839676E+00  0.11539280972E+01 -0.14783481377E+00  0.90007738381E+02  0.89999999728E+02 0.  0.
        -12    1    1    2    0    0  0.19902839676E+00 -0.11539280972E+01  0.14783481377E+00  0.11802616186E+01  0.00000000000E+00 0.  1.
         11    1    3    3    0    0 -0.76744982905E+01 -0.60597816104E+01  0.55150456116E+01  0.11226513508E+02  0.51100000000E-03 0. -1.
        -11    1    3    3    0    0 -0.12928850128E+02  0.10353538021E+02  0.31885943132E+02  0.35931383008E+02  0.51100000000E-03 0.  1.
         12    1    3    3    0    0  0.20404320022E+02 -0.31398283135E+01 -0.37548823557E+02  0.42849841866E+02  0.00000000000E+00 0. -1.
</event>
<event>
 7    1  0.2385752E-015  0.9000776E+02  0.7816164E-02  0.1186339E+00
        -11   -1    0    0    0    0  0.00000000000E+00  0.00000000000E+00  0.45593999997E+02  0.45594000000E+02  0.51100000000E-03 0.  1.
         11   -1    0    0    0    0 -0.00000000000E+00 -0.00000000000E+00 -0.45593999997E+02  0.45594000000E+02  0.51100000000E-03 0. -1.
    9900012    2    1    2    0    0  0.82743121948E+00  0.17588283776E+00 -0.82303681192E+00  0.90007759859E+02  0.90000021490E+02 0.  0.
        -12    1    1    2    0    0 -0.82743121948E+00 -0.17588283776E+00  0.82303681192E+00  0.11802401406E+01  0.00000000000E+00 0.  1.
         11    1    3    3    0    0  0.53151527795E+01 -0.40156759459E+02  0.24135216545E+01  0.40578827809E+02  0.51100000000E-03 0. -1.
        -11    1    3    3    0    0  0.41085026165E+01  0.31436879063E+01  0.81003518403E+01  0.96113613813E+01  0.51100000000E-03 0.  1.
        -12    1    3    3    0    0 -0.85962241766E+01  0.37188954390E+02 -0.11336910307E+02  0.39817570670E+02  0.00000000000E+00 0.  1.
</event>
<event>
 7    1  0.3720142E-015  0.9000774E+02  0.7816164E-02  0.1186339E+00
        -11   -1    0    0    0    0  0.00000000000E+00  0.00000000000E+00  0.45593999997E+02  0.45594000000E+02  0.51100000000E-03 0.  1.
         11   -1    0    0    0    0 -0.00000000000E+00 -0.00000000000E+00 -0.45593999997E+02  0.45594000000E+02  0.51100000000E-03 0. -1.
    9900012    2    1    2    0    0 -0.55026306351E+00 -0.74125489049E+00 -0.73537148803E+00  0.90007737539E+02  0.89999998874E+02 0.  0.
        -12    1    1    2    0    0  0.55026306351E+00  0.74125489049E+00  0.73537148803E+00  0.11802624611E+01  0.00000000000E+00 0.  1.
         11    1    3    3    0    0  0.82868555479E+01 -0.11446596453E+02 -0.37459069878E+02  0.40035964602E+02  0.51100000000E-03 0. -1.
        -11    1    3    3    0    0  0.85096586508E+01  0.42525248420E+01  0.78265764976E+00  0.95451983292E+01  0.51100000000E-03 0.  1.
        -12    1    3    3    0    0 -0.17346777262E+02  0.64528167208E+01  0.35941040740E+02  0.40426574608E+02  0.00000000000E+00 0.  1.
</event>
<event>
 7    1  0.2385752E-015  0.9000768E+02  0.7816164E-02  0.1186339E+00
        -11   -1    0    0    0    0  0.00000000000E+00  0.00000000000E+00  0.45593999997E+02  0.45594000000E+02  0.51100000000E-03 0.  1.
         11   -1    0    0    0    0 -0.00000000000E+00 -0.00000000000E+00 -0.45593999997E+02  0.45594000000E+02  0.51100000000E-03 0. -1.
    9900012    2    1    2    0    0 -0.37513203949E+00 -0.11935032215E+00 -0.11127347209E+01  0.90007683472E+02  0.89999944094E+02 0.  0.
        -12    1    1    2    0    0  0.37513203949E+00  0.11935032215E+00  0.11127347209E+01  0.11803165277E+01  0.00000000000E+00 0.  1.
         11    1    3    3    0    0 -0.17446319573E+02 -0.44213379759E+01 -0.33560886556E+02  0.38082218985E+02  0.51100000000E-03 0. -1.
        -11    1    3    3    0    0  0.30656003623E+01  0.53252237392E+01 -0.74331264592E+01  0.96440283426E+01  0.51100000000E-03 0.  1.
        -12    1    3    3    0    0  0.14005587172E+02 -0.10232360855E+01  0.39881278294E+02  0.42281436145E+02  0.00000000000E+00 0.  1.
</event>
<event>
 7    1  0.2385752E-015  0.9000777E+02  0.7816164E-02  0.1186339E+00
        -11   -1    0    0    0    0  0.00000000000E+00  0.00000000000E+00  0.45593999997E+02  0.45594000000E+02  0.51100000000E-03 0.  1.
         11   -1    0    0    0    0 -0.00000000000E+00 -0.00000000000E+00 -0.45593999997E+02  0.45594000000E+02  0.51100000000E-03 0. -1.
    9900012    2    1    2    0    0 -0.97039776531E+00  0.30598875261E+00 -0.59803973050E+00  0.90007765930E+02  0.90000027641E+02 0.  0.
        -12    1    1    2    0    0  0.97039776531E+00 -0.30598875261E+00  0.59803973050E+00  0.11802340695E+01  0.00000000000E+00 0.  1.
         11    1    3    3    0    0  0.55377019208E+01 -0.32851975805E+01 -0.63630066835E+01  0.90524317187E+01  0.51100000000E-03 0. -1.
        -11    1    3    3    0    0 -0.23552127502E+02 -0.11232027448E+01  0.37691068104E+02  0.44458755149E+02  0.51100000000E-03 0.  1.
         12    1    3    3    0    0  0.17044027816E+02  0.47143890780E+01 -0.31926101151E+02  0.36496579063E+02  0.00000000000E+00 0. -1.
</event>
<event>
 7    1  0.2385752E-015  0.9000770E+02  0.7816164E-02  0.1186339E+00
        -11   -1    0    0    0    0  0.00000000000E+00  0.00000000000E+00  0.45593999997E+02  0.45594000000E+02  0.51100000000E-03 0.  1.
         11   -1    0    0    0    0 -0.00000000000E+00 -0.00000000000E+00 -0.45593999997E+02  0.45594000000E+02  0.51100000000E-03 0. -1.
    9900012    2    1    2    0    0  0.22373702801E+00 -0.11519860316E+01  0.12638902536E+00  0.90007701622E+02  0.89999962484E+02 0.  0.
        -12    1    1    2    0    0 -0.22373702801E+00  0.11519860316E+01 -0.12638902536E+00  0.11802983778E+01  0.00000000000E+00 0.  1.
         11    1    3    3    0    0  0.28664029758E+02  0.25766783610E+01 -0.36045773702E+01  0.29004462616E+02  0.51100000000E-03 0. -1.
        -11    1    3    3    0    0  0.16071242785E+02  0.11331763940E+01  0.79059060046E+00  0.16130529041E+02  0.51100000000E-03 0.  1.
        -12    1    3    3    0    0 -0.44511535515E+02 -0.48618407866E+01  0.29403757951E+01  0.44872709965E+02  0.00000000000E+00 0.  1.
</event>
<event>
 7    1  0.2385752E-015  0.9000775E+02  0.7816164E-02  0.1186339E+00
        -11   -1    0    0    0    0  0.00000000000E+00  0.00000000000E+00  0.45593999997E+02  0.45594000000E+02  0.51100000000E-03 0.  1.
         11   -1    0    0    0    0 -0.00000000000E+00 -0.00000000000E+00 -0.45593999997E+02  0.45594000000E+02  0.51100000000E-03 0. -1.
    9900012    2    1    2    0    0  0.39989859611E+00 -0.10920394439E+00 -0.11050498721E+01  0.90007754429E+02  0.90000015987E+02 0.  0.
        -12    1    1    2    0    0 -0.39989859611E+00  0.10920394439E+00  0.11050498721E+01  0.11802455712E+01  0.00000000000E+00 0.  1.
         11    1    3    3    0    0 -0.41466185530E+01 -0.42631444083E+01  0.39147808706E+01  0.71199968537E+01  0.51100000000E-03 0. -1.
        -11    1    3    3    0    0 -0.25344834940E+02  0.31869669583E+02  0.46774921528E+01  0.40986771409E+02  0.51100000000E-03 0.  1.
         12    1    3    3    0    0  0.29891352089E+02 -0.27715729119E+02 -0.96973228955E+01  0.41900986166E+02  0.00000000000E+00 0. -1.
</event>
<event>
 7    1  0.2385752E-015  0.9000788E+02  0.7816164E-02  0.1186339E+00
        -11   -1    0    0    0    0  0.00000000000E+00  0.00000000000E+00  0.45593999997E+02  0.45594000000E+02  0.51100000000E-03 0. -1.
         11   -1    0    0    0    0 -0.00000000000E+00 -0.00000000000E+00 -0.45593999997E+02  0.45594000000E+02  0.51100000000E-03 0.  1.
    9900012    2    1    2    0    0  0.27356065988E+00 -0.35766535498E-01  0.11474226580E+01  0.90007875669E+02  0.90000138828E+02 0.  0.
        -12    1    1    2    0    0 -0.27356065988E+00  0.35766535498E-01 -0.11474226580E+01  0.11801243307E+01  0.00000000000E+00 0.  1.
         11    1    3    3    0    0 -0.39954507352E+01 -0.62025105864E+01 -0.55824169551E+01  0.92519264736E+01  0.51100000000E-03 0. -1.
        -11    1    3    3    0    0 -0.19607768559E+02 -0.21832500745E+02 -0.19792946790E+02  0.35396093280E+02  0.51100000000E-03 0.  1.
         12    1    3    3    0    0  0.23876779954E+02  0.27999244795E+02  0.26522786403E+02  0.45359855915E+02  0.00000000000E+00 0. -1.
</event>
<event>
 7    1  0.2385752E-015  0.9000765E+02  0.7816164E-02  0.1186339E+00
        -11   -1    0    0    0    0  0.00000000000E+00  0.00000000000E+00  0.45593999997E+02  0.45594000000E+02  0.51100000000E-03 0.  1.
         11   -1    0    0    0    0 -0.00000000000E+00 -0.00000000000E+00 -0.45593999997E+02  0.45594000000E+02  0.51100000000E-03 0. -1.
    9900012    2    1    2    0    0  0.10389001438E+01 -0.54743146853E+00  0.11933481242E+00  0.90007646020E+02  0.89999906147E+02 0.  0.
        -12    1    1    2    0    0 -0.10389001438E+01  0.54743146853E+00 -0.11933481242E+00  0.11803539803E+01  0.00000000000E+00 0.  1.
         11    1    3    3    0    0  0.75183481292E+00 -0.14100122890E+02 -0.30870585269E+02  0.33946601542E+02  0.51100000000E-03 0. -1.
        -11    1    3    3    0    0 -0.72142808670E+01 -0.11569576024E+01 -0.97026506103E+01  0.12146021095E+02  0.51100000000E-03 0.  1.
        -12    1    3    3    0    0  0.75013461978E+01  0.14709649024E+02  0.40692570692E+02  0.43915023383E+02  0.00000000000E+00 0.  1.
</event>
<event>
 7    1  0.2385752E-015  0.9000774E+02  0.7816164E-02  0.1186339E+00
        -11   -1    0    0    0    0  0.00000000000E+00  0.00000000000E+00  0.45593999997E+02  0.45594000000E+02  0.51100000000E-03 0.  1.
         11   -1    0    0    0    0 -0.00000000000E+00 -0.00000000000E+00 -0.45593999997E+02  0.45594000000E+02  0.51100000000E-03 0. -1.
    9900012    2    1    2    0    0 -0.60796732812E+00 -0.40056026298E+00 -0.92895045709E+00  0.90007736577E+02  0.89999997900E+02 0.  0.
        -12    1    1    2    0    0  0.60796732812E+00  0.40056026298E+00  0.92895045709E+00  0.11802634232E+01  0.00000000000E+00 0.  1.
         11    1    3    3    0    0  0.17663463013E+02 -0.23160619073E+02  0.21019223490E+02  0.35919631928E+02  0.51100000000E-03 0. -1.
        -11    1    3    3    0    0 -0.27320320344E+01 -0.10874779954E+02 -0.38531740363E+00  0.11219327424E+02  0.51100000000E-03 0.  1.
        -12    1    3    3    0    0 -0.15539398307E+02  0.33634838765E+02 -0.21562856543E+02  0.42868777225E+02  0.00000000000E+00 0.  1.
</event>
<event>
 7    1  0.2385752E-015  0.9000774E+02  0.7816164E-02  0.1186339E+00
        -11   -1    0    0    0    0  0.00000000000E+00  0.00000000000E+00  0.45593999997E+02  0.45594000000E+02  0.51100000000E-03 0. -1.
         11   -1    0    0    0    0 -0.00000000000E+00 -0.00000000000E+00 -0.45593999997E+02  0.45594000000E+02  0.51100000000E-03 0.  1.
    9900012    2    1    2    0    0  0.12105509077E+00  0.11124474499E+01 -0.37524766155E+00  0.90007743896E+02  0.90000005315E+02 0.  0.
        -12    1    1    2    0    0 -0.12105509077E+00 -0.11124474499E+01  0.37524766155E+00  0.11802561041E+01  0.00000000000E+00 0.  1.
         11    1    3    3    0    0 -0.21936122503E+02 -0.70057931464E+01 -0.29756763515E+02  0.37626315036E+02  0.51100000000E-03 0. -1.
        -11    1    3    3    0    0 -0.51124567759E+01  0.17903159177E+01 -0.54979449635E+01  0.77181503259E+01  0.51100000000E-03 0.  1.
        -12    1    3    3    0    0  0.27169634369E+02  0.63279246786E+01  0.34879460817E+02  0.44663278534E+02  0.00000000000E+00 0.  1.
</event>
<event>
 7    1  0.2385752E-015  0.9000773E+02  0.7816164E-02  0.1186339E+00
        -11   -1    0    0    0    0  0.00000000000E+00  0.00000000000E+00  0.45593999997E+02  0.45594000000E+02  0.51100000000E-03 0.  1.
         11   -1    0    0    0    0 -0.00000000000E+00 -0.00000000000E+00 -0.45593999997E+02  0.45594000000E+02  0.51100000000E-03 0. -1.
    9900012    2    1    2    0    0  0.69132049286E+00 -0.48256886814E+00 -0.82598136681E+00  0.90007728017E+02  0.89999989226E+02 0.  0.
        -12    1    1    2    0    0 -0.69132049286E+00  0.48256886814E+00  0.82598136681E+00  0.11802719833E+01  0.00000000000E+00 0.  1.
         11    1    3    3    0    0 -0.81980322351E+01  0.14083304303E+02  0.11215913661E+00  0.16296004803E+02  0.51100000000E-03 0. -1.
        -11    1    3    3    0    0 -0.19303015799E+02  0.18828720661E+02  0.98298140900E+01  0.28701086843E+02  0.51100000000E-03 0.  1.
         12    1    3    3    0    0  0.28192368527E+02 -0.33394593832E+02 -0.10767954593E+02  0.45010636370E+02  0.00000000000E+00 0. -1.
</event>
<event>
 7    1  0.2385752E-015  0.9000775E+02  0.7816164E-02  0.1186339E+00
        -11   -1    0    0    0    0  0.00000000000E+00  0.00000000000E+00  0.45593999997E+02  0.45594000000E+02  0.51100000000E-03 0.  1.
         11   -1    0    0    0    0 -0.00000000000E+00 -0.00000000000E+00 -0.45593999997E+02  0.45594000000E+02  0.51100000000E-03 0. -1.
    9900012    2    1    2    0    0  0.11042339865E+01  0.20618903764E-01 -0.41621450599E+00  0.90007749030E+02  0.90000010518E+02 0.  0.
        -12    1    1    2    0    0 -0.11042339865E+01 -0.20618903764E-01  0.41621450599E+00  0.11802509695E+01  0.00000000000E+00 0.  1.
         11    1    3    3    0    0 -0.17241720846E+02 -0.27384024054E+02 -0.21003129360E+02  0.38578402693E+02  0.51100000000E-03 0. -1.
        -11    1    3    3    0    0  0.41134227561E+01 -0.61175323819E+01 -0.30874570836E+01  0.79922988381E+01  0.51100000000E-03 0.  1.
        -12    1    3    3    0    0  0.14232532077E+02  0.33522175340E+02  0.23674371938E+02  0.43437047500E+02  0.00000000000E+00 0.  1.
</event>
<event>
 7    1  0.2385752E-015  0.9000772E+02  0.7816164E-02  0.1186339E+00
        -11   -1    0    0    0    0  0.00000000000E+00  0.00000000000E+00  0.45593999997E+02  0.45594000000E+02  0.51100000000E-03 0. -1.
         11   -1    0    0    0    0 -0.00000000000E+00 -0.00000000000E+00 -0.45593999997E+02  0.45594000000E+02  0.51100000000E-03 0.  1.
    9900012    2    1    2    0    0 -0.14779650629E+00 -0.99139859389E+00  0.62316979337E+00  0.90007722249E+02  0.89999983382E+02 0.  0.
        -12    1    1    2    0    0  0.14779650629E+00  0.99139859389E+00 -0.62316979337E+00  0.11802777515E+01  0.00000000000E+00 0.  1.
         11    1    3    3    0    0  0.10619460678E+02  0.56569065456E+01 -0.10034408139E+01  0.12073956704E+02  0.51100000000E-03 0. -1.
        -11    1    3    3    0    0 -0.14443095327E+02  0.23755086254E+02 -0.24972602856E+02  0.37370282568E+02  0.51100000000E-03 0.  1.
         12    1    3    3    0    0  0.36758381428E+01 -0.30403391394E+02  0.26599213463E+02  0.40563482976E+02  0.00000000000E+00 0. -1.
</event>
<event>
 7    1  0.2385752E-015  0.9000761E+02  0.7816164E-02  0.1186339E+00
        -11   -1    0    0    0    0  0.00000000000E+00  0.00000000000E+00  0.45593999997E+02  0.45594000000E+02  0.51100000000E-03 0.  1.
         11   -1    0    0    0    0 -0.00000000000E+00 -0.00000000000E+00 -0.45593999997E+02  0.45594000000E+02  0.51100000000E-03 0. -1.
    9900012    2    1    2    0    0 -0.10042360960E+01 -0.48370019130E+00  0.38841550588E+00  0.90007609125E+02  0.89999868766E+02 0.  0.
        -12    1    1    2    0    0  0.10042360960E+01  0.48370019130E+00 -0.38841550588E+00  0.11803908746E+01  0.00000000000E+00 0.  1.
         11    1    3    3    0    0  0.32985234487E+01 -0.85535637811E+01  0.23294480479E+01  0.94588603313E+01  0.51100000000E-03 0. -1.
        -11    1    3    3    0    0  0.24296597144E+02 -0.24285054206E+02  0.99392967994E+01  0.35761405338E+02  0.51100000000E-03 0.  1.
         12    1    3    3    0    0 -0.28599356689E+02  0.32354917796E+02 -0.11880329341E+02  0.44787343456E+02  0.00000000000E+00 0. -1.
</event>
<event>
 7    1  0.2385752E-015  0.9000767E+02  0.7816164E-02  0.1186339E+00
        -11   -1    0    0    0    0  0.00000000000E+00  0.00000000000E+00  0.45593999997E+02  0.45594000000E+02  0.51100000000E-03 0. -1.
         11   -1    0    0    0    0 -0.00000000000E+00 -0.00000000000E+00 -0.45593999997E+02  0.45594000000E+02  0.51100000000E-03 0.  1.
    9900012    2    1    2    0    0  0.22138527772E+00  0.84480441445E-01  0.11563046116E+01  0.90007665835E+02  0.89999926224E+02 0.  0.
        -12    1    1    2    0    0 -0.22138527772E+00 -0.84480441445E-01 -0.11563046116E+01  0.11803341649E+01  0.00000000000E+00 0.  1.
         11    1    3    3    0    0  0.11061168507E+02 -0.76463483825E+01  0.38650387014E+02  0.40922713851E+02  0.51100000000E-03 0. -1.
        -11    1    3    3    0    0 -0.83049696354E+01  0.79005028406E+01  0.42350801119E-01  0.11462646275E+02  0.51100000000E-03 0.  1.
        -12    1    3    3    0    0 -0.25348135936E+01 -0.16967401671E+00 -0.37536433203E+02  0.37622305709E+02  0.00000000000E+00 0.  1.
</event>
<event>
 7    1  0.2385752E-015  0.9000776E+02  0.7816164E-02  0.1186339E+00
        -11   -1    0    0    0    0  0.00000000000E+00  0.00000000000E+00  0.45593999997E+02  0.45594000000E+02  0.51100000000E-03 0. -1.
         11   -1    0    0    0    0 -0.00000000000E+00 -0.00000000000E+00 -0.45593999997E+02  0.45594000000E+02  0.51100000000E-03 0.  1.
    9900012    2    1    2    0    0 -0.54456222927E+00  0.36436773003E+00  0.98166337135E+00  0.90007756449E+02  0.90000018034E+02 0.  0.
        -12    1    1    2    0    0  0.54456222927E+00 -0.36436773003E+00 -0.98166337135E+00  0.11802435507E+01  0.00000000000E+00 0.  1.
         11    1    3    3    0    0 -0.13252366867E+02 -0.45596242025E+01 -0.88322239504E+01  0.16565735137E+02  0.51100000000E-03 0. -1.
        -11    1    3    3    0    0 -0.18510053885E+02  0.28205529694E+02  0.26068599161E+01  0.33837401186E+02  0.51100000000E-03 0.  1.
         12    1    3    3    0    0  0.31217858523E+02 -0.23281537761E+02  0.72070274056E+01  0.39604620126E+02  0.00000000000E+00 0. -1.
</event>
<event>
 7    1  0.2385752E-015  0.9000774E+02  0.7816164E-02  0.1186339E+00
        -11   -1    0    0    0    0  0.00000000000E+00  0.00000000000E+00  0.45593999997E+02  0.45594000000E+02  0.51100000000E-03 0.  1.
         11   -1    0    0    0    0 -0.00000000000E+00 -0.00000000000E+00 -0.45593999997E+02  0.45594000000E+02  0.51100000000E-03 0. -1.
    9900012    2    1    2    0    0 -0.29333990061E+00  0.10898201990E+01 -0.34534764073E+00  0.90007736743E+02  0.89999998068E+02 0.  0.
        -12    1    1    2    0    0  0.29333990061E+00 -0.10898201990E+01  0.34534764073E+00  0.11802632572E+01  0.00000000000E+00 0.  1.
         11    1    3    3    0    0 -0.64735411766E+01 -0.20452414862E+02  0.28822744885E+02  0.35929912775E+02  0.51100000000E-03 0. -1.
        -11    1    3    3    0    0 -0.10379130349E+02 -0.29357555057E+01  0.21703553144E+01  0.11002520149E+02  0.51100000000E-03 0.  1.
         12    1    3    3    0    0  0.16559331625E+02  0.24477990566E+02 -0.31338447840E+02  0.43075303819E+02  0.00000000000E+00 0. -1.
</event>
<event>
 7    1  0.2385752E-015  0.9000777E+02  0.7816164E-02  0.1186339E+00
        -11   -1    0    0    0    0  0.00000000000E+00  0.00000000000E+00  0.45593999997E+02  0.45594000000E+02  0.51100000000E-03 0. -1.
         11   -1    0    0    0    0 -0.00000000000E+00 -0.00000000000E+00 -0.45593999997E+02  0.45594000000E+02  0.51100000000E-03 0.  1.
    9900012    2    1    2    0    0 -0.59619917224E-01  0.17216994059E+00  0.11660832826E+01  0.90007768139E+02  0.90000029879E+02 0.  0.
        -12    1    1    2    0    0  0.59619917224E-01 -0.17216994059E+00 -0.11660832826E+01  0.11802318607E+01  0.00000000000E+00 0.  1.
         11    1    3    3    0    0  0.76649880852E+01  0.36507502595E+02  0.38953733937E+01  0.37506315765E+02  0.51100000000E-03 0. -1.
        -11    1    3    3    0    0  0.74902575222E+01  0.45518883396E+01  0.30029135810E+00  0.87700524722E+01  0.51100000000E-03 0.  1.
        -12    1    3    3    0    0 -0.15214865525E+02 -0.40887220994E+02 -0.30295814692E+01  0.43731399903E+02  0.00000000000E+00 0.  1.
</event>
<event>
 7    1  0.2385752E-015  0.9000780E+02  0.7816164E-02  0.1186339E+00
        -11   -1    0    0    0    0  0.00000000000E+00  0.00000000000E+00  0.45593999997E+02  0.45594000000E+02  0.51100000000E-03 0.  1.
         11   -1    0    0    0    0 -0.00000000000E+00 -0.00000000000E+00 -0.45593999997E+02  0.45594000000E+02  0.51100000000E-03 0. -1.
    9900012    2    1    2    0    0 -0.57943887202E+00  0.24855883556E+00 -0.99767144982E+00  0.90007796957E+02  0.90000059077E+02 0.  0.
        -12    1    1    2    0    0  0.57943887202E+00 -0.24855883556E+00  0.99767144982E+00  0.11802030431E+01  0.00000000000E+00 0.  1.
         11    1    3    3    0    0  0.18530827841E+01  0.65784286799E+01  0.97504489821E+01  0.11907178310E+02  0.51100000000E-03 0. -1.
        -11    1    3    3    0    0 -0.13614104455E+02 -0.88644478569E+01  0.30896130334E+02  0.34906921173E+02  0.51100000000E-03 0.  1.
         12    1    3    3    0    0  0.11181582798E+02  0.25345780125E+01 -0.41644250766E+02  0.43193697473E+02  0.00000000000E+00 0. -1.
</event>
<event>
 7    1  0.2385752E-015  0.9000777E+02  0.7816164E-02  0.1186339E+00
        -11   -1    0    0    0    0  0.00000000000E+00  0.00000000000E+00  0.45593999997E+02  0.45594000000E+02  0.51100000000E-03 0.  1.
         11   -1    0    0    0    0 -0.00000000000E+00 -0.00000000000E+00 -0.45593999997E+02  0.45594000000E+02  0.51100000000E-03 0. -1.
    9900012    2    1    2    0    0  0.25197873963E+00 -0.10953657823E+01 -0.36004527177E+00  0.90007766091E+02  0.90000027803E+02 0.  0.
        -12    1    1    2    0    0 -0.25197873963E+00  0.10953657823E+01  0.36004527177E+00  0.11802339090E+01  0.00000000000E+00 0.  1.
         11    1    3    3    0    0  0.77690862792E+01  0.89193267519E+00 -0.51262331005E+01  0.93505353628E+01  0.51100000000E-03 0. -1.
        -11    1    3    3    0    0  0.18943759394E+02 -0.31854641024E+02 -0.95354058071E+01  0.38268892575E+02  0.51100000000E-03 0.  1.
         12    1    3    3    0    0 -0.26460866934E+02  0.29867342566E+02  0.14301593636E+02  0.42388338153E+02  0.00000000000E+00 0. -1.
</event>
<event>
 7    1  0.2385752E-015  0.9000769E+02  0.7816164E-02  0.1186339E+00
        -11   -1    0    0    0    0  0.00000000000E+00  0.00000000000E+00  0.45593999997E+02  0.45594000000E+02  0.51100000000E-03 0. -1.
         11   -1    0    0    0    0 -0.00000000000E+00 -0.00000000000E+00 -0.45593999997E+02  0.45594000000E+02  0.51100000000E-03 0.  1.
    9900012    2    1    2    0    0 -0.29035185210E+00  0.10873212957E+01  0.35574118991E+00  0.90007693433E+02  0.89999954186E+02 0.  0.
        -12    1    1    2    0    0  0.29035185210E+00 -0.10873212957E+01 -0.35574118991E+00  0.11803065670E+01  0.00000000000E+00 0.  1.
         11    1    3    3    0    0 -0.21216539042E+02 -0.21813575266E+02 -0.15262849384E+02  0.34043034036E+02  0.51100000000E-03 0. -1.
        -11    1    3    3    0    0 -0.88717534215E+01 -0.68496181575E+01  0.47895161169E+00  0.11218496895E+02  0.51100000000E-03 0.  1.
        -12    1    3    3    0    0  0.29797940612E+02  0.29750514719E+02  0.15139638962E+02  0.44746162502E+02  0.00000000000E+00 0.  1.
</event>
<event>
 7    1  0.2385752E-015  0.9000773E+02  0.7816164E-02  0.1186339E+00
        -11   -1    0    0    0    0  0.00000000000E+00  0.00000000000E+00  0.45593999997E+02  0.45594000000E+02  0.51100000000E-03 0.  1.
         11   -1    0    0    0    0 -0.00000000000E+00 -0.00000000000E+00 -0.45593999997E+02  0.45594000000E+02  0.51100000000E-03 0. -1.
    9900012    2    1    2    0    0 -0.11270309095E+01  0.34718562528E+00  0.47949452829E-01  0.90007730675E+02  0.89999991920E+02 0.  0.
        -12    1    1    2    0    0  0.11270309095E+01 -0.34718562528E+00 -0.47949452829E-01  0.11802693249E+01  0.00000000000E+00 0.  1.
         11    1    3    3    0    0 -0.58212056816E+01  0.23874965370E+02 -0.26924077876E+02  0.36452796556E+02  0.51100000000E-03 0. -1.
        -11    1    3    3    0    0  0.22031973411E+01  0.10921343387E+02  0.30854526056E+01  0.11560702311E+02  0.51100000000E-03 0.  1.
        -12    1    3    3    0    0  0.24909774311E+01 -0.34449123132E+02  0.23886574723E+02  0.41994231808E+02  0.00000000000E+00 0.  1.
</event>
<event>
 7    1  0.3715981E-015  0.9000774E+02  0.7816164E-02  0.1186339E+00
        -11   -1    0    0    0    0  0.00000000000E+00  0.00000000000E+00  0.45593999997E+02  0.45594000000E+02  0.51100000000E-03 0.  1.
         11   -1    0    0    0    0 -0.00000000000E+00 -0.00000000000E+00 -0.45593999997E+02  0.45594000000E+02  0.51100000000E-03 0. -1.
    9900012    2    1    2    0    0  0.98842438526E+00  0.52594236639E+00  0.37337843269E+00  0.90007741727E+02  0.90000003117E+02 0.  0.
        -12    1    1    2    0    0 -0.98842438526E+00 -0.52594236639E+00 -0.37337843269E+00  0.11802582735E+01  0.00000000000E+00 0.  1.
         11    1    3    3    0    0  0.22269229274E+02  0.61878598074E+01  0.31973054652E+02  0.39452305452E+02  0.51100000000E-03 0. -1.
        -11    1    3    3    0    0 -0.62166912464E+01  0.49582265584E+01  0.51283486419E+01  0.94620938862E+01  0.51100000000E-03 0.  1.
        -12    1    3    3    0    0 -0.15064113643E+02 -0.10620143999E+02 -0.36728024861E+02  0.41093342388E+02  0.00000000000E+00 0.  1.
</event>
<event>
 7    1  0.2385752E-015  0.9000787E+02  0.7816164E-02  0.1186339E+00
        -11   -1    0    0    0    0  0.00000000000E+00  0.00000000000E+00  0.45593999997E+02  0.45594000000E+02  0.51100000000E-03 0. -1.
         11   -1    0    0    0    0 -0.00000000000E+00 -0.00000000000E+00 -0.45593999997E+02  0.45594000000E+02  0.51100000000E-03 0.  1.
    9900012    2    1    2    0    0 -0.55149144470E+00 -0.10169277871E+01  0.23327089122E+00  0.90007872784E+02  0.90000135904E+02 0.  0.
        -12    1    1    2    0    0  0.55149144470E+00  0.10169277871E+01 -0.23327089122E+00  0.11801272162E+01  0.00000000000E+00 0.  1.
         11    1    3    3    0    0  0.11930697930E+02  0.31231122951E+02 -0.15212315430E+02  0.36730629383E+02  0.51100000000E-03 0. -1.
        -11    1    3    3    0    0 -0.71256553373E+01  0.77316560443E+01  0.48056283462E+01  0.11560602633E+02  0.51100000000E-03 0.  1.
        -12    1    3    3    0    0 -0.53565340375E+01 -0.39979706782E+02  0.10639957975E+02  0.41716640768E+02  0.00000000000E+00 0.  1.
</event>
<event>
 7    1  0.2385752E-015  0.9000774E+02  0.7816164E-02  0.1186339E+00
        -11   -1    0    0    0    0  0.00000000000E+00  0.00000000000E+00  0.45593999997E+02  0.45594000000E+02  0.51100000000E-03 0.  1.
         11   -1    0    0    0    0 -0.00000000000E+00 -0.00000000000E+00 -0.45593999997E+02  0.45594000000E+02  0.51100000000E-03 0. -1.
    9900012    2    1    2    0    0 -0.41044613056E-01 -0.89586965386E+00 -0.76729176886E+00  0.90007744199E+02  0.90000005623E+02 0.  0.
        -12    1    1    2    0    0  0.41044613056E-01  0.89586965386E+00  0.76729176886E+00  0.11802558009E+01  0.00000000000E+00 0.  1.
         11    1    3    3    0    0 -0.20531843069E+02  0.29125857243E+02  0.47252917323E+01  0.35947190741E+02  0.51100000000E-03 0. -1.
        -11    1    3    3    0    0 -0.24522034182E+01  0.83745448420E+01 -0.31263561467E+01  0.92693260776E+01  0.51100000000E-03 0.  1.
        -12    1    3    3    0    0  0.22943001874E+02 -0.38396271739E+02 -0.23662273545E+01  0.44791227381E+02  0.00000000000E+00 0.  1.
</event>
<event>
 7    1  0.2385752E-015  0.9000783E+02  0.7816164E-02  0.1186339E+00
        -11   -1    0    0    0    0  0.00000000000E+00  0.00000000000E+00  0.45593999997E+02  0.45594000000E+02  0.51100000000E-03 0. -1.
         11   -1    0    0    0    0 -0.00000000000E+00 -0.00000000000E+00 -0.45593999997E+02  0.45594000000E+02  0.51100000000E-03 0.  1.
    9900012    2    1    2    0    0  0.88099778415E+00  0.63029491476E+00  0.46837727169E+00  0.90007827960E+02  0.90000090489E+02 0.  0.
        -12    1    1    2    0    0 -0.88099778415E+00 -0.63029491476E+00 -0.46837727169E+00  0.11801720400E+01  0.00000000000E+00 0.  1.
         11    1    3    3    0    0 -0.91753582780E+01 -0.17727675842E+00 -0.37660754419E+01  0.99197757573E+01  0.51100000000E-03 0. -1.
        -11    1    3    3    0    0  0.20714238460E+02  0.20500510973E+02 -0.28279883120E+02  0.40609142008E+02  0.51100000000E-03 0.  1.
         12    1    3    3    0    0 -0.10657882398E+02 -0.19692939300E+02  0.32514335833E+02  0.39478910194E+02  0.00000000000E+00 0. -1.
</event>
<event>
 7    1  0.2385752E-015  0.9000697E+02  0.7816164E-02  0.1186341E+00
        -11   -1    0    0    0    0  0.00000000000E+00  0.00000000000E+00  0.45593999997E+02  0.45594000000E+02  0.51100000000E-03 0. -1.
         11   -1    0    0    0    0 -0.00000000000E+00 -0.00000000000E+00 -0.45593999997E+02  0.45594000000E+02  0.51100000000E-03 0.  1.
    9900012    2    1    2    0    0 -0.89025486879E+00  0.29365662687E+00 -0.71836111002E+00  0.90006970521E+02  0.89999221728E+02 0.  0.
        -12    1    1    2    0    0  0.89025486879E+00 -0.29365662687E+00  0.71836111002E+00  0.11810294790E+01  0.00000000000E+00 0.  1.
         11    1    3    3    0    0 -0.38479729654E+02 -0.98983617659E+01 -0.18730078449E+02  0.43925880741E+02  0.51100000000E-03 0. -1.
        -11    1    3    3    0    0  0.89756995089E+01 -0.31876922371E+01 -0.37439867850E+00  0.95322997280E+01  0.51100000000E-03 0.  1.
        -12    1    3    3    0    0  0.28613775276E+02  0.13379710630E+02  0.18386116017E+02  0.36548790052E+02  0.00000000000E+00 0.  1.
</event>
<event>
 7    1  0.2385752E-015  0.9000747E+02  0.7816164E-02  0.1186340E+00
        -11   -1    0    0    0    0  0.00000000000E+00  0.00000000000E+00  0.45593999997E+02  0.45594000000E+02  0.51100000000E-03 0. -1.
         11   -1    0    0    0    0 -0.00000000000E+00 -0.00000000000E+00 -0.45593999997E+02  0.45594000000E+02  0.51100000000E-03 0.  1.
    9900012    2    1    2    0    0  0.75281473697E+00 -0.44350428554E+00 -0.79386696427E+00  0.90007470104E+02  0.89999727908E+02 0.  0.
        -12    1    1    2    0    0 -0.75281473697E+00  0.44350428554E+00  0.79386696427E+00  0.11805298965E+01  0.00000000000E+00 0.  1.
         11    1    3    3    0    0 -0.61615766045E+01 -0.14790122182E+02  0.13195546377E+02  0.20756569679E+02  0.51100000000E-03 0. -1.
        -11    1    3    3    0    0 -0.24105669590E+02  0.13259947575E+02 -0.24132777242E+02  0.36596454114E+02  0.51100000000E-03 0.  1.
        -12    1    3    3    0    0  0.31020060932E+02  0.10866703211E+01  0.10143363901E+02  0.32654446310E+02  0.00000000000E+00 0.  1.
</event>
<event>
 7    1  0.2385752E-015  0.9000785E+02  0.7816164E-02  0.1186339E+00
        -11   -1    0    0    0    0  0.00000000000E+00  0.00000000000E+00  0.45593999997E+02  0.45594000000E+02  0.51100000000E-03 0.  1.
         11   -1    0    0    0    0 -0.00000000000E+00 -0.00000000000E+00 -0.45593999997E+02  0.45594000000E+02  0.51100000000E-03 0. -1.
    9900012    2    1    2    0    0 -0.79027173986E+00 -0.87030016763E+00  0.10387946727E+00  0.90007854777E+02  0.90000117660E+02 0.  0.
        -12    1    1    2    0    0  0.79027173986E+00  0.87030016763E+00 -0.10387946727E+00  0.11801452234E+01  0.00000000000E+00 0.  1.
         11    1    3    3    0    0 -0.31512382210E+02  0.19015585543E+02  0.10953173342E+02  0.38400452245E+02  0.51100000000E-03 0. -1.
        -11    1    3    3    0    0 -0.68437920242E+01 -0.23536201560E+01 -0.68403528322E+01  0.99582852058E+01  0.51100000000E-03 0.  1.
        -12    1    3    3    0    0  0.37565902494E+02 -0.17532265555E+02 -0.40089410429E+01  0.41649117326E+02  0.00000000000E+00 0.  1.
</event>
<event>
 7    1  0.2385752E-015  0.9000777E+02  0.7816164E-02  0.1186339E+00
        -11   -1    0    0    0    0  0.00000000000E+00  0.00000000000E+00  0.45593999997E+02  0.45594000000E+02  0.51100000000E-03 0.  1.
         11   -1    0    0    0    0 -0.00000000000E+00 -0.00000000000E+00 -0.45593999997E+02  0.45594000000E+02  0.51100000000E-03 0. -1.
    9900012    2    1    2    0    0  0.72865707404E-02  0.24976894624E+00 -0.11534778102E+01  0.90007767532E+02  0.90000029263E+02 0.  0.
        -12    1    1    2    0    0 -0.72865707404E-02 -0.24976894624E+00  0.11534778102E+01  0.11802324683E+01  0.00000000000E+00 0.  1.
         11    1    3    3    0    0 -0.64287414680E+01 -0.77679374598E+01 -0.81073284755E+01  0.12938251215E+02  0.51100000000E-03 0. -1.
        -11    1    3    3    0    0  0.88748801379E+01 -0.31354203993E+02  0.16438995570E+02  0.36497810635E+02  0.51100000000E-03 0.  1.
         12    1    3    3    0    0 -0.24388520991E+01  0.39371910399E+02 -0.94851449046E+01  0.40571705682E+02  0.00000000000E+00 0. -1.
</event>
<event>
 7    1  0.2385752E-015  0.9000773E+02  0.7816164E-02  0.1186339E+00
        -11   -1    0    0    0    0  0.00000000000E+00  0.00000000000E+00  0.45593999997E+02  0.45594000000E+02  0.51100000000E-03 0. -1.
         11   -1    0    0    0    0 -0.00000000000E+00 -0.00000000000E+00 -0.45593999997E+02  0.45594000000E+02  0.51100000000E-03 0.  1.
    9900012    2    1    2    0    0  0.26180100307E+00 -0.11344189133E+01  0.19387412447E+00  0.90007731720E+02  0.89999992979E+02 0.  0.
        -12    1    1    2    0    0 -0.26180100307E+00  0.11344189133E+01 -0.19387412447E+00  0.11802682797E+01  0.00000000000E+00 0.  1.
         11    1    3    3    0    0 -0.10775638325E+02 -0.46451684528E+01 -0.54131870540E+01  0.12922637719E+02  0.51100000000E-03 0. -1.
        -11    1    3    3    0    0  0.88979808738E+01 -0.29982420393E+02 -0.17969947907E+02  0.36069913007E+02  0.51100000000E-03 0.  1.
         12    1    3    3    0    0  0.21394584546E+01  0.33493169933E+02  0.23577009085E+02  0.41015180995E+02  0.00000000000E+00 0. -1.
</event>
<event>
 7    1  0.2385752E-015  0.9000775E+02  0.7816164E-02  0.1186339E+00
        -11   -1    0    0    0    0  0.00000000000E+00  0.00000000000E+00  0.45593999997E+02  0.45594000000E+02  0.51100000000E-03 0. -1.
         11   -1    0    0    0    0 -0.00000000000E+00 -0.00000000000E+00 -0.45593999997E+02  0.45594000000E+02  0.51100000000E-03 0.  1.
    9900012    2    1    2    0    0  0.28144649113E+00 -0.58170892176E-01  0.11447234092E+01  0.90007751016E+02  0.90000012530E+02 0.  0.
        -12    1    1    2    0    0 -0.28144649113E+00  0.58170892176E-01 -0.11447234092E+01  0.11802489837E+01  0.00000000000E+00 0.  1.
         11    1    3    3    0    0 -0.10369832057E+02 -0.89692986310E+00 -0.21062965721E+01  0.10619528501E+02  0.51100000000E-03 0. -1.
        -11    1    3    3    0    0  0.55222747442E+01  0.27921178575E+02  0.29736176694E+02  0.41162214906E+02  0.51100000000E-03 0.  1.
         12    1    3    3    0    0  0.51290038042E+01 -0.27082419604E+02 -0.26485156712E+02  0.38226007609E+02  0.00000000000E+00 0. -1.
</event>
<event>
 7    1  0.2385752E-015  0.9000779E+02  0.7816164E-02  0.1186339E+00
        -11   -1    0    0    0    0  0.00000000000E+00  0.00000000000E+00  0.45593999997E+02  0.45594000000E+02  0.51100000000E-03 0. -1.
         11   -1    0    0    0    0 -0.00000000000E+00 -0.00000000000E+00 -0.45593999997E+02  0.45594000000E+02  0.51100000000E-03 0.  1.
    9900012    2    1    2    0    0 -0.29851983999E+00 -0.40034796304E-01  0.11411354173E+01  0.90007785223E+02  0.90000047188E+02 0.  0.
        -12    1    1    2    0    0  0.29851983999E+00  0.40034796304E-01 -0.11411354173E+01  0.11802147772E+01  0.00000000000E+00 0.  1.
         11    1    3    3    0    0 -0.51612223754E+01  0.19363358720E+02  0.24489929558E+02  0.31643870297E+02  0.51100000000E-03 0. -1.
        -11    1    3    3    0    0 -0.21047953674E+00 -0.22499159625E+02  0.99045439020E+01  0.24583662779E+02  0.51100000000E-03 0.  1.
        -12    1    3    3    0    0  0.50731820722E+01  0.30957661086E+01 -0.33253338043E+02  0.33780252147E+02  0.00000000000E+00 0.  1.
</event>
<event>
 7    1  0.2385752E-015  0.9000770E+02  0.7816164E-02  0.1186339E+00
        -11   -1    0    0    0    0  0.00000000000E+00  0.00000000000E+00  0.45593999997E+02  0.45594000000E+02  0.51100000000E-03 0. -1.
         11   -1    0    0    0    0 -0.00000000000E+00 -0.00000000000E+00 -0.45593999997E+02  0.45594000000E+02  0.51100000000E-03 0.  1.
    9900012    2    1    2    0    0 -0.11565005850E+01 -0.50642056536E-02  0.23577866592E+00  0.90007698840E+02  0.89999959665E+02 0.  0.
        -12    1    1    2    0    0  0.11565005850E+01  0.50642056536E-02 -0.23577866592E+00  0.11803011601E+01  0.00000000000E+00 0.  1.
         11    1    3    3    0    0  0.27282148831E+02 -0.22578204479E+02  0.20150491545E+02  0.40744733060E+02  0.51100000000E-03 0. -1.
        -11    1    3    3    0    0  0.57173452310E+00 -0.24475295474E+01 -0.91220599928E+01  0.94619902781E+01  0.51100000000E-03 0.  1.
        -12    1    3    3    0    0 -0.29010383939E+02  0.25020669820E+02 -0.10792652887E+02  0.39800975502E+02  0.00000000000E+00 0.  1.
</event>
<event>
 7    1  0.2385752E-015  0.9000774E+02  0.7816164E-02  0.1186339E+00
        -11   -1    0    0    0    0  0.00000000000E+00  0.00000000000E+00  0.45593999997E+02  0.45594000000E+02  0.51100000000E-03 0. -1.
         11   -1    0    0    0    0 -0.00000000000E+00 -0.00000000000E+00 -0.45593999997E+02  0.45594000000E+02  0.51100000000E-03 0.  1.
    9900012    2    1    2    0    0  0.11744405686E+00 -0.43363922583E+00  0.10914104809E+01  0.90007740316E+02  0.90000001688E+02 0.  0.
        -12    1    1    2    0    0 -0.11744405686E+00  0.43363922583E+00 -0.10914104809E+01  0.11802596843E+01  0.00000000000E+00 0.  1.
         11    1    3    3    0    0  0.31902476697E+02  0.11754014163E+02  0.25526311213E+02  0.42514908358E+02  0.51100000000E-03 0. -1.
        -11    1    3    3    0    0 -0.61761800457E+01  0.57986888550E+01 -0.12891998425E+01  0.85692490271E+01  0.51100000000E-03 0.  1.
        -12    1    3    3    0    0 -0.25608852594E+02 -0.17986342244E+02 -0.23145700889E+02  0.38923582930E+02  0.00000000000E+00 0.  1.
</event>
<event>
 7    1  0.2385752E-015  0.9000759E+02  0.7816164E-02  0.1186339E+00
        -11   -1    0    0    0    0  0.00000000000E+00  0.00000000000E+00  0.45593999997E+02  0.45594000000E+02  0.51100000000E-03 0.  1.
         11   -1    0    0    0    0 -0.00000000000E+00 -0.00000000000E+00 -0.45593999997E+02  0.45594000000E+02  0.51100000000E-03 0. -1.
    9900012    2    1    2    0    0 -0.66589438620E+00  0.97368880232E+00 -0.43432092883E-01  0.90007588392E+02  0.89999847759E+02 0.  0.
        -12    1    1    2    0    0  0.66589438620E+00 -0.97368880232E+00  0.43432092883E-01  0.11804116079E+01  0.00000000000E+00 0.  1.
         11    1    3    3    0    0  0.24212388377E+01 -0.10401116519E+02  0.13426346304E+01  0.10763284367E+02  0.51100000000E-03 0. -1.
        -11    1    3    3    0    0  0.17943993201E+02 -0.25137742505E+02  0.14619437812E+02  0.34170469011E+02  0.51100000000E-03 0.  1.
         12    1    3    3    0    0 -0.21031126425E+02  0.36512547826E+02 -0.16005504535E+02  0.45073835014E+02  0.00000000000E+00 0. -1.
</event>
<event>
 7    1  0.2385752E-015  0.9000775E+02  0.7816164E-02  0.1186339E+00
        -11   -1    0    0    0    0  0.00000000000E+00  0.00000000000E+00  0.45593999997E+02  0.45594000000E+02  0.51100000000E-03 0.  1.
         11   -1    0    0    0    0 -0.00000000000E+00 -0.00000000000E+00 -0.45593999997E+02  0.45594000000E+02  0.51100000000E-03 0. -1.
    9900012    2    1    2    0    0  0.11352226635E-01  0.43297551337E+00 -0.10979077057E+01  0.90007746638E+02  0.90000008094E+02 0.  0.
        -12    1    1    2    0    0 -0.11352226635E-01 -0.43297551337E+00  0.10979077057E+01  0.11802533619E+01  0.00000000000E+00 0.  1.
         11    1    3    3    0    0  0.34811002694E+02  0.13530921843E+02 -0.85144376932E+01  0.38306492974E+02  0.51100000000E-03 0. -1.
        -11    1    3    3    0    0  0.46231943737E+01 -0.28374868931E+01 -0.66708395779E+01  0.85979857537E+01  0.51100000000E-03 0.  1.
        -12    1    3    3    0    0 -0.39422844841E+02 -0.10260459437E+02  0.14087369566E+02  0.43103267910E+02  0.00000000000E+00 0.  1.
</event>
<event>
 7    1  0.2385752E-015  0.9000776E+02  0.7816164E-02  0.1186339E+00
        -11   -1    0    0    0    0  0.00000000000E+00  0.00000000000E+00  0.45593999997E+02  0.45594000000E+02  0.51100000000E-03 0.  1.
         11   -1    0    0    0    0 -0.00000000000E+00 -0.00000000000E+00 -0.45593999997E+02  0.45594000000E+02  0.51100000000E-03 0. -1.
    9900012    2    1    2    0    0 -0.10427028620E+01 -0.44950605670E+00 -0.32199088239E+00  0.90007761430E+02  0.90000023081E+02 0.  0.
        -12    1    1    2    0    0  0.10427028620E+01  0.44950605670E+00  0.32199088239E+00  0.11802385698E+01  0.00000000000E+00 0.  1.
         11    1    3    3    0    0 -0.11238841498E+02  0.38398558464E+02 -0.52450459753E+01  0.40351844541E+02  0.51100000000E-03 0. -1.
        -11    1    3    3    0    0 -0.62649335625E+01 -0.45886829630E+01 -0.63273241288E+01  0.10017007276E+02  0.51100000000E-03 0.  1.
        -12    1    3    3    0    0  0.16461072198E+02 -0.34259381558E+02  0.11250379222E+02  0.39638909613E+02  0.00000000000E+00 0.  1.
</event>
<event>
 7    1  0.2385752E-015  0.9000776E+02  0.7816164E-02  0.1186339E+00
        -11   -1    0    0    0    0  0.00000000000E+00  0.00000000000E+00  0.45593999997E+02  0.45594000000E+02  0.51100000000E-03 0.  1.
         11   -1    0    0    0    0 -0.00000000000E+00 -0.00000000000E+00 -0.45593999997E+02  0.45594000000E+02  0.51100000000E-03 0. -1.
    9900012    2    1    2    0    0 -0.43367246456E-01  0.11629016017E+01 -0.19685980064E+00  0.90007756536E+02  0.90000018122E+02 0.  0.
        -12    1    1    2    0    0  0.43367246456E-01 -0.11629016017E+01  0.19685980064E+00  0.11802434640E+01  0.00000000000E+00 0.  1.
         11    1    3    3    0    0 -0.17871644985E+01 -0.84678920902E+01 -0.87155620725E+00  0.86982046354E+01  0.51100000000E-03 0. -1.
        -11    1    3    3    0    0 -0.79863786717E+00 -0.11886830955E+02  0.37078540801E+02  0.38945510149E+02  0.51100000000E-03 0.  1.
         12    1    3    3    0    0  0.25424351192E+01  0.21517624647E+02 -0.36403844395E+02  0.42364041751E+02  0.00000000000E+00 0. -1.
</event>
<event>
 7    1  0.2385752E-015  0.9000772E+02  0.7816164E-02  0.1186339E+00
        -11   -1    0    0    0    0  0.00000000000E+00  0.00000000000E+00  0.45593999997E+02  0.45594000000E+02  0.51100000000E-03 0.  1.
         11   -1    0    0    0    0 -0.00000000000E+00 -0.00000000000E+00 -0.45593999997E+02  0.45594000000E+02  0.51100000000E-03 0. -1.
    9900012    2    1    2    0    0 -0.31437253177E+00 -0.57975447556E+00 -0.97883404698E+00  0.90007719765E+02  0.89999980866E+02 0.  0.
        -12    1    1    2    0    0  0.31437253177E+00  0.57975447556E+00  0.97883404698E+00  0.11802802346E+01  0.00000000000E+00 0.  1.
         11    1    3    3    0    0  0.19753021962E+02 -0.30036609715E+02  0.11415727155E+01  0.35967804886E+02  0.51100000000E-03 0. -1.
        -11    1    3    3    0    0  0.72788970372E+01 -0.57811645118E+01 -0.16035478801E+01  0.94326863223E+01  0.51100000000E-03 0.  1.
        -12    1    3    3    0    0 -0.27346291531E+02  0.35238019751E+02 -0.51685888236E+00  0.44607228557E+02  0.00000000000E+00 0.  1.
</event>
<event>
 7    1  0.2385752E-015  0.9000784E+02  0.7816164E-02  0.1186339E+00
        -11   -1    0    0    0    0  0.00000000000E+00  0.00000000000E+00  0.45593999997E+02  0.45594000000E+02  0.51100000000E-03 0. -1.
         11   -1    0    0    0    0 -0.00000000000E+00 -0.00000000000E+00 -0.45593999997E+02  0.45594000000E+02  0.51100000000E-03 0.  1.
    9900012    2    1    2    0    0 -0.99231820546E+00  0.23458140914E+00 -0.59418775473E+00  0.90007837746E+02  0.90000100404E+02 0.  0.
        -12    1    1    2    0    0  0.99231820546E+00 -0.23458140914E+00  0.59418775473E+00  0.11801622542E+01  0.00000000000E+00 0.  1.
         11    1    3    3    0    0  0.28855318704E+01 -0.62303496836E+01 -0.58836638964E+01  0.90421818419E+01  0.51100000000E-03 0. -1.
        -11    1    3    3    0    0 -0.18793347766E+02  0.38717426554E+02 -0.65019987084E+01  0.43525912129E+02  0.51100000000E-03 0.  1.
         12    1    3    3    0    0  0.14915497690E+02 -0.32252495461E+02  0.11791474850E+02  0.37439743775E+02  0.00000000000E+00 0. -1.
</event>
<event>
 7    1  0.2385752E-015  0.9000787E+02  0.7816164E-02  0.1186339E+00
        -11   -1    0    0    0    0  0.00000000000E+00  0.00000000000E+00  0.45593999997E+02  0.45594000000E+02  0.51100000000E-03 0.  1.
         11   -1    0    0    0    0 -0.00000000000E+00 -0.00000000000E+00 -0.45593999997E+02  0.45594000000E+02  0.51100000000E-03 0. -1.
    9900012    2    1    2    0    0 -0.35249607346E+00 -0.50187732084E+00 -0.10082550971E+01  0.90007867521E+02  0.90000130572E+02 0.  0.
        -12    1    1    2    0    0  0.35249607346E+00  0.50187732084E+00  0.10082550971E+01  0.11801324789E+01  0.00000000000E+00 0.  1.
         11    1    3    3    0    0  0.20353245375E+02 -0.18302744170E+02 -0.26990967419E+02  0.38441609799E+02  0.51100000000E-03 0. -1.
        -11    1    3    3    0    0  0.31116081020E+00  0.78738802139E+01 -0.74522967501E+01  0.10845807383E+02  0.51100000000E-03 0.  1.
        -12    1    3    3    0    0 -0.21016902258E+02  0.99269866350E+01  0.33435009072E+02  0.40720450340E+02  0.00000000000E+00 0.  1.
</event>
<event>
 7    1  0.2385752E-015  0.9000782E+02  0.7816164E-02  0.1186339E+00
        -11   -1    0    0    0    0  0.00000000000E+00  0.00000000000E+00  0.45593999997E+02  0.45594000000E+02  0.51100000000E-03 0. -1.
         11   -1    0    0    0    0 -0.00000000000E+00 -0.00000000000E+00 -0.45593999997E+02  0.45594000000E+02  0.51100000000E-03 0.  1.
    9900012    2    1    2    0    0 -0.11118978936E+01 -0.26286414148E+00 -0.29564656184E+00  0.90007821466E+02  0.90000083909E+02 0.  0.
        -12    1    1    2    0    0  0.11118978936E+01  0.26286414148E+00  0.29564656184E+00  0.11801785341E+01  0.00000000000E+00 0.  1.
         11    1    3    3    0    0 -0.93445055729E+01 -0.16337976322E+02  0.28470348351E+02  0.34129312771E+02  0.51100000000E-03 0. -1.
        -11    1    3    3    0    0 -0.15298438707E+01 -0.86170121781E+01  0.70889052983E+01  0.11262588501E+02  0.51100000000E-03 0.  1.
        -12    1    3    3    0    0  0.97624515500E+01  0.24692124359E+02 -0.35854900212E+02  0.44615920194E+02  0.00000000000E+00 0.  1.
</event>
<event>
 7    1  0.2385752E-015  0.9000768E+02  0.7816164E-02  0.1186339E+00
        -11   -1    0    0    0    0  0.00000000000E+00  0.00000000000E+00  0.45593999997E+02  0.45594000000E+02  0.51100000000E-03 0.  1.
         11   -1    0    0    0    0 -0.00000000000E+00 -0.00000000000E+00 -0.45593999997E+02  0.45594000000E+02  0.51100000000E-03 0. -1.
    9900012    2    1    2    0    0  0.79979423414E+00  0.79561752971E+00  0.34709159220E+00  0.90007681973E+02  0.89999942575E+02 0.  0.
        -12    1    1    2    0    0 -0.79979423414E+00 -0.79561752971E+00 -0.34709159220E+00  0.11803180266E+01  0.00000000000E+00 0.  1.
         11    1    3    3    0    0  0.41486178592E+01  0.23692051300E+02 -0.31956928026E+02  0.39997119572E+02  0.51100000000E-03 0. -1.
        -11    1    3    3    0    0  0.19539338589E+01  0.71738093295E+01  0.85075841126E+01  0.11298689549E+02  0.51100000000E-03 0.  1.
        -12    1    3    3    0    0 -0.53027574840E+01 -0.30070243100E+02  0.23796435506E+02  0.38711872853E+02  0.00000000000E+00 0.  1.
</event>
<event>
 7    1  0.2385752E-015  0.9000772E+02  0.7816164E-02  0.1186339E+00
        -11   -1    0    0    0    0  0.00000000000E+00  0.00000000000E+00  0.45593999997E+02  0.45594000000E+02  0.51100000000E-03 0.  1.
         11   -1    0    0    0    0 -0.00000000000E+00 -0.00000000000E+00 -0.45593999997E+02  0.45594000000E+02  0.51100000000E-03 0. -1.
    9900012    2    1    2    0    0 -0.91410045345E+00 -0.48485179841E+00 -0.56780478570E+00  0.90007719025E+02  0.89999980116E+02 0.  0.
        -12    1    1    2    0    0  0.91410045345E+00  0.48485179841E+00  0.56780478570E+00  0.11802809751E+01  0.00000000000E+00 0.  1.
         11    1    3    3    0    0  0.23612031496E+01 -0.90525071908E+01  0.11874021153E+02  0.15116730644E+02  0.51100000000E-03 0. -1.
        -11    1    3    3    0    0  0.18283451259E+01  0.37810518781E+02  0.82026178483E+01  0.38733204311E+02  0.51100000000E-03 0.  1.
         12    1    3    3    0    0 -0.51036487289E+01 -0.29242863389E+02 -0.20644443787E+02  0.36157784069E+02  0.00000000000E+00 0. -1.
</event>
<event>
 7    1  0.2385752E-015  0.9000768E+02  0.7816164E-02  0.1186339E+00
        -11   -1    0    0    0    0  0.00000000000E+00  0.00000000000E+00  0.45593999997E+02  0.45594000000E+02  0.51100000000E-03 0. -1.
         11   -1    0    0    0    0 -0.00000000000E+00 -0.00000000000E+00 -0.45593999997E+02  0.45594000000E+02  0.51100000000E-03 0.  1.
    9900012    2    1    2    0    0  0.11154626994E+01 -0.17901749878E+00 -0.34182726239E+00  0.90007682172E+02  0.89999942776E+02 0.  0.
        -12    1    1    2    0    0 -0.11154626994E+01  0.17901749878E+00  0.34182726239E+00  0.11803178284E+01  0.00000000000E+00 0.  1.
         11    1    3    3    0    0  0.33228722519E+02 -0.26583056419E+02 -0.13579602560E+02  0.44667801544E+02  0.51100000000E-03 0. -1.
        -11    1    3    3    0    0 -0.23661434704E+01  0.51761201343E+01  0.56424169001E+01  0.80142200683E+01  0.51100000000E-03 0.  1.
        -12    1    3    3    0    0 -0.29747116349E+02  0.21227918786E+02  0.75953583978E+01  0.37325660560E+02  0.00000000000E+00 0.  1.
</event>
<event>
 7    1  0.2385752E-015  0.9000776E+02  0.7816164E-02  0.1186339E+00
        -11   -1    0    0    0    0  0.00000000000E+00  0.00000000000E+00  0.45593999997E+02  0.45594000000E+02  0.51100000000E-03 0.  1.
         11   -1    0    0    0    0 -0.00000000000E+00 -0.00000000000E+00 -0.45593999997E+02  0.45594000000E+02  0.51100000000E-03 0. -1.
    9900012    2    1    2    0    0  0.87411067453E+00  0.45322936567E+00 -0.65075104092E+00  0.90007761360E+02  0.90000023010E+02 0.  0.
        -12    1    1    2    0    0 -0.87411067453E+00 -0.45322936567E+00  0.65075104092E+00  0.11802386396E+01  0.00000000000E+00 0.  1.
         11    1    3    3    0    0  0.28739357033E+02  0.25718567285E+02  0.54593276976E+01  0.38951246514E+02  0.51100000000E-03 0. -1.
        -11    1    3    3    0    0  0.53900534262E+01 -0.53103949753E+01  0.68082575413E+01  0.10178670922E+02  0.51100000000E-03 0.  1.
        -12    1    3    3    0    0 -0.33255299784E+02 -0.19954942944E+02 -0.12918336280E+02  0.40877843924E+02  0.00000000000E+00 0.  1.
</event>
<event>
 7    1  0.2385752E-015  0.9000766E+02  0.7816164E-02  0.1186339E+00
        -11   -1    0    0    0    0  0.00000000000E+00  0.00000000000E+00  0.45593999997E+02  0.45594000000E+02  0.51100000000E-03 0.  1.
         11   -1    0    0    0    0 -0.00000000000E+00 -0.00000000000E+00 -0.45593999997E+02  0.45594000000E+02  0.51100000000E-03 0. -1.
    9900012    2    1    2    0    0  0.32998174842E+00 -0.25493516366E+00 -0.11042241833E+01  0.90007664904E+02  0.89999925281E+02 0.  0.
        -12    1    1    2    0    0 -0.32998174842E+00  0.25493516366E+00  0.11042241833E+01  0.11803350961E+01  0.00000000000E+00 0.  1.
         11    1    3    3    0    0 -0.41986150372E+01  0.18312556414E+02 -0.28013142997E+02  0.33730020330E+02  0.51100000000E-03 0. -1.
        -11    1    3    3    0    0 -0.31458404280E+01  0.14106898794E+02  0.14556436228E+02  0.20513184578E+02  0.51100000000E-03 0.  1.
        -12    1    3    3    0    0  0.76744372136E+01 -0.32674390372E+02  0.12352482585E+02  0.35764459996E+02  0.00000000000E+00 0.  1.
</event>
<event>
 7    1  0.2385752E-015  0.9000774E+02  0.7816164E-02  0.1186339E+00
        -11   -1    0    0    0    0  0.00000000000E+00  0.00000000000E+00  0.45593999997E+02  0.45594000000E+02  0.51100000000E-03 0. -1.
         11   -1    0    0    0    0 -0.00000000000E+00 -0.00000000000E+00 -0.45593999997E+02  0.45594000000E+02  0.51100000000E-03 0.  1.
    9900012    2    1    2    0    0  0.19778365555E+00 -0.88601704517E+00  0.75423792641E+00  0.90007737560E+02  0.89999998895E+02 0.  0.
        -12    1    1    2    0    0 -0.19778365555E+00  0.88601704517E+00 -0.75423792641E+00  0.11802624405E+01  0.00000000000E+00 0.  1.
         11    1    3    3    0    0  0.45208909400E+01  0.59604154060E+01 -0.60239662785E+01  0.96048517265E+01  0.51100000000E-03 0. -1.
        -11    1    3    3    0    0  0.15066925239E+02 -0.24690513394E+02 -0.25621202116E+02  0.38640389309E+02  0.51100000000E-03 0.  1.
         12    1    3    3    0    0 -0.19390032523E+02  0.17844080943E+02  0.32399406321E+02  0.41762496524E+02  0.00000000000E+00 0. -1.
</event>
<event>
 7    1  0.2385752E-015  0.9000771E+02  0.7816164E-02  0.1186339E+00
        -11   -1    0    0    0    0  0.00000000000E+00  0.00000000000E+00  0.45593999997E+02  0.45594000000E+02  0.51100000000E-03 0.  1.
         11   -1    0    0    0    0 -0.00000000000E+00 -0.00000000000E+00 -0.45593999997E+02  0.45594000000E+02  0.51100000000E-03 0. -1.
    9900012    2    1    2    0    0  0.11106257389E+01 -0.38461927556E+00  0.10798392966E+00  0.90007711032E+02  0.89999972018E+02 0.  0.
        -12    1    1    2    0    0 -0.11106257389E+01  0.38461927556E+00 -0.10798392966E+00  0.11802889680E+01  0.00000000000E+00 0.  1.
         11    1    3    3    0    0  0.73107791937E+01  0.16647269012E+01 -0.73549151826E+01  0.10503027453E+02  0.51100000000E-03 0. -1.
        -11    1    3    3    0    0  0.22929652182E+01  0.31079730196E+02  0.26015944370E+02  0.40596018035E+02  0.51100000000E-03 0.  1.
         12    1    3    3    0    0 -0.84931186731E+01 -0.33129076373E+02 -0.18553045258E+02  0.38908665544E+02  0.00000000000E+00 0. -1.
</event>
<event>
 7    1  0.2385752E-015  0.9000771E+02  0.7816164E-02  0.1186339E+00
        -11   -1    0    0    0    0  0.00000000000E+00  0.00000000000E+00  0.45593999997E+02  0.45594000000E+02  0.51100000000E-03 0. -1.
         11   -1    0    0    0    0 -0.00000000000E+00 -0.00000000000E+00 -0.45593999997E+02  0.45594000000E+02  0.51100000000E-03 0.  1.
    9900012    2    1    2    0    0 -0.91049754907E+00  0.24324510656E+00  0.71056458717E+00  0.90007713594E+02  0.89999974613E+02 0.  0.
        -12    1    1    2    0    0  0.91049754907E+00 -0.24324510656E+00 -0.71056458717E+00  0.11802864065E+01  0.00000000000E+00 0.  1.
         11    1    3    3    0    0  0.58456862485E+01 -0.67443819866E+01 -0.63924805866E+00  0.89480374630E+01  0.51100000000E-03 0. -1.
        -11    1    3    3    0    0 -0.35348757225E+02 -0.12425435764E+02 -0.17872747517E+02  0.41513385737E+02  0.51100000000E-03 0.  1.
         12    1    3    3    0    0  0.28592573428E+02  0.19413062857E+02  0.19222560163E+02  0.39546290394E+02  0.00000000000E+00 0. -1.
</event>
<event>
 7    1  0.2385752E-015  0.9000774E+02  0.7816164E-02  0.1186339E+00
        -11   -1    0    0    0    0  0.00000000000E+00  0.00000000000E+00  0.45593999997E+02  0.45594000000E+02  0.51100000000E-03 0. -1.
         11   -1    0    0    0    0 -0.00000000000E+00 -0.00000000000E+00 -0.45593999997E+02  0.45594000000E+02  0.51100000000E-03 0.  1.
    9900012    2    1    2    0    0  0.54981547544E+00 -0.30300679995E+00  0.99945483438E+00  0.90007737256E+02  0.89999998588E+02 0.  0.
        -12    1    1    2    0    0 -0.54981547544E+00  0.30300679995E+00 -0.99945483438E+00  0.11802627436E+01  0.00000000000E+00 0.  1.
         11    1    3    3    0    0  0.40013540877E+01 -0.44458670704E+01 -0.10424566575E+01  0.60715142005E+01  0.51100000000E-03 0. -1.
        -11    1    3    3    0    0  0.31686269284E+02 -0.22446001462E+02  0.74579348476E+01  0.39540655473E+02  0.51100000000E-03 0.  1.
         12    1    3    3    0    0 -0.35137807897E+02  0.26588861732E+02 -0.54160233558E+01  0.44395567583E+02  0.00000000000E+00 0. -1.
</event>
<event>
 7    1  0.2385752E-015  0.9000767E+02  0.7816164E-02  0.1186339E+00
        -11   -1    0    0    0    0  0.00000000000E+00  0.00000000000E+00  0.45593999997E+02  0.45594000000E+02  0.51100000000E-03 0.  1.
         11   -1    0    0    0    0 -0.00000000000E+00 -0.00000000000E+00 -0.45593999997E+02  0.45594000000E+02  0.51100000000E-03 0. -1.
    9900012    2    1    2    0    0 -0.51905630655E+00 -0.65958456739E+00 -0.82988564528E+00  0.90007668930E+02  0.89999929360E+02 0.  0.
        -12    1    1    2    0    0  0.51905630655E+00  0.65958456739E+00  0.82988564528E+00  0.11803310701E+01  0.00000000000E+00 0.  1.
         11    1    3    3    0    0 -0.60243162393E+01  0.85112808321E+01 -0.52898037741E-01  0.10427707611E+02  0.51100000000E-03 0. -1.
        -11    1    3    3    0    0 -0.25295813423E+02  0.17458039046E+02 -0.17721904259E+02  0.35478545558E+02  0.51100000000E-03 0.  1.
         12    1    3    3    0    0  0.30801073356E+02 -0.26628904446E+02  0.16944916651E+02  0.44101415761E+02  0.00000000000E+00 0. -1.
</event>
<event>
 7    1  0.2385752E-015  0.9000785E+02  0.7816164E-02  0.1186339E+00
        -11   -1    0    0    0    0  0.00000000000E+00  0.00000000000E+00  0.45593999997E+02  0.45594000000E+02  0.51100000000E-03 0. -1.
         11   -1    0    0    0    0 -0.00000000000E+00 -0.00000000000E+00 -0.45593999997E+02  0.45594000000E+02  0.51100000000E-03 0.  1.
    9900012    2    1    2    0    0  0.62552921414E+00  0.74944295169E+00  0.66318210020E+00  0.90007846606E+02  0.90000109381E+02 0.  0.
        -12    1    1    2    0    0 -0.62552921414E+00 -0.74944295169E+00 -0.66318210020E+00  0.11801533941E+01  0.00000000000E+00 0.  1.
         11    1    3    3    0    0  0.14436487512E+02  0.38323041595E+02 -0.47064955323E+01  0.41221581595E+02  0.51100000000E-03 0. -1.
        -11    1    3    3    0    0 -0.89943193355E+01 -0.58157014945E+00 -0.46748590658E+01  0.10153339928E+02  0.51100000000E-03 0.  1.
        -12    1    3    3    0    0 -0.48166389620E+01 -0.36992028494E+02  0.10044536698E+02  0.38632925083E+02  0.00000000000E+00 0.  1.
</event>
<event>
 7    1  0.2385752E-015  0.9000774E+02  0.7816164E-02  0.1186339E+00
        -11   -1    0    0    0    0  0.00000000000E+00  0.00000000000E+00  0.45593999997E+02  0.45594000000E+02  0.51100000000E-03 0. -1.
         11   -1    0    0    0    0 -0.00000000000E+00 -0.00000000000E+00 -0.45593999997E+02  0.45594000000E+02  0.51100000000E-03 0.  1.
    9900012    2    1    2    0    0 -0.44159775939E+00  0.11636557939E+00  0.10883302812E+01  0.90007740567E+02  0.90000001942E+02 0.  0.
        -12    1    1    2    0    0  0.44159775939E+00 -0.11636557939E+00 -0.10883302812E+01  0.11802594334E+01  0.00000000000E+00 0.  1.
         11    1    3    3    0    0  0.41312970694E+01 -0.44574815873E+00 -0.87083783630E+01  0.96489461016E+01  0.51100000000E-03 0. -1.
        -11    1    3    3    0    0 -0.94741984646E+01  0.30848686010E+02 -0.19691890931E+02  0.37804397016E+02  0.51100000000E-03 0.  1.
         12    1    3    3    0    0  0.49013036358E+01 -0.30286572272E+02  0.29488599575E+02  0.42554397449E+02  0.00000000000E+00 0. -1.
</event>
<event>
 7    1  0.2385752E-015  0.9000771E+02  0.7816164E-02  0.1186339E+00
        -11   -1    0    0    0    0  0.00000000000E+00  0.00000000000E+00  0.45593999997E+02  0.45594000000E+02  0.51100000000E-03 0. -1.
         11   -1    0    0    0    0 -0.00000000000E+00 -0.00000000000E+00 -0.45593999997E+02  0.45594000000E+02  0.51100000000E-03 0.  1.
    9900012    2    1    2    0    0  0.60178095700E+00  0.68797746425E+00 -0.74674704745E+00  0.90007710008E+02  0.89999970980E+02 0.  0.
        -12    1    1    2    0    0 -0.60178095700E+00 -0.68797746425E+00  0.74674704745E+00  0.11802899917E+01  0.00000000000E+00 0.  1.
         11    1    3    3    0    0  0.26957608260E+01 -0.10074444777E+02  0.13053335671E+02  0.16707816625E+02  0.51100000000E-03 0. -1.
        -11    1    3    3    0    0 -0.30995830607E+01 -0.98876242268E+01 -0.39201737277E+02  0.40548103948E+02  0.51100000000E-03 0.  1.
         12    1    3    3    0    0  0.10056031916E+01  0.20650046468E+02  0.25401654558E+02  0.32751789435E+02  0.00000000000E+00 0. -1.
</event>
<event>
 7    1  0.2385752E-015  0.9000772E+02  0.7816164E-02  0.1186339E+00
        -11   -1    0    0    0    0  0.00000000000E+00  0.00000000000E+00  0.45593999997E+02  0.45594000000E+02  0.51100000000E-03 0.  1.
         11   -1    0    0    0    0 -0.00000000000E+00 -0.00000000000E+00 -0.45593999997E+02  0.45594000000E+02  0.51100000000E-03 0. -1.
    9900012    2    1    2    0    0 -0.35067681704E+00  0.90635764594E+00 -0.66977675163E+00  0.90007720665E+02  0.89999981777E+02 0.  0.
        -12    1    1    2    0    0  0.35067681704E+00 -0.90635764594E+00  0.66977675163E+00  0.11802793353E+01  0.00000000000E+00 0.  1.
         11    1    3    3    0    0  0.34861863673E+02 -0.45618285405E+01  0.15608746151E+02  0.38468074751E+02  0.51100000000E-03 0. -1.
        -11    1    3    3    0    0  0.47778590628E+01 -0.32526304104E+01  0.27519182393E+01  0.64016088655E+01  0.51100000000E-03 0.  1.
        -12    1    3    3    0    0 -0.39990399553E+02  0.87208165968E+01 -0.19030441142E+02  0.45138037048E+02  0.00000000000E+00 0.  1.
</event>
<event>
 7    1  0.2385752E-015  0.9000767E+02  0.7816164E-02  0.1186339E+00
        -11   -1    0    0    0    0  0.00000000000E+00  0.00000000000E+00  0.45593999997E+02  0.45594000000E+02  0.51100000000E-03 0.  1.
         11   -1    0    0    0    0 -0.00000000000E+00 -0.00000000000E+00 -0.45593999997E+02  0.45594000000E+02  0.51100000000E-03 0. -1.
    9900012    2    1    2    0    0  0.42890766488E+00  0.40917827415E+00 -0.10206830427E+01  0.90007668471E+02  0.89999928895E+02 0.  0.
        -12    1    1    2    0    0 -0.42890766488E+00 -0.40917827415E+00  0.10206830427E+01  0.11803315291E+01  0.00000000000E+00 0.  1.
         11    1    3    3    0    0  0.27315141401E+02 -0.21598320065E+02 -0.15552437550E+02  0.38137680755E+02  0.51100000000E-03 0. -1.
        -11    1    3    3    0    0  0.23983793308E+01  0.54595352960E+01 -0.90163179406E+01  0.10809844519E+02  0.51100000000E-03 0.  1.
        -12    1    3    3    0    0 -0.29284613066E+02  0.16547963043E+02  0.23548072447E+02  0.41060143197E+02  0.00000000000E+00 0.  1.
</event>
<event>
 7    1  0.2385752E-015  0.9000774E+02  0.7816164E-02  0.1186339E+00
        -11   -1    0    0    0    0  0.00000000000E+00  0.00000000000E+00  0.45593999997E+02  0.45594000000E+02  0.51100000000E-03 0. -1.
         11   -1    0    0    0    0 -0.00000000000E+00 -0.00000000000E+00 -0.45593999997E+02  0.45594000000E+02  0.51100000000E-03 0.  1.
    9900012    2    1    2    0    0  0.11425294856E+01  0.65873760588E-02  0.29595558708E+00  0.90007742940E+02  0.90000004346E+02 0.  0.
        -12    1    1    2    0    0 -0.11425294856E+01 -0.65873760588E-02 -0.29595558708E+00  0.11802570604E+01  0.00000000000E+00 0.  1.
         11    1    3    3    0    0  0.50247018589E+00 -0.13017874947E+02 -0.64844312959E+01  0.14552161143E+02  0.51100000000E-03 0. -1.
        -11    1    3    3    0    0  0.13074294009E+02 -0.22937902326E+02 -0.16226110115E+02  0.30989856029E+02  0.51100000000E-03 0.  1.
         12    1    3    3    0    0 -0.12434234709E+02  0.35962364650E+02  0.23006496998E+02  0.44465725768E+02  0.00000000000E+00 0. -1.
</event>
<event>
 7    1  0.2385752E-015  0.9000774E+02  0.7816164E-02  0.1186339E+00
        -11   -1    0    0    0    0  0.00000000000E+00  0.00000000000E+00  0.45593999997E+02  0.45594000000E+02  0.51100000000E-03 0. -1.
         11   -1    0    0    0    0 -0.00000000000E+00 -0.00000000000E+00 -0.45593999997E+02  0.45594000000E+02  0.51100000000E-03 0.  1.
    9900012    2    1    2    0    0 -0.94239703292E+00 -0.64575580990E+00  0.29649188753E+00  0.90007737244E+02  0.89999998576E+02 0.  0.
        -12    1    1    2    0    0  0.94239703292E+00  0.64575580990E+00 -0.29649188753E+00  0.11802627559E+01  0.00000000000E+00 0.  1.
         11    1    3    3    0    0 -0.22740686343E+02 -0.18661566488E+02  0.25773460664E+02  0.39110921160E+02  0.51100000000E-03 0. -1.
        -11    1    3    3    0    0 -0.20996569179E+01  0.54658614321E+01  0.66994602923E+01  0.88975821905E+01  0.51100000000E-03 0.  1.
        -12    1    3    3    0    0  0.23897946228E+02  0.12549949246E+02 -0.32176429069E+02  0.41999233893E+02  0.00000000000E+00 0.  1.
</event>
<event>
 7    1  0.2385752E-015  0.9000776E+02  0.7816164E-02  0.1186339E+00
        -11   -1    0    0    0    0  0.00000000000E+00  0.00000000000E+00  0.45593999997E+02  0.45594000000E+02  0.51100000000E-03 0. -1.
         11   -1    0    0    0    0 -0.00000000000E+00 -0.00000000000E+00 -0.45593999997E+02  0.45594000000E+02  0.51100000000E-03 0.  1.
    9900012    2    1    2    0    0  0.13250016663E+00 -0.78237654828E+00  0.87366383554E+00  0.90007763644E+02  0.90000025325E+02 0.  0.
        -12    1    1    2    0    0 -0.13250016663E+00  0.78237654828E+00 -0.87366383554E+00  0.11802363556E+01  0.00000000000E+00 0.  1.
         11    1    3    3    0    0  0.10041075286E+01  0.35264222192E+01 -0.88490491645E+01  0.95785989045E+01  0.51100000000E-03 0. -1.
        -11    1    3    3    0    0 -0.32817776255E+02 -0.98732670629E+01 -0.17142469078E+02  0.38319082546E+02  0.51100000000E-03 0.  1.
         12    1    3    3    0    0  0.31946168893E+02  0.55644682954E+01  0.26865182078E+02  0.42110082194E+02  0.00000000000E+00 0. -1.
</event>
<event>
 7    1  0.2385752E-015  0.9000781E+02  0.7816164E-02  0.1186339E+00
        -11   -1    0    0    0    0  0.00000000000E+00  0.00000000000E+00  0.45593999997E+02  0.45594000000E+02  0.51100000000E-03 0.  1.
         11   -1    0    0    0    0 -0.00000000000E+00 -0.00000000000E+00 -0.45593999997E+02  0.45594000000E+02  0.51100000000E-03 0. -1.
    9900012    2    1    2    0    0 -0.92385965098E+00 -0.38004508098E+00 -0.62840059087E+00  0.90007814328E+02  0.90000076677E+02 0.  0.
        -12    1    1    2    0    0  0.92385965098E+00  0.38004508098E+00  0.62840059087E+00  0.11801856722E+01  0.00000000000E+00 0.  1.
         11    1    3    3    0    0  0.42802179156E+01 -0.73753199307E+01 -0.46560229541E+01  0.97156656743E+01  0.51100000000E-03 0. -1.
        -11    1    3    3    0    0 -0.39317642371E+02 -0.49433962579E+01 -0.11037644213E+02  0.41135675006E+02  0.51100000000E-03 0.  1.
         12    1    3    3    0    0  0.34113564804E+02  0.11938671108E+02  0.15065266577E+02  0.39156473647E+02  0.00000000000E+00 0. -1.
</event>
<event>
 7    1  0.2385752E-015  0.9000769E+02  0.7816164E-02  0.1186339E+00
        -11   -1    0    0    0    0  0.00000000000E+00  0.00000000000E+00  0.45593999997E+02  0.45594000000E+02  0.51100000000E-03 0.  1.
         11   -1    0    0    0    0 -0.00000000000E+00 -0.00000000000E+00 -0.45593999997E+02  0.45594000000E+02  0.51100000000E-03 0. -1.
    9900012    2    1    2    0    0  0.57205834086E+00  0.88959111784E+00  0.52393870593E+00  0.90007688656E+02  0.89999949346E+02 0.  0.
        -12    1    1    2    0    0 -0.57205834086E+00 -0.88959111784E+00 -0.52393870593E+00  0.11803113445E+01  0.00000000000E+00 0.  1.
         11    1    3    3    0    0 -0.72332050622E+01 -0.65352383149E+01 -0.15432161328E+01  0.98696561033E+01  0.51100000000E-03 0. -1.
        -11    1    3    3    0    0 -0.33961003506E+02  0.91554224211E+01 -0.10111466625E+02  0.36597995525E+02  0.51100000000E-03 0.  1.
         12    1    3    3    0    0  0.41766266909E+02 -0.17305929884E+01  0.12178621464E+02  0.43540037028E+02  0.00000000000E+00 0. -1.
</event>
<event>
 7    1  0.2385752E-015  0.9000747E+02  0.7816164E-02  0.1186340E+00
        -11   -1    0    0    0    0  0.00000000000E+00  0.00000000000E+00  0.45593999997E+02  0.45594000000E+02  0.51100000000E-03 0. -1.
         11   -1    0    0    0    0 -0.00000000000E+00 -0.00000000000E+00 -0.45593999997E+02  0.45594000000E+02  0.51100000000E-03 0.  1.
    9900012    2    1    2    0    0 -0.71547964620E+00  0.87841176729E+00  0.33186178181E+00  0.90007470204E+02  0.89999728010E+02 0.  0.
        -12    1    1    2    0    0  0.71547964620E+00 -0.87841176729E+00 -0.33186178181E+00  0.11805297960E+01  0.00000000000E+00 0.  1.
         11    1    3    3    0    0  0.16077871804E+01 -0.24632420738E+02  0.34816559977E+02  0.42679432750E+02  0.51100000000E-03 0. -1.
        -11    1    3    3    0    0  0.63964142855E+01  0.14532169271E+01 -0.96559310310E+01  0.11673172640E+02  0.51100000000E-03 0.  1.
        -12    1    3    3    0    0 -0.87196811120E+01  0.24057615578E+02 -0.24828767164E+02  0.35654864814E+02  0.00000000000E+00 0.  1.
</event>
<event>
 7    1  0.2385752E-015  0.9000769E+02  0.7816164E-02  0.1186339E+00
        -11   -1    0    0    0    0  0.00000000000E+00  0.00000000000E+00  0.45593999997E+02  0.45594000000E+02  0.51100000000E-03 0.  1.
         11   -1    0    0    0    0 -0.00000000000E+00 -0.00000000000E+00 -0.45593999997E+02  0.45594000000E+02  0.51100000000E-03 0. -1.
    9900012    2    1    2    0    0 -0.11733779662E+01  0.12763606595E+00  0.54654421631E-02  0.90007687885E+02  0.89999948565E+02 0.  0.
        -12    1    1    2    0    0  0.11733779662E+01 -0.12763606595E+00 -0.54654421632E-02  0.11803121146E+01  0.00000000000E+00 0.  1.
         11    1    3    3    0    0  0.18080502298E+02 -0.27212330620E+02 -0.15942499154E+02  0.36353525010E+02  0.51100000000E-03 0. -1.
        -11    1    3    3    0    0  0.29583789391E+00 -0.87020379027E+01 -0.19381421377E+01  0.89201669786E+01  0.51100000000E-03 0.  1.
        -12    1    3    3    0    0 -0.19549718158E+02  0.36042004589E+02  0.17886106733E+02  0.44733995897E+02  0.00000000000E+00 0.  1.
</event>
<event>
 7    1  0.2385752E-015  0.9000777E+02  0.7816164E-02  0.1186339E+00
        -11   -1    0    0    0    0  0.00000000000E+00  0.00000000000E+00  0.45593999997E+02  0.45594000000E+02  0.51100000000E-03 0.  1.
         11   -1    0    0    0    0 -0.00000000000E+00 -0.00000000000E+00 -0.45593999997E+02  0.45594000000E+02  0.51100000000E-03 0. -1.
    9900012    2    1    2    0    0  0.62637907237E+00  0.96848437758E+00 -0.25027161532E+00  0.90007767560E+02  0.90000029291E+02 0.  0.
        -12    1    1    2    0    0 -0.62637907237E+00 -0.96848437758E+00  0.25027161532E+00  0.11802324404E+01  0.00000000000E+00 0.  1.
         11    1    3    3    0    0 -0.50798259368E+01 -0.37383912150E+02 -0.18029697661E+02  0.41814250169E+02  0.51100000000E-03 0. -1.
        -11    1    3    3    0    0  0.27031299131E+01  0.19515561161E+01  0.10412808733E+02  0.10933529557E+02  0.51100000000E-03 0.  1.
        -12    1    3    3    0    0  0.30030750961E+01  0.36400840412E+02  0.73666173123E+01  0.37259987833E+02  0.00000000000E+00 0.  1.
</event>
<event>
 7    1  0.2385752E-015  0.9000757E+02  0.7816164E-02  0.1186339E+00
        -11   -1    0    0    0    0  0.00000000000E+00  0.00000000000E+00  0.45593999997E+02  0.45594000000E+02  0.51100000000E-03 0.  1.
         11   -1    0    0    0    0 -0.00000000000E+00 -0.00000000000E+00 -0.45593999997E+02  0.45594000000E+02  0.51100000000E-03 0. -1.
    9900012    2    1    2    0    0  0.11790524109E+01  0.56020495963E-01  0.10881514976E-01  0.90007567329E+02  0.89999826418E+02 0.  0.
        -12    1    1    2    0    0 -0.11790524109E+01 -0.56020495963E-01 -0.10881514976E-01  0.11804326711E+01  0.00000000000E+00 0.  1.
         11    1    3    3    0    0  0.66382015314E+01 -0.15827211514E+02  0.14310785674E+02  0.22346474683E+02  0.51100000000E-03 0. -1.
        -11    1    3    3    0    0 -0.33284817346E+01  0.29903596869E+02  0.16093580968E+02  0.34121946676E+02  0.51100000000E-03 0.  1.
         12    1    3    3    0    0 -0.21306673860E+01 -0.14020364859E+02 -0.30393485126E+02  0.33539145970E+02  0.00000000000E+00 0. -1.
</event>
<event>
 7    1  0.2385752E-015  0.9000776E+02  0.7816164E-02  0.1186339E+00
        -11   -1    0    0    0    0  0.00000000000E+00  0.00000000000E+00  0.45593999997E+02  0.45594000000E+02  0.51100000000E-03 0. -1.
         11   -1    0    0    0    0 -0.00000000000E+00 -0.00000000000E+00 -0.45593999997E+02  0.45594000000E+02  0.51100000000E-03 0.  1.
    9900012    2    1    2    0    0  0.99494552269E+00 -0.61496819028E+00  0.15770218941E+00  0.90007757462E+02  0.90000019060E+02 0.  0.
        -12    1    1    2    0    0 -0.99494552269E+00  0.61496819028E+00 -0.15770218941E+00  0.11802425381E+01  0.00000000000E+00 0.  1.
         11    1    3    3    0    0 -0.27824801805E+01 -0.10298283762E+01  0.93305087332E+01  0.97908700288E+01  0.51100000000E-03 0. -1.
        -11    1    3    3    0    0  0.25659741722E+02  0.32121003333E+02 -0.62199361641E+01  0.41579668187E+02  0.51100000000E-03 0.  1.
         12    1    3    3    0    0 -0.21882316019E+02 -0.31706143147E+02 -0.29528703798E+01  0.38637219246E+02  0.00000000000E+00 0. -1.
</event>
<event>
 7    1  0.2385752E-015  0.9000774E+02  0.7816164E-02  0.1186339E+00
        -11   -1    0    0    0    0  0.00000000000E+00  0.00000000000E+00  0.45593999997E+02  0.45594000000E+02  0.51100000000E-03 0. -1.
         11   -1    0    0    0    0 -0.00000000000E+00 -0.00000000000E+00 -0.45593999997E+02  0.45594000000E+02  0.51100000000E-03 0.  1.
    9900012    2    1    2    0    0 -0.10277642155E+01  0.16478973320E+00  0.55638842026E+00  0.90007736041E+02  0.89999997357E+02 0.  0.
        -12    1    1    2    0    0  0.10277642155E+01 -0.16478973320E+00 -0.55638842026E+00  0.11802639591E+01  0.00000000000E+00 0.  1.
         11    1    3    3    0    0 -0.54926272972E+01 -0.30651287773E+02  0.26769165487E+02  0.41064079411E+02  0.51100000000E-03 0. -1.
        -11    1    3    3    0    0 -0.85115004151E+01  0.39767432778E+01 -0.22884397332E+00  0.93974728645E+01  0.51100000000E-03 0.  1.
        -12    1    3    3    0    0  0.12976363497E+02  0.26839334228E+02 -0.25983933093E+02  0.39546183765E+02  0.00000000000E+00 0.  1.
</event>
<event>
 7    1  0.2385752E-015  0.9000770E+02  0.7816164E-02  0.1186339E+00
        -11   -1    0    0    0    0  0.00000000000E+00  0.00000000000E+00  0.45593999997E+02  0.45594000000E+02  0.51100000000E-03 0.  1.
         11   -1    0    0    0    0 -0.00000000000E+00 -0.00000000000E+00 -0.45593999997E+02  0.45594000000E+02  0.51100000000E-03 0. -1.
    9900012    2    1    2    0    0 -0.83321580025E+00  0.72227360349E+00 -0.42094054020E+00  0.90007695520E+02  0.89999956300E+02 0.  0.
        -12    1    1    2    0    0  0.83321580025E+00 -0.72227360349E+00  0.42094054020E+00  0.11803044804E+01  0.00000000000E+00 0.  1.
         11    1    3    3    0    0 -0.18507490432E+02 -0.81348810961E+01 -0.29605362844E+02  0.35849421222E+02  0.51100000000E-03 0. -1.
        -11    1    3    3    0    0 -0.53044379426E+01 -0.14341334245E+01 -0.77244236459E+01  0.94794789671E+01  0.51100000000E-03 0.  1.
        -12    1    3    3    0    0  0.22978712575E+02  0.10291288124E+02  0.36908845950E+02  0.44678795331E+02  0.00000000000E+00 0.  1.
</event>
<event>
 7    1  0.2385752E-015  0.9000777E+02  0.7816164E-02  0.1186339E+00
        -11   -1    0    0    0    0  0.00000000000E+00  0.00000000000E+00  0.45593999997E+02  0.45594000000E+02  0.51100000000E-03 0. -1.
         11   -1    0    0    0    0 -0.00000000000E+00 -0.00000000000E+00 -0.45593999997E+02  0.45594000000E+02  0.51100000000E-03 0.  1.
    9900012    2    1    2    0    0 -0.97067040934E+00  0.36161404111E+00  0.56567229360E+00  0.90007766590E+02  0.90000028309E+02 0.  0.
        -12    1    1    2    0    0  0.97067040934E+00 -0.36161404111E+00 -0.56567229360E+00  0.11802334100E+01  0.00000000000E+00 0.  1.
         11    1    3    3    0    0 -0.35528422808E+02 -0.10808683684E+01  0.12442609092E+02  0.37659734797E+02  0.51100000000E-03 0. -1.
        -11    1    3    3    0    0 -0.15383287922E+01  0.74222545983E+01  0.77394973855E+01  0.10833103841E+02  0.51100000000E-03 0.  1.
        -12    1    3    3    0    0  0.36096081191E+02 -0.59797721888E+01 -0.19616434184E+02  0.41514927952E+02  0.00000000000E+00 0.  1.
</event>
<event>
 7    1  0.2385752E-015  0.9000774E+02  0.7816164E-02  0.1186339E+00
        -11   -1    0    0    0    0  0.00000000000E+00  0.00000000000E+00  0.45593999997E+02  0.45594000000E+02  0.51100000000E-03 0.  1.
         11   -1    0    0    0    0 -0.00000000000E+00 -0.00000000000E+00 -0.45593999997E+02  0.45594000000E+02  0.51100000000E-03 0. -1.
    9900012    2    1    2    0    0  0.11765202042E+01 -0.92671215249E-01 -0.15158484154E-01  0.90007738366E+02  0.89999999712E+02 0.  0.
        -12    1    1    2    0    0 -0.11765202042E+01  0.92671215249E-01  0.15158484154E-01  0.11802616340E+01  0.00000000000E+00 0.  1.
         11    1    3    3    0    0 -0.69502670305E+01  0.20759504681E+01 -0.75381283048E+01  0.10461317352E+02  0.51100000000E-03 0. -1.
        -11    1    3    3    0    0  0.42920870403E+02  0.62487798752E+01  0.49826850873E+01  0.43658624773E+02  0.51100000000E-03 0.  1.
         12    1    3    3    0    0 -0.34794083169E+02 -0.84174015585E+01  0.25402847334E+01  0.35887796241E+02  0.00000000000E+00 0. -1.
</event>
<event>
 7    1  0.2385752E-015  0.9000784E+02  0.7816164E-02  0.1186339E+00
        -11   -1    0    0    0    0  0.00000000000E+00  0.00000000000E+00  0.45593999997E+02  0.45594000000E+02  0.51100000000E-03 0. -1.
         11   -1    0    0    0    0 -0.00000000000E+00 -0.00000000000E+00 -0.45593999997E+02  0.45594000000E+02  0.51100000000E-03 0.  1.
    9900012    2    1    2    0    0 -0.10487688034E+00  0.70645767865E+00  0.93951684888E+00  0.90007841739E+02  0.90000104450E+02 0.  0.
        -12    1    1    2    0    0  0.10487688034E+00 -0.70645767865E+00 -0.93951684888E+00  0.11801582610E+01  0.00000000000E+00 0.  1.
         11    1    3    3    0    0  0.16275926012E+01 -0.13421246062E+01  0.86155768743E+01  0.88700913903E+01  0.51100000000E-03 0. -1.
        -11    1    3    3    0    0  0.89990939102E+01  0.40111035814E+02 -0.17083272496E+01  0.41143617579E+02  0.51100000000E-03 0.  1.
         12    1    3    3    0    0 -0.10731563392E+02 -0.38062453529E+02 -0.59677327759E+01  0.39994132769E+02  0.00000000000E+00 0. -1.
</event>
<event>
 7    1  0.2385752E-015  0.9000782E+02  0.7816164E-02  0.1186339E+00
        -11   -1    0    0    0    0  0.00000000000E+00  0.00000000000E+00  0.45593999997E+02  0.45594000000E+02  0.51100000000E-03 0.  1.
         11   -1    0    0    0    0 -0.00000000000E+00 -0.00000000000E+00 -0.45593999997E+02  0.45594000000E+02  0.51100000000E-03 0. -1.
    9900012    2    1    2    0    0 -0.17867677579E+00  0.77042822896E+00  0.87598068576E+00  0.90007818994E+02  0.90000081404E+02 0.  0.
        -12    1    1    2    0    0  0.17867677579E+00 -0.77042822896E+00 -0.87598068576E+00  0.11801810065E+01  0.00000000000E+00 0.  1.
         11    1    3    3    0    0 -0.57618199681E+01 -0.34150332247E+01  0.76332992765E+01  0.10155209470E+02  0.51100000000E-03 0. -1.
        -11    1    3    3    0    0  0.20037415482E+02  0.12477440469E+02  0.30776292403E+02  0.38786140749E+02  0.51100000000E-03 0.  1.
         12    1    3    3    0    0 -0.14454272290E+02 -0.82919790152E+01 -0.37533610994E+02  0.41066468775E+02  0.00000000000E+00 0. -1.
</event>
<event>
 7    1  0.2385752E-015  0.9000749E+02  0.7816164E-02  0.1186340E+00
        -11   -1    0    0    0    0  0.00000000000E+00  0.00000000000E+00  0.45593999997E+02  0.45594000000E+02  0.51100000000E-03 0.  1.
         11   -1    0    0    0    0 -0.00000000000E+00 -0.00000000000E+00 -0.45593999997E+02  0.45594000000E+02  0.51100000000E-03 0. -1.
    9900012    2    1    2    0    0  0.64008426839E+00 -0.11148627063E-01 -0.99185556940E+00  0.90007487555E+02  0.89999745590E+02 0.  0.
        -12    1    1    2    0    0 -0.64008426839E+00  0.11148627063E-01  0.99185556940E+00  0.11805124451E+01  0.00000000000E+00 0.  1.
         11    1    3    3    0    0  0.90125475014E+01  0.11821172519E+02 -0.34912125915E+02  0.37944995300E+02  0.51100000000E-03 0. -1.
        -11    1    3    3    0    0  0.45565318437E+01 -0.10474695401E+01 -0.66547531690E+01  0.81329524087E+01  0.51100000000E-03 0.  1.
        -12    1    3    3    0    0 -0.12928995077E+02 -0.10784851606E+02  0.40575023515E+02  0.43929539846E+02  0.00000000000E+00 0.  1.
</event>
<event>
 7    1  0.2385752E-015  0.9000772E+02  0.7816164E-02  0.1186339E+00
        -11   -1    0    0    0    0  0.00000000000E+00  0.00000000000E+00  0.45593999997E+02  0.45594000000E+02  0.51100000000E-03 0.  1.
         11   -1    0    0    0    0 -0.00000000000E+00 -0.00000000000E+00 -0.45593999997E+02  0.45594000000E+02  0.51100000000E-03 0. -1.
    9900012    2    1    2    0    0 -0.11464928693E+01  0.24924127202E+00  0.12842815705E+00  0.90007719990E+02  0.89999981094E+02 0.  0.
        -12    1    1    2    0    0  0.11464928693E+01 -0.24924127202E+00 -0.12842815705E+00  0.11802800103E+01  0.00000000000E+00 0.  1.
         11    1    3    3    0    0  0.59646136111E+01 -0.34368536168E+02  0.96671482040E+01  0.36197053037E+02  0.51100000000E-03 0. -1.
        -11    1    3    3    0    0 -0.70838987000E+01 -0.56986493520E+01  0.56771116208E+01  0.10718480389E+02  0.51100000000E-03 0.  1.
        -12    1    3    3    0    0 -0.27207780405E-01  0.40316426792E+02 -0.15215831668E+02  0.43092186564E+02  0.00000000000E+00 0.  1.
</event>
<event>
 7    1  0.2385752E-015  0.9000797E+02  0.7816164E-02  0.1186339E+00
        -11   -1    0    0    0    0  0.00000000000E+00  0.00000000000E+00  0.45593999997E+02  0.45594000000E+02  0.51100000000E-03 0. -1.
         11   -1    0    0    0    0 -0.00000000000E+00 -0.00000000000E+00 -0.45593999997E+02  0.45594000000E+02  0.51100000000E-03 0.  1.
    9900012    2    1    2    0    0 -0.28774389697E+00 -0.85130311191E+00  0.76482705950E+00  0.90007968657E+02  0.90000233043E+02 0.  0.
        -12    1    1    2    0    0  0.28774389697E+00  0.85130311191E+00 -0.76482705950E+00  0.11800313426E+01  0.00000000000E+00 0.  1.
         11    1    3    3    0    0  0.30491877957E+01 -0.97476344754E+01 -0.86533035647E-01  0.10213785405E+02  0.51100000000E-03 0. -1.
        -11    1    3    3    0    0 -0.31620524105E+02 -0.25242911601E+01 -0.24540886008E+02  0.40105918227E+02  0.51100000000E-03 0.  1.
         12    1    3    3    0    0  0.28283592412E+02  0.11420622524E+02  0.25392246103E+02  0.39688265025E+02  0.00000000000E+00 0. -1.
</event>
<event>
 7    1  0.2385752E-015  0.9000772E+02  0.7816164E-02  0.1186339E+00
        -11   -1    0    0    0    0  0.00000000000E+00  0.00000000000E+00  0.45593999997E+02  0.45594000000E+02  0.51100000000E-03 0.  1.
         11   -1    0    0    0    0 -0.00000000000E+00 -0.00000000000E+00 -0.45593999997E+02  0.45594000000E+02  0.51100000000E-03 0. -1.
    9900012    2    1    2    0    0  0.22456349728E+00 -0.49973649161E+00  0.10454211486E+01  0.90007715838E+02  0.89999976887E+02 0.  0.
        -12    1    1    2    0    0 -0.22456349728E+00  0.49973649161E+00 -0.10454211486E+01  0.11802841621E+01  0.00000000000E+00 0.  1.
         11    1    3    3    0    0  0.34970107957E+01 -0.30718911609E+01  0.99735709634E+01  0.11006258121E+02  0.51100000000E-03 0. -1.
        -11    1    3    3    0    0  0.19579433671E+02 -0.15612360714E+02  0.24209803202E+02  0.34831230258E+02  0.51100000000E-03 0.  1.
         12    1    3    3    0    0 -0.22851880969E+02  0.18184515383E+02 -0.33137953017E+02  0.44170227458E+02  0.00000000000E+00 0. -1.
</event>
<event>
 7    1  0.2385752E-015  0.9000767E+02  0.7816164E-02  0.1186339E+00
        -11   -1    0    0    0    0  0.00000000000E+00  0.00000000000E+00  0.45593999997E+02  0.45594000000E+02  0.51100000000E-03 0.  1.
         11   -1    0    0    0    0 -0.00000000000E+00 -0.00000000000E+00 -0.45593999997E+02  0.45594000000E+02  0.51100000000E-03 0. -1.
    9900012    2    1    2    0    0  0.10686597096E+01 -0.16661258760E+00 -0.47263885729E+00  0.90007669191E+02  0.89999929624E+02 0.  0.
        -12    1    1    2    0    0 -0.10686597096E+01  0.16661258760E+00  0.47263885729E+00  0.11803308090E+01  0.00000000000E+00 0.  1.
         11    1    3    3    0    0 -0.39157543155E+01  0.38885147551E+01  0.90125769008E+01  0.10567886331E+02  0.51100000000E-03 0. -1.
        -11    1    3    3    0    0 -0.14470931023E+02  0.21064979899E+02  0.22722643231E+02  0.34197364496E+02  0.51100000000E-03 0.  1.
         12    1    3    3    0    0  0.19455345048E+02 -0.25120107241E+02 -0.32207858989E+02  0.45242418364E+02  0.00000000000E+00 0. -1.
</event>
<event>
 7    1  0.2385752E-015  0.9000773E+02  0.7816164E-02  0.1186339E+00
        -11   -1    0    0    0    0  0.00000000000E+00  0.00000000000E+00  0.45593999997E+02  0.45594000000E+02  0.51100000000E-03 0. -1.
         11   -1    0    0    0    0 -0.00000000000E+00 -0.00000000000E+00 -0.45593999997E+02  0.45594000000E+02  0.51100000000E-03 0.  1.
    9900012    2    1    2    0    0  0.18412316035E+00  0.73901516628E+00  0.90166038816E+00  0.90007730450E+02  0.89999991692E+02 0.  0.
        -12    1    1    2    0    0 -0.18412316035E+00 -0.73901516628E+00 -0.90166038816E+00  0.11802695496E+01  0.00000000000E+00 0.  1.
         11    1    3    3    0    0  0.72899706853E+01  0.50560422711E+00  0.54102947760E+01  0.90923373261E+01  0.51100000000E-03 0. -1.
        -11    1    3    3    0    0 -0.18179282042E+02 -0.16399746712E+02 -0.36049532768E+02  0.43577595170E+02  0.51100000000E-03 0.  1.
         12    1    3    3    0    0  0.11073434517E+02  0.16633157651E+02  0.31540898380E+02  0.37337797954E+02  0.00000000000E+00 0. -1.
</event>
<event>
 7    1  0.2385752E-015  0.9000771E+02  0.7816164E-02  0.1186339E+00
        -11   -1    0    0    0    0  0.00000000000E+00  0.00000000000E+00  0.45593999997E+02  0.45594000000E+02  0.51100000000E-03 0.  1.
         11   -1    0    0    0    0 -0.00000000000E+00 -0.00000000000E+00 -0.45593999997E+02  0.45594000000E+02  0.51100000000E-03 0. -1.
    9900012    2    1    2    0    0  0.10103262682E+01  0.40741816680E+00  0.45423960331E+00  0.90007710905E+02  0.89999971889E+02 0.  0.
        -12    1    1    2    0    0 -0.10103262682E+01 -0.40741816680E+00 -0.45423960331E+00  0.11802890951E+01  0.00000000000E+00 0.  1.
         11    1    3    3    0    0  0.95574808891E+01 -0.27003169856E+02 -0.25349556318E+02  0.38250707562E+02  0.51100000000E-03 0. -1.
        -11    1    3    3    0    0  0.30705803141E+01  0.50731181060E+01 -0.77805230501E+01  0.97827158794E+01  0.51100000000E-03 0.  1.
        -12    1    3    3    0    0 -0.11617734935E+02  0.22337469916E+02  0.33584318972E+02  0.41974287464E+02  0.00000000000E+00 0.  1.
</event>
<event>
 7    1  0.2385752E-015  0.9000780E+02  0.7816164E-02  0.1186339E+00
        -11   -1    0    0    0    0  0.00000000000E+00  0.00000000000E+00  0.45593999997E+02  0.45594000000E+02  0.51100000000E-03 0.  1.
         11   -1    0    0    0    0 -0.00000000000E+00 -0.00000000000E+00 -0.45593999997E+02  0.45594000000E+02  0.51100000000E-03 0. -1.
    9900012    2    1    2    0    0 -0.13791070330E+00  0.10920376837E+01 -0.42579384517E+00  0.90007802532E+02  0.90000064725E+02 0.  0.
        -12    1    1    2    0    0  0.13791070330E+00 -0.10920376837E+01  0.42579384517E+00  0.11801974679E+01  0.00000000000E+00 0.  1.
         11    1    3    3    0    0  0.41557932620E+01  0.31165496150E+02 -0.29509081906E+01  0.31579528612E+02  0.51100000000E-03 0. -1.
        -11    1    3    3    0    0 -0.82562735249E+01  0.12611604690E+02  0.37830001622E+01  0.15541226331E+02  0.51100000000E-03 0.  1.
        -12    1    3    3    0    0  0.39625695596E+01 -0.42685063157E+02 -0.12578858167E+01  0.42887047589E+02  0.00000000000E+00 0.  1.
</event>
<event>
 7    1  0.2385752E-015  0.9000814E+02  0.7816164E-02  0.1186338E+00
        -11   -1    0    0    0    0  0.00000000000E+00  0.00000000000E+00  0.45593999997E+02  0.45594000000E+02  0.51100000000E-03 0.  1.
         11   -1    0    0    0    0 -0.00000000000E+00 -0.00000000000E+00 -0.45593999997E+02  0.45594000000E+02  0.51100000000E-03 0. -1.
    9900012    2    1    2    0    0  0.10141888477E+01  0.49617277371E+00 -0.34250240010E+00  0.90008138002E+02  0.90000404623E+02 0.  0.
        -12    1    1    2    0    0 -0.10141888477E+01 -0.49617277371E+00  0.34250240010E+00  0.11798619979E+01  0.00000000000E+00 0.  1.
         11    1    3    3    0    0  0.63148442364E+01 -0.22887337542E+02 -0.26476195716E+02  0.35562570455E+02  0.51100000000E-03 0. -1.
        -11    1    3    3    0    0  0.46390626604E+01 -0.71604325041E+01 -0.48523979785E+01  0.98152158619E+01  0.51100000000E-03 0.  1.
        -12    1    3    3    0    0 -0.99397180491E+01  0.30543942820E+02  0.30986091294E+02  0.44630351686E+02  0.00000000000E+00 0.  1.
</event>
<event>
 7    1  0.2385752E-015  0.9000776E+02  0.7816164E-02  0.1186339E+00
        -11   -1    0    0    0    0  0.00000000000E+00  0.00000000000E+00  0.45593999997E+02  0.45594000000E+02  0.51100000000E-03 0. -1.
         11   -1    0    0    0    0 -0.00000000000E+00 -0.00000000000E+00 -0.45593999997E+02  0.45594000000E+02  0.51100000000E-03 0.  1.
    9900012    2    1    2    0    0 -0.85877494532E+00 -0.80869054564E+00 -0.38612433360E-01  0.90007760310E+02  0.90000021946E+02 0.  0.
        -12    1    1    2    0    0  0.85877494532E+00  0.80869054564E+00  0.38612433360E-01  0.11802396898E+01  0.00000000000E+00 0.  1.
         11    1    3    3    0    0  0.78248261372E+01 -0.10001919451E+02  0.58783485435E+00  0.12712664822E+02  0.51100000000E-03 0. -1.
        -11    1    3    3    0    0  0.21400508067E+02 -0.21389428243E+02  0.12040493099E+02  0.32564748739E+02  0.51100000000E-03 0.  1.
         12    1    3    3    0    0 -0.30084109149E+02  0.30582657149E+02 -0.12666940387E+02  0.44730346750E+02  0.00000000000E+00 0. -1.
</event>
<event>
 7    1  0.2385752E-015  0.9000781E+02  0.7816164E-02  0.1186339E+00
        -11   -1    0    0    0    0  0.00000000000E+00  0.00000000000E+00  0.45593999997E+02  0.45594000000E+02  0.51100000000E-03 0.  1.
         11   -1    0    0    0    0 -0.00000000000E+00 -0.00000000000E+00 -0.45593999997E+02  0.45594000000E+02  0.51100000000E-03 0. -1.
    9900012    2    1    2    0    0  0.86170823799E+00  0.74110656082E+00 -0.31792526139E+00  0.90007806586E+02  0.90000068833E+02 0.  0.
        -12    1    1    2    0    0 -0.86170823799E+00 -0.74110656082E+00  0.31792526139E+00  0.11801934137E+01  0.00000000000E+00 0.  1.
         11    1    3    3    0    0 -0.31267864085E+02  0.20099504900E+02 -0.53807089179E+01  0.37558240779E+02  0.51100000000E-03 0. -1.
        -11    1    3    3    0    0 -0.74367219885E+01 -0.31118578037E+01  0.53524124740E+01  0.96766116217E+01  0.51100000000E-03 0.  1.
        -12    1    3    3    0    0  0.39566294312E+02 -0.16246540536E+02 -0.28962881752E+00  0.42772954186E+02  0.00000000000E+00 0.  1.
</event>
<event>
 7    1  0.2385752E-015  0.9000771E+02  0.7816164E-02  0.1186339E+00
        -11   -1    0    0    0    0  0.00000000000E+00  0.00000000000E+00  0.45593999997E+02  0.45594000000E+02  0.51100000000E-03 0. -1.
         11   -1    0    0    0    0 -0.00000000000E+00 -0.00000000000E+00 -0.45593999997E+02  0.45594000000E+02  0.51100000000E-03 0.  1.
    9900012    2    1    2    0    0 -0.56383442146E-01  0.11692387618E+01  0.15093578535E+00  0.90007711906E+02  0.89999972903E+02 0.  0.
        -12    1    1    2    0    0  0.56383442146E-01 -0.11692387618E+01 -0.15093578535E+00  0.11802880945E+01  0.00000000000E+00 0.  1.
         11    1    3    3    0    0 -0.13015568904E+01 -0.30772494930E+02  0.57847972252E+01  0.31338544538E+02  0.51100000000E-03 0. -1.
        -11    1    3    3    0    0 -0.27478945136E+01 -0.12189196380E+02  0.43799882453E+01  0.13240533597E+02  0.51100000000E-03 0.  1.
        -12    1    3    3    0    0  0.39930679618E+01  0.44130930072E+02 -0.10013849685E+02  0.45428633771E+02  0.00000000000E+00 0.  1.
</event>
<event>
 7    1  0.2385752E-015  0.9000765E+02  0.7816164E-02  0.1186339E+00
        -11   -1    0    0    0    0  0.00000000000E+00  0.00000000000E+00  0.45593999997E+02  0.45594000000E+02  0.51100000000E-03 0.  1.
         11   -1    0    0    0    0 -0.00000000000E+00 -0.00000000000E+00 -0.45593999997E+02  0.45594000000E+02  0.51100000000E-03 0. -1.
    9900012    2    1    2    0    0  0.10475636697E+01 -0.26467611829E+00 -0.47517157055E+00  0.90007647887E+02  0.89999908039E+02 0.  0.
        -12    1    1    2    0    0 -0.10475636697E+01  0.26467611829E+00  0.47517157055E+00  0.11803521132E+01  0.00000000000E+00 0.  1.
         11    1    3    3    0    0 -0.71836453250E+01  0.52562773457E+01 -0.12342396324E+01  0.89864653464E+01  0.51100000000E-03 0. -1.
        -11    1    3    3    0    0 -0.27539177143E+02 -0.27526549839E+02 -0.14673121200E+01  0.38964987218E+02  0.51100000000E-03 0.  1.
         12    1    3    3    0    0  0.35770386138E+02  0.22005596375E+02  0.22263801819E+01  0.42056195322E+02  0.00000000000E+00 0. -1.
</event>
<event>
 7    1  0.2385752E-015  0.9000748E+02  0.7816164E-02  0.1186340E+00
        -11   -1    0    0    0    0  0.00000000000E+00  0.00000000000E+00  0.45593999997E+02  0.45594000000E+02  0.51100000000E-03 0.  1.
         11   -1    0    0    0    0 -0.00000000000E+00 -0.00000000000E+00 -0.45593999997E+02  0.45594000000E+02  0.51100000000E-03 0. -1.
    9900012    2    1    2    0    0 -0.70323291291E+00  0.94333555871E+00 -0.95939517658E-01  0.90007481937E+02  0.89999739898E+02 0.  0.
        -12    1    1    2    0    0  0.70323291291E+00 -0.94333555871E+00  0.95939517658E-01  0.11805180630E+01  0.00000000000E+00 0.  1.
         11    1    3    3    0    0 -0.38505611226E+01 -0.68324802334E+01  0.83355122921E+01  0.11445102557E+02  0.51100000000E-03 0. -1.
        -11    1    3    3    0    0 -0.24695060625E+02  0.31945305903E+02  0.14092510516E+01  0.40402160552E+02  0.51100000000E-03 0.  1.
         12    1    3    3    0    0  0.27842388835E+02 -0.24169490111E+02 -0.98407028614E+01  0.38160218828E+02  0.00000000000E+00 0. -1.
</event>
<event>
 7    1  0.2385752E-015  0.9000792E+02  0.7816164E-02  0.1186339E+00
        -11   -1    0    0    0    0  0.00000000000E+00  0.00000000000E+00  0.45593999997E+02  0.45594000000E+02  0.51100000000E-03 0. -1.
         11   -1    0    0    0    0 -0.00000000000E+00 -0.00000000000E+00 -0.45593999997E+02  0.45594000000E+02  0.51100000000E-03 0.  1.
    9900012    2    1    2    0    0  0.79121948971E+00  0.43834786454E+00  0.75790255823E+00  0.90007918046E+02  0.90000181764E+02 0.  0.
        -12    1    1    2    0    0 -0.79121948971E+00 -0.43834786454E+00 -0.75790255823E+00  0.11800819544E+01  0.00000000000E+00 0.  1.
         11    1    3    3    0    0 -0.16561107856E+02 -0.29940843541E+02 -0.15991550396E+02  0.37768427154E+02  0.51100000000E-03 0. -1.
        -11    1    3    3    0    0 -0.18104037680E+01 -0.52035360409E+01  0.97846349323E+01  0.11229133099E+02  0.51100000000E-03 0.  1.
        -12    1    3    3    0    0  0.19162731113E+02  0.35582727446E+02  0.69648180219E+01  0.41010357793E+02  0.00000000000E+00 0.  1.
</event>
<event>
 7    1  0.2385752E-015  0.9000771E+02  0.7816164E-02  0.1186339E+00
        -11   -1    0    0    0    0  0.00000000000E+00  0.00000000000E+00  0.45593999997E+02  0.45594000000E+02  0.51100000000E-03 0.  1.
         11   -1    0    0    0    0 -0.00000000000E+00 -0.00000000000E+00 -0.45593999997E+02  0.45594000000E+02  0.51100000000E-03 0. -1.
    9900012    2    1    2    0    0  0.35365479239E-01  0.99291369359E+00 -0.63714759358E+00  0.90007709622E+02  0.89999970589E+02 0.  0.
        -12    1    1    2    0    0 -0.35365479239E-01 -0.99291369359E+00  0.63714759358E+00  0.11802903778E+01  0.00000000000E+00 0.  1.
         11    1    3    3    0    0 -0.31846187270E+02 -0.49627784700E+01 -0.14999305838E+02  0.35549795916E+02  0.51100000000E-03 0. -1.
        -11    1    3    3    0    0 -0.67249819391E+01 -0.48640745674E+01 -0.52535403852E+01  0.98226417179E+01  0.51100000000E-03 0.  1.
        -12    1    3    3    0    0  0.38606534688E+02  0.10819766731E+02  0.19615698629E+02  0.44635271988E+02  0.00000000000E+00 0.  1.
</event>
<event>
 7    1  0.2385752E-015  0.9000768E+02  0.7816164E-02  0.1186339E+00
        -11   -1    0    0    0    0  0.00000000000E+00  0.00000000000E+00  0.45593999997E+02  0.45594000000E+02  0.51100000000E-03 0.  1.
         11   -1    0    0    0    0 -0.00000000000E+00 -0.00000000000E+00 -0.45593999997E+02  0.45594000000E+02  0.51100000000E-03 0. -1.
    9900012    2    1    2    0    0  0.84272622728E+00  0.79034380889E+00 -0.24150762048E+00  0.90007679382E+02  0.89999939950E+02 0.  0.
        -12    1    1    2    0    0 -0.84272622728E+00 -0.79034380889E+00  0.24150762048E+00  0.11803206179E+01  0.00000000000E+00 0.  1.
         11    1    3    3    0    0 -0.69968283466E+01  0.45547827980E+00  0.71057002760E+01  0.99826872158E+01  0.51100000000E-03 0. -1.
        -11    1    3    3    0    0  0.14672108887E+02 -0.22593600128E+02  0.27016666952E+02  0.38152874589E+02  0.51100000000E-03 0.  1.
         12    1    3    3    0    0 -0.68325543126E+01  0.22928465657E+02 -0.34363874849E+02  0.41872117578E+02  0.00000000000E+00 0. -1.
</event>
<event>
 7    1  0.2385752E-015  0.9000775E+02  0.7816164E-02  0.1186339E+00
        -11   -1    0    0    0    0  0.00000000000E+00  0.00000000000E+00  0.45593999997E+02  0.45594000000E+02  0.51100000000E-03 0.  1.
         11   -1    0    0    0    0 -0.00000000000E+00 -0.00000000000E+00 -0.45593999997E+02  0.45594000000E+02  0.51100000000E-03 0. -1.
    9900012    2    1    2    0    0 -0.82089086170E+00  0.75919828469E+00 -0.37781537390E+00  0.90007750747E+02  0.90000012257E+02 0.  0.
        -12    1    1    2    0    0  0.82089086170E+00 -0.75919828469E+00  0.37781537390E+00  0.11802492529E+01  0.00000000000E+00 0.  1.
         11    1    3    3    0    0 -0.23983460775E-01  0.10355083713E+02  0.46400869035E+01  0.11347190870E+02  0.51100000000E-03 0. -1.
        -11    1    3    3    0    0 -0.38873517500E+02 -0.10798034985E+02 -0.41099836277E+01  0.40554159936E+02  0.51100000000E-03 0.  1.
         12    1    3    3    0    0  0.38076610100E+02  0.12021495568E+01 -0.90791864967E+00  0.38106399942E+02  0.00000000000E+00 0. -1.
</event>
<event>
 7    1  0.2385752E-015  0.9000772E+02  0.7816164E-02  0.1186339E+00
        -11   -1    0    0    0    0  0.00000000000E+00  0.00000000000E+00  0.45593999997E+02  0.45594000000E+02  0.51100000000E-03 0. -1.
         11   -1    0    0    0    0 -0.00000000000E+00 -0.00000000000E+00 -0.45593999997E+02  0.45594000000E+02  0.51100000000E-03 0.  1.
    9900012    2    1    2    0    0 -0.30584330321E+00 -0.78975852115E+00  0.82206597738E+00  0.90007724134E+02  0.89999985293E+02 0.  0.
        -12    1    1    2    0    0  0.30584330321E+00  0.78975852115E+00 -0.82206597738E+00  0.11802758656E+01  0.00000000000E+00 0.  1.
         11    1    3    3    0    0 -0.16655378650E+01 -0.15631377705E+02 -0.47239317655E+01  0.16414308299E+02  0.51100000000E-03 0. -1.
        -11    1    3    3    0    0  0.13482716516E+01 -0.16218760626E+02 -0.25129158349E+02  0.29938948416E+02  0.51100000000E-03 0.  1.
         12    1    3    3    0    0  0.11422910134E-01  0.31060379810E+02  0.30675156092E+02  0.43654467419E+02  0.00000000000E+00 0. -1.
</event>
<event>
 7    1  0.2385752E-015  0.9000772E+02  0.7816164E-02  0.1186339E+00
        -11   -1    0    0    0    0  0.00000000000E+00  0.00000000000E+00  0.45593999997E+02  0.45594000000E+02  0.51100000000E-03 0. -1.
         11   -1    0    0    0    0 -0.00000000000E+00 -0.00000000000E+00 -0.45593999997E+02  0.45594000000E+02  0.51100000000E-03 0.  1.
    9900012    2    1    2    0    0 -0.90688705267E+00 -0.27153965721E+00  0.70489657585E+00  0.90007721603E+02  0.89999982728E+02 0.  0.
        -12    1    1    2    0    0  0.90688705267E+00  0.27153965721E+00 -0.70489657585E+00  0.11802783970E+01  0.00000000000E+00 0.  1.
         11    1    3    3    0    0 -0.85147841848E+00 -0.88130226800E+01  0.84002212332E+01  0.12204839257E+02  0.51100000000E-03 0. -1.
        -11    1    3    3    0    0 -0.35214269797E+02 -0.19093597071E+01 -0.18150426653E+02  0.39662683215E+02  0.51100000000E-03 0.  1.
         12    1    3    3    0    0  0.35158861163E+02  0.10450842730E+02  0.10455101995E+02  0.38140199132E+02  0.00000000000E+00 0. -1.
</event>
<event>
 7    1  0.2385752E-015  0.9000784E+02  0.7816164E-02  0.1186339E+00
        -11   -1    0    0    0    0  0.00000000000E+00  0.00000000000E+00  0.45593999997E+02  0.45594000000E+02  0.51100000000E-03 0.  1.
         11   -1    0    0    0    0 -0.00000000000E+00 -0.00000000000E+00 -0.45593999997E+02  0.45594000000E+02  0.51100000000E-03 0. -1.
    9900012    2    1    2    0    0 -0.78265482539E+00  0.29276580988E+00 -0.83338396249E+00  0.90007835086E+02  0.90000097709E+02 0.  0.
        -12    1    1    2    0    0  0.78265482539E+00 -0.29276580988E+00  0.83338396249E+00  0.11801649139E+01  0.00000000000E+00 0.  1.
         11    1    3    3    0    0 -0.27719236927E+01 -0.54400038721E+01  0.75028669522E+01  0.96731698967E+01  0.51100000000E-03 0. -1.
        -11    1    3    3    0    0  0.67974685969E+01 -0.35388658573E+02  0.59787021551E+01  0.36528175627E+02  0.51100000000E-03 0.  1.
         12    1    3    3    0    0 -0.48081997296E+01  0.41121428255E+02 -0.14314953070E+02  0.43806489562E+02  0.00000000000E+00 0. -1.
</event>
<event>
 7    1  0.2385752E-015  0.9000765E+02  0.7816164E-02  0.1186339E+00
        -11   -1    0    0    0    0  0.00000000000E+00  0.00000000000E+00  0.45593999997E+02  0.45594000000E+02  0.51100000000E-03 0. -1.
         11   -1    0    0    0    0 -0.00000000000E+00 -0.00000000000E+00 -0.45593999997E+02  0.45594000000E+02  0.51100000000E-03 0.  1.
    9900012    2    1    2    0    0  0.75449550889E+00  0.10269580840E+00  0.90189449748E+00  0.90007651074E+02  0.89999911268E+02 0.  0.
        -12    1    1    2    0    0 -0.75449550889E+00 -0.10269580840E+00 -0.90189449748E+00  0.11803489258E+01  0.00000000000E+00 0.  1.
         11    1    3    3    0    0  0.34344252283E+02 -0.96322733742E+01  0.13835871091E+02  0.38258851059E+02  0.51100000000E-03 0. -1.
        -11    1    3    3    0    0  0.11245047092E+01 -0.95030193808E+01  0.11438801075E+01  0.96374452089E+01  0.51100000000E-03 0.  1.
        -12    1    3    3    0    0 -0.34714261484E+02  0.19237988563E+02 -0.14077856701E+02  0.42111354806E+02  0.00000000000E+00 0.  1.
</event>
<event>
 7    1  0.2385752E-015  0.9000791E+02  0.7816164E-02  0.1186339E+00
        -11   -1    0    0    0    0  0.00000000000E+00  0.00000000000E+00  0.45593999997E+02  0.45594000000E+02  0.51100000000E-03 0.  1.
         11   -1    0    0    0    0 -0.00000000000E+00 -0.00000000000E+00 -0.45593999997E+02  0.45594000000E+02  0.51100000000E-03 0. -1.
    9900012    2    1    2    0    0  0.69048782545E+00  0.73513996405E+00  0.61269831419E+00  0.90007913805E+02  0.90000177467E+02 0.  0.
        -12    1    1    2    0    0 -0.69048782545E+00 -0.73513996405E+00 -0.61269831419E+00  0.11800861952E+01  0.00000000000E+00 0.  1.
         11    1    3    3    0    0  0.22432021742E+02  0.86897726193E+01 -0.22372935041E+02  0.32852031447E+02  0.51100000000E-03 0. -1.
        -11    1    3    3    0    0  0.10808824772E+02  0.55692105833E+01 -0.39604597130E+01  0.12787964688E+02  0.51100000000E-03 0.  1.
        -12    1    3    3    0    0 -0.32550358688E+02 -0.13523843238E+02  0.26946093068E+02  0.44367917669E+02  0.00000000000E+00 0.  1.
</event>
<event>
 7    1  0.2385752E-015  0.9000763E+02  0.7816164E-02  0.1186339E+00
        -11   -1    0    0    0    0  0.00000000000E+00  0.00000000000E+00  0.45593999997E+02  0.45594000000E+02  0.51100000000E-03 0. -1.
         11   -1    0    0    0    0 -0.00000000000E+00 -0.00000000000E+00 -0.45593999997E+02  0.45594000000E+02  0.51100000000E-03 0.  1.
    9900012    2    1    2    0    0  0.55166746603E+00  0.10422705553E+01  0.51177442527E-01  0.90007625469E+02  0.89999885325E+02 0.  0.
        -12    1    1    2    0    0 -0.55166746603E+00 -0.10422705553E+01 -0.51177442527E-01  0.11803745313E+01  0.00000000000E+00 0.  1.
         11    1    3    3    0    0 -0.24934831747E+01  0.18564518087E+01 -0.87609174135E+01  0.92961037993E+01  0.51100000000E-03 0. -1.
        -11    1    3    3    0    0  0.71370962773E+01 -0.29466746919E+02 -0.22737055939E+02  0.37897243044E+02  0.51100000000E-03 0.  1.
         12    1    3    3    0    0 -0.40919456366E+01  0.28652565666E+02  0.31549150795E+02  0.42814278626E+02  0.00000000000E+00 0. -1.
</event>
<event>
 7    1  0.2385752E-015  0.9000777E+02  0.7816164E-02  0.1186339E+00
        -11   -1    0    0    0    0  0.00000000000E+00  0.00000000000E+00  0.45593999997E+02  0.45594000000E+02  0.51100000000E-03 0. -1.
         11   -1    0    0    0    0 -0.00000000000E+00 -0.00000000000E+00 -0.45593999997E+02  0.45594000000E+02  0.51100000000E-03 0.  1.
    9900012    2    1    2    0    0  0.66327566540E+00  0.97018629153E+00 -0.10840130562E+00  0.90007768289E+02  0.90000030030E+02 0.  0.
        -12    1    1    2    0    0 -0.66327566540E+00 -0.97018629153E+00  0.10840130562E+00  0.11802317110E+01  0.00000000000E+00 0.  1.
         11    1    3    3    0    0 -0.23287280847E+01 -0.15374047093E+02 -0.30632627682E+01  0.15848276801E+02  0.51100000000E-03 0. -1.
        -11    1    3    3    0    0  0.17834827094E+02 -0.20389634112E+02 -0.14659263224E+02  0.30801172627E+02  0.51100000000E-03 0.  1.
         12    1    3    3    0    0 -0.14842823344E+02  0.36733867496E+02  0.17614124686E+02  0.43358318861E+02  0.00000000000E+00 0. -1.
</event>
<event>
 7    1  0.2385752E-015  0.9000772E+02  0.7816164E-02  0.1186339E+00
        -11   -1    0    0    0    0  0.00000000000E+00  0.00000000000E+00  0.45593999997E+02  0.45594000000E+02  0.51100000000E-03 0. -1.
         11   -1    0    0    0    0 -0.00000000000E+00 -0.00000000000E+00 -0.45593999997E+02  0.45594000000E+02  0.51100000000E-03 0.  1.
    9900012    2    1    2    0    0  0.95054578718E+00  0.45427645472E+00  0.53211606214E+00  0.90007723806E+02  0.89999984960E+02 0.  0.
        -12    1    1    2    0    0 -0.95054578718E+00 -0.45427645472E+00 -0.53211606214E+00  0.11802761941E+01  0.00000000000E+00 0.  1.
         11    1    3    3    0    0  0.85299699452E+01  0.41939926476E+01 -0.13377588855E+01  0.95989353936E+01  0.51100000000E-03 0. -1.
        -11    1    3    3    0    0  0.26701536949E+02 -0.21284190127E+02 -0.16288693765E+02  0.37832662735E+02  0.51100000000E-03 0.  1.
         12    1    3    3    0    0 -0.34280961107E+02  0.17544473934E+02  0.18158568712E+02  0.42576125678E+02  0.00000000000E+00 0. -1.
</event>
<event>
 7    1  0.2385752E-015  0.9000779E+02  0.7816164E-02  0.1186339E+00
        -11   -1    0    0    0    0  0.00000000000E+00  0.00000000000E+00  0.45593999997E+02  0.45594000000E+02  0.51100000000E-03 0.  1.
         11   -1    0    0    0    0 -0.00000000000E+00 -0.00000000000E+00 -0.45593999997E+02  0.45594000000E+02  0.51100000000E-03 0. -1.
    9900012    2    1    2    0    0 -0.93235910322E+00  0.70645627614E+00  0.15657144978E+00  0.90007792990E+02  0.90000055057E+02 0.  0.
        -12    1    1    2    0    0  0.93235910322E+00 -0.70645627614E+00 -0.15657144978E+00  0.11802070100E+01  0.00000000000E+00 0.  1.
         11    1    3    3    0    0  0.29478455339E+01 -0.15547512211E+02 -0.29039671504E+02  0.33071399284E+02  0.51100000000E-03 0. -1.
        -11    1    3    3    0    0  0.11070919960E+02  0.56195255972E+01 -0.84766578595E+01  0.15033232035E+02  0.51100000000E-03 0.  1.
        -12    1    3    3    0    0 -0.14951124597E+02  0.10634442890E+02  0.37672900814E+02  0.41903161671E+02  0.00000000000E+00 0.  1.
</event>
<event>
 7    1  0.2385752E-015  0.9000700E+02  0.7816164E-02  0.1186341E+00
        -11   -1    0    0    0    0  0.00000000000E+00  0.00000000000E+00  0.45593999997E+02  0.45594000000E+02  0.51100000000E-03 0.  1.
         11   -1    0    0    0    0 -0.00000000000E+00 -0.00000000000E+00 -0.45593999997E+02  0.45594000000E+02  0.51100000000E-03 0. -1.
    9900012    2    1    2    0    0 -0.85006171972E+00  0.64895646911E+00 -0.50100897478E+00  0.90007000669E+02  0.89999252275E+02 0.  0.
        -12    1    1    2    0    0  0.85006171972E+00 -0.64895646911E+00  0.50100897478E+00  0.11809993306E+01  0.00000000000E+00 0.  1.
         11    1    3    3    0    0  0.31669225207E+01 -0.16868636687E+02 -0.32521352580E+02  0.36772526100E+02  0.51100000000E-03 0. -1.
        -11    1    3    3    0    0 -0.16078813356E+00 -0.86684485345E+01 -0.31435312259E+01  0.92222362607E+01  0.51100000000E-03 0.  1.
        -12    1    3    3    0    0 -0.38561961068E+01  0.26186041690E+02  0.35163874831E+02  0.44012238309E+02  0.00000000000E+00 0.  1.
</event>
<event>
 7    1  0.2385752E-015  0.9000785E+02  0.7816164E-02  0.1186339E+00
        -11   -1    0    0    0    0  0.00000000000E+00  0.00000000000E+00  0.45593999997E+02  0.45594000000E+02  0.51100000000E-03 0. -1.
         11   -1    0    0    0    0 -0.00000000000E+00 -0.00000000000E+00 -0.45593999997E+02  0.45594000000E+02  0.51100000000E-03 0.  1.
    9900012    2    1    2    0    0 -0.10747621083E+00 -0.53487442584E+00  0.10464755136E+01  0.90007850523E+02  0.90000113350E+02 0.  0.
        -12    1    1    2    0    0  0.10747621083E+00  0.53487442584E+00 -0.10464755136E+01  0.11801494769E+01  0.00000000000E+00 0.  1.
         11    1    3    3    0    0 -0.54710679888E+01  0.35233974669E+01 -0.29847737074E+01  0.71593148411E+01  0.51100000000E-03 0. -1.
        -11    1    3    3    0    0 -0.17583353624E+02 -0.29222885781E+02 -0.21472289369E+02  0.40301496114E+02  0.51100000000E-03 0.  1.
         12    1    3    3    0    0  0.22946945402E+02  0.25164613888E+02  0.25503538590E+02  0.42547039568E+02  0.00000000000E+00 0. -1.
</event>
<event>
 7    1  0.2385752E-015  0.9000780E+02  0.7816164E-02  0.1186339E+00
        -11   -1    0    0    0    0  0.00000000000E+00  0.00000000000E+00  0.45593999997E+02  0.45594000000E+02  0.51100000000E-03 0.  1.
         11   -1    0    0    0    0 -0.00000000000E+00 -0.00000000000E+00 -0.45593999997E+02  0.45594000000E+02  0.51100000000E-03 0. -1.
    9900012    2    1    2    0    0 -0.58653946619E+00  0.51719108847E+00  0.88394228463E+00  0.90007801233E+02  0.90000063409E+02 0.  0.
        -12    1    1    2    0    0  0.58653946619E+00 -0.51719108847E+00 -0.88394228463E+00  0.11801987671E+01  0.00000000000E+00 0.  1.
         11    1    3    3    0    0 -0.78652581931E+01  0.24263378377E+01 -0.48994371895E+01  0.95788249165E+01  0.51100000000E-03 0. -1.
        -11    1    3    3    0    0 -0.29943482493E+02 -0.81534540679E+01  0.23312651228E+02  0.38814567685E+02  0.51100000000E-03 0.  1.
         12    1    3    3    0    0  0.37222201220E+02  0.62443073187E+01 -0.17529271753E+02  0.41614408631E+02  0.00000000000E+00 0. -1.
</event>
<event>
 7    1  0.2385752E-015  0.9000785E+02  0.7816164E-02  0.1186339E+00
        -11   -1    0    0    0    0  0.00000000000E+00  0.00000000000E+00  0.45593999997E+02  0.45594000000E+02  0.51100000000E-03 0.  1.
         11   -1    0    0    0    0 -0.00000000000E+00 -0.00000000000E+00 -0.45593999997E+02  0.45594000000E+02  0.51100000000E-03 0. -1.
    9900012    2    1    2    0    0 -0.43011613078E+00  0.54623149890E+00 -0.95361216125E+00  0.90007853869E+02  0.90000116740E+02 0.  0.
        -12    1    1    2    0    0  0.43011613078E+00 -0.54623149890E+00  0.95361216125E+00  0.11801461310E+01  0.00000000000E+00 0.  1.
         11    1    3    3    0    0 -0.28048379658E+02 -0.29904913343E+02 -0.13831822180E+02  0.43270483572E+02  0.51100000000E-03 0. -1.
        -11    1    3    3    0    0  0.58538783585E+01  0.18740422993E+01  0.85877654455E+01  0.10560759536E+02  0.51100000000E-03 0.  1.
        -12    1    3    3    0    0  0.21764385168E+02  0.28577102543E+02  0.42904445736E+01  0.36176610761E+02  0.00000000000E+00 0.  1.
</event>
<event>
 7    1  0.2949588E-015  0.9000777E+02  0.7816164E-02  0.1186339E+00
        -11   -1    0    0    0    0  0.00000000000E+00  0.00000000000E+00  0.45593999997E+02  0.45594000000E+02  0.51100000000E-03 0. -1.
         11   -1    0    0    0    0 -0.00000000000E+00 -0.00000000000E+00 -0.45593999997E+02  0.45594000000E+02  0.51100000000E-03 0.  1.
    9900012    2    1    2    0    0  0.11218410741E+01  0.11109918028E+00  0.34940480874E+00  0.90007765217E+02  0.90000026917E+02 0.  0.
        -12    1    1    2    0    0 -0.11218410741E+01 -0.11109918028E+00 -0.34940480874E+00  0.11802347834E+01  0.00000000000E+00 0.  1.
         11    1    3    3    0    0  0.13282643459E+02  0.30889111586E+02 -0.16559291818E+02  0.37480341215E+02  0.51100000000E-03 0. -1.
        -11    1    3    3    0    0  0.94502366522E+01  0.83429464251E+00 -0.21887703611E+01  0.97362074900E+01  0.51100000000E-03 0.  1.
        -12    1    3    3    0    0 -0.21611039037E+02 -0.31612307048E+02  0.19097466988E+02  0.42791216511E+02  0.00000000000E+00 0.  1.
</event>
<event>
 7    1  0.2385752E-015  0.9000782E+02  0.7816164E-02  0.1186339E+00
        -11   -1    0    0    0    0  0.00000000000E+00  0.00000000000E+00  0.45593999997E+02  0.45594000000E+02  0.51100000000E-03 0. -1.
         11   -1    0    0    0    0 -0.00000000000E+00 -0.00000000000E+00 -0.45593999997E+02  0.45594000000E+02  0.51100000000E-03 0.  1.
    9900012    2    1    2    0    0  0.64466154652E+00  0.83804917870E+00  0.52431562239E+00  0.90007821282E+02  0.90000083722E+02 0.  0.
        -12    1    1    2    0    0 -0.64466154652E+00 -0.83804917870E+00 -0.52431562239E+00  0.11801787184E+01  0.00000000000E+00 0.  1.
         11    1    3    3    0    0  0.21742424127E+02  0.31735461778E+02  0.14459938789E+02  0.41096987374E+02  0.51100000000E-03 0. -1.
        -11    1    3    3    0    0  0.53498416449E+01 -0.10227578937E+02  0.20651771296E+01  0.11725576036E+02  0.51100000000E-03 0.  1.
        -12    1    3    3    0    0 -0.26447604225E+02 -0.20669833662E+02 -0.16000800296E+02  0.37185257872E+02  0.00000000000E+00 0.  1.
</event>
<event>
 7    1  0.2385752E-015  0.9000786E+02  0.7816164E-02  0.1186339E+00
        -11   -1    0    0    0    0  0.00000000000E+00  0.00000000000E+00  0.45593999997E+02  0.45594000000E+02  0.51100000000E-03 0. -1.
         11   -1    0    0    0    0 -0.00000000000E+00 -0.00000000000E+00 -0.45593999997E+02  0.45594000000E+02  0.51100000000E-03 0.  1.
    9900012    2    1    2    0    0  0.31395668027E+00  0.10643556217E+01  0.40162783287E+00  0.90007861617E+02  0.90000124590E+02 0.  0.
        -12    1    1    2    0    0 -0.31395668027E+00 -0.10643556217E+01 -0.40162783287E+00  0.11801383829E+01  0.00000000000E+00 0.  1.
         11    1    3    3    0    0  0.27765487910E+02 -0.23191763834E+02 -0.14250697913E+01  0.36205124676E+02  0.51100000000E-03 0. -1.
        -11    1    3    3    0    0  0.69477331648E+01  0.33799706831E+01  0.10106377715E+02  0.12721401996E+02  0.51100000000E-03 0.  1.
        -12    1    3    3    0    0 -0.34399264395E+02  0.20876148773E+02 -0.82796800911E+01  0.41081334945E+02  0.00000000000E+00 0.  1.
</event>
<event>
 7    1  0.2385752E-015  0.9000749E+02  0.7816164E-02  0.1186340E+00
        -11   -1    0    0    0    0  0.00000000000E+00  0.00000000000E+00  0.45593999997E+02  0.45594000000E+02  0.51100000000E-03 0. -1.
         11   -1    0    0    0    0 -0.00000000000E+00 -0.00000000000E+00 -0.45593999997E+02  0.45594000000E+02  0.51100000000E-03 0.  1.
    9900012    2    1    2    0    0 -0.63148762572E+00  0.95460144930E+00  0.28906353866E+00  0.90007492364E+02  0.89999750463E+02 0.  0.
        -12    1    1    2    0    0  0.63148762572E+00 -0.95460144930E+00 -0.28906353866E+00  0.11805076356E+01  0.00000000000E+00 0.  1.
         11    1    3    3    0    0  0.17566140287E+02  0.30277038555E+02  0.15682102397E+02  0.38356181823E+02  0.51100000000E-03 0. -1.
        -11    1    3    3    0    0  0.49958968459E+01  0.51459127712E+01 -0.52429470408E+01  0.88841374076E+01  0.51100000000E-03 0.  1.
        -12    1    3    3    0    0 -0.23193524758E+02 -0.34468349877E+02 -0.10150091817E+02  0.42767173133E+02  0.00000000000E+00 0.  1.
</event>
<event>
 7    1  0.2385752E-015  0.9000773E+02  0.7816164E-02  0.1186339E+00
        -11   -1    0    0    0    0  0.00000000000E+00  0.00000000000E+00  0.45593999997E+02  0.45594000000E+02  0.51100000000E-03 0.  1.
         11   -1    0    0    0    0 -0.00000000000E+00 -0.00000000000E+00 -0.45593999997E+02  0.45594000000E+02  0.51100000000E-03 0. -1.
    9900012    2    1    2    0    0  0.72707389592E+00 -0.84432230647E+00 -0.38926754916E+00  0.90007726374E+02  0.89999987562E+02 0.  0.
        -12    1    1    2    0    0 -0.72707389592E+00  0.84432230647E+00  0.38926754916E+00  0.11802736260E+01  0.00000000000E+00 0.  1.
         11    1    3    3    0    0 -0.10557925434E+02 -0.42835071423E+01  0.50632773100E+01  0.12468159459E+02  0.51100000000E-03 0. -1.
        -11    1    3    3    0    0 -0.30561747566E+02 -0.11821182195E+02 -0.11281712801E+01  0.32787703998E+02  0.51100000000E-03 0.  1.
         12    1    3    3    0    0  0.41846746896E+02  0.15260367031E+02 -0.43243735790E+01  0.44751862917E+02  0.00000000000E+00 0. -1.
</event>
<event>
 7    1  0.2385752E-015  0.9000774E+02  0.7816164E-02  0.1186339E+00
        -11   -1    0    0    0    0  0.00000000000E+00  0.00000000000E+00  0.45593999997E+02  0.45594000000E+02  0.51100000000E-03 0.  1.
         11   -1    0    0    0    0 -0.00000000000E+00 -0.00000000000E+00 -0.45593999997E+02  0.45594000000E+02  0.51100000000E-03 0. -1.
    9900012    2    1    2    0    0 -0.81149284349E+00 -0.72655931426E+00 -0.45453163525E+00  0.90007742367E+02  0.90000003767E+02 0.  0.
        -12    1    1    2    0    0  0.81149284349E+00  0.72655931426E+00  0.45453163525E+00  0.11802576327E+01  0.00000000000E+00 0.  1.
         11    1    3    3    0    0  0.93841940043E+01 -0.36518876643E+02  0.47739148427E+01  0.38006337782E+02  0.51100000000E-03 0. -1.
        -11    1    3    3    0    0  0.56242733633E+01 -0.18789337026E+01  0.71691055633E+01  0.93037045075E+01  0.51100000000E-03 0.  1.
        -12    1    3    3    0    0 -0.15819960211E+02  0.37671251031E+02 -0.12397552041E+02  0.42697700078E+02  0.00000000000E+00 0.  1.
</event>
<event>
 7    1  0.2385752E-015  0.9000773E+02  0.7816164E-02  0.1186339E+00
        -11   -1    0    0    0    0  0.00000000000E+00  0.00000000000E+00  0.45593999997E+02  0.45594000000E+02  0.51100000000E-03 0.  1.
         11   -1    0    0    0    0 -0.00000000000E+00 -0.00000000000E+00 -0.45593999997E+02  0.45594000000E+02  0.51100000000E-03 0. -1.
    9900012    2    1    2    0    0 -0.64638095318E+00  0.97058870091E+00 -0.18216278862E+00  0.90007731368E+02  0.89999992622E+02 0.  0.
        -12    1    1    2    0    0  0.64638095318E+00 -0.97058870091E+00  0.18216278862E+00  0.11802686324E+01  0.00000000000E+00 0.  1.
         11    1    3    3    0    0 -0.78969952142E+01 -0.42672444904E+01 -0.34660935746E+02  0.35804362527E+02  0.51100000000E-03 0. -1.
        -11    1    3    3    0    0 -0.12686577889E+01  0.73686666642E+01 -0.79275120823E+01  0.10897347800E+02  0.51100000000E-03 0.  1.
        -12    1    3    3    0    0  0.85192720499E+01 -0.21308334729E+01  0.42406285039E+02  0.43306021041E+02  0.00000000000E+00 0.  1.
</event>
<event>
 7    1  0.2385752E-015  0.9000770E+02  0.7816164E-02  0.1186339E+00
        -11   -1    0    0    0    0  0.00000000000E+00  0.00000000000E+00  0.45593999997E+02  0.45594000000E+02  0.51100000000E-03 0. -1.
         11   -1    0    0    0    0 -0.00000000000E+00 -0.00000000000E+00 -0.45593999997E+02  0.45594000000E+02  0.51100000000E-03 0.  1.
    9900012    2    1    2    0    0  0.13489411639E+00  0.96981771805E+00  0.65907208661E+00  0.90007695444E+02  0.89999956224E+02 0.  0.
        -12    1    1    2    0    0 -0.13489411639E+00 -0.96981771805E+00 -0.65907208661E+00  0.11803045557E+01  0.00000000000E+00 0.  1.
         11    1    3    3    0    0  0.88772923036E+00  0.13694732719E+01  0.40277123792E+02  0.40310175161E+02  0.51100000000E-03 0. -1.
        -11    1    3    3    0    0  0.22897731484E+01  0.84696723667E+01  0.21434182082E+00  0.87763519612E+01  0.51100000000E-03 0.  1.
        -12    1    3    3    0    0 -0.30426082624E+01 -0.88693279205E+01 -0.39832393527E+02  0.40921168322E+02  0.00000000000E+00 0.  1.
</event>
<event>
 7    1  0.2385752E-015  0.9000771E+02  0.7816164E-02  0.1186339E+00
        -11   -1    0    0    0    0  0.00000000000E+00  0.00000000000E+00  0.45593999997E+02  0.45594000000E+02  0.51100000000E-03 0. -1.
         11   -1    0    0    0    0 -0.00000000000E+00 -0.00000000000E+00 -0.45593999997E+02  0.45594000000E+02  0.51100000000E-03 0.  1.
    9900012    2    1    2    0    0 -0.98249179368E+00 -0.61207889148E+00  0.23056354890E+00  0.90007707560E+02  0.89999968500E+02 0.  0.
        -12    1    1    2    0    0  0.98249179368E+00  0.61207889148E+00 -0.23056354890E+00  0.11802924401E+01  0.00000000000E+00 0.  1.
         11    1    3    3    0    0  0.60160260192E+01  0.60005602059E+01  0.48351583537E+01  0.97764026316E+01  0.51100000000E-03 0. -1.
        -11    1    3    3    0    0 -0.37968709386E+02  0.14886934114E+02  0.56197552043E+01  0.41168256565E+02  0.51100000000E-03 0.  1.
         12    1    3    3    0    0  0.30970191573E+02 -0.21499573211E+02 -0.10224350009E+02  0.39063048364E+02  0.00000000000E+00 0. -1.
</event>
<event>
 7    1  0.2385752E-015  0.9000767E+02  0.7816164E-02  0.1186339E+00
        -11   -1    0    0    0    0  0.00000000000E+00  0.00000000000E+00  0.45593999997E+02  0.45594000000E+02  0.51100000000E-03 0. -1.
         11   -1    0    0    0    0 -0.00000000000E+00 -0.00000000000E+00 -0.45593999997E+02  0.45594000000E+02  0.51100000000E-03 0.  1.
    9900012    2    1    2    0    0 -0.89149212139E-01  0.11633135676E+01  0.17871882188E+00  0.90007666803E+02  0.89999927205E+02 0.  0.
        -12    1    1    2    0    0  0.89149212138E-01 -0.11633135676E+01 -0.17871882188E+00  0.11803331970E+01  0.00000000000E+00 0.  1.
         11    1    3    3    0    0 -0.25728154861E+02  0.13379135158E+02  0.23536466126E+02  0.37348419620E+02  0.51100000000E-03 0. -1.
        -11    1    3    3    0    0 -0.15564023585E+01  0.39951646250E+01  0.73781415452E+01  0.85335046496E+01  0.51100000000E-03 0.  1.
        -12    1    3    3    0    0  0.27195408008E+02 -0.16210986215E+02 -0.30735888850E+02  0.44125742534E+02  0.00000000000E+00 0.  1.
</event>
<event>
 7    1  0.2385752E-015  0.9000774E+02  0.7816164E-02  0.1186339E+00
        -11   -1    0    0    0    0  0.00000000000E+00  0.00000000000E+00  0.45593999997E+02  0.45594000000E+02  0.51100000000E-03 0. -1.
         11   -1    0    0    0    0 -0.00000000000E+00 -0.00000000000E+00 -0.45593999997E+02  0.45594000000E+02  0.51100000000E-03 0.  1.
    9900012    2    1    2    0    0  0.11840184678E+00 -0.11288151278E+01 -0.32366925819E+00  0.90007743935E+02  0.90000005355E+02 0.  0.
        -12    1    1    2    0    0 -0.11840184678E+00  0.11288151278E+01  0.32366925819E+00  0.11802560649E+01  0.00000000000E+00 0.  1.
         11    1    3    3    0    0 -0.26283250651E+02  0.10725080718E+02  0.28762176477E+02  0.40411624777E+02  0.51100000000E-03 0. -1.
        -11    1    3    3    0    0 -0.41218693529E+01 -0.78470667460E+01 -0.33684738407E+01  0.94822402287E+01  0.51100000000E-03 0.  1.
        -12    1    3    3    0    0  0.30523521851E+02 -0.40068290994E+01 -0.25717371894E+02  0.40113878929E+02  0.00000000000E+00 0.  1.
</event>
<event>
 7    1  0.2385752E-015  0.9000776E+02  0.7816164E-02  0.1186339E+00
        -11   -1    0    0    0    0  0.00000000000E+00  0.00000000000E+00  0.45593999997E+02  0.45594000000E+02  0.51100000000E-03 0. -1.
         11   -1    0    0    0    0 -0.00000000000E+00 -0.00000000000E+00 -0.45593999997E+02  0.45594000000E+02  0.51100000000E-03 0.  1.
    9900012    2    1    2    0    0  0.11734326690E+01 -0.12605928968E+00  0.11063511884E-01  0.90007763763E+02  0.90000025445E+02 0.  0.
        -12    1    1    2    0    0 -0.11734326690E+01  0.12605928968E+00 -0.11063511884E-01  0.11802362367E+01  0.00000000000E+00 0.  1.
         11    1    3    3    0    0  0.24973415752E+02 -0.16461801732E+02  0.17981983584E+02  0.34900059376E+02  0.51100000000E-03 0. -1.
        -11    1    3    3    0    0 -0.11136200967E+02 -0.54285531820E+01  0.11109514203E+02  0.16640476788E+02  0.51100000000E-03 0.  1.
        -12    1    3    3    0    0 -0.12663782116E+02  0.21764295625E+02 -0.29080434276E+02  0.38467227599E+02  0.00000000000E+00 0.  1.
</event>
<event>
 7    1  0.2385752E-015  0.9000780E+02  0.7816164E-02  0.1186339E+00
        -11   -1    0    0    0    0  0.00000000000E+00  0.00000000000E+00  0.45593999997E+02  0.45594000000E+02  0.51100000000E-03 0.  1.
         11   -1    0    0    0    0 -0.00000000000E+00 -0.00000000000E+00 -0.45593999997E+02  0.45594000000E+02  0.51100000000E-03 0. -1.
    9900012    2    1    2    0    0 -0.11589865071E-01 -0.42832097103E+00 -0.10996761805E+01  0.90007796254E+02  0.90000058365E+02 0.  0.
        -12    1    1    2    0    0  0.11589865071E-01  0.42832097103E+00  0.10996761805E+01  0.11802037456E+01  0.00000000000E+00 0.  1.
         11    1    3    3    0    0 -0.60587683372E+01  0.43377516725E+00  0.72709039864E+01  0.94743274009E+01  0.51100000000E-03 0. -1.
        -11    1    3    3    0    0 -0.80069004134E+01  0.37938991871E+02 -0.25686712363E+01  0.38859691592E+02  0.51100000000E-03 0.  1.
         12    1    3    3    0    0  0.14054078886E+02 -0.38801088009E+02 -0.58019089306E+01  0.41673777262E+02  0.00000000000E+00 0. -1.
</event>
<event>
 7    1  0.2385752E-015  0.9000772E+02  0.7816164E-02  0.1186339E+00
        -11   -1    0    0    0    0  0.00000000000E+00  0.00000000000E+00  0.45593999997E+02  0.45594000000E+02  0.51100000000E-03 0. -1.
         11   -1    0    0    0    0 -0.00000000000E+00 -0.00000000000E+00 -0.45593999997E+02  0.45594000000E+02  0.51100000000E-03 0.  1.
    9900012    2    1    2    0    0  0.80146521645E+00 -0.68738940947E+00  0.52745301138E+00  0.90007721485E+02  0.89999982609E+02 0.  0.
        -12    1    1    2    0    0 -0.80146521645E+00  0.68738940947E+00 -0.52745301138E+00  0.11802785149E+01  0.00000000000E+00 0.  1.
         11    1    3    3    0    0 -0.13378044221E+02  0.15365402667E+02  0.25683296588E+02  0.32782608044E+02  0.51100000000E-03 0. -1.
        -11    1    3    3    0    0 -0.16707215941E+01  0.65244893987E+01  0.10297264299E+02  0.12304223863E+02  0.51100000000E-03 0.  1.
        -12    1    3    3    0    0  0.15850231031E+02 -0.22577281475E+02 -0.35453107875E+02  0.44920889579E+02  0.00000000000E+00 0.  1.
</event>
<event>
 7    1  0.2385752E-015  0.9000777E+02  0.7816164E-02  0.1186339E+00
        -11   -1    0    0    0    0  0.00000000000E+00  0.00000000000E+00  0.45593999997E+02  0.45594000000E+02  0.51100000000E-03 0. -1.
         11   -1    0    0    0    0 -0.00000000000E+00 -0.00000000000E+00 -0.45593999997E+02  0.45594000000E+02  0.51100000000E-03 0.  1.
    9900012    2    1    2    0    0  0.68612456258E+00  0.32192255708E+00  0.90473522618E+00  0.90007768295E+02  0.90000030036E+02 0.  0.
        -12    1    1    2    0    0 -0.68612456258E+00 -0.32192255708E+00 -0.90473522618E+00  0.11802317051E+01  0.00000000000E+00 0.  1.
         11    1    3    3    0    0 -0.69247604674E+00  0.30628618625E+01 -0.96928468804E+01  0.10188813806E+02  0.51100000000E-03 0. -1.
        -11    1    3    3    0    0 -0.31189195706E+02 -0.17072415238E+02 -0.12164751700E+02  0.37579442186E+02  0.51100000000E-03 0.  1.
         12    1    3    3    0    0  0.32567796315E+02  0.14331475932E+02  0.22762333807E+02  0.42239512303E+02  0.00000000000E+00 0. -1.
</event>
<event>
 7    1  0.2385752E-015  0.9000776E+02  0.7816164E-02  0.1186339E+00
        -11   -1    0    0    0    0  0.00000000000E+00  0.00000000000E+00  0.45593999997E+02  0.45594000000E+02  0.51100000000E-03 0.  1.
         11   -1    0    0    0    0 -0.00000000000E+00 -0.00000000000E+00 -0.45593999997E+02  0.45594000000E+02  0.51100000000E-03 0. -1.
    9900012    2    1    2    0    0 -0.95990911623E+00  0.58890239117E+00  0.35316658920E+00  0.90007763508E+02  0.90000025186E+02 0.  0.
        -12    1    1    2    0    0  0.95990911623E+00 -0.58890239117E+00 -0.35316658920E+00  0.11802364922E+01  0.00000000000E+00 0.  1.
         11    1    3    3    0    0  0.71026116562E+00 -0.80097259509E+01 -0.25071804539E+00  0.80450631155E+01  0.51100000000E-03 0. -1.
        -11    1    3    3    0    0 -0.18094201795E+02 -0.74170345827E+01  0.35308117760E+02  0.40361810175E+02  0.51100000000E-03 0.  1.
         12    1    3    3    0    0  0.16424031513E+02  0.16015662925E+02 -0.34704233125E+02  0.41600890217E+02  0.00000000000E+00 0. -1.
</event>
<event>
 7    1  0.2385752E-015  0.9000776E+02  0.7816164E-02  0.1186339E+00
        -11   -1    0    0    0    0  0.00000000000E+00  0.00000000000E+00  0.45593999997E+02  0.45594000000E+02  0.51100000000E-03 0. -1.
         11   -1    0    0    0    0 -0.00000000000E+00 -0.00000000000E+00 -0.45593999997E+02  0.45594000000E+02  0.51100000000E-03 0.  1.
    9900012    2    1    2    0    0 -0.70277983476E+00 -0.31949435029E+00  0.89274862224E+00  0.90007755856E+02  0.90000017434E+02 0.  0.
        -12    1    1    2    0    0  0.70277983476E+00  0.31949435029E+00 -0.89274862224E+00  0.11802441436E+01  0.00000000000E+00 0.  1.
         11    1    3    3    0    0 -0.14596547468E+02  0.10732171495E+02 -0.26499981655E+02  0.32101210740E+02  0.51100000000E-03 0. -1.
        -11    1    3    3    0    0 -0.63001504712E+01 -0.19762421368E+02 -0.23945957745E+01  0.20880116941E+02  0.51100000000E-03 0.  1.
        -12    1    3    3    0    0  0.20193918105E+02  0.87107555227E+01  0.29787326052E+02  0.37026428176E+02  0.00000000000E+00 0.  1.
</event>
<event>
 7    1  0.2488169E-015  0.9000774E+02  0.7816164E-02  0.1186339E+00
        -11   -1    0    0    0    0  0.00000000000E+00  0.00000000000E+00  0.45593999997E+02  0.45594000000E+02  0.51100000000E-03 0. -1.
         11   -1    0    0    0    0 -0.00000000000E+00 -0.00000000000E+00 -0.45593999997E+02  0.45594000000E+02  0.51100000000E-03 0.  1.
    9900012    2    1    2    0    0  0.17981719425E+00 -0.82795813530E+00  0.82168571226E+00  0.90007738882E+02  0.90000000235E+02 0.  0.
        -12    1    1    2    0    0 -0.17981719425E+00  0.82795813530E+00 -0.82168571226E+00  0.11802611181E+01  0.00000000000E+00 0.  1.
         11    1    3    3    0    0  0.35668028223E+02  0.81700976178E+01  0.16084961021E+02  0.39971048319E+02  0.51100000000E-03 0. -1.
        -11    1    3    3    0    0 -0.43653610587E+01  0.92568240292E+01  0.13337152478E+01  0.10321044758E+02  0.51100000000E-03 0.  1.
        -12    1    3    3    0    0 -0.31122849970E+02 -0.18254879782E+02 -0.16596990557E+02  0.39715645805E+02  0.00000000000E+00 0.  1.
</event>
<event>
 7    1  0.2385752E-015  0.9000773E+02  0.7816164E-02  0.1186339E+00
        -11   -1    0    0    0    0  0.00000000000E+00  0.00000000000E+00  0.45593999997E+02  0.45594000000E+02  0.51100000000E-03 0. -1.
         11   -1    0    0    0    0 -0.00000000000E+00 -0.00000000000E+00 -0.45593999997E+02  0.45594000000E+02  0.51100000000E-03 0.  1.
    9900012    2    1    2    0    0 -0.26027962012E+00  0.10970788190E+01 -0.34887445183E+00  0.90007728506E+02  0.89999989723E+02 0.  0.
        -12    1    1    2    0    0  0.26027962012E+00 -0.10970788190E+01  0.34887445183E+00  0.11802714937E+01  0.00000000000E+00 0.  1.
         11    1    3    3    0    0  0.23196369607E+01  0.61758636791E+01 -0.66155198195E+00  0.66302080735E+01  0.51100000000E-03 0. -1.
        -11    1    3    3    0    0  0.21427021351E+02 -0.15078388746E+02 -0.32347998053E+02  0.41627731496E+02  0.51100000000E-03 0.  1.
         12    1    3    3    0    0 -0.24006937932E+02  0.99996038859E+01  0.32660675583E+02  0.41749788937E+02  0.00000000000E+00 0. -1.
</event>
<event>
 7    1  0.2385752E-015  0.9000771E+02  0.7816164E-02  0.1186339E+00
        -11   -1    0    0    0    0  0.00000000000E+00  0.00000000000E+00  0.45593999997E+02  0.45594000000E+02  0.51100000000E-03 0.  1.
         11   -1    0    0    0    0 -0.00000000000E+00 -0.00000000000E+00 -0.45593999997E+02  0.45594000000E+02  0.51100000000E-03 0. -1.
    9900012    2    1    2    0    0 -0.99417780522E+00 -0.27887895198E+00 -0.57176596659E+00  0.90007712197E+02  0.89999973198E+02 0.  0.
        -12    1    1    2    0    0  0.99417780522E+00  0.27887895198E+00  0.57176596659E+00  0.11802878034E+01  0.00000000000E+00 0.  1.
         11    1    3    3    0    0  0.11367338155E+01 -0.10241627179E+02  0.21425940075E+01  0.10524913319E+02  0.51100000000E-03 0. -1.
        -11    1    3    3    0    0 -0.33939167857E+02 -0.19624969430E+01  0.19213856905E+02  0.39049850275E+02  0.51100000000E-03 0.  1.
         12    1    3    3    0    0  0.31808256237E+02  0.11925245170E+02 -0.21928216879E+02  0.40432948602E+02  0.00000000000E+00 0. -1.
</event>
<event>
 7    1  0.2385752E-015  0.9000765E+02  0.7816164E-02  0.1186339E+00
        -11   -1    0    0    0    0  0.00000000000E+00  0.00000000000E+00  0.45593999997E+02  0.45594000000E+02  0.51100000000E-03 0.  1.
         11   -1    0    0    0    0 -0.00000000000E+00 -0.00000000000E+00 -0.45593999997E+02  0.45594000000E+02  0.51100000000E-03 0. -1.
    9900012    2    1    2    0    0  0.46386978307E+00 -0.59379791919E+00  0.90853916370E+00  0.90007654899E+02  0.89999915144E+02 0.  0.
        -12    1    1    2    0    0 -0.46386978307E+00  0.59379791919E+00 -0.90853916370E+00  0.11803451006E+01  0.00000000000E+00 0.  1.
         11    1    3    3    0    0  0.33248889169E+01 -0.28011703080E+01  0.82484792292E+01  0.93241005603E+01  0.51100000000E-03 0. -1.
        -11    1    3    3    0    0  0.12972467942E+02  0.76440579847E+01  0.33400563821E+02  0.36637606510E+02  0.51100000000E-03 0.  1.
         12    1    3    3    0    0 -0.15833487076E+02 -0.54366855959E+01 -0.40740503886E+02  0.44045947829E+02  0.00000000000E+00 0. -1.
</event>
<event>
 7    1  0.2385752E-015  0.9000777E+02  0.7816164E-02  0.1186339E+00
        -11   -1    0    0    0    0  0.00000000000E+00  0.00000000000E+00  0.45593999997E+02  0.45594000000E+02  0.51100000000E-03 0.  1.
         11   -1    0    0    0    0 -0.00000000000E+00 -0.00000000000E+00 -0.45593999997E+02  0.45594000000E+02  0.51100000000E-03 0. -1.
    9900012    2    1    2    0    0  0.23103603321E+00 -0.10543115089E+01 -0.47748608052E+00  0.90007769784E+02  0.90000031545E+02 0.  0.
        -12    1    1    2    0    0 -0.23103603321E+00  0.10543115089E+01  0.47748608052E+00  0.11802302164E+01  0.00000000000E+00 0.  1.
         11    1    3    3    0    0  0.92278657703E-01  0.27820326295E+01 -0.86211818081E+01  0.90594148228E+01  0.51100000000E-03 0. -1.
        -11    1    3    3    0    0  0.36118813292E+01  0.33122291607E+02 -0.15696445828E+02  0.36830833549E+02  0.51100000000E-03 0.  1.
         12    1    3    3    0    0 -0.34731239537E+01 -0.36958635745E+02  0.23840141555E+02  0.44117521412E+02  0.00000000000E+00 0. -1.
</event>
<event>
 8    1  0.2385752E-015  0.9000770E+02  0.7816164E-02  0.1186339E+00
        -11   -1    0    0    0    0  0.00000000000E+00  0.00000000000E+00  0.45593999997E+02  0.45594000000E+02  0.51100000000E-03 0. -1.
         11   -1    0    0    0    0 -0.00000000000E+00 -0.00000000000E+00 -0.45593999997E+02  0.45594000000E+02  0.51100000000E-03 0.  1.
    9900012    2    1    2    0    0 -0.10125043295E+01  0.59520820650E+00 -0.11696399673E+00  0.90007695631E+02  0.89999956414E+02 0.  0.
         23    2    3    3    0    0 -0.51240441355E+00  0.35192291870E+01  0.22967211744E+02  0.66733693649E+02  0.62555939129E+02 0.  0.
        -12    1    1    2    0    0  0.10125043295E+01 -0.59520820650E+00  0.11696399673E+00  0.11803043687E+01  0.00000000000E+00 0.  1.
         11    1    4    4    0    0  0.25231703712E+02  0.19354904870E+02  0.16495742579E+02  0.35824024596E+02  0.51100000000E-03 0. -1.
        -11    1    4    4    0    0 -0.25744108126E+02 -0.15835675683E+02  0.64714691656E+01  0.30909669053E+02  0.51100000000E-03 0.  1.
        -12    1    3    3    0    0 -0.50009991591E+00 -0.29240209805E+01 -0.23084175741E+02  0.23274001982E+02  0.00000000000E+00 0.  1.
</event>
<event>
 7    1  0.2385752E-015  0.9000777E+02  0.7816164E-02  0.1186339E+00
        -11   -1    0    0    0    0  0.00000000000E+00  0.00000000000E+00  0.45593999997E+02  0.45594000000E+02  0.51100000000E-03 0. -1.
         11   -1    0    0    0    0 -0.00000000000E+00 -0.00000000000E+00 -0.45593999997E+02  0.45594000000E+02  0.51100000000E-03 0.  1.
    9900012    2    1    2    0    0 -0.77797917614E-02  0.76891869857E+00  0.89534216479E+00  0.90007773716E+02  0.90000035529E+02 0.  0.
        -12    1    1    2    0    0  0.77797917614E-02 -0.76891869857E+00 -0.89534216479E+00  0.11802262843E+01  0.00000000000E+00 0.  1.
         11    1    3    3    0    0 -0.20023560564E+02  0.37371070357E+02 -0.68284063946E+01  0.42943765688E+02  0.51100000000E-03 0. -1.
        -11    1    3    3    0    0 -0.33972750169E+01 -0.81918254742E+01 -0.17738039188E+01  0.90439959500E+01  0.51100000000E-03 0.  1.
        -12    1    3    3    0    0  0.23413055789E+02 -0.28410326185E+02  0.94975524782E+01  0.38020012078E+02  0.00000000000E+00 0.  1.
</event>
<event>
 7    1  0.2385752E-015  0.9000788E+02  0.7816164E-02  0.1186339E+00
        -11   -1    0    0    0    0  0.00000000000E+00  0.00000000000E+00  0.45593999997E+02  0.45594000000E+02  0.51100000000E-03 0.  1.
         11   -1    0    0    0    0 -0.00000000000E+00 -0.00000000000E+00 -0.45593999997E+02  0.45594000000E+02  0.51100000000E-03 0. -1.
    9900012    2    1    2    0    0  0.38321843282E+00 -0.10818355889E+01  0.27471405853E+00  0.90007876099E+02  0.90000139263E+02 0.  0.
        -12    1    1    2    0    0 -0.38321843282E+00  0.10818355889E+01 -0.27471405853E+00  0.11801239014E+01  0.00000000000E+00 0.  1.
         11    1    3    3    0    0  0.25314049554E+02  0.13106358487E+02 -0.20739450505E+02  0.35251986400E+02  0.51100000000E-03 0. -1.
        -11    1    3    3    0    0  0.11068687303E+02  0.17265066225E+01  0.46533098821E+01  0.12130538193E+02  0.51100000000E-03 0.  1.
        -12    1    3    3    0    0 -0.35999518424E+02 -0.15914700699E+02  0.16360854681E+02  0.42625351506E+02  0.00000000000E+00 0.  1.
</event>
<event>
 7    1  0.2385752E-015  0.9000763E+02  0.7816164E-02  0.1186339E+00
        -11   -1    0    0    0    0  0.00000000000E+00  0.00000000000E+00  0.45593999997E+02  0.45594000000E+02  0.51100000000E-03 0.  1.
         11   -1    0    0    0    0 -0.00000000000E+00 -0.00000000000E+00 -0.45593999997E+02  0.45594000000E+02  0.51100000000E-03 0. -1.
    9900012    2    1    2    0    0 -0.73998200322E+00 -0.45357364032E+00 -0.79997451348E+00  0.90007634957E+02  0.89999894938E+02 0.  0.
        -12    1    1    2    0    0  0.73998200322E+00  0.45357364032E+00  0.79997451348E+00  0.11803650429E+01  0.00000000000E+00 0.  1.
         11    1    3    3    0    0 -0.74071110631E+01 -0.22382449145E+02 -0.30912221900E+02  0.38876789825E+02  0.51100000000E-03 0. -1.
        -11    1    3    3    0    0  0.75631437959E+01 -0.55793459009E+01 -0.11626071853E+01  0.94700528239E+01  0.51100000000E-03 0.  1.
        -12    1    3    3    0    0 -0.89601473601E+00  0.27508221405E+02  0.31274854572E+02  0.41660792309E+02  0.00000000000E+00 0.  1.
</event>
<event>
 7    1  0.2385752E-015  0.9000771E+02  0.7816164E-02  0.1186339E+00
        -11   -1    0    0    0    0  0.00000000000E+00  0.00000000000E+00  0.45593999997E+02  0.45594000000E+02  0.51100000000E-03 0. -1.
         11   -1    0    0    0    0 -0.00000000000E+00 -0.00000000000E+00 -0.45593999997E+02  0.45594000000E+02  0.51100000000E-03 0.  1.
    9900012    2    1    2    0    0 -0.10523514354E+01 -0.15386306365E+00  0.51182943238E+00  0.90007709039E+02  0.89999969998E+02 0.  0.
        -12    1    1    2    0    0  0.10523514354E+01  0.15386306365E+00 -0.51182943238E+00  0.11802909615E+01  0.00000000000E+00 0.  1.
         11    1    3    3    0    0 -0.26054740983E+02 -0.12734387909E+02 -0.21886654353E+02  0.36332352004E+02  0.51100000000E-03 0. -1.
        -11    1    3    3    0    0 -0.59769152912E+01 -0.50857315594E+01 -0.44632503019E+01  0.90282216084E+01  0.51100000000E-03 0.  1.
        -12    1    3    3    0    0  0.30979304839E+02  0.17666256404E+02  0.26861734087E+02  0.44647135427E+02  0.00000000000E+00 0.  1.
</event>
<event>
 7    1  0.2385752E-015  0.9000675E+02  0.7816164E-02  0.1186341E+00
        -11   -1    0    0    0    0  0.00000000000E+00  0.00000000000E+00  0.45593999997E+02  0.45594000000E+02  0.51100000000E-03 0. -1.
         11   -1    0    0    0    0 -0.00000000000E+00 -0.00000000000E+00 -0.45593999997E+02  0.45594000000E+02  0.51100000000E-03 0.  1.
    9900012    2    1    2    0    0 -0.40686244635E+00  0.93971575726E+00  0.58885331051E+00  0.90006750248E+02  0.89998998546E+02 0.  0.
        -12    1    1    2    0    0  0.40686244635E+00 -0.93971575726E+00 -0.58885331051E+00  0.11812497517E+01  0.00000000000E+00 0.  1.
         11    1    3    3    0    0 -0.17480282092E+01  0.37168336666E+02  0.13580227405E+02  0.39610143016E+02  0.51100000000E-03 0. -1.
        -11    1    3    3    0    0 -0.24001954605E+01 -0.17153185592E+01  0.88858211923E+01  0.93627493041E+01  0.51100000000E-03 0.  1.
        -12    1    3    3    0    0  0.37413612233E+01 -0.34513302349E+02 -0.21877195287E+02  0.41033857928E+02  0.00000000000E+00 0.  1.
</event>
<event>
 7    1  0.2385752E-015  0.9000743E+02  0.7816164E-02  0.1186340E+00
        -11   -1    0    0    0    0  0.00000000000E+00  0.00000000000E+00  0.45593999997E+02  0.45594000000E+02  0.51100000000E-03 0. -1.
         11   -1    0    0    0    0 -0.00000000000E+00 -0.00000000000E+00 -0.45593999997E+02  0.45594000000E+02  0.51100000000E-03 0.  1.
    9900012    2    1    2    0    0  0.92652775459E+00 -0.69654674208E+00 -0.22385323582E+00  0.90007431783E+02  0.89999689082E+02 0.  0.
        -12    1    1    2    0    0 -0.92652775459E+00  0.69654674208E+00  0.22385323582E+00  0.11805682170E+01  0.00000000000E+00 0.  1.
         11    1    3    3    0    0 -0.11116483488E+00  0.33927099150E+01 -0.87084292149E+01  0.93466345729E+01  0.51100000000E-03 0. -1.
        -11    1    3    3    0    0  0.20874107068E+02 -0.16083077969E+01 -0.30415570677E+02  0.36924543867E+02  0.51100000000E-03 0.  1.
         12    1    3    3    0    0 -0.19836414479E+02 -0.24809488602E+01  0.38900146656E+02  0.43736253343E+02  0.00000000000E+00 0. -1.
</event>
<event>
 7    1  0.2385752E-015  0.9000771E+02  0.7816164E-02  0.1186339E+00
        -11   -1    0    0    0    0  0.00000000000E+00  0.00000000000E+00  0.45593999997E+02  0.45594000000E+02  0.51100000000E-03 0. -1.
         11   -1    0    0    0    0 -0.00000000000E+00 -0.00000000000E+00 -0.45593999997E+02  0.45594000000E+02  0.51100000000E-03 0.  1.
    9900012    2    1    2    0    0  0.42770781028E+00  0.10951793284E+01 -0.10363090892E+00  0.90007707198E+02  0.89999968133E+02 0.  0.
        -12    1    1    2    0    0 -0.42770781028E+00 -0.10951793284E+01  0.10363090892E+00  0.11802928016E+01  0.00000000000E+00 0.  1.
         11    1    3    3    0    0 -0.76457988250E+01  0.88945469135E+00 -0.61836773912E+01  0.98735624605E+01  0.51100000000E-03 0. -1.
        -11    1    3    3    0    0 -0.58309118178E+01  0.14215939305E+02 -0.32972353112E+02  0.36376758143E+02  0.51100000000E-03 0.  1.
         12    1    3    3    0    0  0.13904418453E+02 -0.14010214668E+02  0.39052399594E+02  0.43757386595E+02  0.00000000000E+00 0. -1.
</event>
<event>
 7    1  0.2385752E-015  0.9000800E+02  0.7816164E-02  0.1186339E+00
        -11   -1    0    0    0    0  0.00000000000E+00  0.00000000000E+00  0.45593999997E+02  0.45594000000E+02  0.51100000000E-03 0. -1.
         11   -1    0    0    0    0 -0.00000000000E+00 -0.00000000000E+00 -0.45593999997E+02  0.45594000000E+02  0.51100000000E-03 0.  1.
    9900012    2    1    2    0    0  0.92906016805E+00 -0.52199549502E+00 -0.50673329245E+00  0.90007995457E+02  0.90000260196E+02 0.  0.
        -12    1    1    2    0    0 -0.92906016805E+00  0.52199549502E+00  0.50673329245E+00  0.11800045434E+01  0.00000000000E+00 0.  1.
         11    1    3    3    0    0 -0.12413550207E+02 -0.35587455078E+02  0.12642579784E+01  0.37711557064E+02  0.51100000000E-03 0. -1.
        -11    1    3    3    0    0 -0.15220601500E+01 -0.44288591157E+01  0.77328945729E+01  0.90404158590E+01  0.51100000000E-03 0.  1.
        -12    1    3    3    0    0  0.14864670525E+02  0.39494318699E+02 -0.95038858438E+01  0.43256022534E+02  0.00000000000E+00 0.  1.
</event>
<event>
 7    1  0.2385752E-015  0.9000777E+02  0.7816164E-02  0.1186339E+00
        -11   -1    0    0    0    0  0.00000000000E+00  0.00000000000E+00  0.45593999997E+02  0.45594000000E+02  0.51100000000E-03 0.  1.
         11   -1    0    0    0    0 -0.00000000000E+00 -0.00000000000E+00 -0.45593999997E+02  0.45594000000E+02  0.51100000000E-03 0. -1.
    9900012    2    1    2    0    0 -0.81202633003E+00 -0.44150403716E+00 -0.73392175832E+00  0.90007765395E+02  0.90000027098E+02 0.  0.
        -12    1    1    2    0    0  0.81202633003E+00  0.44150403716E+00  0.73392175832E+00  0.11802346050E+01  0.00000000000E+00 0.  1.
         11    1    3    3    0    0 -0.49755484887E+01 -0.38799035923E+02 -0.72584714186E+00  0.39123498382E+02  0.51100000000E-03 0. -1.
        -11    1    3    3    0    0 -0.29895541266E+01 -0.10832393634E+01  0.92188597497E+01  0.97518314557E+01  0.51100000000E-03 0.  1.
        -12    1    3    3    0    0  0.71530762853E+01  0.39440771249E+02 -0.92269343662E+01  0.41132435557E+02  0.00000000000E+00 0.  1.
</event>
<event>
 7    1  0.2738258E-015  0.9000814E+02  0.7816164E-02  0.1186338E+00
        -11   -1    0    0    0    0  0.00000000000E+00  0.00000000000E+00  0.45593999997E+02  0.45594000000E+02  0.51100000000E-03 0.  1.
         11   -1    0    0    0    0 -0.00000000000E+00 -0.00000000000E+00 -0.45593999997E+02  0.45594000000E+02  0.51100000000E-03 0. -1.
    9900012    2    1    2    0    0 -0.62327264869E+00 -0.92492344459E+00 -0.38485482983E+00  0.90008141783E+02  0.90000408453E+02 0.  0.
        -12    1    1    2    0    0  0.62327264869E+00  0.92492344459E+00  0.38485482983E+00  0.11798582173E+01  0.00000000000E+00 0.  1.
         11    1    3    3    0    0  0.23318721532E+02 -0.25052230047E+02 -0.18615435856E+02  0.38960383168E+02  0.51100000000E-03 0. -1.
        -11    1    3    3    0    0 -0.63566828915E+01 -0.67189689229E+01 -0.29438266319E+01  0.97065996245E+01  0.51100000000E-03 0.  1.
        -12    1    3    3    0    0 -0.17585311290E+02  0.30846275525E+02  0.21174407659E+02  0.41341158990E+02  0.00000000000E+00 0.  1.
</event>
<event>
 7    1  0.2385752E-015  0.9000772E+02  0.7816164E-02  0.1186339E+00
        -11   -1    0    0    0    0  0.00000000000E+00  0.00000000000E+00  0.45593999997E+02  0.45594000000E+02  0.51100000000E-03 0. -1.
         11   -1    0    0    0    0 -0.00000000000E+00 -0.00000000000E+00 -0.45593999997E+02  0.45594000000E+02  0.51100000000E-03 0.  1.
    9900012    2    1    2    0    0  0.69541389568E+00  0.74369476167E+00  0.59698108155E+00  0.90007716646E+02  0.89999977705E+02 0.  0.
        -12    1    1    2    0    0 -0.69541389568E+00 -0.74369476167E+00 -0.59698108155E+00  0.11802833543E+01  0.00000000000E+00 0.  1.
         11    1    3    3    0    0  0.45418921493E+01 -0.58997872166E+01  0.67905981661E+01  0.10077127429E+02  0.51100000000E-03 0. -1.
        -11    1    3    3    0    0  0.23182844044E+02  0.31781042628E+02 -0.14797845026E+02  0.42029217768E+02  0.51100000000E-03 0.  1.
         12    1    3    3    0    0 -0.27029322298E+02 -0.25137560649E+02  0.86042279413E+01  0.37901371450E+02  0.00000000000E+00 0. -1.
</event>
<event>
 7    1  0.2385752E-015  0.9000772E+02  0.7816164E-02  0.1186339E+00
        -11   -1    0    0    0    0  0.00000000000E+00  0.00000000000E+00  0.45593999997E+02  0.45594000000E+02  0.51100000000E-03 0.  1.
         11   -1    0    0    0    0 -0.00000000000E+00 -0.00000000000E+00 -0.45593999997E+02  0.45594000000E+02  0.51100000000E-03 0. -1.
    9900012    2    1    2    0    0 -0.54475293022E-01  0.11354341365E+01 -0.31763034227E+00  0.90007717292E+02  0.89999978360E+02 0.  0.
        -12    1    1    2    0    0  0.54475293022E-01 -0.11354341365E+01  0.31763034227E+00  0.11802827078E+01  0.00000000000E+00 0.  1.
         11    1    3    3    0    0  0.46211327983E+01 -0.32341460416E+01  0.10969888116E+02  0.12335032002E+02  0.51100000000E-03 0. -1.
        -11    1    3    3    0    0  0.57279643521E+01 -0.22790018962E+02  0.22883566980E+02  0.32800185638E+02  0.51100000000E-03 0.  1.
         12    1    3    3    0    0 -0.10403572443E+02  0.27159599140E+02 -0.34171085438E+02  0.44872499652E+02  0.00000000000E+00 0. -1.
</event>
<event>
 7    1  0.2385752E-015  0.9000790E+02  0.7816164E-02  0.1186339E+00
        -11   -1    0    0    0    0  0.00000000000E+00  0.00000000000E+00  0.45593999997E+02  0.45594000000E+02  0.51100000000E-03 0.  1.
         11   -1    0    0    0    0 -0.00000000000E+00 -0.00000000000E+00 -0.45593999997E+02  0.45594000000E+02  0.51100000000E-03 0. -1.
    9900012    2    1    2    0    0 -0.24628262727E+00 -0.46180596863E+00 -0.10576958065E+01  0.90007898181E+02  0.90000161636E+02 0.  0.
        -12    1    1    2    0    0  0.24628262727E+00  0.46180596863E+00  0.10576958065E+01  0.11801018195E+01  0.00000000000E+00 0.  1.
         11    1    3    3    0    0  0.12961678604E+02  0.79838469353E+01 -0.31471965606E+01  0.15545152639E+02  0.51100000000E-03 0. -1.
        -11    1    3    3    0    0  0.22219995759E+02  0.14419797677E+02 -0.13218744568E+02  0.29603952182E+02  0.51100000000E-03 0.  1.
         12    1    3    3    0    0 -0.35427956991E+02 -0.22865450581E+02  0.15308245322E+02  0.44858793359E+02  0.00000000000E+00 0. -1.
</event>
<event>
 7    1  0.2654628E-015  0.9000774E+02  0.7816164E-02  0.1186339E+00
        -11   -1    0    0    0    0  0.00000000000E+00  0.00000000000E+00  0.45593999997E+02  0.45594000000E+02  0.51100000000E-03 0. -1.
         11   -1    0    0    0    0 -0.00000000000E+00 -0.00000000000E+00 -0.45593999997E+02  0.45594000000E+02  0.51100000000E-03 0.  1.
    9900012    2    1    2    0    0 -0.12256429741E+00 -0.72442611708E+00  0.92369070424E+00  0.90007737435E+02  0.89999998769E+02 0.  0.
        -12    1    1    2    0    0  0.12256429741E+00  0.72442611708E+00 -0.92369070424E+00  0.11802625654E+01  0.00000000000E+00 0.  1.
         11    1    3    3    0    0  0.11349247128E+02 -0.35119516064E+02  0.10621743367E+02  0.38405823144E+02  0.51100000000E-03 0. -1.
        -11    1    3    3    0    0 -0.73751865086E+01 -0.41104283141E+01  0.54192547317E+01  0.10032812122E+02  0.51100000000E-03 0.  1.
        -12    1    3    3    0    0 -0.40966249171E+01  0.38505518261E+02 -0.15117307394E+02  0.41569102169E+02  0.00000000000E+00 0.  1.
</event>
<event>
 7    1  0.2385752E-015  0.9000767E+02  0.7816164E-02  0.1186339E+00
        -11   -1    0    0    0    0  0.00000000000E+00  0.00000000000E+00  0.45593999997E+02  0.45594000000E+02  0.51100000000E-03 0. -1.
         11   -1    0    0    0    0 -0.00000000000E+00 -0.00000000000E+00 -0.45593999997E+02  0.45594000000E+02  0.51100000000E-03 0.  1.
    9900012    2    1    2    0    0  0.91072871665E+00 -0.42094972766E-02 -0.75081814026E+00  0.90007672759E+02  0.89999933240E+02 0.  0.
        -12    1    1    2    0    0 -0.91072871665E+00  0.42094972766E-02  0.75081814026E+00  0.11803272406E+01  0.00000000000E+00 0.  1.
         11    1    3    3    0    0  0.10696706863E+02  0.67347987402E+01 -0.67872802915E+01  0.14347272417E+02  0.51100000000E-03 0. -1.
        -11    1    3    3    0    0  0.15631147927E+02 -0.12761245506E+02 -0.26897575573E+02  0.33625314041E+02  0.51100000000E-03 0.  1.
         12    1    3    3    0    0 -0.25417126074E+02  0.60222372683E+01  0.32934037724E+02  0.42035086302E+02  0.00000000000E+00 0. -1.
</event>
<event>
 7    1  0.2385752E-015  0.9000777E+02  0.7816164E-02  0.1186339E+00
        -11   -1    0    0    0    0  0.00000000000E+00  0.00000000000E+00  0.45593999997E+02  0.45594000000E+02  0.51100000000E-03 0.  1.
         11   -1    0    0    0    0 -0.00000000000E+00 -0.00000000000E+00 -0.45593999997E+02  0.45594000000E+02  0.51100000000E-03 0. -1.
    9900012    2    1    2    0    0  0.73776154315E+00 -0.19314953850E+00 -0.90074505507E+00  0.90007771000E+02  0.90000032777E+02 0.  0.
        -12    1    1    2    0    0 -0.73776154315E+00  0.19314953850E+00  0.90074505507E+00  0.11802290002E+01  0.00000000000E+00 0.  1.
         11    1    3    3    0    0 -0.91518305188E+01  0.70423172437E+00 -0.30549582413E-01  0.91789366326E+01  0.51100000000E-03 0. -1.
        -11    1    3    3    0    0 -0.10103386467E+02 -0.21545468146E+02  0.30235967529E+02  0.38477257548E+02  0.51100000000E-03 0.  1.
         12    1    3    3    0    0  0.19992978529E+02  0.20648086884E+02 -0.31106163001E+02  0.42351576819E+02  0.00000000000E+00 0. -1.
</event>
<event>
 7    1  0.2385752E-015  0.9000781E+02  0.7816164E-02  0.1186339E+00
        -11   -1    0    0    0    0  0.00000000000E+00  0.00000000000E+00  0.45593999997E+02  0.45594000000E+02  0.51100000000E-03 0.  1.
         11   -1    0    0    0    0 -0.00000000000E+00 -0.00000000000E+00 -0.45593999997E+02  0.45594000000E+02  0.51100000000E-03 0. -1.
    9900012    2    1    2    0    0  0.23643858122E+00 -0.69800034012E+00 -0.92181596373E+00  0.90007808342E+02  0.90000070613E+02 0.  0.
        -12    1    1    2    0    0 -0.23643858122E+00  0.69800034012E+00  0.92181596373E+00  0.11801916575E+01  0.00000000000E+00 0.  1.
         11    1    3    3    0    0  0.49216475405E+01  0.76896070425E+01 -0.47617487336E+01  0.10296937518E+02  0.51100000000E-03 0. -1.
        -11    1    3    3    0    0 -0.21475514505E+02  0.29686124583E+02 -0.55375252546E+01  0.37055740476E+02  0.51100000000E-03 0.  1.
         12    1    3    3    0    0  0.16790305546E+02 -0.38073731965E+02  0.93774580245E+01  0.42655130349E+02  0.00000000000E+00 0. -1.
</event>
<event>
 7    1  0.2385752E-015  0.9000779E+02  0.7816164E-02  0.1186339E+00
        -11   -1    0    0    0    0  0.00000000000E+00  0.00000000000E+00  0.45593999997E+02  0.45594000000E+02  0.51100000000E-03 0.  1.
         11   -1    0    0    0    0 -0.00000000000E+00 -0.00000000000E+00 -0.45593999997E+02  0.45594000000E+02  0.51100000000E-03 0. -1.
    9900012    2    1    2    0    0  0.22851827761E-01 -0.11455879960E+01 -0.28284573421E+00  0.90007789946E+02  0.90000051973E+02 0.  0.
        -12    1    1    2    0    0 -0.22851827761E-01  0.11455879960E+01  0.28284573421E+00  0.11802100542E+01  0.00000000000E+00 0.  1.
         11    1    3    3    0    0  0.58069581359E+01  0.76490676822E+01 -0.10440285614E+01  0.96601757281E+01  0.51100000000E-03 0. -1.
        -11    1    3    3    0    0 -0.38119102932E+02 -0.17799469743E+02 -0.13056201626E+02  0.44049421479E+02  0.51100000000E-03 0.  1.
         12    1    3    3    0    0  0.32334996624E+02  0.90048140648E+01  0.13817384453E+02  0.36298192739E+02  0.00000000000E+00 0. -1.
</event>
<event>
 7    1  0.2836226E-015  0.9000707E+02  0.7816164E-02  0.1186340E+00
        -11   -1    0    0    0    0  0.00000000000E+00  0.00000000000E+00  0.45593999997E+02  0.45594000000E+02  0.51100000000E-03 0. -1.
         11   -1    0    0    0    0 -0.00000000000E+00 -0.00000000000E+00 -0.45593999997E+02  0.45594000000E+02  0.51100000000E-03 0.  1.
    9900012    2    1    2    0    0  0.93961619778E+00 -0.21730066651E+00  0.68154470224E+00  0.90007067589E+02  0.89999320078E+02 0.  0.
        -12    1    1    2    0    0 -0.93961619778E+00  0.21730066651E+00 -0.68154470224E+00  0.11809324113E+01  0.00000000000E+00 0.  1.
         11    1    3    3    0    0 -0.13162439093E+02  0.26610164417E+02  0.31267510867E+02  0.43116213762E+02  0.51100000000E-03 0. -1.
        -11    1    3    3    0    0  0.19556950984E+01 -0.92989315520E+01  0.12325145357E+00  0.95031606588E+01  0.51100000000E-03 0.  1.
        -12    1    3    3    0    0  0.12146360192E+02 -0.17528533531E+02 -0.30709217618E+02  0.37387693167E+02  0.00000000000E+00 0.  1.
</event>
<event>
 7    1  0.2385752E-015  0.9000778E+02  0.7816164E-02  0.1186339E+00
        -11   -1    0    0    0    0  0.00000000000E+00  0.00000000000E+00  0.45593999997E+02  0.45594000000E+02  0.51100000000E-03 0.  1.
         11   -1    0    0    0    0 -0.00000000000E+00 -0.00000000000E+00 -0.45593999997E+02  0.45594000000E+02  0.51100000000E-03 0. -1.
    9900012    2    1    2    0    0  0.29158787611E+00  0.73074739349E+00 -0.87971194979E+00  0.90007784614E+02  0.90000046571E+02 0.  0.
        -12    1    1    2    0    0 -0.29158787611E+00 -0.73074739349E+00  0.87971194979E+00  0.11802153859E+01  0.00000000000E+00 0.  1.
         11    1    3    3    0    0 -0.12213128268E+02  0.35025813333E+02 -0.11081266478E+02  0.38713854997E+02  0.51100000000E-03 0. -1.
        -11    1    3    3    0    0 -0.10053978588E+02 -0.39781111358E+01  0.79824666769E+01  0.13439777832E+02  0.51100000000E-03 0.  1.
        -12    1    3    3    0    0  0.22558694731E+02 -0.30316954803E+02  0.22190878516E+01  0.37854151786E+02  0.00000000000E+00 0.  1.
</event>
<event>
 7    1  0.2385752E-015  0.9000772E+02  0.7816164E-02  0.1186339E+00
        -11   -1    0    0    0    0  0.00000000000E+00  0.00000000000E+00  0.45593999997E+02  0.45594000000E+02  0.51100000000E-03 0.  1.
         11   -1    0    0    0    0 -0.00000000000E+00 -0.00000000000E+00 -0.45593999997E+02  0.45594000000E+02  0.51100000000E-03 0. -1.
    9900012    2    1    2    0    0 -0.15432207004E+00  0.15585462572E+00 -0.11597262333E+01  0.90007715754E+02  0.89999976802E+02 0.  0.
        -12    1    1    2    0    0  0.15432207004E+00 -0.15585462572E+00  0.11597262333E+01  0.11802842462E+01  0.00000000000E+00 0.  1.
         11    1    3    3    0    0  0.60495754721E+01 -0.64806381540E+01 -0.41533962303E+01  0.97901345640E+01  0.51100000000E-03 0. -1.
        -11    1    3    3    0    0 -0.37786604934E+02 -0.14191227758E+02 -0.72813202404E+01  0.41015071406E+02  0.51100000000E-03 0.  1.
         12    1    3    3    0    0  0.31582707392E+02  0.20827720537E+02  0.10274990237E+02  0.39202509784E+02  0.00000000000E+00 0. -1.
</event>
<event>
 7    1  0.2385752E-015  0.9000776E+02  0.7816164E-02  0.1186339E+00
        -11   -1    0    0    0    0  0.00000000000E+00  0.00000000000E+00  0.45593999997E+02  0.45594000000E+02  0.51100000000E-03 0.  1.
         11   -1    0    0    0    0 -0.00000000000E+00 -0.00000000000E+00 -0.45593999997E+02  0.45594000000E+02  0.51100000000E-03 0. -1.
    9900012    2    1    2    0    0 -0.20090324898E+00 -0.83453626221E+00 -0.81002995521E+00  0.90007762136E+02  0.90000023796E+02 0.  0.
        -12    1    1    2    0    0  0.20090324898E+00  0.83453626221E+00  0.81002995521E+00  0.11802378645E+01  0.00000000000E+00 0.  1.
         11    1    3    3    0    0 -0.48753109188E+01  0.75774046059E+01 -0.36350104988E+02  0.37450178238E+02  0.51100000000E-03 0. -1.
        -11    1    3    3    0    0 -0.14906638226E+00 -0.45908706185E+01 -0.76544881989E+01  0.89268977630E+01  0.51100000000E-03 0.  1.
        -12    1    3    3    0    0  0.48234740521E+01 -0.38210702496E+01  0.43194563232E+02  0.43630686135E+02  0.00000000000E+00 0.  1.
</event>
<event>
 7    1  0.2385752E-015  0.9000776E+02  0.7816164E-02  0.1186339E+00
        -11   -1    0    0    0    0  0.00000000000E+00  0.00000000000E+00  0.45593999997E+02  0.45594000000E+02  0.51100000000E-03 0.  1.
         11   -1    0    0    0    0 -0.00000000000E+00 -0.00000000000E+00 -0.45593999997E+02  0.45594000000E+02  0.51100000000E-03 0. -1.
    9900012    2    1    2    0    0 -0.35086418801E-01  0.11757971652E+01 -0.96114615833E-01  0.90007759325E+02  0.90000020949E+02 0.  0.
        -12    1    1    2    0    0  0.35086418801E-01 -0.11757971652E+01  0.96114615833E-01  0.11802406746E+01  0.00000000000E+00 0.  1.
         11    1    3    3    0    0  0.42017255887E+01 -0.30173375947E+01 -0.76054364185E+01  0.91979066890E+01  0.51100000000E-03 0. -1.
        -11    1    3    3    0    0 -0.24997484711E+02 -0.30677118139E+02  0.72248970834E+01  0.40226346557E+02  0.51100000000E-03 0.  1.
         12    1    3    3    0    0  0.20760672703E+02  0.34870252899E+02  0.28442471928E+00  0.40583506080E+02  0.00000000000E+00 0. -1.
</event>
<event>
 7    1  0.2385752E-015  0.9000769E+02  0.7816164E-02  0.1186339E+00
        -11   -1    0    0    0    0  0.00000000000E+00  0.00000000000E+00  0.45593999997E+02  0.45594000000E+02  0.51100000000E-03 0.  1.
         11   -1    0    0    0    0 -0.00000000000E+00 -0.00000000000E+00 -0.45593999997E+02  0.45594000000E+02  0.51100000000E-03 0. -1.
    9900012    2    1    2    0    0 -0.11517215663E+01 -0.23272209920E+00  0.11186460379E+00  0.90007688248E+02  0.89999948933E+02 0.  0.
        -12    1    1    2    0    0  0.11517215663E+01  0.23272209920E+00 -0.11186460379E+00  0.11803117517E+01  0.00000000000E+00 0.  1.
         11    1    3    3    0    0 -0.27892246813E+02 -0.17383486620E+02 -0.19775458757E+02  0.38356639694E+02  0.51100000000E-03 0. -1.
        -11    1    3    3    0    0 -0.49945568298E+01  0.35993133244E+01 -0.59353402853E+01  0.85515448251E+01  0.51100000000E-03 0.  1.
        -12    1    3    3    0    0  0.31735082076E+02  0.13551451197E+02  0.25822663646E+02  0.43099503729E+02  0.00000000000E+00 0.  1.
</event>
<event>
 7    1  0.2385752E-015  0.9000775E+02  0.7816164E-02  0.1186339E+00
        -11   -1    0    0    0    0  0.00000000000E+00  0.00000000000E+00  0.45593999997E+02  0.45594000000E+02  0.51100000000E-03 0. -1.
         11   -1    0    0    0    0 -0.00000000000E+00 -0.00000000000E+00 -0.45593999997E+02  0.45594000000E+02  0.51100000000E-03 0.  1.
    9900012    2    1    2    0    0  0.19970093498E+00 -0.10400250999E+01 -0.52100451153E+00  0.90007754952E+02  0.90000016518E+02 0.  0.
        -12    1    1    2    0    0 -0.19970093498E+00  0.10400250999E+01  0.52100451153E+00  0.11802450478E+01  0.00000000000E+00 0.  1.
         11    1    3    3    0    0 -0.31288884470E+02  0.49071250033E+01  0.20868819234E+02  0.37928640677E+02  0.51100000000E-03 0. -1.
        -11    1    3    3    0    0 -0.62432837847E+00 -0.78261289313E+01  0.59593151705E+01  0.98565469377E+01  0.51100000000E-03 0.  1.
        -12    1    3    3    0    0  0.32112913783E+02  0.18789788281E+01 -0.27349138916E+02  0.42222567337E+02  0.00000000000E+00 0.  1.
</event>
<event>
 7    1  0.2385752E-015  0.9000772E+02  0.7816164E-02  0.1186339E+00
        -11   -1    0    0    0    0  0.00000000000E+00  0.00000000000E+00  0.45593999997E+02  0.45594000000E+02  0.51100000000E-03 0.  1.
         11   -1    0    0    0    0 -0.00000000000E+00 -0.00000000000E+00 -0.45593999997E+02  0.45594000000E+02  0.51100000000E-03 0. -1.
    9900012    2    1    2    0    0  0.37028039053E+00  0.55848750236E+00  0.97161582194E+00  0.90007723268E+02  0.89999984415E+02 0.  0.
        -12    1    1    2    0    0 -0.37028039053E+00 -0.55848750236E+00 -0.97161582194E+00  0.11802767317E+01  0.00000000000E+00 0.  1.
         11    1    3    3    0    0  0.16237709348E+02  0.10333223291E+02 -0.11822385018E+02  0.22587773158E+02  0.51100000000E-03 0. -1.
        -11    1    3    3    0    0 -0.55319011360E+01 -0.36521485985E+02  0.27609415600E+01  0.37041107803E+02  0.51100000000E-03 0.  1.
         12    1    3    3    0    0 -0.10335527821E+02  0.26746750196E+02  0.10033059280E+02  0.30378842307E+02  0.00000000000E+00 0. -1.
</event>
<event>
 7    1  0.2385752E-015  0.9000774E+02  0.7816164E-02  0.1186339E+00
        -11   -1    0    0    0    0  0.00000000000E+00  0.00000000000E+00  0.45593999997E+02  0.45594000000E+02  0.51100000000E-03 0.  1.
         11   -1    0    0    0    0 -0.00000000000E+00 -0.00000000000E+00 -0.45593999997E+02  0.45594000000E+02  0.51100000000E-03 0. -1.
    9900012    2    1    2    0    0  0.45639660711E+00  0.71380870497E+00 -0.82170062144E+00  0.90007740435E+02  0.90000001808E+02 0.  0.
        -12    1    1    2    0    0 -0.45639660711E+00 -0.71380870497E+00  0.82170062144E+00  0.11802595653E+01  0.00000000000E+00 0.  1.
         11    1    3    3    0    0 -0.13639692970E+02  0.82961862850E+01 -0.34254145839E+02  0.37791724473E+02  0.51100000000E-03 0. -1.
        -11    1    3    3    0    0 -0.22142896901E+01  0.85689760755E+01 -0.28362860037E+01  0.92938123700E+01  0.51100000000E-03 0.  1.
        -12    1    3    3    0    0  0.16310379268E+02 -0.16151353656E+02  0.36268731221E+02  0.42922203592E+02  0.00000000000E+00 0.  1.
</event>
<event>
 7    1  0.2385752E-015  0.9000763E+02  0.7816164E-02  0.1186339E+00
        -11   -1    0    0    0    0  0.00000000000E+00  0.00000000000E+00  0.45593999997E+02  0.45594000000E+02  0.51100000000E-03 0.  1.
         11   -1    0    0    0    0 -0.00000000000E+00 -0.00000000000E+00 -0.45593999997E+02  0.45594000000E+02  0.51100000000E-03 0. -1.
    9900012    2    1    2    0    0 -0.97973474219E+00  0.64033826318E+00  0.15286704419E+00  0.90007626504E+02  0.89999886374E+02 0.  0.
        -12    1    1    2    0    0  0.97973474219E+00 -0.64033826318E+00 -0.15286704419E+00  0.11803734958E+01  0.00000000000E+00 0.  1.
         11    1    3    3    0    0  0.28090395312E+02 -0.11794422305E+01 -0.26855300731E+02  0.38880182232E+02  0.51100000000E-03 0. -1.
        -11    1    3    3    0    0  0.69568762626E+01  0.20899194414E+01  0.60017172328E+01  0.94226588927E+01  0.51100000000E-03 0.  1.
        -12    1    3    3    0    0 -0.36027006317E+02 -0.27013894768E+00  0.21006450542E+02  0.41704785380E+02  0.00000000000E+00 0.  1.
</event>
<event>
 7    1  0.2385752E-015  0.9000774E+02  0.7816164E-02  0.1186339E+00
        -11   -1    0    0    0    0  0.00000000000E+00  0.00000000000E+00  0.45593999997E+02  0.45594000000E+02  0.51100000000E-03 0.  1.
         11   -1    0    0    0    0 -0.00000000000E+00 -0.00000000000E+00 -0.45593999997E+02  0.45594000000E+02  0.51100000000E-03 0. -1.
    9900012    2    1    2    0    0  0.86080941369E+00 -0.79422199622E+00  0.14567967880E+00  0.90007744098E+02  0.90000005520E+02 0.  0.
        -12    1    1    2    0    0 -0.86080941369E+00  0.79422199622E+00 -0.14567967880E+00  0.11802559023E+01  0.00000000000E+00 0.  1.
         11    1    3    3    0    0  0.40890692756E+02  0.15962366792E+02  0.33578432504E+01  0.44024095894E+02  0.51100000000E-03 0. -1.
        -11    1    3    3    0    0  0.11894310046E+01 -0.73446349756E+00  0.74348887826E+00  0.15833378405E+01  0.51100000000E-03 0.  1.
        -12    1    3    3    0    0 -0.41219314347E+02 -0.16022125290E+02 -0.39556524498E+01  0.44400310364E+02  0.00000000000E+00 0.  1.
</event>
<event>
 7    1  0.2385752E-015  0.9000793E+02  0.7816164E-02  0.1186339E+00
        -11   -1    0    0    0    0  0.00000000000E+00  0.00000000000E+00  0.45593999997E+02  0.45594000000E+02  0.51100000000E-03 0.  1.
         11   -1    0    0    0    0 -0.00000000000E+00 -0.00000000000E+00 -0.45593999997E+02  0.45594000000E+02  0.51100000000E-03 0. -1.
    9900012    2    1    2    0    0 -0.62136568973E+00 -0.95225067517E+00  0.31574580301E+00  0.90007927087E+02  0.90000190924E+02 0.  0.
        -12    1    1    2    0    0  0.62136568973E+00  0.95225067517E+00 -0.31574580301E+00  0.11800729134E+01  0.00000000000E+00 0.  1.
         11    1    3    3    0    0  0.16626031832E+00 -0.67077097079E+01  0.70339218425E+01  0.97209602801E+01  0.51100000000E-03 0. -1.
        -11    1    3    3    0    0  0.23457530316E+02 -0.23771323941E+02  0.14698665985E+02  0.36488112481E+02  0.51100000000E-03 0.  1.
         12    1    3    3    0    0 -0.24245156324E+02  0.29526782973E+02 -0.21416842025E+02  0.43798854326E+02  0.00000000000E+00 0. -1.
</event>
<event>
 7    1  0.2385752E-015  0.9000779E+02  0.7816164E-02  0.1186339E+00
        -11   -1    0    0    0    0  0.00000000000E+00  0.00000000000E+00  0.45593999997E+02  0.45594000000E+02  0.51100000000E-03 0.  1.
         11   -1    0    0    0    0 -0.00000000000E+00 -0.00000000000E+00 -0.45593999997E+02  0.45594000000E+02  0.51100000000E-03 0. -1.
    9900012    2    1    2    0    0  0.39754961300E+00  0.78241763719E+00 -0.78909366860E+00  0.90007791598E+02  0.90000053647E+02 0.  0.
        -12    1    1    2    0    0 -0.39754961300E+00 -0.78241763719E+00  0.78909366860E+00  0.11802084018E+01  0.00000000000E+00 0.  1.
         11    1    3    3    0    0 -0.69731532990E+01 -0.66728092292E+01  0.93125576079E+00  0.96963130877E+01  0.51100000000E-03 0. -1.
        -11    1    3    3    0    0  0.24926900821E+02  0.22755784708E+02  0.27081004331E+02  0.43273050713E+02  0.51100000000E-03 0.  1.
         12    1    3    3    0    0 -0.17556197909E+02 -0.15300557841E+02 -0.28801353760E+02  0.37038427797E+02  0.00000000000E+00 0. -1.
</event>
<event>
 7    1  0.2385752E-015  0.9000771E+02  0.7816164E-02  0.1186339E+00
        -11   -1    0    0    0    0  0.00000000000E+00  0.00000000000E+00  0.45593999997E+02  0.45594000000E+02  0.51100000000E-03 0.  1.
         11   -1    0    0    0    0 -0.00000000000E+00 -0.00000000000E+00 -0.45593999997E+02  0.45594000000E+02  0.51100000000E-03 0. -1.
    9900012    2    1    2    0    0 -0.37298726952E+00 -0.72769665034E+00 -0.85112589927E+00  0.90007713080E+02  0.89999974092E+02 0.  0.
        -12    1    1    2    0    0  0.37298726952E+00  0.72769665034E+00  0.85112589927E+00  0.11802869204E+01  0.00000000000E+00 0.  1.
         11    1    3    3    0    0 -0.15155078764E+02 -0.24764831266E+02  0.20509733673E+02  0.35547467639E+02  0.51100000000E-03 0. -1.
        -11    1    3    3    0    0  0.31193019336E+01 -0.14708748626E+01  0.11063252914E+02  0.11588316647E+02  0.51100000000E-03 0.  1.
        -12    1    3    3    0    0  0.11662789560E+02  0.25508009478E+02 -0.32424112487E+02  0.42871928793E+02  0.00000000000E+00 0.  1.
</event>
<event>
 7    1  0.2385752E-015  0.9000777E+02  0.7816164E-02  0.1186339E+00
        -11   -1    0    0    0    0  0.00000000000E+00  0.00000000000E+00  0.45593999997E+02  0.45594000000E+02  0.51100000000E-03 0.  1.
         11   -1    0    0    0    0 -0.00000000000E+00 -0.00000000000E+00 -0.45593999997E+02  0.45594000000E+02  0.51100000000E-03 0. -1.
    9900012    2    1    2    0    0 -0.66209421756E+00  0.97342991374E+00  0.83761711164E-01  0.90007766729E+02  0.90000028450E+02 0.  0.
        -12    1    1    2    0    0  0.66209421756E+00 -0.97342991374E+00 -0.83761711164E-01  0.11802332711E+01  0.00000000000E+00 0.  1.
         11    1    3    3    0    0  0.82161548538E+01 -0.43816169216E+01  0.48067056983E+01  0.10478940183E+02  0.51100000000E-03 0. -1.
        -11    1    3    3    0    0 -0.41968026870E+02 -0.84555825465E+01  0.27596309064E+01  0.42900206510E+02  0.51100000000E-03 0.  1.
         12    1    3    3    0    0  0.33089777799E+02  0.13810629382E+02 -0.74825748936E+01  0.36628620036E+02  0.00000000000E+00 0. -1.
</event>
<event>
 7    1  0.2385752E-015  0.9000767E+02  0.7816164E-02  0.1186339E+00
        -11   -1    0    0    0    0  0.00000000000E+00  0.00000000000E+00  0.45593999997E+02  0.45594000000E+02  0.51100000000E-03 0. -1.
         11   -1    0    0    0    0 -0.00000000000E+00 -0.00000000000E+00 -0.45593999997E+02  0.45594000000E+02  0.51100000000E-03 0.  1.
    9900012    2    1    2    0    0 -0.65782180919E+00  0.72035740439E+00 -0.66447718207E+00  0.90007671974E+02  0.89999932444E+02 0.  0.
        -12    1    1    2    0    0  0.65782180919E+00 -0.72035740439E+00  0.66447718207E+00  0.11803280257E+01  0.00000000000E+00 0.  1.
         11    1    3    3    0    0  0.14524261810E+01 -0.16981485990E+02  0.44233273098E+00  0.17049224814E+02  0.51100000000E-03 0. -1.
        -11    1    3    3    0    0 -0.15442465193E+02  0.27193474811E+02 -0.27671434036E+02  0.41757191781E+02  0.51100000000E-03 0.  1.
         12    1    3    3    0    0  0.13332217203E+02 -0.94916314160E+01  0.26564624123E+02  0.31201255380E+02  0.00000000000E+00 0. -1.
</event>
<event>
 7    1  0.2385752E-015  0.9000872E+02  0.7816164E-02  0.1186337E+00
        -11   -1    0    0    0    0  0.00000000000E+00  0.00000000000E+00  0.45593999997E+02  0.45594000000E+02  0.51100000000E-03 0.  1.
         11   -1    0    0    0    0 -0.00000000000E+00 -0.00000000000E+00 -0.45593999997E+02  0.45594000000E+02  0.51100000000E-03 0. -1.
    9900012    2    1    2    0    0  0.51286448903E+00 -0.64735884934E+00 -0.84177921462E+00  0.90008722378E+02  0.90000996708E+02 0.  0.
        -12    1    1    2    0    0 -0.51286448903E+00  0.64735884934E+00  0.84177921462E+00  0.11792776221E+01  0.00000000000E+00 0.  1.
         11    1    3    3    0    0 -0.51452091184E+00 -0.41390176827E+01  0.10427883603E+02  0.11231071001E+02  0.51100000000E-03 0. -1.
        -11    1    3    3    0    0 -0.17245248981E+02  0.97706384090E+01  0.28411728148E+02  0.34642319264E+02  0.51100000000E-03 0.  1.
         12    1    3    3    0    0  0.18272634382E+02 -0.62789795756E+01 -0.39681390965E+02  0.44135332113E+02  0.00000000000E+00 0. -1.
</event>
<event>
 7    1  0.2385752E-015  0.9000771E+02  0.7816164E-02  0.1186339E+00
        -11   -1    0    0    0    0  0.00000000000E+00  0.00000000000E+00  0.45593999997E+02  0.45594000000E+02  0.51100000000E-03 0.  1.
         11   -1    0    0    0    0 -0.00000000000E+00 -0.00000000000E+00 -0.45593999997E+02  0.45594000000E+02  0.51100000000E-03 0. -1.
    9900012    2    1    2    0    0 -0.35907106175E-01 -0.95700527224E+00 -0.68987771193E+00  0.90007712040E+02  0.89999973039E+02 0.  0.
        -12    1    1    2    0    0  0.35907106175E-01  0.95700527224E+00  0.68987771193E+00  0.11802879601E+01  0.00000000000E+00 0.  1.
         11    1    3    3    0    0 -0.15477276319E+02  0.18936679535E+02 -0.27273339638E+02  0.36633031125E+02  0.51100000000E-03 0. -1.
        -11    1    3    3    0    0 -0.25617842238E+01  0.11468895831E+01 -0.83430232956E+01  0.88025071484E+01  0.51100000000E-03 0.  1.
        -12    1    3    3    0    0  0.18003153437E+02 -0.21040574391E+02  0.34926485222E+02  0.44572173767E+02  0.00000000000E+00 0.  1.
</event>
<event>
 7    1  0.2385752E-015  0.9000763E+02  0.7816164E-02  0.1186339E+00
        -11   -1    0    0    0    0  0.00000000000E+00  0.00000000000E+00  0.45593999997E+02  0.45594000000E+02  0.51100000000E-03 0.  1.
         11   -1    0    0    0    0 -0.00000000000E+00 -0.00000000000E+00 -0.45593999997E+02  0.45594000000E+02  0.51100000000E-03 0. -1.
    9900012    2    1    2    0    0  0.73470572110E+00 -0.42451719435E+00 -0.82053118229E+00  0.90007627700E+02  0.89999887586E+02 0.  0.
        -12    1    1    2    0    0 -0.73470572110E+00  0.42451719435E+00  0.82053118229E+00  0.11803722998E+01  0.00000000000E+00 0.  1.
         11    1    3    3    0    0 -0.32452776810E+02  0.87278037621E+01  0.79323329380E+01  0.34529395988E+02  0.51100000000E-03 0. -1.
        -11    1    3    3    0    0 -0.10372775613E+02 -0.15102202094E+01 -0.53587855503E+00  0.10495827985E+02  0.51100000000E-03 0.  1.
        -12    1    3    3    0    0  0.43560258144E+02 -0.76421007470E+01 -0.82169855653E+01  0.44982403728E+02  0.00000000000E+00 0.  1.
</event>
<event>
 7    1  0.2385752E-015  0.9000773E+02  0.7816164E-02  0.1186339E+00
        -11   -1    0    0    0    0  0.00000000000E+00  0.00000000000E+00  0.45593999997E+02  0.45594000000E+02  0.51100000000E-03 0.  1.
         11   -1    0    0    0    0 -0.00000000000E+00 -0.00000000000E+00 -0.45593999997E+02  0.45594000000E+02  0.51100000000E-03 0. -1.
    9900012    2    1    2    0    0  0.56416600469E+00 -0.32422354149E+00 -0.98470124730E+00  0.90007728535E+02  0.89999989751E+02 0.  0.
        -12    1    1    2    0    0 -0.56416600469E+00  0.32422354149E+00  0.98470124730E+00  0.11802714654E+01  0.00000000000E+00 0.  1.
         11    1    3    3    0    0  0.19622244213E+02  0.32778319754E+02  0.77775843459E+01  0.38986427541E+02  0.51100000000E-03 0. -1.
        -11    1    3    3    0    0 -0.64226132806E+01  0.62060282518E+01 -0.23675358783E+01  0.92395873507E+01  0.51100000000E-03 0.  1.
        -12    1    3    3    0    0 -0.12635464928E+02 -0.39308571547E+02 -0.63947497150E+01  0.41781713643E+02  0.00000000000E+00 0.  1.
</event>
<event>
 7    1  0.2385752E-015  0.9000750E+02  0.7816164E-02  0.1186340E+00
        -11   -1    0    0    0    0  0.00000000000E+00  0.00000000000E+00  0.45593999997E+02  0.45594000000E+02  0.51100000000E-03 0.  1.
         11   -1    0    0    0    0 -0.00000000000E+00 -0.00000000000E+00 -0.45593999997E+02  0.45594000000E+02  0.51100000000E-03 0. -1.
    9900012    2    1    2    0    0 -0.73780911252E+00  0.52096553656E+00 -0.76014381952E+00  0.90007497563E+02  0.89999755731E+02 0.  0.
        -12    1    1    2    0    0  0.73780911252E+00 -0.52096553656E+00  0.76014381952E+00  0.11805024367E+01  0.00000000000E+00 0.  1.
         11    1    3    3    0    0 -0.28530547501E+02  0.25884464413E+02 -0.63620263991E+01  0.39044500494E+02  0.51100000000E-03 0. -1.
        -11    1    3    3    0    0 -0.53826183850E+01 -0.14552403814E+01 -0.62614479460E+01  0.83842731282E+01  0.51100000000E-03 0.  1.
        -12    1    3    3    0    0  0.33175356773E+02 -0.23908258495E+02  0.11863330526E+02  0.42578723941E+02  0.00000000000E+00 0.  1.
</event>
<event>
 7    1  0.2385752E-015  0.9000771E+02  0.7816164E-02  0.1186339E+00
        -11   -1    0    0    0    0  0.00000000000E+00  0.00000000000E+00  0.45593999997E+02  0.45594000000E+02  0.51100000000E-03 0. -1.
         11   -1    0    0    0    0 -0.00000000000E+00 -0.00000000000E+00 -0.45593999997E+02  0.45594000000E+02  0.51100000000E-03 0.  1.
    9900012    2    1    2    0    0  0.50875503419E+00 -0.10406397914E+01 -0.22652994405E+00  0.90007712461E+02  0.89999973465E+02 0.  0.
        -12    1    1    2    0    0 -0.50875503419E+00  0.10406397914E+01  0.22652994405E+00  0.11802875394E+01  0.00000000000E+00 0.  1.
         11    1    3    3    0    0  0.66402152161E+01  0.71577132522E+01  0.12707697928E+01  0.98458200900E+01  0.51100000000E-03 0. -1.
        -11    1    3    3    0    0 -0.14225891017E+02  0.17617297048E+02 -0.32120229242E+02  0.39299545256E+02  0.51100000000E-03 0.  1.
         12    1    3    3    0    0  0.80944308346E+01 -0.25815650092E+02  0.30622929505E+02  0.40862347114E+02  0.00000000000E+00 0. -1.
</event>
<event>
 7    1  0.2385752E-015  0.9000777E+02  0.7816164E-02  0.1186339E+00
        -11   -1    0    0    0    0  0.00000000000E+00  0.00000000000E+00  0.45593999997E+02  0.45594000000E+02  0.51100000000E-03 0.  1.
         11   -1    0    0    0    0 -0.00000000000E+00 -0.00000000000E+00 -0.45593999997E+02  0.45594000000E+02  0.51100000000E-03 0. -1.
    9900012    2    1    2    0    0  0.88252911097E+00 -0.78050206008E+00  0.69951844679E-01  0.90007773599E+02  0.90000035410E+02 0.  0.
        -12    1    1    2    0    0 -0.88252911097E+00  0.78050206008E+00 -0.69951844679E-01  0.11802264012E+01  0.00000000000E+00 0.  1.
         11    1    3    3    0    0  0.85528430915E+00 -0.30342230994E+01  0.82722871526E+01  0.88526129511E+01  0.51100000000E-03 0. -1.
        -11    1    3    3    0    0  0.92525489177E+01  0.40424361971E+02 -0.43091620668E+01  0.41693015964E+02  0.51100000000E-03 0.  1.
         12    1    3    3    0    0 -0.92253041159E+01 -0.38170640931E+02 -0.38931732411E+01  0.39462144684E+02  0.00000000000E+00 0. -1.
</event>
<event>
 7    1  0.2385752E-015  0.9000703E+02  0.7816164E-02  0.1186340E+00
        -11   -1    0    0    0    0  0.00000000000E+00  0.00000000000E+00  0.45593999997E+02  0.45594000000E+02  0.51100000000E-03 0.  1.
         11   -1    0    0    0    0 -0.00000000000E+00 -0.00000000000E+00 -0.45593999997E+02  0.45594000000E+02  0.51100000000E-03 0. -1.
    9900012    2    1    2    0    0  0.98712998570E+00  0.60273187487E+00 -0.23871031764E+00  0.90007028393E+02  0.89999280365E+02 0.  0.
        -12    1    1    2    0    0 -0.98712998570E+00 -0.60273187487E+00  0.23871031764E+00  0.11809716074E+01  0.00000000000E+00 0.  1.
         11    1    3    3    0    0  0.26255062584E+02 -0.30447749677E+02  0.13336470054E+02  0.42358649712E+02  0.51100000000E-03 0. -1.
        -11    1    3    3    0    0 -0.10426602035E+02 -0.58208893336E+00 -0.54308728119E+01  0.11770609044E+02  0.51100000000E-03 0.  1.
        -12    1    3    3    0    0 -0.14841330564E+02  0.31632570486E+02 -0.81443075600E+01  0.35877769636E+02  0.00000000000E+00 0.  1.
</event>
<event>
 7    1  0.2385752E-015  0.9000773E+02  0.7816164E-02  0.1186339E+00
        -11   -1    0    0    0    0  0.00000000000E+00  0.00000000000E+00  0.45593999997E+02  0.45594000000E+02  0.51100000000E-03 0.  1.
         11   -1    0    0    0    0 -0.00000000000E+00 -0.00000000000E+00 -0.45593999997E+02  0.45594000000E+02  0.51100000000E-03 0. -1.
    9900012    2    1    2    0    0 -0.47321254680E+00  0.20306883610E+00 -0.10620133281E+01  0.90007729109E+02  0.89999990333E+02 0.  0.
        -12    1    1    2    0    0  0.47321254680E+00 -0.20306883610E+00  0.10620133281E+01  0.11802708908E+01  0.00000000000E+00 0.  1.
         11    1    3    3    0    0 -0.10984985255E+02 -0.35784601576E+02  0.82695688241E+01  0.38335275920E+02  0.51100000000E-03 0. -1.
        -11    1    3    3    0    0  0.77091968206E+01 -0.53237735686E+01 -0.85879496607E+00  0.94080715178E+01  0.51100000000E-03 0.  1.
        -12    1    3    3    0    0  0.28025758880E+01  0.41311443981E+02 -0.84727871862E+01  0.42264381672E+02  0.00000000000E+00 0.  1.
</event>
<event>
 7    1  0.2385752E-015  0.9000787E+02  0.7816164E-02  0.1186339E+00
        -11   -1    0    0    0    0  0.00000000000E+00  0.00000000000E+00  0.45593999997E+02  0.45594000000E+02  0.51100000000E-03 0.  1.
         11   -1    0    0    0    0 -0.00000000000E+00 -0.00000000000E+00 -0.45593999997E+02  0.45594000000E+02  0.51100000000E-03 0. -1.
    9900012    2    1    2    0    0 -0.18276783580E-01 -0.11794856662E+01 -0.34429828854E-01  0.90007870392E+02  0.90000133482E+02 0.  0.
        -12    1    1    2    0    0  0.18276783580E-01  0.11794856662E+01  0.34429828854E-01  0.11801296076E+01  0.00000000000E+00 0.  1.
         11    1    3    3    0    0 -0.26195605393E+02  0.22150518653E+02 -0.58808976184E+01  0.34805749174E+02  0.51100000000E-03 0. -1.
        -11    1    3    3    0    0  0.35583835030E+01 -0.30517741711E+01 -0.16716605625E+02  0.17361460844E+02  0.51100000000E-03 0.  1.
        -12    1    3    3    0    0  0.22618945106E+02 -0.20278230148E+02  0.22563073415E+02  0.37840660375E+02  0.00000000000E+00 0.  1.
</event>
<event>
 7    1  0.2385752E-015  0.9000777E+02  0.7816164E-02  0.1186339E+00
        -11   -1    0    0    0    0  0.00000000000E+00  0.00000000000E+00  0.45593999997E+02  0.45594000000E+02  0.51100000000E-03 0. -1.
         11   -1    0    0    0    0 -0.00000000000E+00 -0.00000000000E+00 -0.45593999997E+02  0.45594000000E+02  0.51100000000E-03 0.  1.
    9900012    2    1    2    0    0  0.45565419716E+00  0.99507126066E+00  0.44175475594E+00  0.90007773401E+02  0.90000035210E+02 0.  0.
        -12    1    1    2    0    0 -0.45565419716E+00 -0.99507126066E+00 -0.44175475594E+00  0.11802265992E+01  0.00000000000E+00 0.  1.
         11    1    3    3    0    0 -0.46773058038E+01 -0.74578769564E+01  0.33252461827E+02  0.34398013549E+02  0.51100000000E-03 0. -1.
        -11    1    3    3    0    0  0.14341766922E+01  0.20577755324E+02 -0.20730844375E+00  0.20628714308E+02  0.51100000000E-03 0.  1.
         12    1    3    3    0    0  0.36987833087E+01 -0.12124807106E+02 -0.32603398627E+02  0.34981045544E+02  0.00000000000E+00 0. -1.
</event>
<event>
 7    1  0.2385752E-015  0.9000665E+02  0.7816164E-02  0.1186341E+00
        -11   -1    0    0    0    0  0.00000000000E+00  0.00000000000E+00  0.45593999997E+02  0.45594000000E+02  0.51100000000E-03 0.  1.
         11   -1    0    0    0    0 -0.00000000000E+00 -0.00000000000E+00 -0.45593999997E+02  0.45594000000E+02  0.51100000000E-03 0. -1.
    9900012    2    1    2    0    0  0.17244029976E+00 -0.97873616314E-01 -0.11645889277E+01  0.90006652349E+02  0.89998899353E+02 0.  0.
        -12    1    1    2    0    0 -0.17244029976E+00  0.97873616314E-01  0.11645889277E+01  0.11813476509E+01  0.00000000000E+00 0.  1.
         11    1    3    3    0    0  0.15964071555E+01  0.34857235030E+01 -0.93067734772E+01  0.10065526164E+02  0.51100000000E-03 0. -1.
        -11    1    3    3    0    0  0.24588384360E+02  0.22128125042E+02  0.23182941250E+02  0.40394199194E+02  0.51100000000E-03 0.  1.
         12    1    3    3    0    0 -0.26012351215E+02 -0.25711722161E+02 -0.15040756701E+02  0.39546926990E+02  0.00000000000E+00 0. -1.
</event>
<event>
 7    1  0.2385752E-015  0.9000787E+02  0.7816164E-02  0.1186339E+00
        -11   -1    0    0    0    0  0.00000000000E+00  0.00000000000E+00  0.45593999997E+02  0.45594000000E+02  0.51100000000E-03 0.  1.
         11   -1    0    0    0    0 -0.00000000000E+00 -0.00000000000E+00 -0.45593999997E+02  0.45594000000E+02  0.51100000000E-03 0. -1.
    9900012    2    1    2    0    0 -0.10779699273E+01  0.34731460991E+00 -0.33173991943E+00  0.90007873746E+02  0.90000136879E+02 0.  0.
        -12    1    1    2    0    0  0.10779699273E+01 -0.34731460991E+00  0.33173991943E+00  0.11801262545E+01  0.00000000000E+00 0.  1.
         11    1    3    3    0    0 -0.20695727274E+01 -0.11045354734E+02 -0.80623829758E+00  0.11266455206E+02  0.51100000000E-03 0. -1.
        -11    1    3    3    0    0 -0.50891777542E+01 -0.32335976403E+02  0.86129453983E+01  0.33848159904E+02  0.51100000000E-03 0.  1.
         12    1    3    3    0    0  0.60807805544E+01  0.43728645747E+02 -0.81384470202E+01  0.44893258635E+02  0.00000000000E+00 0. -1.
</event>
<event>
 7    1  0.2402438E-015  0.9000767E+02  0.7816164E-02  0.1186339E+00
        -11   -1    0    0    0    0  0.00000000000E+00  0.00000000000E+00  0.45593999997E+02  0.45594000000E+02  0.51100000000E-03 0. -1.
         11   -1    0    0    0    0 -0.00000000000E+00 -0.00000000000E+00 -0.45593999997E+02  0.45594000000E+02  0.51100000000E-03 0.  1.
    9900012    2    1    2    0    0 -0.56675625304E+00  0.98251652911E+00  0.32652369066E+00  0.90007674155E+02  0.89999934654E+02 0.  0.
        -12    1    1    2    0    0  0.56675625304E+00 -0.98251652911E+00 -0.32652369066E+00  0.11803258452E+01  0.00000000000E+00 0.  1.
         11    1    3    3    0    0 -0.92845098707E+01  0.38414312290E+02  0.40579024832E+01  0.39728177470E+02  0.51100000000E-03 0. -1.
        -11    1    3    3    0    0  0.46130459067E+01  0.32030403481E+00  0.90902372994E+01  0.10198784321E+02  0.51100000000E-03 0.  1.
        -12    1    3    3    0    0  0.41047077110E+01 -0.37752099796E+02 -0.12821616092E+02  0.40080712364E+02  0.00000000000E+00 0.  1.
</event>
<event>
 7    1  0.2385752E-015  0.9000775E+02  0.7816164E-02  0.1186339E+00
        -11   -1    0    0    0    0  0.00000000000E+00  0.00000000000E+00  0.45593999997E+02  0.45594000000E+02  0.51100000000E-03 0.  1.
         11   -1    0    0    0    0 -0.00000000000E+00 -0.00000000000E+00 -0.45593999997E+02  0.45594000000E+02  0.51100000000E-03 0. -1.
    9900012    2    1    2    0    0 -0.69187489174E+00 -0.56081250081E+00 -0.77446295868E+00  0.90007748162E+02  0.90000009638E+02 0.  0.
        -12    1    1    2    0    0  0.69187489174E+00  0.56081250081E+00  0.77446295868E+00  0.11802518381E+01  0.00000000000E+00 0.  1.
         11    1    3    3    0    0 -0.38284024432E+01  0.86364002891E+01  0.55744802292E+01  0.10968997461E+02  0.51100000000E-03 0. -1.
        -11    1    3    3    0    0  0.33541735758E+02 -0.19688413501E+02  0.13585868368E+02  0.41197784933E+02  0.51100000000E-03 0.  1.
         12    1    3    3    0    0 -0.30405208207E+02  0.10491200711E+02 -0.19934811555E+02  0.37840965767E+02  0.00000000000E+00 0. -1.
</event>
<event>
 7    1  0.2385752E-015  0.9000776E+02  0.7816164E-02  0.1186339E+00
        -11   -1    0    0    0    0  0.00000000000E+00  0.00000000000E+00  0.45593999997E+02  0.45594000000E+02  0.51100000000E-03 0. -1.
         11   -1    0    0    0    0 -0.00000000000E+00 -0.00000000000E+00 -0.45593999997E+02  0.45594000000E+02  0.51100000000E-03 0.  1.
    9900012    2    1    2    0    0 -0.67533730081E+00 -0.94209914503E+00 -0.22212732912E+00  0.90007757729E+02  0.90000019331E+02 0.  0.
        -12    1    1    2    0    0  0.67533730081E+00  0.94209914503E+00  0.22212732912E+00  0.11802422714E+01  0.00000000000E+00 0.  1.
         11    1    3    3    0    0  0.12604264899E+02  0.32956242375E+02 -0.82588192214E+01  0.36237956625E+02  0.51100000000E-03 0. -1.
        -11    1    3    3    0    0  0.62512661723E+01  0.57837629765E+01 -0.11616250022E+01  0.85953252314E+01  0.51100000000E-03 0.  1.
        -12    1    3    3    0    0 -0.19530868372E+02 -0.39682104497E+02  0.91983168945E+01  0.45174475872E+02  0.00000000000E+00 0.  1.
</event>
<event>
 7    1  0.2385752E-015  0.9000782E+02  0.7816164E-02  0.1186339E+00
        -11   -1    0    0    0    0  0.00000000000E+00  0.00000000000E+00  0.45593999997E+02  0.45594000000E+02  0.51100000000E-03 0.  1.
         11   -1    0    0    0    0 -0.00000000000E+00 -0.00000000000E+00 -0.45593999997E+02  0.45594000000E+02  0.51100000000E-03 0. -1.
    9900012    2    1    2    0    0 -0.54109662943E+00  0.65512114402E+00 -0.81906478417E+00  0.90007815101E+02  0.90000077460E+02 0.  0.
        -12    1    1    2    0    0  0.54109662943E+00 -0.65512114402E+00  0.81906478417E+00  0.11801848992E+01  0.00000000000E+00 0.  1.
         11    1    3    3    0    0 -0.15750332028E+02 -0.32737520026E+02 -0.14819724098E+01  0.36359516208E+02  0.51100000000E-03 0. -1.
        -11    1    3    3    0    0 -0.93792166367E+01 -0.18682400553E+01  0.43433815091E+01  0.10503570289E+02  0.51100000000E-03 0.  1.
        -12    1    3    3    0    0  0.24588452035E+02  0.35260881225E+02 -0.36804738834E+01  0.43144728603E+02  0.00000000000E+00 0.  1.
</event>
<event>
 7    1  0.2385752E-015  0.9000788E+02  0.7816164E-02  0.1186339E+00
        -11   -1    0    0    0    0  0.00000000000E+00  0.00000000000E+00  0.45593999997E+02  0.45594000000E+02  0.51100000000E-03 0. -1.
         11   -1    0    0    0    0 -0.00000000000E+00 -0.00000000000E+00 -0.45593999997E+02  0.45594000000E+02  0.51100000000E-03 0.  1.
    9900012    2    1    2    0    0  0.14864844431E+00 -0.66180375826E+00  0.96570981601E+00  0.90007883047E+02  0.90000146303E+02 0.  0.
        -12    1    1    2    0    0 -0.14864844431E+00  0.66180375826E+00 -0.96570981601E+00  0.11801169532E+01  0.00000000000E+00 0.  1.
         11    1    3    3    0    0 -0.49314811738E+01 -0.84296939489E+01 -0.50774182657E+01  0.11007244121E+02  0.51100000000E-03 0. -1.
        -11    1    3    3    0    0 -0.13710326373E+02 -0.29863751299E+02  0.14795107084E+02  0.36037645384E+02  0.51100000000E-03 0.  1.
         12    1    3    3    0    0  0.18790455991E+02  0.37631641490E+02 -0.87519790025E+01  0.42962993542E+02  0.00000000000E+00 0. -1.
</event>
<event>
 7    1  0.2385752E-015  0.9000774E+02  0.7816164E-02  0.1186339E+00
        -11   -1    0    0    0    0  0.00000000000E+00  0.00000000000E+00  0.45593999997E+02  0.45594000000E+02  0.51100000000E-03 0.  1.
         11   -1    0    0    0    0 -0.00000000000E+00 -0.00000000000E+00 -0.45593999997E+02  0.45594000000E+02  0.51100000000E-03 0. -1.
    9900012    2    1    2    0    0  0.10878188790E+01 -0.15204486017E-01 -0.45763346503E+00  0.90007741775E+02  0.90000003166E+02 0.  0.
        -12    1    1    2    0    0 -0.10878188790E+01  0.15204486017E-01  0.45763346503E+00  0.11802582252E+01  0.00000000000E+00 0.  1.
         11    1    3    3    0    0  0.20957537468E+02 -0.28813023136E+02 -0.11115229950E+02  0.37322339370E+02  0.51100000000E-03 0. -1.
        -11    1    3    3    0    0  0.48472003961E+01 -0.36511810925E+00 -0.86013799624E+01  0.98798988068E+01  0.51100000000E-03 0.  1.
        -12    1    3    3    0    0 -0.24716918985E+02  0.29162936759E+02  0.19258976447E+02  0.42805503598E+02  0.00000000000E+00 0.  1.
</event>
<event>
 7    1  0.2385752E-015  0.9000784E+02  0.7816164E-02  0.1186339E+00
        -11   -1    0    0    0    0  0.00000000000E+00  0.00000000000E+00  0.45593999997E+02  0.45594000000E+02  0.51100000000E-03 0. -1.
         11   -1    0    0    0    0 -0.00000000000E+00 -0.00000000000E+00 -0.45593999997E+02  0.45594000000E+02  0.51100000000E-03 0.  1.
    9900012    2    1    2    0    0  0.73361007304E+00  0.90176526954E+00 -0.20348961656E+00  0.90007842229E+02  0.90000104946E+02 0.  0.
        -12    1    1    2    0    0 -0.73361007304E+00 -0.90176526954E+00  0.20348961656E+00  0.11801577711E+01  0.00000000000E+00 0.  1.
         11    1    3    3    0    0  0.49254165238E+00 -0.81287244636E+01 -0.51670591810E+01  0.96445455842E+01  0.51100000000E-03 0. -1.
        -11    1    3    3    0    0  0.64564178888E+01 -0.22241190300E+02 -0.26757430745E+02  0.35388076781E+02  0.51100000000E-03 0.  1.
         12    1    3    3    0    0 -0.62153494682E+01  0.31271680034E+02  0.31721000310E+02  0.44975219864E+02  0.00000000000E+00 0. -1.
</event>
<event>
 7    1  0.2385752E-015  0.9000778E+02  0.7816164E-02  0.1186339E+00
        -11   -1    0    0    0    0  0.00000000000E+00  0.00000000000E+00  0.45593999997E+02  0.45594000000E+02  0.51100000000E-03 0.  1.
         11   -1    0    0    0    0 -0.00000000000E+00 -0.00000000000E+00 -0.45593999997E+02  0.45594000000E+02  0.51100000000E-03 0. -1.
    9900012    2    1    2    0    0  0.10549735864E+01 -0.18823698978E+00 -0.49448662737E+00  0.90007779912E+02  0.90000041806E+02 0.  0.
        -12    1    1    2    0    0 -0.10549735864E+01  0.18823698978E+00  0.49448662737E+00  0.11802200883E+01  0.00000000000E+00 0.  1.
         11    1    3    3    0    0 -0.13990494417E+02 -0.91329296028E+00  0.11096378900E+01  0.14064115137E+02  0.51100000000E-03 0. -1.
        -11    1    3    3    0    0 -0.24276325003E+02 -0.46247098087E+01 -0.20389048589E+02  0.32038121030E+02  0.51100000000E-03 0.  1.
        -12    1    3    3    0    0  0.39321793007E+02  0.53497657792E+01  0.18784924072E+02  0.43905543745E+02  0.00000000000E+00 0.  1.
</event>
<event>
 7    1  0.2385752E-015  0.9000776E+02  0.7816164E-02  0.1186339E+00
        -11   -1    0    0    0    0  0.00000000000E+00  0.00000000000E+00  0.45593999997E+02  0.45594000000E+02  0.51100000000E-03 0.  1.
         11   -1    0    0    0    0 -0.00000000000E+00 -0.00000000000E+00 -0.45593999997E+02  0.45594000000E+02  0.51100000000E-03 0. -1.
    9900012    2    1    2    0    0  0.11709137957E+01 -0.12121000325E+00  0.85098658974E-01  0.90007757329E+02  0.90000018925E+02 0.  0.
        -12    1    1    2    0    0 -0.11709137957E+01  0.12121000325E+00 -0.85098658974E-01  0.11802426715E+01  0.00000000000E+00 0.  1.
         11    1    3    3    0    0 -0.14782413535E+01  0.11268446623E+02 -0.34464543474E+02  0.36290051584E+02  0.51100000000E-03 0. -1.
        -11    1    3    3    0    0 -0.68615867451E+01 -0.32690940263E+01 -0.69962842892E+01  0.10330360232E+02  0.51100000000E-03 0.  1.
        -12    1    3    3    0    0  0.95107418942E+01 -0.81205626003E+01  0.41545926422E+02  0.43387345513E+02  0.00000000000E+00 0.  1.
</event>
<event>
 7    1  0.2385752E-015  0.9000778E+02  0.7816164E-02  0.1186339E+00
        -11   -1    0    0    0    0  0.00000000000E+00  0.00000000000E+00  0.45593999997E+02  0.45594000000E+02  0.51100000000E-03 0.  1.
         11   -1    0    0    0    0 -0.00000000000E+00 -0.00000000000E+00 -0.45593999997E+02  0.45594000000E+02  0.51100000000E-03 0. -1.
    9900012    2    1    2    0    0  0.66770817488E+00  0.89264724653E+00  0.38763154649E+00  0.90007783270E+02  0.90000045209E+02 0.  0.
        -12    1    1    2    0    0 -0.66770817488E+00 -0.89264724653E+00 -0.38763154649E+00  0.11802167298E+01  0.00000000000E+00 0.  1.
         11    1    3    3    0    0  0.62898824679E+01 -0.22586930027E+01 -0.57681943479E+01  0.88281584623E+01  0.51100000000E-03 0. -1.
        -11    1    3    3    0    0 -0.21795447626E+02  0.28065478242E+02 -0.20709674878E+02  0.41129104537E+02  0.51100000000E-03 0.  1.
         12    1    3    3    0    0  0.16173273333E+02 -0.24914137992E+02  0.26865500773E+02  0.40050520271E+02  0.00000000000E+00 0. -1.
</event>
<event>
 7    1  0.2385752E-015  0.9000765E+02  0.7816164E-02  0.1186339E+00
        -11   -1    0    0    0    0  0.00000000000E+00  0.00000000000E+00  0.45593999997E+02  0.45594000000E+02  0.51100000000E-03 0.  1.
         11   -1    0    0    0    0 -0.00000000000E+00 -0.00000000000E+00 -0.45593999997E+02  0.45594000000E+02  0.51100000000E-03 0. -1.
    9900012    2    1    2    0    0 -0.39149999024E+00 -0.96658633310E+00  0.55287294212E+00  0.90007648412E+02  0.89999908571E+02 0.  0.
        -12    1    1    2    0    0  0.39149999024E+00  0.96658633310E+00 -0.55287294212E+00  0.11803515882E+01  0.00000000000E+00 0.  1.
         11    1    3    3    0    0 -0.57790667399E+01  0.25669450422E+01  0.64615562940E+01  0.90409363031E+01  0.51100000000E-03 0. -1.
        -11    1    3    3    0    0  0.18697772981E+02  0.32197354705E+02  0.11616149451E+02  0.39002708787E+02  0.51100000000E-03 0.  1.
         12    1    3    3    0    0 -0.13310206231E+02 -0.35730886080E+02 -0.17524832803E+02  0.41964003321E+02  0.00000000000E+00 0. -1.
</event>
<event>
 7    1  0.2385752E-015  0.9000771E+02  0.7816164E-02  0.1186339E+00
        -11   -1    0    0    0    0  0.00000000000E+00  0.00000000000E+00  0.45593999997E+02  0.45594000000E+02  0.51100000000E-03 0.  1.
         11   -1    0    0    0    0 -0.00000000000E+00 -0.00000000000E+00 -0.45593999997E+02  0.45594000000E+02  0.51100000000E-03 0. -1.
    9900012    2    1    2    0    0 -0.50693564417E+00  0.29623326630E+00 -0.10238853190E+01  0.90007712305E+02  0.89999973308E+02 0.  0.
        -12    1    1    2    0    0  0.50693564417E+00 -0.29623326630E+00  0.10238853190E+01  0.11802876946E+01  0.00000000000E+00 0.  1.
         11    1    3    3    0    0  0.35830373518E+01 -0.38320294642E+01  0.86702129389E+01  0.10133863979E+02  0.51100000000E-03 0. -1.
        -11    1    3    3    0    0  0.16761824866E+02  0.33902358454E+01  0.30283761845E+02  0.34778710494E+02  0.51100000000E-03 0.  1.
         12    1    3    3    0    0 -0.20851797862E+02  0.73802688505E+00 -0.39977860102E+02  0.45095137832E+02  0.00000000000E+00 0. -1.
</event>
<event>
 7    1  0.2385752E-015  0.9000774E+02  0.7816164E-02  0.1186339E+00
        -11   -1    0    0    0    0  0.00000000000E+00  0.00000000000E+00  0.45593999997E+02  0.45594000000E+02  0.51100000000E-03 0.  1.
         11   -1    0    0    0    0 -0.00000000000E+00 -0.00000000000E+00 -0.45593999997E+02  0.45594000000E+02  0.51100000000E-03 0. -1.
    9900012    2    1    2    0    0  0.21013917494E+00 -0.11202141906E+01 -0.30653977722E+00  0.90007743697E+02  0.90000005114E+02 0.  0.
        -12    1    1    2    0    0 -0.21013917494E+00  0.11202141906E+01  0.30653977722E+00  0.11802563029E+01  0.00000000000E+00 0.  1.
         11    1    3    3    0    0 -0.17200724946E+01 -0.53387450396E+01 -0.41000282798E+01  0.69477392107E+01  0.51100000000E-03 0. -1.
        -11    1    3    3    0    0 -0.37127622644E+02  0.26954190500E+01 -0.14441209315E+02  0.39928363024E+02  0.51100000000E-03 0.  1.
         12    1    3    3    0    0  0.39057834313E+02  0.15231117990E+01  0.18234697817E+02  0.43131641463E+02  0.00000000000E+00 0. -1.
</event>
<event>
 7    1  0.2385752E-015  0.9000789E+02  0.7816164E-02  0.1186339E+00
        -11   -1    0    0    0    0  0.00000000000E+00  0.00000000000E+00  0.45593999997E+02  0.45594000000E+02  0.51100000000E-03 0.  1.
         11   -1    0    0    0    0 -0.00000000000E+00 -0.00000000000E+00 -0.45593999997E+02  0.45594000000E+02  0.51100000000E-03 0. -1.
    9900012    2    1    2    0    0  0.12308166652E+00  0.98241512794E+00  0.64216159745E+00  0.90007889794E+02  0.90000153139E+02 0.  0.
        -12    1    1    2    0    0 -0.12308166652E+00 -0.98241512794E+00 -0.64216159745E+00  0.11801102057E+01  0.00000000000E+00 0.  1.
         11    1    3    3    0    0 -0.27060052401E+01  0.10215164399E+01  0.16330377556E+02  0.16584546771E+02  0.51100000000E-03 0. -1.
        -11    1    3    3    0    0  0.19776493514E+01 -0.31361612399E+02  0.99237381417E+01  0.32953640287E+02  0.51100000000E-03 0.  1.
         12    1    3    3    0    0  0.85143755525E+00  0.31322511087E+02 -0.25611954101E+02  0.40469702736E+02  0.00000000000E+00 0. -1.
</event>
<event>
 7    1  0.2385752E-015  0.9000759E+02  0.7816164E-02  0.1186339E+00
        -11   -1    0    0    0    0  0.00000000000E+00  0.00000000000E+00  0.45593999997E+02  0.45594000000E+02  0.51100000000E-03 0.  1.
         11   -1    0    0    0    0 -0.00000000000E+00 -0.00000000000E+00 -0.45593999997E+02  0.45594000000E+02  0.51100000000E-03 0. -1.
    9900012    2    1    2    0    0 -0.38105601542E+00  0.82974367641E+00 -0.74812864617E+00  0.90007587052E+02  0.89999846401E+02 0.  0.
        -12    1    1    2    0    0  0.38105601542E+00 -0.82974367641E+00  0.74812864617E+00  0.11804129475E+01  0.00000000000E+00 0.  1.
         11    1    3    3    0    0  0.24774858700E+02  0.24249754052E+02 -0.13054111298E+02  0.37043947106E+02  0.51100000000E-03 0. -1.
        -11    1    3    3    0    0 -0.38412056965E+01  0.21072473607E+01 -0.11340788787E+02  0.12157666026E+02  0.51100000000E-03 0.  1.
        -12    1    3    3    0    0 -0.21314709019E+02 -0.25527257736E+02  0.23646771438E+02  0.40805973920E+02  0.00000000000E+00 0.  1.
</event>
<event>
 7    1  0.2385752E-015  0.9000777E+02  0.7816164E-02  0.1186339E+00
        -11   -1    0    0    0    0  0.00000000000E+00  0.00000000000E+00  0.45593999997E+02  0.45594000000E+02  0.51100000000E-03 0. -1.
         11   -1    0    0    0    0 -0.00000000000E+00 -0.00000000000E+00 -0.45593999997E+02  0.45594000000E+02  0.51100000000E-03 0.  1.
    9900012    2    1    2    0    0 -0.24526695387E+00 -0.93651229443E+00  0.67508007855E+00  0.90007769400E+02  0.90000031156E+02 0.  0.
        -12    1    1    2    0    0  0.24526695387E+00  0.93651229443E+00 -0.67508007855E+00  0.11802305998E+01  0.00000000000E+00 0.  1.
         11    1    3    3    0    0  0.32469437856E+01  0.27884172078E+02  0.13787704510E+02  0.31275717296E+02  0.51100000000E-03 0. -1.
        -11    1    3    3    0    0 -0.80632568563E+01  0.92871672215E+01  0.82467262595E+01  0.14807973541E+02  0.51100000000E-03 0.  1.
        -12    1    3    3    0    0  0.45710461168E+01 -0.38107851594E+02 -0.21359350691E+02  0.43924078564E+02  0.00000000000E+00 0.  1.
</event>
<event>
 7    1  0.2385752E-015  0.9000772E+02  0.7816164E-02  0.1186339E+00
        -11   -1    0    0    0    0  0.00000000000E+00  0.00000000000E+00  0.45593999997E+02  0.45594000000E+02  0.51100000000E-03 0. -1.
         11   -1    0    0    0    0 -0.00000000000E+00 -0.00000000000E+00 -0.45593999997E+02  0.45594000000E+02  0.51100000000E-03 0.  1.
    9900012    2    1    2    0    0  0.10047395553E+01 -0.36212970655E+00  0.50241289338E+00  0.90007721129E+02  0.89999982248E+02 0.  0.
        -12    1    1    2    0    0 -0.10047395553E+01  0.36212970655E+00 -0.50241289338E+00  0.11802788712E+01  0.00000000000E+00 0.  1.
         11    1    3    3    0    0  0.10067829694E+02  0.10392455637E+01  0.28877070888E+01  0.10525211569E+02  0.51100000000E-03 0. -1.
        -11    1    3    3    0    0  0.34361061182E+02  0.60370142592E+01 -0.54897188972E+01  0.35316640278E+02  0.51100000000E-03 0.  1.
         12    1    3    3    0    0 -0.43424151320E+02 -0.74383895295E+01  0.31044247017E+01  0.44165869282E+02  0.00000000000E+00 0. -1.
</event>
<event>
 7    1  0.2385752E-015  0.9000758E+02  0.7816164E-02  0.1186339E+00
        -11   -1    0    0    0    0  0.00000000000E+00  0.00000000000E+00  0.45593999997E+02  0.45594000000E+02  0.51100000000E-03 0. -1.
         11   -1    0    0    0    0 -0.00000000000E+00 -0.00000000000E+00 -0.45593999997E+02  0.45594000000E+02  0.51100000000E-03 0.  1.
    9900012    2    1    2    0    0 -0.64120860056E+00 -0.97143564809E+00 -0.19634352233E+00  0.90007582080E+02  0.89999841363E+02 0.  0.
        -12    1    1    2    0    0  0.64120860056E+00  0.97143564809E+00  0.19634352233E+00  0.11804179203E+01  0.00000000000E+00 0.  1.
         11    1    3    3    0    0 -0.79651133849E+01 -0.32733653894E+02  0.14735691030E+02  0.36770582249E+02  0.51100000000E-03 0. -1.
        -11    1    3    3    0    0 -0.54419034681E+01 -0.75024718081E+01  0.18117372598E+00  0.92700712386E+01  0.51100000000E-03 0.  1.
        -12    1    3    3    0    0  0.12765808253E+02  0.39264690054E+02 -0.15113208278E+02  0.43966928593E+02  0.00000000000E+00 0.  1.
</event>
<event>
 7    1  0.2385752E-015  0.9000772E+02  0.7816164E-02  0.1186339E+00
        -11   -1    0    0    0    0  0.00000000000E+00  0.00000000000E+00  0.45593999997E+02  0.45594000000E+02  0.51100000000E-03 0. -1.
         11   -1    0    0    0    0 -0.00000000000E+00 -0.00000000000E+00 -0.45593999997E+02  0.45594000000E+02  0.51100000000E-03 0.  1.
    9900012    2    1    2    0    0 -0.81625308529E+00  0.72465079304E+00 -0.44906879003E+00  0.90007724333E+02  0.89999985495E+02 0.  0.
        -12    1    1    2    0    0  0.81625308529E+00 -0.72465079304E+00  0.44906879003E+00  0.11802756666E+01  0.00000000000E+00 0.  1.
         11    1    3    3    0    0  0.17264423775E+02 -0.25835720089E+02  0.18330995791E+02  0.36077280493E+02  0.51100000000E-03 0. -1.
        -11    1    3    3    0    0 -0.40022646875E+01 -0.62074452877E+01  0.68013416691E+01  0.10040355989E+02  0.51100000000E-03 0.  1.
        -12    1    3    3    0    0 -0.14078412173E+02  0.32767816170E+02 -0.25581406250E+02  0.43890087851E+02  0.00000000000E+00 0.  1.
</event>
<event>
 7    1  0.2385752E-015  0.9000773E+02  0.7816164E-02  0.1186339E+00
        -11   -1    0    0    0    0  0.00000000000E+00  0.00000000000E+00  0.45593999997E+02  0.45594000000E+02  0.51100000000E-03 0. -1.
         11   -1    0    0    0    0 -0.00000000000E+00 -0.00000000000E+00 -0.45593999997E+02  0.45594000000E+02  0.51100000000E-03 0.  1.
    9900012    2    1    2    0    0  0.83701974563E+00 -0.77223075273E+00 -0.30998673116E+00  0.90007731317E+02  0.89999992571E+02 0.  0.
        -12    1    1    2    0    0 -0.83701974563E+00  0.77223075273E+00  0.30998673116E+00  0.11802686828E+01  0.00000000000E+00 0.  1.
         11    1    3    3    0    0 -0.41583023098E+01  0.61818769043E+01 -0.50440426124E+01  0.89971910226E+01  0.51100000000E-03 0. -1.
        -11    1    3    3    0    0 -0.17124963970E+02  0.71304223752E+01 -0.31336216672E+02  0.36415186252E+02  0.51100000000E-03 0.  1.
         12    1    3    3    0    0  0.22120286025E+02 -0.14084530032E+02  0.36070272553E+02  0.44595354042E+02  0.00000000000E+00 0. -1.
</event>
<event>
 7    1  0.2385752E-015  0.9000774E+02  0.7816164E-02  0.1186339E+00
        -11   -1    0    0    0    0  0.00000000000E+00  0.00000000000E+00  0.45593999997E+02  0.45594000000E+02  0.51100000000E-03 0.  1.
         11   -1    0    0    0    0 -0.00000000000E+00 -0.00000000000E+00 -0.45593999997E+02  0.45594000000E+02  0.51100000000E-03 0. -1.
    9900012    2    1    2    0    0  0.38193766500E+00  0.10593252962E+01 -0.35352330253E+00  0.90007735119E+02  0.89999996423E+02 0.  0.
        -12    1    1    2    0    0 -0.38193766500E+00 -0.10593252962E+01  0.35352330253E+00  0.11802648807E+01  0.00000000000E+00 0.  1.
         11    1    3    3    0    0 -0.33541374231E+01 -0.26645644324E+01  0.66035233323E+01  0.78712554354E+01  0.51100000000E-03 0. -1.
        -11    1    3    3    0    0 -0.28207132643E+02  0.32487677736E+01  0.24351633562E+02  0.37405866938E+02  0.51100000000E-03 0.  1.
         12    1    3    3    0    0  0.31943207731E+02  0.47512195501E+00 -0.31308680197E+02  0.44730612746E+02  0.00000000000E+00 0. -1.
</event>
<event>
 7    1  0.2385752E-015  0.9000770E+02  0.7816164E-02  0.1186339E+00
        -11   -1    0    0    0    0  0.00000000000E+00  0.00000000000E+00  0.45593999997E+02  0.45594000000E+02  0.51100000000E-03 0.  1.
         11   -1    0    0    0    0 -0.00000000000E+00 -0.00000000000E+00 -0.45593999997E+02  0.45594000000E+02  0.51100000000E-03 0. -1.
    9900012    2    1    2    0    0  0.75454132321E+00 -0.73556779910E+00 -0.53169899185E+00  0.90007704946E+02  0.89999965852E+02 0.  0.
        -12    1    1    2    0    0 -0.75454132321E+00  0.73556779910E+00  0.53169899185E+00  0.11802950535E+01  0.00000000000E+00 0.  1.
         11    1    3    3    0    0  0.98121170501E+00 -0.12234771157E+01 -0.88183773699E+01  0.89567545664E+01  0.51100000000E-03 0. -1.
        -11    1    3    3    0    0  0.30915717784E+02  0.10914060198E+02  0.27682781475E+02  0.42909610888E+02  0.51100000000E-03 0.  1.
         12    1    3    3    0    0 -0.31142388166E+02 -0.10426150882E+02 -0.19396103097E+02  0.38141339492E+02  0.00000000000E+00 0. -1.
</event>
<event>
 7    1  0.2385752E-015  0.9000776E+02  0.7816164E-02  0.1186339E+00
        -11   -1    0    0    0    0  0.00000000000E+00  0.00000000000E+00  0.45593999997E+02  0.45594000000E+02  0.51100000000E-03 0. -1.
         11   -1    0    0    0    0 -0.00000000000E+00 -0.00000000000E+00 -0.45593999997E+02  0.45594000000E+02  0.51100000000E-03 0.  1.
    9900012    2    1    2    0    0 -0.67088860418E+00 -0.82497690042E+00  0.51213658876E+00  0.90007761765E+02  0.90000023420E+02 0.  0.
        -12    1    1    2    0    0  0.67088860418E+00  0.82497690042E+00 -0.51213658876E+00  0.11802382348E+01  0.00000000000E+00 0.  1.
         11    1    3    3    0    0  0.34058815324E+02 -0.12447360097E+02  0.11842441650E+01  0.36281429260E+02  0.51100000000E-03 0. -1.
        -11    1    3    3    0    0  0.74918335881E+01  0.14455530883E+01 -0.63491367292E+01  0.99261639977E+01  0.51100000000E-03 0.  1.
        -12    1    3    3    0    0 -0.42221537516E+02  0.10176830109E+02  0.56770291529E+01  0.43800168507E+02  0.00000000000E+00 0.  1.
</event>
<event>
 7    1  0.2385752E-015  0.9000812E+02  0.7816164E-02  0.1186338E+00
        -11   -1    0    0    0    0  0.00000000000E+00  0.00000000000E+00  0.45593999997E+02  0.45594000000E+02  0.51100000000E-03 0. -1.
         11   -1    0    0    0    0 -0.00000000000E+00 -0.00000000000E+00 -0.45593999997E+02  0.45594000000E+02  0.51100000000E-03 0.  1.
    9900012    2    1    2    0    0 -0.96126803655E+00  0.65052764786E+00  0.21188058660E+00  0.90008120412E+02  0.90000386801E+02 0.  0.
        -12    1    1    2    0    0  0.96126803655E+00 -0.65052764786E+00 -0.21188058660E+00  0.11798795878E+01  0.00000000000E+00 0.  1.
         11    1    3    3    0    0 -0.77823431402E+01  0.22505662803E+01 -0.10113330329E+02  0.12957984563E+02  0.51100000000E-03 0. -1.
        -11    1    3    3    0    0  0.33210618373E+02 -0.24388444476E+02  0.22791709945E+01  0.41266645337E+02  0.51100000000E-03 0.  1.
         12    1    3    3    0    0 -0.26389543269E+02  0.22788405843E+02  0.80460399211E+01  0.35783490512E+02  0.00000000000E+00 0. -1.
</event>
<event>
 7    1  0.2385752E-015  0.9000778E+02  0.7816164E-02  0.1186339E+00
        -11   -1    0    0    0    0  0.00000000000E+00  0.00000000000E+00  0.45593999997E+02  0.45594000000E+02  0.51100000000E-03 0.  1.
         11   -1    0    0    0    0 -0.00000000000E+00 -0.00000000000E+00 -0.45593999997E+02  0.45594000000E+02  0.51100000000E-03 0. -1.
    9900012    2    1    2    0    0  0.70622183947E+00 -0.18777996342E+00 -0.92676932208E+00  0.90007783080E+02  0.90000045017E+02 0.  0.
        -12    1    1    2    0    0 -0.70622183947E+00  0.18777996342E+00  0.92676932208E+00  0.11802169197E+01  0.00000000000E+00 0.  1.
         11    1    3    3    0    0  0.28402938990E+02  0.25341006795E+02  0.89170894769E+01  0.39094859683E+02  0.51100000000E-03 0. -1.
        -11    1    3    3    0    0  0.68620093423E+01 -0.86583620903E+00  0.12554215488E+01  0.70294329843E+01  0.51100000000E-03 0.  1.
        -12    1    3    3    0    0 -0.34558726492E+02 -0.24662950549E+02 -0.11099280348E+02  0.43883490413E+02  0.00000000000E+00 0.  1.
</event>
<event>
 7    1  0.2385752E-015  0.9000777E+02  0.7816164E-02  0.1186339E+00
        -11   -1    0    0    0    0  0.00000000000E+00  0.00000000000E+00  0.45593999997E+02  0.45594000000E+02  0.51100000000E-03 0.  1.
         11   -1    0    0    0    0 -0.00000000000E+00 -0.00000000000E+00 -0.45593999997E+02  0.45594000000E+02  0.51100000000E-03 0. -1.
    9900012    2    1    2    0    0 -0.26294889618E+00  0.11503791694E+01  0.20612069380E-01  0.90007771542E+02  0.90000033327E+02 0.  0.
        -12    1    1    2    0    0  0.26294889618E+00 -0.11503791694E+01 -0.20612069380E-01  0.11802284578E+01  0.00000000000E+00 0.  1.
         11    1    3    3    0    0  0.31549622705E+01 -0.29468662206E+02 -0.18363722808E+02  0.34865199766E+02  0.51100000000E-03 0. -1.
        -11    1    3    3    0    0  0.54433767656E+00 -0.95717037661E+01 -0.21664248275E+01  0.98288968499E+01  0.51100000000E-03 0.  1.
        -12    1    3    3    0    0 -0.39622488432E+01  0.40190745141E+02  0.20550759704E+02  0.45313674926E+02  0.00000000000E+00 0.  1.
</event>
<event>
 7    1  0.2385752E-015  0.9000762E+02  0.7816164E-02  0.1186339E+00
        -11   -1    0    0    0    0  0.00000000000E+00  0.00000000000E+00  0.45593999997E+02  0.45594000000E+02  0.51100000000E-03 0. -1.
         11   -1    0    0    0    0 -0.00000000000E+00 -0.00000000000E+00 -0.45593999997E+02  0.45594000000E+02  0.51100000000E-03 0.  1.
    9900012    2    1    2    0    0 -0.18352789529E+00 -0.32103851037E+00  0.11209615963E+01  0.90007617387E+02  0.89999877136E+02 0.  0.
        -12    1    1    2    0    0  0.18352789529E+00  0.32103851037E+00 -0.11209615963E+01  0.11803826133E+01  0.00000000000E+00 0.  1.
         11    1    3    3    0    0 -0.18720883737E+00  0.41434141266E+00  0.11130754900E+02  0.11140037291E+02  0.51100000000E-03 0. -1.
        -11    1    3    3    0    0  0.26461046182E+02  0.22417130777E+02 -0.22746535999E+02  0.41474324799E+02  0.51100000000E-03 0.  1.
         12    1    3    3    0    0 -0.26457365240E+02 -0.23152510700E+02  0.12736742696E+02  0.37393255296E+02  0.00000000000E+00 0. -1.
</event>
<event>
 7    1  0.2385752E-015  0.9000772E+02  0.7816164E-02  0.1186339E+00
        -11   -1    0    0    0    0  0.00000000000E+00  0.00000000000E+00  0.45593999997E+02  0.45594000000E+02  0.51100000000E-03 0. -1.
         11   -1    0    0    0    0 -0.00000000000E+00 -0.00000000000E+00 -0.45593999997E+02  0.45594000000E+02  0.51100000000E-03 0.  1.
    9900012    2    1    2    0    0  0.62055335899E-01 -0.10077575679E+01 -0.61126425938E+00  0.90007716062E+02  0.89999977114E+02 0.  0.
        -12    1    1    2    0    0 -0.62055335899E-01  0.10077575679E+01  0.61126425938E+00  0.11802839384E+01  0.00000000000E+00 0.  1.
         11    1    3    3    0    0 -0.19992192252E+02 -0.13866146573E+02  0.29308960493E+02  0.38091638679E+02  0.51100000000E-03 0. -1.
        -11    1    3    3    0    0 -0.40595975803E+01  0.85466784164E+01  0.38345705916E+01  0.10209308319E+02  0.51100000000E-03 0.  1.
        -12    1    3    3    0    0  0.24113845168E+02  0.43117105887E+01 -0.33754795344E+02  0.41706769063E+02  0.00000000000E+00 0.  1.
</event>
<event>
 7    1  0.2385752E-015  0.9000758E+02  0.7816164E-02  0.1186339E+00
        -11   -1    0    0    0    0  0.00000000000E+00  0.00000000000E+00  0.45593999997E+02  0.45594000000E+02  0.51100000000E-03 0.  1.
         11   -1    0    0    0    0 -0.00000000000E+00 -0.00000000000E+00 -0.45593999997E+02  0.45594000000E+02  0.51100000000E-03 0. -1.
    9900012    2    1    2    0    0  0.10024301593E+01 -0.44890395441E+00 -0.43244659228E+00  0.90007580143E+02  0.89999839400E+02 0.  0.
        -12    1    1    2    0    0 -0.10024301593E+01  0.44890395441E+00  0.43244659228E+00  0.11804198574E+01  0.00000000000E+00 0.  1.
         11    1    3    3    0    0 -0.80499346214E+01 -0.84083748878E+01 -0.15127191322E+01  0.11738421320E+02  0.51100000000E-03 0. -1.
        -11    1    3    3    0    0 -0.18111842128E+02 -0.18996320279E+02  0.22361581055E+02  0.34480999361E+02  0.51100000000E-03 0.  1.
         12    1    3    3    0    0  0.27164206909E+02  0.26955791212E+02 -0.21281308515E+02  0.43788159461E+02  0.00000000000E+00 0. -1.
</event>
<event>
 7    1  0.2576983E-015  0.9000790E+02  0.7816164E-02  0.1186339E+00
        -11   -1    0    0    0    0  0.00000000000E+00  0.00000000000E+00  0.45593999997E+02  0.45594000000E+02  0.51100000000E-03 0. -1.
         11   -1    0    0    0    0 -0.00000000000E+00 -0.00000000000E+00 -0.45593999997E+02  0.45594000000E+02  0.51100000000E-03 0.  1.
    9900012    2    1    2    0    0  0.84449859403E+00 -0.51172969950E+00  0.64620452978E+00  0.90007904472E+02  0.90000168011E+02 0.  0.
        -12    1    1    2    0    0 -0.84449859403E+00  0.51172969950E+00 -0.64620452978E+00  0.11800955279E+01  0.00000000000E+00 0.  1.
         11    1    3    3    0    0  0.30272063550E+02  0.78216273106E+01  0.23186600891E+02  0.38925494814E+02  0.51100000000E-03 0. -1.
        -11    1    3    3    0    0 -0.47617300810E+01  0.63008429571E+00  0.89089901023E+01  0.10121323258E+02  0.51100000000E-03 0.  1.
        -12    1    3    3    0    0 -0.24665834876E+02 -0.89634413058E+01 -0.31449386464E+02  0.40961086400E+02  0.00000000000E+00 0.  1.
</event>
<event>
 7    1  0.2385752E-015  0.9000776E+02  0.7816164E-02  0.1186339E+00
        -11   -1    0    0    0    0  0.00000000000E+00  0.00000000000E+00  0.45593999997E+02  0.45594000000E+02  0.51100000000E-03 0. -1.
         11   -1    0    0    0    0 -0.00000000000E+00 -0.00000000000E+00 -0.45593999997E+02  0.45594000000E+02  0.51100000000E-03 0.  1.
    9900012    2    1    2    0    0 -0.34471976944E+00 -0.99094739211E+00  0.54050953784E+00  0.90007763153E+02  0.90000024827E+02 0.  0.
        -12    1    1    2    0    0  0.34471976944E+00  0.99094739211E+00 -0.54050953784E+00  0.11802368465E+01  0.00000000000E+00 0.  1.
         11    1    3    3    0    0 -0.49547543271E+01  0.47125963091E+01 -0.58480216949E+01  0.89976392693E+01  0.51100000000E-03 0. -1.
        -11    1    3    3    0    0  0.39130799007E+02 -0.77607638997E+01 -0.12241817747E+02  0.41729018551E+02  0.51100000000E-03 0.  1.
         12    1    3    3    0    0 -0.34520764449E+02  0.20572201985E+01  0.18630348980E+02  0.39281105333E+02  0.00000000000E+00 0. -1.
</event>
<event>
 7    1  0.2385752E-015  0.9000764E+02  0.7816164E-02  0.1186339E+00
        -11   -1    0    0    0    0  0.00000000000E+00  0.00000000000E+00  0.45593999997E+02  0.45594000000E+02  0.51100000000E-03 0.  1.
         11   -1    0    0    0    0 -0.00000000000E+00 -0.00000000000E+00 -0.45593999997E+02  0.45594000000E+02  0.51100000000E-03 0. -1.
    9900012    2    1    2    0    0 -0.53236255131E+00 -0.11838618188E+00 -0.10468207264E+01  0.90007636155E+02  0.89999896152E+02 0.  0.
        -12    1    1    2    0    0  0.53236255131E+00  0.11838618188E+00  0.10468207264E+01  0.11803638453E+01  0.00000000000E+00 0.  1.
         11    1    3    3    0    0  0.40396446449E+00 -0.93191908423E+01  0.76156290704E+00  0.93589787673E+01  0.51100000000E-03 0. -1.
        -11    1    3    3    0    0  0.13788343097E+02 -0.19748439939E+02  0.27741821500E+02  0.36738643766E+02  0.51100000000E-03 0.  1.
         12    1    3    3    0    0 -0.14724670113E+02  0.28949244599E+02 -0.29550205133E+02  0.43910013621E+02  0.00000000000E+00 0. -1.
</event>
<event>
 7    1  0.2385752E-015  0.9000773E+02  0.7816164E-02  0.1186339E+00
        -11   -1    0    0    0    0  0.00000000000E+00  0.00000000000E+00  0.45593999997E+02  0.45594000000E+02  0.51100000000E-03 0.  1.
         11   -1    0    0    0    0 -0.00000000000E+00 -0.00000000000E+00 -0.45593999997E+02  0.45594000000E+02  0.51100000000E-03 0. -1.
    9900012    2    1    2    0    0  0.21741846539E+00  0.40719688760E+00 -0.10862556866E+01  0.90007732441E+02  0.89999993709E+02 0.  0.
        -12    1    1    2    0    0 -0.21741846539E+00 -0.40719688760E+00  0.10862556866E+01  0.11802675591E+01  0.00000000000E+00 0.  1.
         11    1    3    3    0    0  0.90056454093E+01  0.24821496216E+01  0.40329951936E+01  0.10174859531E+02  0.51100000000E-03 0. -1.
        -11    1    3    3    0    0  0.27573867591E+02 -0.72010708677E+01  0.20458204879E+02  0.35081501432E+02  0.51100000000E-03 0.  1.
         12    1    3    3    0    0 -0.36362094535E+02  0.51261181337E+01 -0.25577455759E+02  0.44751371478E+02  0.00000000000E+00 0. -1.
</event>
<event>
 7    1  0.2385752E-015  0.9000773E+02  0.7816164E-02  0.1186339E+00
        -11   -1    0    0    0    0  0.00000000000E+00  0.00000000000E+00  0.45593999997E+02  0.45594000000E+02  0.51100000000E-03 0.  1.
         11   -1    0    0    0    0 -0.00000000000E+00 -0.00000000000E+00 -0.45593999997E+02  0.45594000000E+02  0.51100000000E-03 0. -1.
    9900012    2    1    2    0    0  0.87306056585E+00  0.48375163362E+00 -0.62991430638E+00  0.90007727816E+02  0.89999989023E+02 0.  0.
        -12    1    1    2    0    0 -0.87306056585E+00 -0.48375163362E+00  0.62991430638E+00  0.11802721839E+01  0.00000000000E+00 0.  1.
         11    1    3    3    0    0 -0.84887776687E+01 -0.89370596503E+00 -0.72088601320E+01  0.11172543190E+02  0.51100000000E-03 0. -1.
        -11    1    3    3    0    0  0.60968509421E+01  0.34414640704E+02  0.22958048586E+02  0.41816397278E+02  0.51100000000E-03 0.  1.
         12    1    3    3    0    0  0.32649872925E+01 -0.33037183105E+02 -0.16379102760E+02  0.37018787349E+02  0.00000000000E+00 0. -1.
</event>
<event>
 7    1  0.2385752E-015  0.9000779E+02  0.7816164E-02  0.1186339E+00
        -11   -1    0    0    0    0  0.00000000000E+00  0.00000000000E+00  0.45593999997E+02  0.45594000000E+02  0.51100000000E-03 0. -1.
         11   -1    0    0    0    0 -0.00000000000E+00 -0.00000000000E+00 -0.45593999997E+02  0.45594000000E+02  0.51100000000E-03 0.  1.
    9900012    2    1    2    0    0  0.10023768732E+01 -0.47823498729E+00  0.39929250927E+00  0.90007787050E+02  0.90000049039E+02 0.  0.
        -12    1    1    2    0    0 -0.10023768732E+01  0.47823498729E+00 -0.39929250927E+00  0.11802129499E+01  0.00000000000E+00 0.  1.
         11    1    3    3    0    0  0.12896763615E+02  0.71310695624E+01 -0.39434552638E+00  0.14742258087E+02  0.51100000000E-03 0. -1.
        -11    1    3    3    0    0 -0.29446952228E+01  0.24879653264E+02 -0.23002575876E+02  0.34011569703E+02  0.51100000000E-03 0.  1.
        -12    1    3    3    0    0 -0.89496915186E+01 -0.32488957814E+02  0.23796213912E+02  0.41253959260E+02  0.00000000000E+00 0.  1.
</event>
<event>
 7    1  0.2385752E-015  0.9000764E+02  0.7816164E-02  0.1186339E+00
        -11   -1    0    0    0    0  0.00000000000E+00  0.00000000000E+00  0.45593999997E+02  0.45594000000E+02  0.51100000000E-03 0.  1.
         11   -1    0    0    0    0 -0.00000000000E+00 -0.00000000000E+00 -0.45593999997E+02  0.45594000000E+02  0.51100000000E-03 0. -1.
    9900012    2    1    2    0    0  0.53890023247E+00 -0.94878547322E+00 -0.45015324216E+00  0.90007641886E+02  0.89999901959E+02 0.  0.
        -12    1    1    2    0    0 -0.53890023247E+00  0.94878547322E+00  0.45015324216E+00  0.11803581135E+01  0.00000000000E+00 0.  1.
         11    1    3    3    0    0 -0.16838455787E+02  0.25457497323E+02 -0.18894468519E+02  0.35897335613E+02  0.51100000000E-03 0. -1.
        -11    1    3    3    0    0 -0.46776108917E+01  0.83429130442E+01  0.18968505661E+01  0.97510145138E+01  0.51100000000E-03 0.  1.
        -12    1    3    3    0    0  0.22054966911E+02 -0.34749195841E+02  0.16547464711E+02  0.44359291759E+02  0.00000000000E+00 0.  1.
</event>
<event>
 7    1  0.2385752E-015  0.9000778E+02  0.7816164E-02  0.1186339E+00
        -11   -1    0    0    0    0  0.00000000000E+00  0.00000000000E+00  0.45593999997E+02  0.45594000000E+02  0.51100000000E-03 0.  1.
         11   -1    0    0    0    0 -0.00000000000E+00 -0.00000000000E+00 -0.45593999997E+02  0.45594000000E+02  0.51100000000E-03 0. -1.
    9900012    2    1    2    0    0  0.78639327302E+00 -0.24795679379E+00 -0.84440284063E+00  0.90007782601E+02  0.90000044531E+02 0.  0.
        -12    1    1    2    0    0 -0.78639327302E+00  0.24795679379E+00  0.84440284063E+00  0.11802173989E+01  0.00000000000E+00 0.  1.
         11    1    3    3    0    0 -0.90765871774E+01  0.31567260905E+01 -0.31466829239E+01  0.10111922077E+02  0.51100000000E-03 0. -1.
        -11    1    3    3    0    0  0.89397496638E+01 -0.20711153945E+02  0.35722634853E+02  0.42248995999E+02  0.51100000000E-03 0.  1.
         12    1    3    3    0    0  0.92323078658E+00  0.17306471061E+02 -0.33420354770E+02  0.37646864526E+02  0.00000000000E+00 0. -1.
</event>
<event>
 7    1  0.2385752E-015  0.9000778E+02  0.7816164E-02  0.1186339E+00
        -11   -1    0    0    0    0  0.00000000000E+00  0.00000000000E+00  0.45593999997E+02  0.45594000000E+02  0.51100000000E-03 0. -1.
         11   -1    0    0    0    0 -0.00000000000E+00 -0.00000000000E+00 -0.45593999997E+02  0.45594000000E+02  0.51100000000E-03 0.  1.
    9900012    2    1    2    0    0  0.13172256732E+00 -0.74521566359E+00  0.90566333030E+00  0.90007778289E+02  0.90000040162E+02 0.  0.
        -12    1    1    2    0    0 -0.13172256732E+00  0.74521566359E+00 -0.90566333030E+00  0.11802217113E+01  0.00000000000E+00 0.  1.
         11    1    3    3    0    0 -0.87694671517E+00 -0.86099239178E+00  0.90556027769E+01  0.91386150676E+01  0.51100000000E-03 0. -1.
        -11    1    3    3    0    0 -0.14751144115E+02 -0.30255405825E+02  0.17658471043E+02  0.38010622649E+02  0.51100000000E-03 0.  1.
         12    1    3    3    0    0  0.15759813397E+02  0.30371182553E+02 -0.25808410490E+02  0.42858540572E+02  0.00000000000E+00 0. -1.
</event>
<event>
 7    1  0.2385752E-015  0.9000781E+02  0.7816164E-02  0.1186339E+00
        -11   -1    0    0    0    0  0.00000000000E+00  0.00000000000E+00  0.45593999997E+02  0.45594000000E+02  0.51100000000E-03 0.  1.
         11   -1    0    0    0    0 -0.00000000000E+00 -0.00000000000E+00 -0.45593999997E+02  0.45594000000E+02  0.51100000000E-03 0. -1.
    9900012    2    1    2    0    0 -0.84722091745E+00 -0.26889256655E+00 -0.77638123771E+00  0.90007807507E+02  0.90000069766E+02 0.  0.
        -12    1    1    2    0    0  0.84722091745E+00  0.26889256655E+00  0.77638123771E+00  0.11801924934E+01  0.00000000000E+00 0.  1.
         11    1    3    3    0    0  0.19146407580E+01 -0.28809249813E+02 -0.23641571636E+02  0.37317055534E+02  0.51100000000E-03 0. -1.
        -11    1    3    3    0    0  0.59407370340E+01 -0.74478988582E+01  0.73414978214E+00  0.95552357414E+01  0.51100000000E-03 0.  1.
        -12    1    3    3    0    0 -0.87025987095E+01  0.35988256105E+02  0.22131040616E+02  0.43135516231E+02  0.00000000000E+00 0.  1.
</event>
<event>
 7    1  0.2385752E-015  0.9000762E+02  0.7816164E-02  0.1186339E+00
        -11   -1    0    0    0    0  0.00000000000E+00  0.00000000000E+00  0.45593999997E+02  0.45594000000E+02  0.51100000000E-03 0. -1.
         11   -1    0    0    0    0 -0.00000000000E+00 -0.00000000000E+00 -0.45593999997E+02  0.45594000000E+02  0.51100000000E-03 0.  1.
    9900012    2    1    2    0    0 -0.89563481808E+00  0.10181847499E+00  0.76208892588E+00  0.90007615207E+02  0.89999874927E+02 0.  0.
        -12    1    1    2    0    0  0.89563481808E+00 -0.10181847499E+00 -0.76208892588E+00  0.11803847933E+01  0.00000000000E+00 0.  1.
         11    1    3    3    0    0 -0.13901507682E+02 -0.12208377053E+02  0.30424897029E+02  0.35608576854E+02  0.51100000000E-03 0. -1.
        -11    1    3    3    0    0 -0.16377367513E+01 -0.11672850129E+01  0.99055140535E+01  0.10107618161E+02  0.51100000000E-03 0.  1.
        -12    1    3    3    0    0  0.14643609615E+02  0.13477480541E+02 -0.39568322157E+02  0.44291420191E+02  0.00000000000E+00 0.  1.
</event>
<event>
 7    1  0.2385752E-015  0.9000770E+02  0.7816164E-02  0.1186339E+00
        -11   -1    0    0    0    0  0.00000000000E+00  0.00000000000E+00  0.45593999997E+02  0.45594000000E+02  0.51100000000E-03 0. -1.
         11   -1    0    0    0    0 -0.00000000000E+00 -0.00000000000E+00 -0.45593999997E+02  0.45594000000E+02  0.51100000000E-03 0.  1.
    9900012    2    1    2    0    0  0.63339965180E+00 -0.56962711695E+00  0.81696396747E+00  0.90007703302E+02  0.89999964186E+02 0.  0.
        -12    1    1    2    0    0 -0.63339965180E+00  0.56962711695E+00 -0.81696396747E+00  0.11802966980E+01  0.00000000000E+00 0.  1.
         11    1    3    3    0    0 -0.67286716812E+01 -0.34831776772E+02  0.12538289912E+02  0.37626272867E+02  0.51100000000E-03 0. -1.
        -11    1    3    3    0    0 -0.96467498497E+01 -0.12959999048E+01  0.31834382933E+01  0.10240785031E+02  0.51100000000E-03 0.  1.
        -12    1    3    3    0    0  0.17008821183E+02  0.35558149560E+02 -0.14904764238E+02  0.42140645405E+02  0.00000000000E+00 0.  1.
</event>
<event>
 7    1  0.2385752E-015  0.9000772E+02  0.7816164E-02  0.1186339E+00
        -11   -1    0    0    0    0  0.00000000000E+00  0.00000000000E+00  0.45593999997E+02  0.45594000000E+02  0.51100000000E-03 0.  1.
         11   -1    0    0    0    0 -0.00000000000E+00 -0.00000000000E+00 -0.45593999997E+02  0.45594000000E+02  0.51100000000E-03 0. -1.
    9900012    2    1    2    0    0  0.10523157191E+01  0.26238652002E+00 -0.46566401951E+00  0.90007721203E+02  0.89999982323E+02 0.  0.
        -12    1    1    2    0    0 -0.10523157191E+01 -0.26238652002E+00  0.46566401951E+00  0.11802787966E+01  0.00000000000E+00 0.  1.
         11    1    3    3    0    0  0.69765093133E+01 -0.15626638873E+02 -0.12013938043E+02  0.20909285789E+02  0.51100000000E-03 0. -1.
        -11    1    3    3    0    0  0.84348728590E+01 -0.86894943583E+01  0.31889816479E+02  0.34111798365E+02  0.51100000000E-03 0.  1.
         12    1    3    3    0    0 -0.14359066453E+02  0.24578519751E+02 -0.20341542456E+02  0.34986637050E+02  0.00000000000E+00 0. -1.
</event>
<event>
 7    1  0.2385752E-015  0.9000788E+02  0.7816164E-02  0.1186339E+00
        -11   -1    0    0    0    0  0.00000000000E+00  0.00000000000E+00  0.45593999997E+02  0.45594000000E+02  0.51100000000E-03 0. -1.
         11   -1    0    0    0    0 -0.00000000000E+00 -0.00000000000E+00 -0.45593999997E+02  0.45594000000E+02  0.51100000000E-03 0.  1.
    9900012    2    1    2    0    0  0.55695982320E+00 -0.98356291276E+00 -0.33924759438E+00  0.90007877473E+02  0.90000140656E+02 0.  0.
        -12    1    1    2    0    0 -0.55695982320E+00  0.98356291276E+00  0.33924759438E+00  0.11801225268E+01  0.00000000000E+00 0.  1.
         11    1    3    3    0    0  0.26404973715E+02  0.17453241440E+02  0.26815414245E+02  0.41483788581E+02  0.51100000000E-03 0. -1.
        -11    1    3    3    0    0  0.88577518290E+00 -0.12121397128E+02 -0.46497233229E+01  0.13012793445E+02  0.51100000000E-03 0.  1.
        -12    1    3    3    0    0 -0.26733789074E+02 -0.63154072252E+01 -0.22504938516E+02  0.35511295447E+02  0.00000000000E+00 0.  1.
</event>
<event>
 7    1  0.2385752E-015  0.9000773E+02  0.7816164E-02  0.1186339E+00
        -11   -1    0    0    0    0  0.00000000000E+00  0.00000000000E+00  0.45593999997E+02  0.45594000000E+02  0.51100000000E-03 0. -1.
         11   -1    0    0    0    0 -0.00000000000E+00 -0.00000000000E+00 -0.45593999997E+02  0.45594000000E+02  0.51100000000E-03 0.  1.
    9900012    2    1    2    0    0  0.40073803602E+00  0.62984516857E+00  0.91419171027E+00  0.90007727831E+02  0.89999989038E+02 0.  0.
        -12    1    1    2    0    0 -0.40073803602E+00 -0.62984516857E+00 -0.91419171027E+00  0.11802721690E+01  0.00000000000E+00 0.  1.
         11    1    3    3    0    0 -0.88346034076E+00 -0.29506520267E+01 -0.99180373148E+01  0.10385293159E+02  0.51100000000E-03 0. -1.
        -11    1    3    3    0    0  0.38212191226E+02 -0.67963983968E+01 -0.28025247596E+01  0.38912937884E+02  0.51100000000E-03 0.  1.
         12    1    3    3    0    0 -0.36927992849E+02  0.10376895592E+02  0.13634753785E+02  0.40709496788E+02  0.00000000000E+00 0. -1.
</event>
<event>
 7    1  0.2385752E-015  0.9000758E+02  0.7816164E-02  0.1186339E+00
        -11   -1    0    0    0    0  0.00000000000E+00  0.00000000000E+00  0.45593999997E+02  0.45594000000E+02  0.51100000000E-03 0.  1.
         11   -1    0    0    0    0 -0.00000000000E+00 -0.00000000000E+00 -0.45593999997E+02  0.45594000000E+02  0.51100000000E-03 0. -1.
    9900012    2    1    2    0    0 -0.10400820173E+01  0.45052101089E+00 -0.32961839634E+00  0.90007581400E+02  0.89999840674E+02 0.  0.
        -12    1    1    2    0    0  0.10400820173E+01 -0.45052101089E+00  0.32961839634E+00  0.11804186000E+01  0.00000000000E+00 0.  1.
         11    1    3    3    0    0  0.12343627118E+00 -0.27116559580E+02  0.23243705279E+02  0.35715443093E+02  0.51100000000E-03 0. -1.
        -11    1    3    3    0    0 -0.29562184612E+01 -0.64371650744E+01  0.59293491804E+01  0.92376135311E+01  0.51100000000E-03 0.  1.
        -12    1    3    3    0    0  0.17927001727E+01  0.34004245665E+02 -0.29502672856E+02  0.45054524776E+02  0.00000000000E+00 0.  1.
</event>
<event>
 7    1  0.2385752E-015  0.9000776E+02  0.7816164E-02  0.1186339E+00
        -11   -1    0    0    0    0  0.00000000000E+00  0.00000000000E+00  0.45593999997E+02  0.45594000000E+02  0.51100000000E-03 0.  1.
         11   -1    0    0    0    0 -0.00000000000E+00 -0.00000000000E+00 -0.45593999997E+02  0.45594000000E+02  0.51100000000E-03 0. -1.
    9900012    2    1    2    0    0 -0.24219041698E+00  0.10312626006E+01  0.52039682523E+00  0.90007757819E+02  0.90000019423E+02 0.  0.
        -12    1    1    2    0    0  0.24219041698E+00 -0.10312626006E+01 -0.52039682523E+00  0.11802421807E+01  0.00000000000E+00 0.  1.
         11    1    3    3    0    0 -0.40038437072E+01 -0.14005842924E+02 -0.46734729044E+01  0.15298227011E+02  0.51100000000E-03 0. -1.
        -11    1    3    3    0    0 -0.83446153341E+01 -0.19263117954E+02 -0.21148499647E+02  0.29798646882E+02  0.51100000000E-03 0.  1.
         12    1    3    3    0    0  0.12106268624E+02  0.34300223479E+02  0.26342369377E+02  0.44910883927E+02  0.00000000000E+00 0. -1.
</event>
<event>
 7    1  0.2385752E-015  0.9000768E+02  0.7816164E-02  0.1186339E+00
        -11   -1    0    0    0    0  0.00000000000E+00  0.00000000000E+00  0.45593999997E+02  0.45594000000E+02  0.51100000000E-03 0.  1.
         11   -1    0    0    0    0 -0.00000000000E+00 -0.00000000000E+00 -0.45593999997E+02  0.45594000000E+02  0.51100000000E-03 0. -1.
    9900012    2    1    2    0    0  0.10503431567E+01  0.37315247486E+00 -0.38818294204E+00  0.90007682453E+02  0.89999943061E+02 0.  0.
        -12    1    1    2    0    0 -0.10503431567E+01 -0.37315247486E+00  0.38818294204E+00  0.11803175475E+01  0.00000000000E+00 0.  1.
         11    1    3    3    0    0  0.97361200509E+00  0.55182390355E+01  0.13006163918E+02  0.14161891912E+02  0.51100000000E-03 0. -1.
        -11    1    3    3    0    0 -0.24505319136E+02 -0.34359526405E+01  0.21735397140E+02  0.32935450894E+02  0.51100000000E-03 0.  1.
         12    1    3    3    0    0  0.24582050288E+02 -0.17091339201E+01 -0.35129744000E+02  0.42910339647E+02  0.00000000000E+00 0. -1.
</event>
<event>
 7    1  0.2385752E-015  0.9000781E+02  0.7816164E-02  0.1186339E+00
        -11   -1    0    0    0    0  0.00000000000E+00  0.00000000000E+00  0.45593999997E+02  0.45594000000E+02  0.51100000000E-03 0.  1.
         11   -1    0    0    0    0 -0.00000000000E+00 -0.00000000000E+00 -0.45593999997E+02  0.45594000000E+02  0.51100000000E-03 0. -1.
    9900012    2    1    2    0    0 -0.67777602448E+00 -0.95652838305E+00  0.13605320706E+00  0.90007814692E+02  0.90000077046E+02 0.  0.
        -12    1    1    2    0    0  0.67777602448E+00  0.95652838305E+00 -0.13605320706E+00  0.11801853084E+01  0.00000000000E+00 0.  1.
         11    1    3    3    0    0 -0.34310939359E+02  0.93366126938E+01 -0.18466521230E+02  0.40067758895E+02  0.51100000000E-03 0. -1.
        -11    1    3    3    0    0  0.29093553799E+01 -0.80839382466E+01 -0.60321349662E+01  0.10497669209E+02  0.51100000000E-03 0.  1.
        -12    1    3    3    0    0  0.30723807955E+02 -0.22092028302E+01  0.24634709403E+02  0.39442386588E+02  0.00000000000E+00 0.  1.
</event>
<event>
 7    1  0.2385752E-015  0.9000776E+02  0.7816164E-02  0.1186339E+00
        -11   -1    0    0    0    0  0.00000000000E+00  0.00000000000E+00  0.45593999997E+02  0.45594000000E+02  0.51100000000E-03 0.  1.
         11   -1    0    0    0    0 -0.00000000000E+00 -0.00000000000E+00 -0.45593999997E+02  0.45594000000E+02  0.51100000000E-03 0. -1.
    9900012    2    1    2    0    0  0.15871939855E-02  0.28836431242E+00 -0.11444708422E+01  0.90007758497E+02  0.90000020110E+02 0.  0.
        -12    1    1    2    0    0 -0.15871939855E-02 -0.28836431242E+00  0.11444708422E+01  0.11802415026E+01  0.00000000000E+00 0.  1.
         11    1    3    3    0    0  0.10641060107E+02  0.51978596615E+01 -0.12579301900E+02  0.17276826729E+02  0.51100000000E-03 0. -1.
        -11    1    3    3    0    0  0.25779311179E+02  0.14010947111E+02  0.11966401923E+02  0.31687131443E+02  0.51100000000E-03 0.  1.
         12    1    3    3    0    0 -0.36418784092E+02 -0.18920442460E+02 -0.53157086512E+00  0.41043800326E+02  0.00000000000E+00 0. -1.
</event>
<event>
 7    1  0.2385752E-015  0.9000777E+02  0.7816164E-02  0.1186339E+00
        -11   -1    0    0    0    0  0.00000000000E+00  0.00000000000E+00  0.45593999997E+02  0.45594000000E+02  0.51100000000E-03 0.  1.
         11   -1    0    0    0    0 -0.00000000000E+00 -0.00000000000E+00 -0.45593999997E+02  0.45594000000E+02  0.51100000000E-03 0. -1.
    9900012    2    1    2    0    0  0.34353880307E+00  0.11119252765E+01 -0.19633525315E+00  0.90007769403E+02  0.90000031159E+02 0.  0.
        -12    1    1    2    0    0 -0.34353880307E+00 -0.11119252765E+01  0.19633525315E+00  0.11802305967E+01  0.00000000000E+00 0.  1.
         11    1    3    3    0    0 -0.79684307284E+01 -0.28133428725E+02 -0.21027663325E+02  0.36015945431E+02  0.51100000000E-03 0. -1.
        -11    1    3    3    0    0 -0.16470356811E+00 -0.43949680592E+01 -0.78374385532E+01  0.89871193851E+01  0.51100000000E-03 0.  1.
        -12    1    3    3    0    0  0.84766730995E+01  0.33640322061E+02  0.28668766625E+02  0.45004704587E+02  0.00000000000E+00 0.  1.
</event>
<event>
 7    1  0.2385752E-015  0.9000766E+02  0.7816164E-02  0.1186339E+00
        -11   -1    0    0    0    0  0.00000000000E+00  0.00000000000E+00  0.45593999997E+02  0.45594000000E+02  0.51100000000E-03 0. -1.
         11   -1    0    0    0    0 -0.00000000000E+00 -0.00000000000E+00 -0.45593999997E+02  0.45594000000E+02  0.51100000000E-03 0.  1.
    9900012    2    1    2    0    0 -0.11071293756E+00  0.11639253682E+01 -0.16191976042E+00  0.90007662071E+02  0.89999922411E+02 0.  0.
        -12    1    1    2    0    0  0.11071293756E+00 -0.11639253682E+01  0.16191976042E+00  0.11803379288E+01  0.00000000000E+00 0.  1.
         11    1    3    3    0    0 -0.33236008894E+01 -0.32552315439E+02  0.13271623565E+02  0.35310558699E+02  0.51100000000E-03 0. -1.
        -11    1    3    3    0    0 -0.36234350561E+01 -0.85884180086E+01 -0.63080051287E+01  0.11255271408E+02  0.51100000000E-03 0.  1.
        -12    1    3    3    0    0  0.68363230078E+01  0.42304658816E+02 -0.71255381971E+01  0.43441831964E+02  0.00000000000E+00 0.  1.
</event>
<event>
 7    1  0.2385752E-015  0.9000780E+02  0.7816164E-02  0.1186339E+00
        -11   -1    0    0    0    0  0.00000000000E+00  0.00000000000E+00  0.45593999997E+02  0.45594000000E+02  0.51100000000E-03 0.  1.
         11   -1    0    0    0    0 -0.00000000000E+00 -0.00000000000E+00 -0.45593999997E+02  0.45594000000E+02  0.51100000000E-03 0. -1.
    9900012    2    1    2    0    0  0.16675704018E+00  0.10923171744E+01 -0.41462056940E+00  0.90007798773E+02  0.90000060917E+02 0.  0.
        -12    1    1    2    0    0 -0.16675704018E+00 -0.10923171744E+01  0.41462056940E+00  0.11802012272E+01  0.00000000000E+00 0.  1.
         11    1    3    3    0    0  0.32229526981E+02 -0.10001848028E+02 -0.58394495222E+01  0.34247314411E+02  0.51100000000E-03 0. -1.
        -11    1    3    3    0    0  0.59299924395E+01  0.66855155287E+01 -0.10968115265E+02  0.14147808344E+02  0.51100000000E-03 0.  1.
        -12    1    3    3    0    0 -0.37992762380E+02  0.44086496733E+01  0.16392944218E+02  0.41612676018E+02  0.00000000000E+00 0.  1.
</event>
<event>
 7    1  0.2385752E-015  0.9000773E+02  0.7816164E-02  0.1186339E+00
        -11   -1    0    0    0    0  0.00000000000E+00  0.00000000000E+00  0.45593999997E+02  0.45594000000E+02  0.51100000000E-03 0. -1.
         11   -1    0    0    0    0 -0.00000000000E+00 -0.00000000000E+00 -0.45593999997E+02  0.45594000000E+02  0.51100000000E-03 0.  1.
    9900012    2    1    2    0    0 -0.65651309914E+00 -0.60905221378E+00 -0.76882195299E+00  0.90007728318E+02  0.89999989532E+02 0.  0.
        -12    1    1    2    0    0  0.65651309914E+00  0.60905221378E+00  0.76882195299E+00  0.11802716822E+01  0.00000000000E+00 0.  1.
         11    1    3    3    0    0 -0.14474225995E+02  0.37361333865E+02  0.70141005838E+00  0.40073238734E+02  0.51100000000E-03 0. -1.
        -11    1    3    3    0    0 -0.22394917029E+01 -0.20605264802E+01  0.87733901847E+01  0.92861977179E+01  0.51100000000E-03 0.  1.
        -12    1    3    3    0    0  0.16057204599E+02 -0.35909859598E+02 -0.10243622196E+02  0.40648291866E+02  0.00000000000E+00 0.  1.
</event>
<event>
 7    1  0.2385752E-015  0.9000767E+02  0.7816164E-02  0.1186339E+00
        -11   -1    0    0    0    0  0.00000000000E+00  0.00000000000E+00  0.45593999997E+02  0.45594000000E+02  0.51100000000E-03 0. -1.
         11   -1    0    0    0    0 -0.00000000000E+00 -0.00000000000E+00 -0.45593999997E+02  0.45594000000E+02  0.51100000000E-03 0.  1.
    9900012    2    1    2    0    0 -0.29265050549E+00  0.10239223755E+01 -0.50903069256E+00  0.90007672251E+02  0.89999932725E+02 0.  0.
        -12    1    1    2    0    0  0.29265050549E+00 -0.10239223755E+01  0.50903069256E+00  0.11803277491E+01  0.00000000000E+00 0.  1.
         11    1    3    3    0    0 -0.23506782515E+02 -0.93573350078E+00  0.36152836389E+02  0.43133189085E+02  0.51100000000E-03 0. -1.
        -11    1    3    3    0    0 -0.13767118166E+01 -0.21099342985E+01 -0.10263620956E+02  0.10568305141E+02  0.51100000000E-03 0.  1.
        -12    1    3    3    0    0  0.24590843827E+02  0.40695901747E+01 -0.26398246125E+02  0.36306178025E+02  0.00000000000E+00 0.  1.
</event>
<event>
 7    1  0.2385752E-015  0.9000659E+02  0.7816164E-02  0.1186341E+00
        -11   -1    0    0    0    0  0.00000000000E+00  0.00000000000E+00  0.45593999997E+02  0.45594000000E+02  0.51100000000E-03 0.  1.
         11   -1    0    0    0    0 -0.00000000000E+00 -0.00000000000E+00 -0.45593999997E+02  0.45594000000E+02  0.51100000000E-03 0. -1.
    9900012    2    1    2    0    0  0.63946505287E+00 -0.31546981612E+00 -0.94196525644E+00  0.90006587581E+02  0.89998833730E+02 0.  0.
        -12    1    1    2    0    0 -0.63946505287E+00  0.31546981612E+00  0.94196525644E+00  0.11814124187E+01  0.00000000000E+00 0.  1.
         11    1    3    3    0    0  0.27283993819E+02  0.17661738903E+02  0.21968264724E+02  0.39229555122E+02  0.51100000000E-03 0. -1.
        -11    1    3    3    0    0  0.72040652061E+01 -0.36870022729E+01 -0.14327114063E+01  0.82185888989E+01  0.51100000000E-03 0.  1.
        -12    1    3    3    0    0 -0.33848593973E+02 -0.14290206446E+02 -0.21477518574E+02  0.42558443561E+02  0.00000000000E+00 0.  1.
</event>
<event>
 7    1  0.2385752E-015  0.9000773E+02  0.7816164E-02  0.1186339E+00
        -11   -1    0    0    0    0  0.00000000000E+00  0.00000000000E+00  0.45593999997E+02  0.45594000000E+02  0.51100000000E-03 0.  1.
         11   -1    0    0    0    0 -0.00000000000E+00 -0.00000000000E+00 -0.45593999997E+02  0.45594000000E+02  0.51100000000E-03 0. -1.
    9900012    2    1    2    0    0  0.87491356043E-01 -0.18413015031E+00 -0.11625336737E+01  0.90007727492E+02  0.89999988695E+02 0.  0.
        -12    1    1    2    0    0 -0.87491356043E-01  0.18413015031E+00  0.11625336737E+01  0.11802725076E+01  0.00000000000E+00 0.  1.
         11    1    3    3    0    0  0.39161071484E+01  0.93165845613E+01 -0.18484209742E+01  0.10273816401E+02  0.51100000000E-03 0. -1.
        -11    1    3    3    0    0  0.30144667415E+01  0.34259409222E+02 -0.60895616901E+01  0.34926736060E+02  0.51100000000E-03 0.  1.
         12    1    3    3    0    0 -0.68430825339E+01 -0.43760123934E+02  0.67754489905E+01  0.44807175031E+02  0.00000000000E+00 0. -1.
</event>
<event>
 7    1  0.2385752E-015  0.9000774E+02  0.7816164E-02  0.1186339E+00
        -11   -1    0    0    0    0  0.00000000000E+00  0.00000000000E+00  0.45593999997E+02  0.45594000000E+02  0.51100000000E-03 0.  1.
         11   -1    0    0    0    0 -0.00000000000E+00 -0.00000000000E+00 -0.45593999997E+02  0.45594000000E+02  0.51100000000E-03 0. -1.
    9900012    2    1    2    0    0  0.11582012563E+01 -0.59824265074E-01 -0.21907828149E+00  0.90007743932E+02  0.90000005352E+02 0.  0.
        -12    1    1    2    0    0 -0.11582012563E+01  0.59824265074E-01  0.21907828149E+00  0.11802560681E+01  0.00000000000E+00 0.  1.
         11    1    3    3    0    0 -0.16203716070E+02  0.33962568163E+00  0.46917918816E+01  0.16872719740E+02  0.51100000000E-03 0. -1.
        -11    1    3    3    0    0 -0.25626774437E+02  0.64904832334E+00  0.10151543087E+02  0.27571845406E+02  0.51100000000E-03 0.  1.
         12    1    3    3    0    0  0.42988691764E+02 -0.10484982700E+01 -0.15062413250E+02  0.45563178786E+02  0.00000000000E+00 0. -1.
</event>
<event>
 7    1  0.2385752E-015  0.9000769E+02  0.7816164E-02  0.1186339E+00
        -11   -1    0    0    0    0  0.00000000000E+00  0.00000000000E+00  0.45593999997E+02  0.45594000000E+02  0.51100000000E-03 0.  1.
         11   -1    0    0    0    0 -0.00000000000E+00 -0.00000000000E+00 -0.45593999997E+02  0.45594000000E+02  0.51100000000E-03 0. -1.
    9900012    2    1    2    0    0 -0.68212281358E-01  0.79681578876E+00 -0.86807411289E+00  0.90007694539E+02  0.89999955307E+02 0.  0.
        -12    1    1    2    0    0  0.68212281358E-01 -0.79681578876E+00  0.86807411289E+00  0.11803054613E+01  0.00000000000E+00 0.  1.
         11    1    3    3    0    0 -0.21135365290E+02 -0.18876774248E+02 -0.29485700555E+02  0.40895510871E+02  0.51100000000E-03 0. -1.
        -11    1    3    3    0    0 -0.30920917409E+01  0.29153209247E+01 -0.35458250654E+01  0.55347089430E+01  0.51100000000E-03 0.  1.
        -12    1    3    3    0    0  0.24159244750E+02  0.16758269112E+02  0.32163451507E+02  0.43577474724E+02  0.00000000000E+00 0.  1.
</event>
<event>
 7    1  0.2385752E-015  0.9000774E+02  0.7816164E-02  0.1186339E+00
        -11   -1    0    0    0    0  0.00000000000E+00  0.00000000000E+00  0.45593999997E+02  0.45594000000E+02  0.51100000000E-03 0.  1.
         11   -1    0    0    0    0 -0.00000000000E+00 -0.00000000000E+00 -0.45593999997E+02  0.45594000000E+02  0.51100000000E-03 0. -1.
    9900012    2    1    2    0    0 -0.95324226207E+00 -0.28131444262E+00 -0.63655831331E+00  0.90007739388E+02  0.90000000748E+02 0.  0.
        -12    1    1    2    0    0  0.95324226207E+00  0.28131444262E+00  0.63655831331E+00  0.11802606119E+01  0.00000000000E+00 0.  1.
         11    1    3    3    0    0 -0.74821118502E+01 -0.36579725633E+02  0.17407513501E+01  0.37377647607E+02  0.51100000000E-03 0. -1.
        -11    1    3    3    0    0 -0.22334481345E-02 -0.72151936426E+01  0.38703999904E+01  0.81877359896E+01  0.51100000000E-03 0.  1.
        -12    1    3    3    0    0  0.65311030362E+01  0.43513604833E+02 -0.62477096538E+01  0.44442355792E+02  0.00000000000E+00 0.  1.
</event>
<event>
 7    1  0.2385752E-015  0.9000783E+02  0.7816164E-02  0.1186339E+00
        -11   -1    0    0    0    0  0.00000000000E+00  0.00000000000E+00  0.45593999997E+02  0.45594000000E+02  0.51100000000E-03 0.  1.
         11   -1    0    0    0    0 -0.00000000000E+00 -0.00000000000E+00 -0.45593999997E+02  0.45594000000E+02  0.51100000000E-03 0. -1.
    9900012    2    1    2    0    0  0.72386295935E-01 -0.73612936091E+00 -0.91960784948E+00  0.90007828483E+02  0.90000091019E+02 0.  0.
        -12    1    1    2    0    0 -0.72386295935E-01  0.73612936091E+00  0.91960784948E+00  0.11801715166E+01  0.00000000000E+00 0.  1.
         11    1    3    3    0    0 -0.28913638469E+02 -0.16914055091E+02 -0.11165926806E+02  0.35309512470E+02  0.51100000000E-03 0. -1.
        -11    1    3    3    0    0 -0.61297989316E+01 -0.74489160585E+01 -0.33999998382E+01  0.10228430209E+02  0.51100000000E-03 0.  1.
        -12    1    3    3    0    0  0.35115823697E+02  0.23626841788E+02  0.13646318795E+02  0.44469885804E+02  0.00000000000E+00 0.  1.
</event>
<event>
 7    1  0.2385752E-015  0.9000801E+02  0.7816164E-02  0.1186339E+00
        -11   -1    0    0    0    0  0.00000000000E+00  0.00000000000E+00  0.45593999997E+02  0.45594000000E+02  0.51100000000E-03 0. -1.
         11   -1    0    0    0    0 -0.00000000000E+00 -0.00000000000E+00 -0.45593999997E+02  0.45594000000E+02  0.51100000000E-03 0.  1.
    9900012    2    1    2    0    0 -0.11426536533E+01 -0.23739123325E+00  0.17428646260E+00  0.90008005195E+02  0.90000270063E+02 0.  0.
        -12    1    1    2    0    0  0.11426536533E+01  0.23739123325E+00 -0.17428646260E+00  0.11799948051E+01  0.00000000000E+00 0.  1.
         11    1    3    3    0    0 -0.26768659733E+02  0.20712933301E+01  0.26091557296E+02  0.37438225951E+02  0.51100000000E-03 0. -1.
        -11    1    3    3    0    0 -0.28387786636E+01  0.32250348144E+01  0.73034578866E+01  0.84734887276E+01  0.51100000000E-03 0.  1.
        -12    1    3    3    0    0  0.28464784743E+02 -0.55337193778E+01 -0.33220728720E+02  0.44096290516E+02  0.00000000000E+00 0.  1.
</event>
<event>
 7    1  0.2385752E-015  0.9000781E+02  0.7816164E-02  0.1186339E+00
        -11   -1    0    0    0    0  0.00000000000E+00  0.00000000000E+00  0.45593999997E+02  0.45594000000E+02  0.51100000000E-03 0. -1.
         11   -1    0    0    0    0 -0.00000000000E+00 -0.00000000000E+00 -0.45593999997E+02  0.45594000000E+02  0.51100000000E-03 0.  1.
    9900012    2    1    2    0    0  0.10198331103E+01  0.15949878748E+00  0.57214984067E+00  0.90007807272E+02  0.90000069528E+02 0.  0.
        -12    1    1    2    0    0 -0.10198331103E+01 -0.15949878748E+00 -0.57214984067E+00  0.11801927284E+01  0.00000000000E+00 0.  1.
         11    1    3    3    0    0 -0.41595114684E+02 -0.14380762412E+01  0.35459161186E+01  0.41770745148E+02  0.51100000000E-03 0. -1.
        -11    1    3    3    0    0  0.30813657297E+01  0.49415255221E+01 -0.61073003305E+01  0.84387562373E+01  0.51100000000E-03 0.  1.
        -12    1    3    3    0    0  0.39533582064E+02 -0.33439504934E+01  0.31335340526E+01  0.39798305886E+02  0.00000000000E+00 0.  1.
</event>
<event>
 7    1  0.2385752E-015  0.9000758E+02  0.7816164E-02  0.1186339E+00
        -11   -1    0    0    0    0  0.00000000000E+00  0.00000000000E+00  0.45593999997E+02  0.45594000000E+02  0.51100000000E-03 0.  1.
         11   -1    0    0    0    0 -0.00000000000E+00 -0.00000000000E+00 -0.45593999997E+02  0.45594000000E+02  0.51100000000E-03 0. -1.
    9900012    2    1    2    0    0 -0.10205628334E-01 -0.29059636802E+00 -0.11440408553E+01  0.90007584869E+02  0.89999844189E+02 0.  0.
        -12    1    1    2    0    0  0.10205628334E-01  0.29059636802E+00  0.11440408553E+01  0.11804151314E+01  0.00000000000E+00 0.  1.
         11    1    3    3    0    0  0.25706387327E+02 -0.10416987348E+02 -0.26517296201E+02  0.38373154325E+02  0.51100000000E-03 0. -1.
        -11    1    3    3    0    0 -0.30219991823E+01  0.23178169599E+01 -0.89648153073E+01  0.97402601748E+01  0.51100000000E-03 0.  1.
        -12    1    3    3    0    0 -0.22694593773E+02  0.78085740204E+01  0.34338070653E+02  0.41894170369E+02  0.00000000000E+00 0.  1.
</event>
<event>
 7    1  0.2385752E-015  0.9000775E+02  0.7816164E-02  0.1186339E+00
        -11   -1    0    0    0    0  0.00000000000E+00  0.00000000000E+00  0.45593999997E+02  0.45594000000E+02  0.51100000000E-03 0.  1.
         11   -1    0    0    0    0 -0.00000000000E+00 -0.00000000000E+00 -0.45593999997E+02  0.45594000000E+02  0.51100000000E-03 0. -1.
    9900012    2    1    2    0    0 -0.67011654177E-01 -0.93930261009E+00 -0.71147955716E+00  0.90007752943E+02  0.90000014482E+02 0.  0.
        -12    1    1    2    0    0  0.67011654177E-01  0.93930261009E+00  0.71147955716E+00  0.11802470569E+01  0.00000000000E+00 0.  1.
         11    1    3    3    0    0  0.12900111480E+02 -0.29563889833E+01  0.76751531716E+00  0.13256779098E+02  0.51100000000E-03 0. -1.
        -11    1    3    3    0    0 -0.34386796183E+02 -0.12945715239E+01  0.24998985934E+02  0.42533245411E+02  0.51100000000E-03 0.  1.
         12    1    3    3    0    0  0.21419673048E+02  0.33116578970E+01 -0.26477980809E+02  0.34217728435E+02  0.00000000000E+00 0. -1.
</event>
<event>
 7    1  0.3023455E-015  0.9000773E+02  0.7816164E-02  0.1186339E+00
        -11   -1    0    0    0    0  0.00000000000E+00  0.00000000000E+00  0.45593999997E+02  0.45594000000E+02  0.51100000000E-03 0. -1.
         11   -1    0    0    0    0 -0.00000000000E+00 -0.00000000000E+00 -0.45593999997E+02  0.45594000000E+02  0.51100000000E-03 0.  1.
    9900012    2    1    2    0    0  0.36088950220E+00  0.11234952321E+01  0.23545503025E-01  0.90007730048E+02  0.89999991284E+02 0.  0.
        -12    1    1    2    0    0 -0.36088950220E+00 -0.11234952321E+01 -0.23545503025E-01  0.11802699522E+01  0.00000000000E+00 0.  1.
         11    1    3    3    0    0 -0.99671093188E+01 -0.19009633021E+02  0.31851946158E+02  0.38409060000E+02  0.51100000000E-03 0. -1.
        -11    1    3    3    0    0 -0.78948094057E+01 -0.43079572554E+01 -0.25942359312E+01  0.93603724068E+01  0.51100000000E-03 0.  1.
        -12    1    3    3    0    0  0.18222808227E+02  0.24441085509E+02 -0.29234164724E+02  0.42238297641E+02  0.00000000000E+00 0.  1.
</event>
<event>
 7    1  0.2385752E-015  0.9000774E+02  0.7816164E-02  0.1186339E+00
        -11   -1    0    0    0    0  0.00000000000E+00  0.00000000000E+00  0.45593999997E+02  0.45594000000E+02  0.51100000000E-03 0.  1.
         11   -1    0    0    0    0 -0.00000000000E+00 -0.00000000000E+00 -0.45593999997E+02  0.45594000000E+02  0.51100000000E-03 0. -1.
    9900012    2    1    2    0    0  0.73818078392E+00  0.87018213284E+00 -0.30149118845E+00  0.90007735305E+02  0.89999996611E+02 0.  0.
        -12    1    1    2    0    0 -0.73818078392E+00 -0.87018213284E+00  0.30149118845E+00  0.11802646952E+01  0.00000000000E+00 0.  1.
         11    1    3    3    0    0  0.19325378469E+02  0.27846396047E+02  0.14307720270E+02  0.36791342533E+02  0.51100000000E-03 0. -1.
        -11    1    3    3    0    0  0.21406583935E+01  0.73882931531E+01  0.43441082265E+01  0.88340574267E+01  0.51100000000E-03 0.  1.
        -12    1    3    3    0    0 -0.20727856078E+02 -0.34364507068E+02 -0.18953319685E+02  0.44382335345E+02  0.00000000000E+00 0.  1.
</event>
<event>
 7    1  0.2385752E-015  0.9000771E+02  0.7816164E-02  0.1186339E+00
        -11   -1    0    0    0    0  0.00000000000E+00  0.00000000000E+00  0.45593999997E+02  0.45594000000E+02  0.51100000000E-03 0.  1.
         11   -1    0    0    0    0 -0.00000000000E+00 -0.00000000000E+00 -0.45593999997E+02  0.45594000000E+02  0.51100000000E-03 0. -1.
    9900012    2    1    2    0    0 -0.83163304019E+00  0.68214077806E+00 -0.48595353378E+00  0.90007711734E+02  0.89999972729E+02 0.  0.
        -12    1    1    2    0    0  0.83163304019E+00 -0.68214077806E+00  0.48595353378E+00  0.11802882663E+01  0.00000000000E+00 0.  1.
         11    1    3    3    0    0  0.16409319301E+02 -0.37657482583E+02  0.85851502759E+01  0.41964944417E+02  0.51100000000E-03 0. -1.
        -11    1    3    3    0    0 -0.72692307139E+01  0.50452332234E+01  0.54317195130E+01  0.10382662018E+02  0.51100000000E-03 0.  1.
        -12    1    3    3    0    0 -0.99717216269E+01  0.33294390137E+02 -0.14502823323E+02  0.37660105299E+02  0.00000000000E+00 0.  1.
</event>
<event>
 7    1  0.2385752E-015  0.9000677E+02  0.7816164E-02  0.1186341E+00
        -11   -1    0    0    0    0  0.00000000000E+00  0.00000000000E+00  0.45593999997E+02  0.45594000000E+02  0.51100000000E-03 0.  1.
         11   -1    0    0    0    0 -0.00000000000E+00 -0.00000000000E+00 -0.45593999997E+02  0.45594000000E+02  0.51100000000E-03 0. -1.
    9900012    2    1    2    0    0 -0.13065575168E+00 -0.10051122257E+01 -0.60662520207E+00  0.90006765202E+02  0.89999013697E+02 0.  0.
        -12    1    1    2    0    0  0.13065575168E+00  0.10051122257E+01  0.60662520207E+00  0.11812347978E+01  0.00000000000E+00 0.  1.
         11    1    3    3    0    0 -0.17946931580E+02 -0.77082169369E+01  0.31494764598E+02  0.37059805164E+02  0.51100000000E-03 0. -1.
        -11    1    3    3    0    0 -0.87594278479E+01  0.18109270828E+01  0.22670620317E+01  0.92274917306E+01  0.51100000000E-03 0.  1.
        -12    1    3    3    0    0  0.26575703676E+02  0.48921776284E+01 -0.34368451831E+02  0.43719468308E+02  0.00000000000E+00 0.  1.
</event>
<event>
 7    1  0.2385752E-015  0.9000792E+02  0.7816164E-02  0.1186339E+00
        -11   -1    0    0    0    0  0.00000000000E+00  0.00000000000E+00  0.45593999997E+02  0.45594000000E+02  0.51100000000E-03 0. -1.
         11   -1    0    0    0    0 -0.00000000000E+00 -0.00000000000E+00 -0.45593999997E+02  0.45594000000E+02  0.51100000000E-03 0.  1.
    9900012    2    1    2    0    0  0.16097104476E+00  0.92646268827E+00  0.71298799927E+00  0.90007916665E+02  0.90000180365E+02 0.  0.
        -12    1    1    2    0    0 -0.16097104476E+00 -0.92646268827E+00 -0.71298799927E+00  0.11800833348E+01  0.00000000000E+00 0.  1.
         11    1    3    3    0    0 -0.13640779208E+02 -0.21703018696E+02  0.34887372767E+02  0.43292270173E+02  0.51100000000E-03 0. -1.
        -11    1    3    3    0    0 -0.29364531021E+01  0.95235528261E-02 -0.70259673691E+01  0.76149238507E+01  0.51100000000E-03 0.  1.
        -12    1    3    3    0    0  0.16738203355E+02  0.22619957831E+02 -0.27148417398E+02  0.39100722641E+02  0.00000000000E+00 0.  1.
</event>
<event>
 7    1  0.2385752E-015  0.9000773E+02  0.7816164E-02  0.1186339E+00
        -11   -1    0    0    0    0  0.00000000000E+00  0.00000000000E+00  0.45593999997E+02  0.45594000000E+02  0.51100000000E-03 0.  1.
         11   -1    0    0    0    0 -0.00000000000E+00 -0.00000000000E+00 -0.45593999997E+02  0.45594000000E+02  0.51100000000E-03 0. -1.
    9900012    2    1    2    0    0 -0.47525252230E+00 -0.91439428406E+00 -0.57536502582E+00  0.90007734445E+02  0.89999995740E+02 0.  0.
        -12    1    1    2    0    0  0.47525252230E+00  0.91439428406E+00  0.57536502582E+00  0.11802655547E+01  0.00000000000E+00 0.  1.
         11    1    3    3    0    0 -0.84020182604E+01 -0.44335119215E+01  0.45072561658E+01  0.10515003434E+02  0.51100000000E-03 0. -1.
        -11    1    3    3    0    0 -0.10797556758E+02  0.11966474729E+02  0.32717252293E+02  0.36471939176E+02  0.51100000000E-03 0.  1.
         12    1    3    3    0    0  0.18724322496E+02 -0.84473570917E+01 -0.37799873484E+02  0.43020791836E+02  0.00000000000E+00 0. -1.
</event>
<event>
 7    1  0.2385752E-015  0.9000790E+02  0.7816164E-02  0.1186339E+00
        -11   -1    0    0    0    0  0.00000000000E+00  0.00000000000E+00  0.45593999997E+02  0.45594000000E+02  0.51100000000E-03 0.  1.
         11   -1    0    0    0    0 -0.00000000000E+00 -0.00000000000E+00 -0.45593999997E+02  0.45594000000E+02  0.51100000000E-03 0. -1.
    9900012    2    1    2    0    0  0.17897311939E+00 -0.25200331244E+00 -0.11388991229E+01  0.90007903284E+02  0.90000166807E+02 0.  0.
        -12    1    1    2    0    0 -0.17897311939E+00  0.25200331244E+00  0.11388991229E+01  0.11800967160E+01  0.00000000000E+00 0.  1.
         11    1    3    3    0    0  0.35481742504E+02  0.20274187759E+02  0.32601133980E+00  0.40866893986E+02  0.51100000000E-03 0. -1.
        -11    1    3    3    0    0 -0.55643922776E+01  0.67392557836E+01  0.43718772975E+00  0.87504950322E+01  0.51100000000E-03 0.  1.
        -12    1    3    3    0    0 -0.29738377107E+02 -0.27265446855E+02 -0.19020981925E+01  0.40390514266E+02  0.00000000000E+00 0.  1.
</event>
<event>
 7    1  0.2385752E-015  0.9000757E+02  0.7816164E-02  0.1186339E+00
        -11   -1    0    0    0    0  0.00000000000E+00  0.00000000000E+00  0.45593999997E+02  0.45594000000E+02  0.51100000000E-03 0.  1.
         11   -1    0    0    0    0 -0.00000000000E+00 -0.00000000000E+00 -0.45593999997E+02  0.45594000000E+02  0.51100000000E-03 0. -1.
    9900012    2    1    2    0    0 -0.11524993374E+01 -0.76732673573E-01 -0.24347091366E+00  0.90007567574E+02  0.89999826666E+02 0.  0.
        -12    1    1    2    0    0  0.11524993374E+01  0.76732673573E-01  0.24347091366E+00  0.11804324257E+01  0.00000000000E+00 0.  1.
         11    1    3    3    0    0  0.18482222732E+02  0.21805941101E+02 -0.31633658637E+02  0.42635431081E+02  0.51100000000E-03 0. -1.
        -11    1    3    3    0    0 -0.56805199687E+01  0.32655289072E+01  0.77057027884E+01  0.10114832766E+02  0.51100000000E-03 0.  1.
        -12    1    3    3    0    0 -0.13954202101E+02 -0.25148202682E+02  0.23684484935E+02  0.37257303727E+02  0.00000000000E+00 0.  1.
</event>
<event>
 7    1  0.2385752E-015  0.9000783E+02  0.7816164E-02  0.1186339E+00
        -11   -1    0    0    0    0  0.00000000000E+00  0.00000000000E+00  0.45593999997E+02  0.45594000000E+02  0.51100000000E-03 0. -1.
         11   -1    0    0    0    0 -0.00000000000E+00 -0.00000000000E+00 -0.45593999997E+02  0.45594000000E+02  0.51100000000E-03 0.  1.
    9900012    2    1    2    0    0 -0.81070356146E+00  0.41005096101E+00  0.75327166796E+00  0.90007830410E+02  0.90000092971E+02 0.  0.
        -12    1    1    2    0    0  0.81070356146E+00 -0.41005096101E+00 -0.75327166796E+00  0.11801695899E+01  0.00000000000E+00 0.  1.
         11    1    3    3    0    0  0.21759918830E+01 -0.14637482000E+02  0.42627201267E+01  0.15400052050E+02  0.51100000000E-03 0. -1.
        -11    1    3    3    0    0  0.24716144858E+02 -0.10274518612E+02 -0.20198439779E+02  0.33532529268E+02  0.51100000000E-03 0.  1.
         12    1    3    3    0    0 -0.27702840303E+02  0.25322051574E+02  0.16688991320E+02  0.41075249092E+02  0.00000000000E+00 0. -1.
</event>
<event>
 7    1  0.2385752E-015  0.9000772E+02  0.7816164E-02  0.1186339E+00
        -11   -1    0    0    0    0  0.00000000000E+00  0.00000000000E+00  0.45593999997E+02  0.45594000000E+02  0.51100000000E-03 0.  1.
         11   -1    0    0    0    0 -0.00000000000E+00 -0.00000000000E+00 -0.45593999997E+02  0.45594000000E+02  0.51100000000E-03 0. -1.
    9900012    2    1    2    0    0 -0.10101430491E+01  0.44669439384E+00 -0.41610747926E+00  0.90007716011E+02  0.89999977062E+02 0.  0.
        -12    1    1    2    0    0  0.10101430491E+01 -0.44669439384E+00  0.41610747926E+00  0.11802839893E+01  0.00000000000E+00 0.  1.
         11    1    3    3    0    0 -0.53327562134E+01 -0.67124405202E+01  0.72384340797E+00  0.86034351343E+01  0.51100000000E-03 0. -1.
        -11    1    3    3    0    0 -0.46581405066E+01 -0.34838458695E+02  0.10902891356E+02  0.36800672785E+02  0.51100000000E-03 0.  1.
         12    1    3    3    0    0  0.89807536709E+01  0.41997593609E+02 -0.12042842243E+02  0.44603608091E+02  0.00000000000E+00 0. -1.
</event>
<event>
 7    1  0.2385752E-015  0.9000771E+02  0.7816164E-02  0.1186339E+00
        -11   -1    0    0    0    0  0.00000000000E+00  0.00000000000E+00  0.45593999997E+02  0.45594000000E+02  0.51100000000E-03 0.  1.
         11   -1    0    0    0    0 -0.00000000000E+00 -0.00000000000E+00 -0.45593999997E+02  0.45594000000E+02  0.51100000000E-03 0. -1.
    9900012    2    1    2    0    0 -0.18821726654E+00  0.11193888651E+01 -0.32344945086E+00  0.90007713290E+02  0.89999974305E+02 0.  0.
        -12    1    1    2    0    0  0.18821726654E+00 -0.11193888651E+01  0.32344945086E+00  0.11802867101E+01  0.00000000000E+00 0.  1.
         11    1    3    3    0    0 -0.49709258605E+01 -0.11703908172E+02 -0.36504452362E+02  0.38655744888E+02  0.51100000000E-03 0. -1.
        -11    1    3    3    0    0 -0.38338958005E+01  0.12359140300E+02 -0.11927388896E+01  0.12994988738E+02  0.51100000000E-03 0.  1.
        -12    1    3    3    0    0  0.86166043945E+01  0.46415673641E+00  0.37373741800E+02  0.38356979664E+02  0.00000000000E+00 0.  1.
</event>
<event>
 7    1  0.3545959E-015  0.9000778E+02  0.7816164E-02  0.1186339E+00
        -11   -1    0    0    0    0  0.00000000000E+00  0.00000000000E+00  0.45593999997E+02  0.45594000000E+02  0.51100000000E-03 0. -1.
         11   -1    0    0    0    0 -0.00000000000E+00 -0.00000000000E+00 -0.45593999997E+02  0.45594000000E+02  0.51100000000E-03 0.  1.
    9900012    2    1    2    0    0 -0.24732773350E-01 -0.26859017808E+00  0.11489823888E+01  0.90007782680E+02  0.90000044611E+02 0.  0.
        -12    1    1    2    0    0  0.24732773350E-01  0.26859017808E+00 -0.11489823888E+01  0.11802173205E+01  0.00000000000E+00 0.  1.
         11    1    3    3    0    0 -0.75530106669E+01  0.24194267381E+02  0.31783165798E+02  0.40651939346E+02  0.51100000000E-03 0. -1.
        -11    1    3    3    0    0 -0.34719943519E+01 -0.79017188459E+01  0.39284686272E+01  0.94828672623E+01  0.51100000000E-03 0.  1.
        -12    1    3    3    0    0  0.11000272245E+02 -0.16561138713E+02 -0.34562652036E+02  0.39872976071E+02  0.00000000000E+00 0.  1.
</event>
<event>
 7    1  0.2385752E-015  0.9000769E+02  0.7816164E-02  0.1186339E+00
        -11   -1    0    0    0    0  0.00000000000E+00  0.00000000000E+00  0.45593999997E+02  0.45594000000E+02  0.51100000000E-03 0.  1.
         11   -1    0    0    0    0 -0.00000000000E+00 -0.00000000000E+00 -0.45593999997E+02  0.45594000000E+02  0.51100000000E-03 0. -1.
    9900012    2    1    2    0    0 -0.56332750112E+00 -0.86076050614E+00 -0.57870162378E+00  0.90007685596E+02  0.89999946246E+02 0.  0.
        -12    1    1    2    0    0  0.56332750112E+00  0.86076050614E+00  0.57870162378E+00  0.11803144038E+01  0.00000000000E+00 0.  1.
         11    1    3    3    0    0 -0.74977120401E+01  0.12740604600E+01 -0.25555029589E+01  0.80230612316E+01  0.51100000000E-03 0. -1.
        -11    1    3    3    0    0 -0.14953229455E+02  0.11088391829E+01  0.37357731570E+02  0.40254548858E+02  0.51100000000E-03 0.  1.
         12    1    3    3    0    0  0.21887613994E+02 -0.32436601490E+01 -0.35380930235E+02  0.41730075507E+02  0.00000000000E+00 0. -1.
</event>
<event>
 7    1  0.2385752E-015  0.9000769E+02  0.7816164E-02  0.1186339E+00
        -11   -1    0    0    0    0  0.00000000000E+00  0.00000000000E+00  0.45593999997E+02  0.45594000000E+02  0.51100000000E-03 0.  1.
         11   -1    0    0    0    0 -0.00000000000E+00 -0.00000000000E+00 -0.45593999997E+02  0.45594000000E+02  0.51100000000E-03 0. -1.
    9900012    2    1    2    0    0  0.84022951889E+00 -0.43325906225E+00  0.70670174904E+00  0.90007692234E+02  0.89999952972E+02 0.  0.
        -12    1    1    2    0    0 -0.84022951889E+00  0.43325906225E+00 -0.70670174904E+00  0.11803077656E+01  0.00000000000E+00 0.  1.
         11    1    3    3    0    0 -0.40773856522E+01  0.46132520580E+01  0.42804686492E+01  0.74986385715E+01  0.51100000000E-03 0. -1.
        -11    1    3    3    0    0 -0.18560033142E+02  0.32389833132E+02  0.44581652892E+01  0.37595895502E+02  0.51100000000E-03 0.  1.
         12    1    3    3    0    0  0.23477648313E+02 -0.37436344253E+02 -0.80319321894E+01  0.44913158161E+02  0.00000000000E+00 0. -1.
</event>
<event>
 7    1  0.2385752E-015  0.9000774E+02  0.7816164E-02  0.1186339E+00
        -11   -1    0    0    0    0  0.00000000000E+00  0.00000000000E+00  0.45593999997E+02  0.45594000000E+02  0.51100000000E-03 0.  1.
         11   -1    0    0    0    0 -0.00000000000E+00 -0.00000000000E+00 -0.45593999997E+02  0.45594000000E+02  0.51100000000E-03 0. -1.
    9900012    2    1    2    0    0  0.31873418185E+00 -0.10537881638E+01 -0.42537982852E+00  0.90007741989E+02  0.90000003384E+02 0.  0.
        -12    1    1    2    0    0 -0.31873418185E+00  0.10537881638E+01  0.42537982852E+00  0.11802580105E+01  0.00000000000E+00 0.  1.
         11    1    3    3    0    0 -0.57713640092E-01  0.33827751223E+01  0.49495724842E+01  0.59953954356E+01  0.51100000000E-03 0. -1.
        -11    1    3    3    0    0  0.36976990626E+02 -0.22225679905E+02 -0.31251239830E+01  0.43255578636E+02  0.51100000000E-03 0.  1.
         12    1    3    3    0    0 -0.36600542804E+02  0.17789116619E+02 -0.22498283297E+01  0.40756767918E+02  0.00000000000E+00 0. -1.
</event>
<event>
 7    1  0.2385752E-015  0.9000839E+02  0.7816164E-02  0.1186338E+00
        -11   -1    0    0    0    0  0.00000000000E+00  0.00000000000E+00  0.45593999997E+02  0.45594000000E+02  0.51100000000E-03 0. -1.
         11   -1    0    0    0    0 -0.00000000000E+00 -0.00000000000E+00 -0.45593999997E+02  0.45594000000E+02  0.51100000000E-03 0.  1.
    9900012    2    1    2    0    0 -0.10872841116E+01 -0.27288022193E+00  0.36720415393E+00  0.90008385976E+02  0.90000655869E+02 0.  0.
        -12    1    1    2    0    0  0.10872841116E+01  0.27288022193E+00 -0.36720415393E+00  0.11796140239E+01  0.00000000000E+00 0.  1.
         11    1    3    3    0    0 -0.51983784246E+01  0.72840307811E+01  0.24963478108E+01  0.92904249267E+01  0.51100000000E-03 0. -1.
        -11    1    3    3    0    0  0.18567538839E+02  0.17502128547E+02 -0.30793979189E+02  0.39991838627E+02  0.51100000000E-03 0.  1.
         12    1    3    3    0    0 -0.14456444526E+02 -0.25059039550E+02  0.28664835532E+02  0.40726122422E+02  0.00000000000E+00 0. -1.
</event>
<event>
 7    1  0.2385752E-015  0.9000768E+02  0.7816164E-02  0.1186339E+00
        -11   -1    0    0    0    0  0.00000000000E+00  0.00000000000E+00  0.45593999997E+02  0.45594000000E+02  0.51100000000E-03 0. -1.
         11   -1    0    0    0    0 -0.00000000000E+00 -0.00000000000E+00 -0.45593999997E+02  0.45594000000E+02  0.51100000000E-03 0.  1.
    9900012    2    1    2    0    0  0.54841788258E-01 -0.11778719696E+01  0.52499342168E-01  0.90007683865E+02  0.89999944492E+02 0.  0.
        -12    1    1    2    0    0 -0.54841788258E-01  0.11778719696E+01 -0.52499342168E-01  0.11803161354E+01  0.00000000000E+00 0.  1.
         11    1    3    3    0    0  0.99433780957E+01 -0.58183085499E+00  0.73527987093E+00  0.99874887658E+01  0.51100000000E-03 0. -1.
        -11    1    3    3    0    0  0.51169324555E+00  0.21079963851E+02 -0.33351623559E+02  0.39458300777E+02  0.51100000000E-03 0.  1.
         12    1    3    3    0    0 -0.10400229553E+02 -0.21676004966E+02  0.32668843030E+02  0.40561894322E+02  0.00000000000E+00 0. -1.
</event>
<event>
 7    1  0.2385752E-015  0.9000784E+02  0.7816164E-02  0.1186339E+00
        -11   -1    0    0    0    0  0.00000000000E+00  0.00000000000E+00  0.45593999997E+02  0.45594000000E+02  0.51100000000E-03 0. -1.
         11   -1    0    0    0    0 -0.00000000000E+00 -0.00000000000E+00 -0.45593999997E+02  0.45594000000E+02  0.51100000000E-03 0.  1.
    9900012    2    1    2    0    0  0.23246499705E+00 -0.29850067463E+00  0.11178722498E+01  0.90007838573E+02  0.90000101242E+02 0.  0.
        -12    1    1    2    0    0 -0.23246499705E+00  0.29850067463E+00 -0.11178722498E+01  0.11801614273E+01  0.00000000000E+00 0.  1.
         11    1    3    3    0    0  0.39371872493E+00 -0.34268614126E+01 -0.86039207318E+01  0.92696195065E+01  0.51100000000E-03 0. -1.
        -11    1    3    3    0    0  0.10113516506E+01  0.38748463953E+02 -0.99661192826E+01  0.40022366555E+02  0.51100000000E-03 0.  1.
         12    1    3    3    0    0 -0.11726053785E+01 -0.35620103215E+02  0.19687912264E+02  0.40715852511E+02  0.00000000000E+00 0. -1.
</event>
<event>
 7    1  0.2385752E-015  0.9000780E+02  0.7816164E-02  0.1186339E+00
        -11   -1    0    0    0    0  0.00000000000E+00  0.00000000000E+00  0.45593999997E+02  0.45594000000E+02  0.51100000000E-03 0.  1.
         11   -1    0    0    0    0 -0.00000000000E+00 -0.00000000000E+00 -0.45593999997E+02  0.45594000000E+02  0.51100000000E-03 0. -1.
    9900012    2    1    2    0    0  0.57336147364E+00 -0.60979015915E+00 -0.83204237018E+00  0.90007795813E+02  0.90000057918E+02 0.  0.
        -12    1    1    2    0    0 -0.57336147364E+00  0.60979015915E+00  0.83204237018E+00  0.11802041872E+01  0.00000000000E+00 0.  1.
         11    1    3    3    0    0 -0.24167875268E+01 -0.81098268274E+01 -0.42489814485E+01  0.94691074939E+01  0.51100000000E-03 0. -1.
        -11    1    3    3    0    0 -0.25018293557E+02 -0.21994569960E+02  0.17330688800E+02  0.37550351460E+02  0.51100000000E-03 0.  1.
         12    1    3    3    0    0  0.28008442557E+02  0.29494606628E+02 -0.13913749722E+02  0.42988336859E+02  0.00000000000E+00 0. -1.
</event>
<event>
 7    1  0.2385752E-015  0.9000727E+02  0.7816164E-02  0.1186340E+00
        -11   -1    0    0    0    0  0.00000000000E+00  0.00000000000E+00  0.45593999997E+02  0.45594000000E+02  0.51100000000E-03 0.  1.
         11   -1    0    0    0    0 -0.00000000000E+00 -0.00000000000E+00 -0.45593999997E+02  0.45594000000E+02  0.51100000000E-03 0. -1.
    9900012    2    1    2    0    0 -0.63861092826E+00  0.76625762220E+00  0.63178539741E+00  0.90007268257E+02  0.89999523396E+02 0.  0.
        -12    1    1    2    0    0  0.63861092826E+00 -0.76625762220E+00 -0.63178539741E+00  0.11807317433E+01  0.00000000000E+00 0.  1.
         11    1    3    3    0    0 -0.24770075824E+00 -0.43258137514E+01  0.78052977730E+01  0.89273004802E+01  0.51100000000E-03 0. -1.
        -11    1    3    3    0    0  0.20381862812E+02  0.38303252848E+01  0.31178235935E+02  0.37445615495E+02  0.51100000000E-03 0.  1.
         12    1    3    3    0    0 -0.20772772982E+02  0.12617460888E+01 -0.38351748311E+02  0.43634352282E+02  0.00000000000E+00 0. -1.
</event>
<event>
 7    1  0.2385752E-015  0.9000770E+02  0.7816164E-02  0.1186339E+00
        -11   -1    0    0    0    0  0.00000000000E+00  0.00000000000E+00  0.45593999997E+02  0.45594000000E+02  0.51100000000E-03 0. -1.
         11   -1    0    0    0    0 -0.00000000000E+00 -0.00000000000E+00 -0.45593999997E+02  0.45594000000E+02  0.51100000000E-03 0.  1.
    9900012    2    1    2    0    0  0.24992412604E+00  0.60628372649E+00  0.98135813599E+00  0.90007700963E+02  0.89999961816E+02 0.  0.
        -12    1    1    2    0    0 -0.24992412604E+00 -0.60628372649E+00 -0.98135813599E+00  0.11802990370E+01  0.00000000000E+00 0.  1.
         11    1    3    3    0    0 -0.37578784969E+01 -0.35879680993E+02 -0.11455979762E+02  0.37851190623E+02  0.51100000000E-03 0. -1.
        -11    1    3    3    0    0 -0.10900916828E+02 -0.31072286392E+00  0.35836634133E+01  0.11479075752E+02  0.51100000000E-03 0.  1.
        -12    1    3    3    0    0  0.14908719451E+02  0.36796687584E+02  0.88536744850E+01  0.40677434588E+02  0.00000000000E+00 0.  1.
</event>
<event>
 7    1  0.2385752E-015  0.9000781E+02  0.7816164E-02  0.1186339E+00
        -11   -1    0    0    0    0  0.00000000000E+00  0.00000000000E+00  0.45593999997E+02  0.45594000000E+02  0.51100000000E-03 0.  1.
         11   -1    0    0    0    0 -0.00000000000E+00 -0.00000000000E+00 -0.45593999997E+02  0.45594000000E+02  0.51100000000E-03 0. -1.
    9900012    2    1    2    0    0  0.75622097856E-01  0.11759422351E+01 -0.65422844959E-01  0.90007814002E+02  0.90000076346E+02 0.  0.
        -12    1    1    2    0    0 -0.75622097856E-01 -0.11759422351E+01  0.65422844959E-01  0.11801859983E+01  0.00000000000E+00 0.  1.
         11    1    3    3    0    0  0.62231982256E+01  0.17018703149E+00  0.61554429832E+01  0.87548065862E+01  0.51100000000E-03 0. -1.
        -11    1    3    3    0    0  0.37074716480E+02 -0.28126549342E+01  0.13552148571E+01  0.37205943577E+02  0.51100000000E-03 0.  1.
         12    1    3    3    0    0 -0.43222292608E+02  0.38184101378E+01 -0.75760806852E+01  0.44047063839E+02  0.00000000000E+00 0. -1.
</event>
<event>
 7    1  0.2385752E-015  0.9000765E+02  0.7816164E-02  0.1186339E+00
        -11   -1    0    0    0    0  0.00000000000E+00  0.00000000000E+00  0.45593999997E+02  0.45594000000E+02  0.51100000000E-03 0.  1.
         11   -1    0    0    0    0 -0.00000000000E+00 -0.00000000000E+00 -0.45593999997E+02  0.45594000000E+02  0.51100000000E-03 0. -1.
    9900012    2    1    2    0    0  0.48055550675E+00 -0.78286917376E+00 -0.74121554763E+00  0.90007653345E+02  0.89999913569E+02 0.  0.
        -12    1    1    2    0    0 -0.48055550675E+00  0.78286917376E+00  0.74121554763E+00  0.11803466552E+01  0.00000000000E+00 0.  1.
         11    1    3    3    0    0 -0.79196801833E+01  0.11361789879E+01 -0.68319305814E+01  0.10520813306E+02  0.51100000000E-03 0. -1.
        -11    1    3    3    0    0  0.25724645783E+02 -0.33201474225E+02  0.10934156899E+02  0.43401049281E+02  0.51100000000E-03 0.  1.
         12    1    3    3    0    0 -0.17324410092E+02  0.31282426063E+02 -0.48434418653E+01  0.36085790757E+02  0.00000000000E+00 0. -1.
</event>
<event>
 7    1  0.2385752E-015  0.9000771E+02  0.7816164E-02  0.1186339E+00
        -11   -1    0    0    0    0  0.00000000000E+00  0.00000000000E+00  0.45593999997E+02  0.45594000000E+02  0.51100000000E-03 0.  1.
         11   -1    0    0    0    0 -0.00000000000E+00 -0.00000000000E+00 -0.45593999997E+02  0.45594000000E+02  0.51100000000E-03 0. -1.
    9900012    2    1    2    0    0 -0.90562213853E+00 -0.57628765305E+00 -0.49072833497E+00  0.90007714774E+02  0.89999975809E+02 0.  0.
        -12    1    1    2    0    0  0.90562213853E+00  0.57628765305E+00  0.49072833497E+00  0.11802852264E+01  0.00000000000E+00 0.  1.
         11    1    3    3    0    0  0.31761163007E+02  0.39544466041E+01  0.19816620584E+01  0.32067680120E+02  0.51100000000E-03 0. -1.
        -11    1    3    3    0    0  0.73087129230E+01  0.58315068283E+01  0.11060016992E+02  0.14482670078E+02  0.51100000000E-03 0.  1.
        -12    1    3    3    0    0 -0.39975498069E+02 -0.10362241085E+02 -0.13532407385E+02  0.43457364575E+02  0.00000000000E+00 0.  1.
</event>
<event>
 7    1  0.2385752E-015  0.9000774E+02  0.7816164E-02  0.1186339E+00
        -11   -1    0    0    0    0  0.00000000000E+00  0.00000000000E+00  0.45593999997E+02  0.45594000000E+02  0.51100000000E-03 0. -1.
         11   -1    0    0    0    0 -0.00000000000E+00 -0.00000000000E+00 -0.45593999997E+02  0.45594000000E+02  0.51100000000E-03 0.  1.
    9900012    2    1    2    0    0  0.62922940747E+00 -0.58242454024E+00 -0.81108247768E+00  0.90007744613E+02  0.90000006042E+02 0.  0.
        -12    1    1    2    0    0 -0.62922940747E+00  0.58242454024E+00  0.81108247768E+00  0.11802553867E+01  0.00000000000E+00 0.  1.
         11    1    3    3    0    0 -0.15257820997E+01 -0.87540174106E+01 -0.15049292849E+01  0.90125270737E+01  0.51100000000E-03 0. -1.
        -11    1    3    3    0    0  0.12092613185E+02 -0.33658387440E+02 -0.90899596904E+01  0.36901838791E+02  0.51100000000E-03 0.  1.
         12    1    3    3    0    0 -0.99376016783E+01  0.41829980310E+02  0.97838064976E+01  0.44093378749E+02  0.00000000000E+00 0. -1.
</event>
<event>
 7    1  0.2385752E-015  0.9000754E+02  0.7816164E-02  0.1186339E+00
        -11   -1    0    0    0    0  0.00000000000E+00  0.00000000000E+00  0.45593999997E+02  0.45594000000E+02  0.51100000000E-03 0.  1.
         11   -1    0    0    0    0 -0.00000000000E+00 -0.00000000000E+00 -0.45593999997E+02  0.45594000000E+02  0.51100000000E-03 0. -1.
    9900012    2    1    2    0    0 -0.46167813184E-01  0.47217589501E+00 -0.10809273205E+01  0.90007540168E+02  0.89999798898E+02 0.  0.
        -12    1    1    2    0    0  0.46167813184E-01 -0.47217589501E+00  0.10809273205E+01  0.11804598320E+01  0.00000000000E+00 0.  1.
         11    1    3    3    0    0 -0.49943247426E+01 -0.29984786004E+01 -0.42973841414E+02  0.43366867534E+02  0.51100000000E-03 0. -1.
        -11    1    3    3    0    0 -0.15743067377E+01  0.72690617494E+01  0.49491402679E+01  0.89337388630E+01  0.51100000000E-03 0.  1.
        -12    1    3    3    0    0  0.65224636671E+01 -0.37984072539E+01  0.36943773826E+02  0.37706933771E+02  0.00000000000E+00 0.  1.
</event>
<event>
 7    1  0.2385752E-015  0.9000771E+02  0.7816164E-02  0.1186339E+00
        -11   -1    0    0    0    0  0.00000000000E+00  0.00000000000E+00  0.45593999997E+02  0.45594000000E+02  0.51100000000E-03 0. -1.
         11   -1    0    0    0    0 -0.00000000000E+00 -0.00000000000E+00 -0.45593999997E+02  0.45594000000E+02  0.51100000000E-03 0.  1.
    9900012    2    1    2    0    0  0.85295373562E+00 -0.81275648329E+00  0.70502492809E-01  0.90007714535E+02  0.89999975567E+02 0.  0.
        -12    1    1    2    0    0 -0.85295373562E+00  0.81275648329E+00 -0.70502492809E-01  0.11802854645E+01  0.00000000000E+00 0.  1.
         11    1    3    3    0    0 -0.64593763330E+01 -0.63038806935E+01 -0.14797802478E+01  0.91461578956E+01  0.51100000000E-03 0. -1.
        -11    1    3    3    0    0 -0.15072741547E+02  0.38106608296E+02  0.43201878520E+01  0.41206372771E+02  0.51100000000E-03 0.  1.
         12    1    3    3    0    0  0.22385071616E+02 -0.32615484086E+02 -0.27699051114E+01  0.39655183869E+02  0.00000000000E+00 0. -1.
</event>
<event>
 7    1  0.2385752E-015  0.9000641E+02  0.7816164E-02  0.1186342E+00
        -11   -1    0    0    0    0  0.00000000000E+00  0.00000000000E+00  0.45593999997E+02  0.45594000000E+02  0.51100000000E-03 0.  1.
         11   -1    0    0    0    0 -0.00000000000E+00 -0.00000000000E+00 -0.45593999997E+02  0.45594000000E+02  0.51100000000E-03 0. -1.
    9900012    2    1    2    0    0 -0.39417178176E+00  0.10953382457E+01  0.20250746575E+00  0.90006413550E+02  0.89998657398E+02 0.  0.
        -12    1    1    2    0    0  0.39417178176E+00 -0.10953382457E+01 -0.20250746575E+00  0.11815864504E+01  0.00000000000E+00 0.  1.
         11    1    3    3    0    0 -0.11639530729E+01 -0.27728158241E+01  0.86448925969E+01  0.91530029293E+01  0.51100000000E-03 0. -1.
        -11    1    3    3    0    0  0.32257867986E+02  0.31323806900E+00  0.20264105333E+02  0.38095959501E+02  0.51100000000E-03 0.  1.
         12    1    3    3    0    0 -0.31488086695E+02  0.35549160008E+01 -0.28706490464E+02  0.42757451119E+02  0.00000000000E+00 0. -1.
</event>
<event>
 7    1  0.2385752E-015  0.9000766E+02  0.7816164E-02  0.1186339E+00
        -11   -1    0    0    0    0  0.00000000000E+00  0.00000000000E+00  0.45593999997E+02  0.45594000000E+02  0.51100000000E-03 0. -1.
         11   -1    0    0    0    0 -0.00000000000E+00 -0.00000000000E+00 -0.45593999997E+02  0.45594000000E+02  0.51100000000E-03 0.  1.
    9900012    2    1    2    0    0 -0.57679161841E+00 -0.82700941473E+00  0.61365326825E+00  0.90007659593E+02  0.89999919899E+02 0.  0.
        -12    1    1    2    0    0  0.57679161841E+00  0.82700941473E+00 -0.61365326825E+00  0.11803404071E+01  0.00000000000E+00 0.  1.
         11    1    3    3    0    0 -0.34062297821E+02 -0.74949282694E+01  0.12933916111E+01  0.34901102343E+02  0.51100000000E-03 0. -1.
        -11    1    3    3    0    0 -0.93732868052E+01 -0.50213381551E+01 -0.10066929695E+01  0.10681094204E+02  0.51100000000E-03 0.  1.
        -12    1    3    3    0    0  0.42858793008E+02  0.11689257010E+02  0.32695462659E+00  0.44425463046E+02  0.00000000000E+00 0.  1.
</event>
<event>
 7    1  0.2385752E-015  0.9000773E+02  0.7816164E-02  0.1186339E+00
        -11   -1    0    0    0    0  0.00000000000E+00  0.00000000000E+00  0.45593999997E+02  0.45594000000E+02  0.51100000000E-03 0.  1.
         11   -1    0    0    0    0 -0.00000000000E+00 -0.00000000000E+00 -0.45593999997E+02  0.45594000000E+02  0.51100000000E-03 0. -1.
    9900012    2    1    2    0    0  0.11090209269E+01 -0.38894559121E-01  0.40199739689E+00  0.90007727951E+02  0.89999989160E+02 0.  0.
        -12    1    1    2    0    0 -0.11090209269E+01  0.38894559121E-01 -0.40199739689E+00  0.11802720492E+01  0.00000000000E+00 0.  1.
         11    1    3    3    0    0  0.86944525116E+01 -0.12458122372E+02  0.68677889725E+01  0.16672277683E+02  0.51100000000E-03 0. -1.
        -11    1    3    3    0    0 -0.32891277908E+02 -0.15127254890E+01 -0.22894239740E+02  0.40103250671E+02  0.51100000000E-03 0.  1.
         12    1    3    3    0    0  0.25305846324E+02  0.13931953302E+02  0.16428448164E+02  0.33232199597E+02  0.00000000000E+00 0. -1.
</event>
<event>
 7    1  0.2385752E-015  0.9000766E+02  0.7816164E-02  0.1186339E+00
        -11   -1    0    0    0    0  0.00000000000E+00  0.00000000000E+00  0.45593999997E+02  0.45594000000E+02  0.51100000000E-03 0.  1.
         11   -1    0    0    0    0 -0.00000000000E+00 -0.00000000000E+00 -0.45593999997E+02  0.45594000000E+02  0.51100000000E-03 0. -1.
    9900012    2    1    2    0    0 -0.66037944659E-01  0.11686924577E+01 -0.15162751897E+00  0.90007663618E+02  0.89999923977E+02 0.  0.
        -12    1    1    2    0    0  0.66037944659E-01 -0.11686924577E+01  0.15162751897E+00  0.11803363823E+01  0.00000000000E+00 0.  1.
         11    1    3    3    0    0 -0.36872008270E+01  0.15988811805E+01  0.91344662115E+01  0.99794961896E+01  0.51100000000E-03 0. -1.
        -11    1    3    3    0    0  0.11833138277E+02 -0.90133643758E+01  0.32950753201E+02  0.36152676742E+02  0.51100000000E-03 0.  1.
         12    1    3    3    0    0 -0.82119753946E+01  0.85831756530E+01 -0.42236846932E+02  0.43875490686E+02  0.00000000000E+00 0. -1.
</event>
<event>
 7    1  0.2385752E-015  0.9000774E+02  0.7816164E-02  0.1186339E+00
        -11   -1    0    0    0    0  0.00000000000E+00  0.00000000000E+00  0.45593999997E+02  0.45594000000E+02  0.51100000000E-03 0.  1.
         11   -1    0    0    0    0 -0.00000000000E+00 -0.00000000000E+00 -0.45593999997E+02  0.45594000000E+02  0.51100000000E-03 0. -1.
    9900012    2    1    2    0    0  0.93589110415E+00 -0.67902212662E+00 -0.23677069160E+00  0.90007735806E+02  0.89999997119E+02 0.  0.
        -12    1    1    2    0    0 -0.93589110415E+00  0.67902212662E+00  0.23677069160E+00  0.11802641940E+01  0.00000000000E+00 0.  1.
         11    1    3    3    0    0 -0.10208745058E+02 -0.34930120959E+02 -0.20580254733E+02  0.41807639386E+02  0.51100000000E-03 0. -1.
        -11    1    3    3    0    0 -0.72011377617E+01  0.37902898620E+01  0.38189568765E+01  0.89892777344E+01  0.51100000000E-03 0.  1.
        -12    1    3    3    0    0  0.18345773924E+02  0.30460808970E+02  0.16524527165E+02  0.39210818686E+02  0.00000000000E+00 0.  1.
</event>
<event>
 7    1  0.2385752E-015  0.9000773E+02  0.7816164E-02  0.1186339E+00
        -11   -1    0    0    0    0  0.00000000000E+00  0.00000000000E+00  0.45593999997E+02  0.45594000000E+02  0.51100000000E-03 0.  1.
         11   -1    0    0    0    0 -0.00000000000E+00 -0.00000000000E+00 -0.45593999997E+02  0.45594000000E+02  0.51100000000E-03 0. -1.
    9900012    2    1    2    0    0  0.50662636844E+00 -0.41226025316E+00 -0.98306655815E+00  0.90007725180E+02  0.89999986352E+02 0.  0.
        -12    1    1    2    0    0 -0.50662636844E+00  0.41226025316E+00  0.98306655815E+00  0.11802748202E+01  0.00000000000E+00 0.  1.
         11    1    3    3    0    0 -0.68080530815E+01  0.20753319235E+00 -0.79768859591E+01  0.10489202384E+02  0.51100000000E-03 0. -1.
        -11    1    3    3    0    0 -0.55325721121E+01 -0.33428658642E+02 -0.15973061805E+02  0.37459621948E+02  0.51100000000E-03 0.  1.
         12    1    3    3    0    0  0.12847251562E+02  0.32808865197E+02  0.22966881206E+02  0.42058900848E+02  0.00000000000E+00 0. -1.
</event>
<event>
 7    1  0.2385752E-015  0.9000772E+02  0.7816164E-02  0.1186339E+00
        -11   -1    0    0    0    0  0.00000000000E+00  0.00000000000E+00  0.45593999997E+02  0.45594000000E+02  0.51100000000E-03 0.  1.
         11   -1    0    0    0    0 -0.00000000000E+00 -0.00000000000E+00 -0.45593999997E+02  0.45594000000E+02  0.51100000000E-03 0. -1.
    9900012    2    1    2    0    0  0.27630162661E+00 -0.11214512135E+01 -0.24302979983E+00  0.90007720839E+02  0.89999981955E+02 0.  0.
        -12    1    1    2    0    0 -0.27630162661E+00  0.11214512135E+01  0.24302979983E+00  0.11802791605E+01  0.00000000000E+00 0.  1.
         11    1    3    3    0    0  0.49251092787E+01  0.80628297297E+01 -0.31040271595E+01  0.99448936408E+01  0.51100000000E-03 0. -1.
        -11    1    3    3    0    0 -0.54187448720E+01  0.33466741688E+02  0.12841034457E+02  0.36252969001E+02  0.51100000000E-03 0.  1.
         12    1    3    3    0    0  0.76993721993E+00 -0.42651022631E+02 -0.99800370973E+01  0.43809858198E+02  0.00000000000E+00 0. -1.
</event>
<event>
 7    1  0.2385752E-015  0.9000776E+02  0.7816164E-02  0.1186339E+00
        -11   -1    0    0    0    0  0.00000000000E+00  0.00000000000E+00  0.45593999997E+02  0.45594000000E+02  0.51100000000E-03 0. -1.
         11   -1    0    0    0    0 -0.00000000000E+00 -0.00000000000E+00 -0.45593999997E+02  0.45594000000E+02  0.51100000000E-03 0.  1.
    9900012    2    1    2    0    0  0.10225605063E+01  0.36797991677E+00  0.46035441819E+00  0.90007760449E+02  0.90000022087E+02 0.  0.
        -12    1    1    2    0    0 -0.10225605063E+01 -0.36797991677E+00 -0.46035441819E+00  0.11802395514E+01  0.00000000000E+00 0.  1.
         11    1    3    3    0    0  0.44554553598E+01  0.75296920811E+01  0.77831525621E+01  0.11710030289E+02  0.51100000000E-03 0. -1.
        -11    1    3    3    0    0 -0.12154197594E+02 -0.34876634924E+02  0.16761021791E+02  0.40559043806E+02  0.51100000000E-03 0.  1.
         12    1    3    3    0    0  0.87213027409E+01  0.27714922759E+02 -0.24083819935E+02  0.37738686354E+02  0.00000000000E+00 0. -1.
</event>
<event>
 7    1  0.2385752E-015  0.9000779E+02  0.7816164E-02  0.1186339E+00
        -11   -1    0    0    0    0  0.00000000000E+00  0.00000000000E+00  0.45593999997E+02  0.45594000000E+02  0.51100000000E-03 0. -1.
         11   -1    0    0    0    0 -0.00000000000E+00 -0.00000000000E+00 -0.45593999997E+02  0.45594000000E+02  0.51100000000E-03 0.  1.
    9900012    2    1    2    0    0  0.18844138924E-01 -0.99561465076E+00  0.63346928583E+00  0.90007793675E+02  0.90000055751E+02 0.  0.
        -12    1    1    2    0    0 -0.18844138924E-01  0.99561465076E+00 -0.63346928583E+00  0.11802063254E+01  0.00000000000E+00 0.  1.
         11    1    3    3    0    0 -0.58171438971E+01  0.65961409935E+01 -0.55038316952E+01  0.10374989288E+02  0.51100000000E-03 0. -1.
        -11    1    3    3    0    0 -0.22376183595E+02 -0.26832007447E+02 -0.16524986913E+02  0.38648743947E+02  0.51100000000E-03 0.  1.
         12    1    3    3    0    0  0.28212171631E+02  0.19240251803E+02  0.22662287894E+02  0.40984060440E+02  0.00000000000E+00 0. -1.
</event>
<event>
 7    1  0.2385752E-015  0.9000853E+02  0.7816164E-02  0.1186337E+00
        -11   -1    0    0    0    0  0.00000000000E+00  0.00000000000E+00  0.45593999997E+02  0.45594000000E+02  0.51100000000E-03 0. -1.
         11   -1    0    0    0    0 -0.00000000000E+00 -0.00000000000E+00 -0.45593999997E+02  0.45594000000E+02  0.51100000000E-03 0.  1.
    9900012    2    1    2    0    0 -0.11769192707E+01  0.73045582813E-01 -0.25792588626E-01  0.90008534068E+02  0.90000805914E+02 0.  0.
        -12    1    1    2    0    0  0.11769192707E+01 -0.73045582813E-01  0.25792588626E-01  0.11794659319E+01  0.00000000000E+00 0.  1.
         11    1    3    3    0    0  0.13431949613E+02 -0.33669600220E+02  0.20292435736E+02  0.41543256947E+02  0.51100000000E-03 0. -1.
        -11    1    3    3    0    0  0.48622067520E+01  0.80100369886E+01  0.15317467047E+01  0.94946298130E+01  0.51100000000E-03 0.  1.
        -12    1    3    3    0    0 -0.19471075636E+02  0.25732608814E+02 -0.21849975030E+02  0.38970647308E+02  0.00000000000E+00 0.  1.
</event>
<event>
 7    1  0.2385752E-015  0.9000779E+02  0.7816164E-02  0.1186339E+00
        -11   -1    0    0    0    0  0.00000000000E+00  0.00000000000E+00  0.45593999997E+02  0.45594000000E+02  0.51100000000E-03 0. -1.
         11   -1    0    0    0    0 -0.00000000000E+00 -0.00000000000E+00 -0.45593999997E+02  0.45594000000E+02  0.51100000000E-03 0.  1.
    9900012    2    1    2    0    0 -0.15084903743E+00  0.44437989837E+00  0.10828987387E+01  0.90007788746E+02  0.90000050757E+02 0.  0.
        -12    1    1    2    0    0  0.15084903743E+00 -0.44437989837E+00 -0.10828987387E+01  0.11802112541E+01  0.00000000000E+00 0.  1.
         11    1    3    3    0    0  0.29764373779E+02 -0.13381242567E+02  0.16793616307E+02  0.36701514247E+02  0.51100000000E-03 0. -1.
        -11    1    3    3    0    0  0.84631358241E+01 -0.23995191701E+01 -0.60546089971E-01  0.87969327788E+01  0.51100000000E-03 0.  1.
        -12    1    3    3    0    0 -0.38378358641E+02  0.16225141635E+02 -0.15650171479E+02  0.44509341720E+02  0.00000000000E+00 0.  1.
</event>
<event>
 7    1  0.2385752E-015  0.9000771E+02  0.7816164E-02  0.1186339E+00
        -11   -1    0    0    0    0  0.00000000000E+00  0.00000000000E+00  0.45593999997E+02  0.45594000000E+02  0.51100000000E-03 0.  1.
         11   -1    0    0    0    0 -0.00000000000E+00 -0.00000000000E+00 -0.45593999997E+02  0.45594000000E+02  0.51100000000E-03 0. -1.
    9900012    2    1    2    0    0  0.36364140147E+00 -0.41116673866E-01 -0.11221274382E+01  0.90007705275E+02  0.89999966185E+02 0.  0.
        -12    1    1    2    0    0 -0.36364140147E+00  0.41116673866E-01  0.11221274382E+01  0.11802947247E+01  0.00000000000E+00 0.  1.
         11    1    3    3    0    0 -0.60396673817E+01 -0.38081287206E+02 -0.18213295529E+02  0.42642539226E+02  0.51100000000E-03 0. -1.
        -11    1    3    3    0    0  0.77301182703E+01  0.30812076874E+01 -0.23656086763E+00  0.83249342695E+01  0.51100000000E-03 0.  1.
        -12    1    3    3    0    0 -0.13268094872E+01  0.34958962845E+02  0.17327728958E+02  0.39040231780E+02  0.00000000000E+00 0.  1.
</event>
<event>
 7    1  0.2385752E-015  0.9000775E+02  0.7816164E-02  0.1186339E+00
        -11   -1    0    0    0    0  0.00000000000E+00  0.00000000000E+00  0.45593999997E+02  0.45594000000E+02  0.51100000000E-03 0. -1.
         11   -1    0    0    0    0 -0.00000000000E+00 -0.00000000000E+00 -0.45593999997E+02  0.45594000000E+02  0.51100000000E-03 0.  1.
    9900012    2    1    2    0    0 -0.52752384360E+00  0.66032783660E+00  0.82382334128E+00  0.90007746148E+02  0.90000007597E+02 0.  0.
        -12    1    1    2    0    0  0.52752384360E+00 -0.66032783660E+00 -0.82382334128E+00  0.11802538519E+01  0.00000000000E+00 0.  1.
         11    1    3    3    0    0  0.36134577375E+02 -0.18775216408E+02  0.20168866946E+00  0.40721703204E+02  0.51100000000E-03 0. -1.
        -11    1    3    3    0    0 -0.49191904047E+00  0.70693039167E+01  0.76410513996E+01  0.10421262350E+02  0.51100000000E-03 0.  1.
        -12    1    3    3    0    0 -0.36170182178E+02  0.12366240328E+02 -0.70189167278E+01  0.38864780595E+02  0.00000000000E+00 0.  1.
</event>
<event>
 7    1  0.2385752E-015  0.9000775E+02  0.7816164E-02  0.1186339E+00
        -11   -1    0    0    0    0  0.00000000000E+00  0.00000000000E+00  0.45593999997E+02  0.45594000000E+02  0.51100000000E-03 0. -1.
         11   -1    0    0    0    0 -0.00000000000E+00 -0.00000000000E+00 -0.45593999997E+02  0.45594000000E+02  0.51100000000E-03 0.  1.
    9900012    2    1    2    0    0 -0.21696221756E+00 -0.27829633768E+00  0.11262643538E+01  0.90007748819E+02  0.90000010304E+02 0.  0.
        -12    1    1    2    0    0  0.21696221756E+00  0.27829633768E+00 -0.11262643538E+01  0.11802511809E+01  0.00000000000E+00 0.  1.
         11    1    3    3    0    0  0.37090723351E+01 -0.69070611084E+01 -0.51625221564E+01  0.93870307349E+01  0.51100000000E-03 0. -1.
        -11    1    3    3    0    0 -0.38093329237E+02  0.73018191055E+01 -0.13574265395E+02  0.41093539344E+02  0.51100000000E-03 0.  1.
         12    1    3    3    0    0  0.34167294684E+02 -0.67305433479E+00  0.19863051905E+02  0.39527178740E+02  0.00000000000E+00 0. -1.
</event>
<event>
 7    1  0.2385752E-015  0.9000787E+02  0.7816164E-02  0.1186339E+00
        -11   -1    0    0    0    0  0.00000000000E+00  0.00000000000E+00  0.45593999997E+02  0.45594000000E+02  0.51100000000E-03 0.  1.
         11   -1    0    0    0    0 -0.00000000000E+00 -0.00000000000E+00 -0.45593999997E+02  0.45594000000E+02  0.51100000000E-03 0. -1.
    9900012    2    1    2    0    0  0.31443745240E+00 -0.85536837856E+00 -0.74979224235E+00  0.90007866795E+02  0.90000129837E+02 0.  0.
        -12    1    1    2    0    0 -0.31443745240E+00  0.85536837856E+00  0.74979224235E+00  0.11801332049E+01  0.00000000000E+00 0.  1.
         11    1    3    3    0    0 -0.32138309065E+01 -0.33155925717E+01 -0.94419645468E+01  0.10510592655E+02  0.51100000000E-03 0. -1.
        -11    1    3    3    0    0  0.35304523746E+01  0.40305844720E+02 -0.84298197245E+00  0.40468948978E+02  0.51100000000E-03 0.  1.
         12    1    3    3    0    0 -0.21840156626E-02 -0.37845620527E+02  0.95351542769E+01  0.39028325162E+02  0.00000000000E+00 0. -1.
</event>
<event>
 7    1  0.2385752E-015  0.9000763E+02  0.7816164E-02  0.1186339E+00
        -11   -1    0    0    0    0  0.00000000000E+00  0.00000000000E+00  0.45593999997E+02  0.45594000000E+02  0.51100000000E-03 0.  1.
         11   -1    0    0    0    0 -0.00000000000E+00 -0.00000000000E+00 -0.45593999997E+02  0.45594000000E+02  0.51100000000E-03 0. -1.
    9900012    2    1    2    0    0  0.57528442026E+00 -0.85101872114E+00  0.58145516846E+00  0.90007629236E+02  0.89999889142E+02 0.  0.
        -12    1    1    2    0    0 -0.57528442026E+00  0.85101872114E+00 -0.58145516846E+00  0.11803707641E+01  0.00000000000E+00 0.  1.
         11    1    3    3    0    0  0.72207549086E+01  0.37469575686E+01  0.88599700428E+01  0.12028219398E+02  0.51100000000E-03 0. -1.
        -11    1    3    3    0    0  0.67934872272E+01  0.34713479672E+02  0.10992202790E+01  0.35389057986E+02  0.51100000000E-03 0.  1.
         12    1    3    3    0    0 -0.13438957716E+02 -0.39311455961E+02 -0.93777351533E+01  0.42590351852E+02  0.00000000000E+00 0. -1.
</event>
<event>
 7    1  0.2385752E-015  0.9000771E+02  0.7816164E-02  0.1186339E+00
        -11   -1    0    0    0    0  0.00000000000E+00  0.00000000000E+00  0.45593999997E+02  0.45594000000E+02  0.51100000000E-03 0.  1.
         11   -1    0    0    0    0 -0.00000000000E+00 -0.00000000000E+00 -0.45593999997E+02  0.45594000000E+02  0.51100000000E-03 0. -1.
    9900012    2    1    2    0    0  0.97870741308E+00  0.53521799432E+00 -0.38568317347E+00  0.90007712742E+02  0.89999973750E+02 0.  0.
        -12    1    1    2    0    0 -0.97870741308E+00 -0.53521799432E+00  0.38568317347E+00  0.11802872583E+01  0.00000000000E+00 0.  1.
         11    1    3    3    0    0  0.38610181227E+02  0.33884373121E+01  0.14750434251E+02  0.41470506539E+02  0.51100000000E-03 0. -1.
        -11    1    3    3    0    0 -0.50718318985E+01  0.11477412676E+01  0.71773795656E+01  0.88631578184E+01  0.51100000000E-03 0.  1.
        -12    1    3    3    0    0 -0.32559641915E+02 -0.40009605854E+01 -0.22313496990E+02  0.39674048384E+02  0.00000000000E+00 0.  1.
</event>
<event>
 7    1  0.2385752E-015  0.9000772E+02  0.7816164E-02  0.1186339E+00
        -11   -1    0    0    0    0  0.00000000000E+00  0.00000000000E+00  0.45593999997E+02  0.45594000000E+02  0.51100000000E-03 0.  1.
         11   -1    0    0    0    0 -0.00000000000E+00 -0.00000000000E+00 -0.45593999997E+02  0.45594000000E+02  0.51100000000E-03 0. -1.
    9900012    2    1    2    0    0  0.79653176467E+00 -0.67896125312E+00 -0.54552935821E+00  0.90007723119E+02  0.89999984264E+02 0.  0.
        -12    1    1    2    0    0 -0.79653176467E+00  0.67896125312E+00  0.54552935821E+00  0.11802768811E+01  0.00000000000E+00 0.  1.
         11    1    3    3    0    0  0.44990399663E+01 -0.59731216628E+01 -0.23467683114E+01  0.78375292526E+01  0.51100000000E-03 0. -1.
        -11    1    3    3    0    0  0.84394281171E+01 -0.29683236404E+02  0.23917196393E+02  0.39042934750E+02  0.51100000000E-03 0.  1.
         12    1    3    3    0    0 -0.12141936319E+02  0.34977396813E+02 -0.22115957440E+02  0.43127259116E+02  0.00000000000E+00 0. -1.
</event>
<event>
 7    1  0.2385752E-015  0.9000788E+02  0.7816164E-02  0.1186339E+00
        -11   -1    0    0    0    0  0.00000000000E+00  0.00000000000E+00  0.45593999997E+02  0.45594000000E+02  0.51100000000E-03 0.  1.
         11   -1    0    0    0    0 -0.00000000000E+00 -0.00000000000E+00 -0.45593999997E+02  0.45594000000E+02  0.51100000000E-03 0. -1.
    9900012    2    1    2    0    0  0.51443035173E+00  0.10620125821E+01 -0.13585831725E-01  0.90007875479E+02  0.90000138635E+02 0.  0.
        -12    1    1    2    0    0 -0.51443035173E+00 -0.10620125821E+01  0.13585831725E-01  0.11801245215E+01  0.00000000000E+00 0.  1.
         11    1    3    3    0    0  0.12935056462E+02 -0.62004846051E+01 -0.14386793501E+01  0.14416362008E+02  0.51100000000E-03 0. -1.
        -11    1    3    3    0    0 -0.28101518770E+02 -0.10651145392E+01 -0.28980285061E+02  0.40381762574E+02  0.51100000000E-03 0.  1.
         12    1    3    3    0    0  0.15680892660E+02  0.83276117265E+01  0.30405378579E+02  0.35209750897E+02  0.00000000000E+00 0. -1.
</event>
<event>
 7    1  0.2385752E-015  0.9000799E+02  0.7816164E-02  0.1186339E+00
        -11   -1    0    0    0    0  0.00000000000E+00  0.00000000000E+00  0.45593999997E+02  0.45594000000E+02  0.51100000000E-03 0.  1.
         11   -1    0    0    0    0 -0.00000000000E+00 -0.00000000000E+00 -0.45593999997E+02  0.45594000000E+02  0.51100000000E-03 0. -1.
    9900012    2    1    2    0    0 -0.32195029258E+00  0.33980927617E+00 -0.10831912323E+01  0.90007989161E+02  0.90000253817E+02 0.  0.
        -12    1    1    2    0    0  0.32195029258E+00 -0.33980927617E+00  0.10831912323E+01  0.11800108393E+01  0.00000000000E+00 0.  1.
         11    1    3    3    0    0  0.76268965765E+00  0.79000781417E+01  0.41821193459E+01  0.89712347335E+01  0.51100000000E-03 0. -1.
        -11    1    3    3    0    0 -0.32669254346E+02 -0.53964567212E+01  0.21584229135E+02  0.39525698884E+02  0.51100000000E-03 0.  1.
         12    1    3    3    0    0  0.31584614396E+02 -0.21638121443E+01 -0.26849539713E+02  0.41511055543E+02  0.00000000000E+00 0. -1.
</event>
<event>
 7    1  0.2385752E-015  0.9000773E+02  0.7816164E-02  0.1186339E+00
        -11   -1    0    0    0    0  0.00000000000E+00  0.00000000000E+00  0.45593999997E+02  0.45594000000E+02  0.51100000000E-03 0. -1.
         11   -1    0    0    0    0 -0.00000000000E+00 -0.00000000000E+00 -0.45593999997E+02  0.45594000000E+02  0.51100000000E-03 0.  1.
    9900012    2    1    2    0    0 -0.97224506540E+00 -0.25291985162E+00  0.61952279151E+00  0.90007729943E+02  0.89999991178E+02 0.  0.
        -12    1    1    2    0    0  0.97224506540E+00  0.25291985162E+00 -0.61952279151E+00  0.11802700571E+01  0.00000000000E+00 0.  1.
         11    1    3    3    0    0  0.33617673030E+02 -0.13190560182E+02 -0.53782075645E+01  0.36511148088E+02  0.51100000000E-03 0. -1.
        -11    1    3    3    0    0  0.81859917915E+01  0.30549193713E+01 -0.17621616272E+01  0.89133724166E+01  0.51100000000E-03 0.  1.
        -12    1    3    3    0    0 -0.42775909887E+02  0.98827209589E+01  0.77598919832E+01  0.44583209438E+02  0.00000000000E+00 0.  1.
</event>
<event>
 7    1  0.2385752E-015  0.9000765E+02  0.7816164E-02  0.1186339E+00
        -11   -1    0    0    0    0  0.00000000000E+00  0.00000000000E+00  0.45593999997E+02  0.45594000000E+02  0.51100000000E-03 0. -1.
         11   -1    0    0    0    0 -0.00000000000E+00 -0.00000000000E+00 -0.45593999997E+02  0.45594000000E+02  0.51100000000E-03 0.  1.
    9900012    2    1    2    0    0 -0.57449740937E+00 -0.56384670794E+00  0.86327648821E+00  0.90007654001E+02  0.89999914233E+02 0.  0.
        -12    1    1    2    0    0  0.57449740937E+00  0.56384670794E+00 -0.86327648821E+00  0.11803459995E+01  0.00000000000E+00 0.  1.
         11    1    3    3    0    0 -0.61409253889E+01  0.41776846082E+01 -0.70558958758E+01  0.10244495116E+02  0.51100000000E-03 0. -1.
        -11    1    3    3    0    0 -0.63172881757E+01 -0.40858071307E+02  0.45301903025E+01  0.41591017603E+02  0.51100000000E-03 0.  1.
         12    1    3    3    0    0  0.11883716155E+02  0.36116539991E+02  0.33889820614E+01  0.38172141281E+02  0.00000000000E+00 0. -1.
</event>
<event>
 7    1  0.2385752E-015  0.9000774E+02  0.7816164E-02  0.1186339E+00
        -11   -1    0    0    0    0  0.00000000000E+00  0.00000000000E+00  0.45593999997E+02  0.45594000000E+02  0.51100000000E-03 0. -1.
         11   -1    0    0    0    0 -0.00000000000E+00 -0.00000000000E+00 -0.45593999997E+02  0.45594000000E+02  0.51100000000E-03 0.  1.
    9900012    2    1    2    0    0 -0.93083311193E+00 -0.55818593654E+00 -0.46368358033E+00  0.90007735502E+02  0.89999996811E+02 0.  0.
        -12    1    1    2    0    0  0.93083311193E+00  0.55818593654E+00  0.46368358033E+00  0.11802644978E+01  0.00000000000E+00 0.  1.
         11    1    3    3    0    0  0.73357673978E+01 -0.38519961374E+01  0.11029482290E+01  0.83586992178E+01  0.51100000000E-03 0. -1.
        -11    1    3    3    0    0 -0.84715894321E+01  0.28742153477E+02  0.29119472722E+02  0.41783045675E+02  0.51100000000E-03 0.  1.
         12    1    3    3    0    0  0.20498892239E+00 -0.25448343276E+02 -0.30686104531E+02  0.39865990609E+02  0.00000000000E+00 0. -1.
</event>
<event>
 7    1  0.2385752E-015  0.9000744E+02  0.7816164E-02  0.1186340E+00
        -11   -1    0    0    0    0  0.00000000000E+00  0.00000000000E+00  0.45593999997E+02  0.45594000000E+02  0.51100000000E-03 0. -1.
         11   -1    0    0    0    0 -0.00000000000E+00 -0.00000000000E+00 -0.45593999997E+02  0.45594000000E+02  0.51100000000E-03 0.  1.
    9900012    2    1    2    0    0 -0.31074227995E+00 -0.10732926468E+01 -0.38107082705E+00  0.90007435370E+02  0.89999692716E+02 0.  0.
        -12    1    1    2    0    0  0.31074227995E+00  0.10732926468E+01  0.38107082705E+00  0.11805646300E+01  0.00000000000E+00 0.  1.
         11    1    3    3    0    0  0.81231753226E+01  0.45395179948E+01  0.28404839654E+01  0.97294167536E+01  0.51100000000E-03 0. -1.
        -11    1    3    3    0    0  0.32833102195E+02  0.40288457385E+01  0.12088360124E+02  0.35218924579E+02  0.51100000000E-03 0.  1.
         12    1    3    3    0    0 -0.41267019798E+02 -0.96416563801E+01 -0.15309914916E+02  0.45059094038E+02  0.00000000000E+00 0. -1.
</event>
<event>
 7    1  0.2385752E-015  0.9000775E+02  0.7816164E-02  0.1186339E+00
        -11   -1    0    0    0    0  0.00000000000E+00  0.00000000000E+00  0.45593999997E+02  0.45594000000E+02  0.51100000000E-03 0. -1.
         11   -1    0    0    0    0 -0.00000000000E+00 -0.00000000000E+00 -0.45593999997E+02  0.45594000000E+02  0.51100000000E-03 0.  1.
    9900012    2    1    2    0    0  0.10602241389E+01 -0.50812407938E+00  0.10354167491E+00  0.90007751643E+02  0.90000013165E+02 0.  0.
        -12    1    1    2    0    0 -0.10602241389E+01  0.50812407938E+00 -0.10354167491E+00  0.11802483566E+01  0.00000000000E+00 0.  1.
         11    1    3    3    0    0 -0.15845865769E+02 -0.17717795743E+02  0.29870295552E+02  0.38173895590E+02  0.51100000000E-03 0. -1.
        -11    1    3    3    0    0 -0.79150272119E+01 -0.47806291244E+01 -0.57422745414E+01  0.10884658367E+02  0.51100000000E-03 0.  1.
        -12    1    3    3    0    0  0.24821117120E+02  0.21990300788E+02 -0.24024479335E+02  0.40949197686E+02  0.00000000000E+00 0.  1.
</event>
<event>
 7    1  0.2385752E-015  0.9000751E+02  0.7816164E-02  0.1186340E+00
        -11   -1    0    0    0    0  0.00000000000E+00  0.00000000000E+00  0.45593999997E+02  0.45594000000E+02  0.51100000000E-03 0. -1.
         11   -1    0    0    0    0 -0.00000000000E+00 -0.00000000000E+00 -0.45593999997E+02  0.45594000000E+02  0.51100000000E-03 0.  1.
    9900012    2    1    2    0    0  0.10855107103E+01 -0.27349379647E+00  0.37473365859E+00  0.90007509562E+02  0.89999767888E+02 0.  0.
        -12    1    1    2    0    0 -0.10855107103E+01  0.27349379647E+00 -0.37473365859E+00  0.11804904378E+01  0.00000000000E+00 0.  1.
         11    1    3    3    0    0  0.13238283723E+02 -0.51278276523E+01 -0.10690226905E+02  0.17771542530E+02  0.51100000000E-03 0. -1.
        -11    1    3    3    0    0  0.12897388587E+02  0.66267235700E+01 -0.24636439805E+02  0.28586889725E+02  0.51100000000E-03 0.  1.
         12    1    3    3    0    0 -0.25050161600E+02 -0.17723897142E+01  0.35701400368E+02  0.43649077307E+02  0.00000000000E+00 0. -1.
</event>
<event>
 7    1  0.2452449E-015  0.9000764E+02  0.7816164E-02  0.1186339E+00
        -11   -1    0    0    0    0  0.00000000000E+00  0.00000000000E+00  0.45593999997E+02  0.45594000000E+02  0.51100000000E-03 0. -1.
         11   -1    0    0    0    0 -0.00000000000E+00 -0.00000000000E+00 -0.45593999997E+02  0.45594000000E+02  0.51100000000E-03 0.  1.
    9900012    2    1    2    0    0  0.20675047514E+00 -0.50645518712E+00  0.10459514375E+01  0.90007636910E+02  0.89999896917E+02 0.  0.
        -12    1    1    2    0    0 -0.20675047514E+00  0.50645518712E+00 -0.10459514375E+01  0.11803630904E+01  0.00000000000E+00 0.  1.
         11    1    3    3    0    0 -0.44892722463E+00  0.30461083289E+02  0.29279979176E+02  0.42253950248E+02  0.51100000000E-03 0. -1.
        -11    1    3    3    0    0  0.76412709445E+01 -0.71153943797E+01 -0.41523225371E+00  0.10449415147E+02  0.51100000000E-03 0.  1.
        -12    1    3    3    0    0 -0.69855932448E+01 -0.23852144096E+02 -0.27818795485E+02  0.37304271514E+02  0.00000000000E+00 0.  1.
</event>
<event>
 7    1  0.2385752E-015  0.9000786E+02  0.7816164E-02  0.1186339E+00
        -11   -1    0    0    0    0  0.00000000000E+00  0.00000000000E+00  0.45593999997E+02  0.45594000000E+02  0.51100000000E-03 0. -1.
         11   -1    0    0    0    0 -0.00000000000E+00 -0.00000000000E+00 -0.45593999997E+02  0.45594000000E+02  0.51100000000E-03 0.  1.
    9900012    2    1    2    0    0 -0.57536562379E+00 -0.10133417174E+01  0.18660097620E+00  0.90007861465E+02  0.90000124436E+02 0.  0.
        -12    1    1    2    0    0  0.57536562379E+00  0.10133417174E+01 -0.18660097620E+00  0.11801385349E+01  0.00000000000E+00 0.  1.
         11    1    3    3    0    0  0.46451789063E+01 -0.35477536049E+00 -0.85692293464E+01  0.97537297728E+01  0.51100000000E-03 0. -1.
        -11    1    3    3    0    0  0.77785214977E+01 -0.28628463747E+02 -0.21817944101E+02  0.36825494135E+02  0.51100000000E-03 0.  1.
         12    1    3    3    0    0 -0.12999066028E+02  0.27969897390E+02  0.30573774424E+02  0.43428637558E+02  0.00000000000E+00 0. -1.
</event>
<event>
 7    1  0.2385752E-015  0.9000775E+02  0.7816164E-02  0.1186339E+00
        -11   -1    0    0    0    0  0.00000000000E+00  0.00000000000E+00  0.45593999997E+02  0.45594000000E+02  0.51100000000E-03 0.  1.
         11   -1    0    0    0    0 -0.00000000000E+00 -0.00000000000E+00 -0.45593999997E+02  0.45594000000E+02  0.51100000000E-03 0. -1.
    9900012    2    1    2    0    0  0.10578603178E+01  0.41847433891E+00 -0.31431183775E+00  0.90007753773E+02  0.90000015323E+02 0.  0.
        -12    1    1    2    0    0 -0.10578603178E+01 -0.41847433891E+00  0.31431183775E+00  0.11802462267E+01  0.00000000000E+00 0.  1.
         11    1    3    3    0    0 -0.10766879534E+01 -0.42250459880E+01  0.11056275013E+02  0.11884926923E+02  0.51100000000E-03 0. -1.
        -11    1    3    3    0    0  0.18145370566E+02  0.34805999098E+02  0.61682502410E+01  0.39733604889E+02  0.51100000000E-03 0.  1.
         12    1    3    3    0    0 -0.16010822295E+02 -0.30162478771E+02 -0.17538837092E+02  0.38389221960E+02  0.00000000000E+00 0. -1.
</event>
<event>
 7    1  0.2385752E-015  0.9000761E+02  0.7816164E-02  0.1186339E+00
        -11   -1    0    0    0    0  0.00000000000E+00  0.00000000000E+00  0.45593999997E+02  0.45594000000E+02  0.51100000000E-03 0.  1.
         11   -1    0    0    0    0 -0.00000000000E+00 -0.00000000000E+00 -0.45593999997E+02  0.45594000000E+02  0.51100000000E-03 0. -1.
    9900012    2    1    2    0    0  0.39276317879E+00 -0.79263458146E+00 -0.78152511631E+00  0.90007612775E+02  0.89999872463E+02 0.  0.
        -12    1    1    2    0    0 -0.39276317879E+00  0.79263458146E+00  0.78152511631E+00  0.11803872253E+01  0.00000000000E+00 0.  1.
         11    1    3    3    0    0 -0.87834799160E+01  0.73568193133E+00  0.69306708835E+00  0.88414416013E+01  0.51100000000E-03 0. -1.
        -11    1    3    3    0    0 -0.11929897933E+01  0.10409706933E+02  0.37589801783E+02  0.39022793614E+02  0.51100000000E-03 0.  1.
         12    1    3    3    0    0  0.10369232888E+02 -0.11938023446E+02 -0.39064393988E+02  0.42143377559E+02  0.00000000000E+00 0. -1.
</event>
<event>
 7    1  0.2385752E-015  0.9000779E+02  0.7816164E-02  0.1186339E+00
        -11   -1    0    0    0    0  0.00000000000E+00  0.00000000000E+00  0.45593999997E+02  0.45594000000E+02  0.51100000000E-03 0. -1.
         11   -1    0    0    0    0 -0.00000000000E+00 -0.00000000000E+00 -0.45593999997E+02  0.45594000000E+02  0.51100000000E-03 0.  1.
    9900012    2    1    2    0    0 -0.74627824522E+00 -0.41202513904E+00  0.81621466633E+00  0.90007787173E+02  0.90000049164E+02 0.  0.
        -12    1    1    2    0    0  0.74627824522E+00  0.41202513904E+00 -0.81621466633E+00  0.11802128266E+01  0.00000000000E+00 0.  1.
         11    1    3    3    0    0  0.37274844379E+01 -0.39607192789E+01 -0.61941568277E+01  0.82431193434E+01  0.51100000000E-03 0. -1.
        -11    1    3    3    0    0 -0.17134773088E+02 -0.33774089975E+02  0.16367108708E+02  0.41257385401E+02  0.51100000000E-03 0.  1.
         12    1    3    3    0    0  0.12661010405E+02  0.37322784115E+02 -0.93567372137E+01  0.40507282429E+02  0.00000000000E+00 0. -1.
</event>
<event>
 7    1  0.2385752E-015  0.9000771E+02  0.7816164E-02  0.1186339E+00
        -11   -1    0    0    0    0  0.00000000000E+00  0.00000000000E+00  0.45593999997E+02  0.45594000000E+02  0.51100000000E-03 0.  1.
         11   -1    0    0    0    0 -0.00000000000E+00 -0.00000000000E+00 -0.45593999997E+02  0.45594000000E+02  0.51100000000E-03 0. -1.
    9900012    2    1    2    0    0  0.38612471619E+00 -0.85892291951E+00  0.71151241345E+00  0.90007707328E+02  0.89999968264E+02 0.  0.
        -12    1    1    2    0    0 -0.38612471619E+00  0.85892291951E+00 -0.71151241345E+00  0.11802926724E+01  0.00000000000E+00 0.  1.
         11    1    3    3    0    0 -0.95976836742E+01 -0.42434460745E+01 -0.15917411226E+02  0.19065317907E+02  0.51100000000E-03 0. -1.
        -11    1    3    3    0    0 -0.17442039536E+02 -0.19851496036E+02  0.22268417400E+02  0.34557040553E+02  0.51100000000E-03 0.  1.
        -12    1    3    3    0    0  0.27425847926E+02  0.23236019191E+02 -0.56394937607E+01  0.36385348867E+02  0.00000000000E+00 0.  1.
</event>
<event>
 7    1  0.2385752E-015  0.9000797E+02  0.7816164E-02  0.1186339E+00
        -11   -1    0    0    0    0  0.00000000000E+00  0.00000000000E+00  0.45593999997E+02  0.45594000000E+02  0.51100000000E-03 0.  1.
         11   -1    0    0    0    0 -0.00000000000E+00 -0.00000000000E+00 -0.45593999997E+02  0.45594000000E+02  0.51100000000E-03 0. -1.
    9900012    2    1    2    0    0 -0.95878481749E+00  0.68789314315E+00  0.16769812681E-02  0.90007971138E+02  0.90000235557E+02 0.  0.
        -12    1    1    2    0    0  0.95878481749E+00 -0.68789314315E+00 -0.16769812681E-02  0.11800288619E+01  0.00000000000E+00 0.  1.
         11    1    3    3    0    0  0.40163168748E+01  0.66552541696E+01  0.47564587895E+01  0.91130186974E+01  0.51100000000E-03 0. -1.
        -11    1    3    3    0    0 -0.18837270846E+02  0.15874108674E+02  0.29203492165E+02  0.38205680913E+02  0.51100000000E-03 0.  1.
         12    1    3    3    0    0  0.13862169154E+02 -0.21841469701E+02 -0.33958273973E+02  0.42689271528E+02  0.00000000000E+00 0. -1.
</event>
<event>
 7    1  0.2385752E-015  0.9000762E+02  0.7816164E-02  0.1186339E+00
        -11   -1    0    0    0    0  0.00000000000E+00  0.00000000000E+00  0.45593999997E+02  0.45594000000E+02  0.51100000000E-03 0.  1.
         11   -1    0    0    0    0 -0.00000000000E+00 -0.00000000000E+00 -0.45593999997E+02  0.45594000000E+02  0.51100000000E-03 0. -1.
    9900012    2    1    2    0    0  0.10131055972E+01 -0.59460815506E+00 -0.11556497209E+00  0.90007619946E+02  0.89999879729E+02 0.  0.
        -12    1    1    2    0    0 -0.10131055972E+01  0.59460815506E+00  0.11556497209E+00  0.11803800540E+01  0.00000000000E+00 0.  1.
         11    1    3    3    0    0  0.24043589014E+02  0.64147922495E+01 -0.29989960754E+02  0.38969750815E+02  0.51100000000E-03 0. -1.
        -11    1    3    3    0    0 -0.38975431426E+01  0.76427463599E+01 -0.40000276441E+01  0.94658668850E+01  0.51100000000E-03 0.  1.
        -12    1    3    3    0    0 -0.19132940274E+02 -0.14652146764E+02  0.33874423426E+02  0.41572002246E+02  0.00000000000E+00 0.  1.
</event>
<event>
 7    1  0.2385752E-015  0.9000775E+02  0.7816164E-02  0.1186339E+00
        -11   -1    0    0    0    0  0.00000000000E+00  0.00000000000E+00  0.45593999997E+02  0.45594000000E+02  0.51100000000E-03 0.  1.
         11   -1    0    0    0    0 -0.00000000000E+00 -0.00000000000E+00 -0.45593999997E+02  0.45594000000E+02  0.51100000000E-03 0. -1.
    9900012    2    1    2    0    0 -0.71063445570E+00 -0.62424975567E+00 -0.70591141200E+00  0.90007745786E+02  0.90000007231E+02 0.  0.
        -12    1    1    2    0    0  0.71063445570E+00  0.62424975567E+00  0.70591141200E+00  0.11802542136E+01  0.00000000000E+00 0.  1.
         11    1    3    3    0    0  0.24047026376E+01  0.88815605119E+01 -0.27551783730E+01  0.96049841244E+01  0.51100000000E-03 0. -1.
        -11    1    3    3    0    0  0.29350903215E+02  0.74443947866E+01  0.23166848358E+02  0.38126072397E+02  0.51100000000E-03 0.  1.
         12    1    3    3    0    0 -0.32466240309E+02 -0.16950205054E+02 -0.21117581397E+02  0.42276689265E+02  0.00000000000E+00 0. -1.
</event>
<event>
 7    1  0.2385752E-015  0.9000770E+02  0.7816164E-02  0.1186339E+00
        -11   -1    0    0    0    0  0.00000000000E+00  0.00000000000E+00  0.45593999997E+02  0.45594000000E+02  0.51100000000E-03 0. -1.
         11   -1    0    0    0    0 -0.00000000000E+00 -0.00000000000E+00 -0.45593999997E+02  0.45594000000E+02  0.51100000000E-03 0.  1.
    9900012    2    1    2    0    0  0.75083568950E+00  0.67057133318E+00 -0.61619036042E+00  0.90007698892E+02  0.89999959717E+02 0.  0.
        -12    1    1    2    0    0 -0.75083568950E+00 -0.67057133318E+00  0.61619036042E+00  0.11803011081E+01  0.00000000000E+00 0.  1.
         11    1    3    3    0    0  0.75928832990E+01  0.28452368250E+01 -0.36073307673E+01  0.88746878767E+01  0.51100000000E-03 0. -1.
        -11    1    3    3    0    0  0.20264557133E+02  0.98728519535E+01 -0.29507336935E+02  0.37132309580E+02  0.51100000000E-03 0.  1.
         12    1    3    3    0    0 -0.27106604743E+02 -0.12047517445E+02  0.32498477342E+02  0.44000701435E+02  0.00000000000E+00 0. -1.
</event>
<event>
 7    1  0.2385752E-015  0.9000778E+02  0.7816164E-02  0.1186339E+00
        -11   -1    0    0    0    0  0.00000000000E+00  0.00000000000E+00  0.45593999997E+02  0.45594000000E+02  0.51100000000E-03 0.  1.
         11   -1    0    0    0    0 -0.00000000000E+00 -0.00000000000E+00 -0.45593999997E+02  0.45594000000E+02  0.51100000000E-03 0. -1.
    9900012    2    1    2    0    0  0.72335581080E+00  0.62896273628E+00 -0.68853445592E+00  0.90007780762E+02  0.90000042668E+02 0.  0.
        -12    1    1    2    0    0 -0.72335581080E+00 -0.62896273628E+00  0.68853445592E+00  0.11802192380E+01  0.00000000000E+00 0.  1.
         11    1    3    3    0    0 -0.21692282381E+02  0.30875092508E+02 -0.11223235002E+02  0.39367339972E+02  0.51100000000E-03 0. -1.
        -11    1    3    3    0    0 -0.68073358141E+01 -0.37703501241E+01 -0.38293346062E+01  0.86728982890E+01  0.51100000000E-03 0.  1.
        -12    1    3    3    0    0  0.29222974006E+02 -0.26475779648E+02  0.14364035152E+02  0.41967542501E+02  0.00000000000E+00 0.  1.
</event>
<event>
 7    1  0.2385752E-015  0.9000764E+02  0.7816164E-02  0.1186339E+00
        -11   -1    0    0    0    0  0.00000000000E+00  0.00000000000E+00  0.45593999997E+02  0.45594000000E+02  0.51100000000E-03 0.  1.
         11   -1    0    0    0    0 -0.00000000000E+00 -0.00000000000E+00 -0.45593999997E+02  0.45594000000E+02  0.51100000000E-03 0. -1.
    9900012    2    1    2    0    0  0.88760511189E+00 -0.60849616088E+00 -0.48491211220E+00  0.90007639814E+02  0.89999899859E+02 0.  0.
        -12    1    1    2    0    0 -0.88760511189E+00  0.60849616088E+00  0.48491211220E+00  0.11803601861E+01  0.00000000000E+00 0.  1.
         11    1    3    3    0    0 -0.93419326457E+01  0.42299031005E+01 -0.37398028163E+02  0.38778554595E+02  0.51100000000E-03 0. -1.
        -11    1    3    3    0    0  0.45595809403E+01  0.74667707299E+01 -0.28657046587E+01  0.92062319619E+01  0.51100000000E-03 0.  1.
        -12    1    3    3    0    0  0.56699568173E+01 -0.12305169991E+02  0.39778820709E+02  0.42022853257E+02  0.00000000000E+00 0.  1.
</event>
<event>
 7    1  0.2385752E-015  0.9000780E+02  0.7816164E-02  0.1186339E+00
        -11   -1    0    0    0    0  0.00000000000E+00  0.00000000000E+00  0.45593999997E+02  0.45594000000E+02  0.51100000000E-03 0. -1.
         11   -1    0    0    0    0 -0.00000000000E+00 -0.00000000000E+00 -0.45593999997E+02  0.45594000000E+02  0.51100000000E-03 0.  1.
    9900012    2    1    2    0    0 -0.52961136767E+00 -0.53845693008E+00  0.90689012249E+00  0.90007799271E+02  0.90000061421E+02 0.  0.
        -12    1    1    2    0    0  0.52961136767E+00  0.53845693008E+00 -0.90689012249E+00  0.11802007289E+01  0.00000000000E+00 0.  1.
         11    1    3    3    0    0 -0.55178974703E+01  0.55162277978E+01 -0.43301535371E+01  0.89233509135E+01  0.51100000000E-03 0. -1.
        -11    1    3    3    0    0 -0.17272935811E+02  0.81044209971E+01 -0.30915444752E+02  0.36329061035E+02  0.51100000000E-03 0.  1.
         12    1    3    3    0    0  0.22261221913E+02 -0.14159105725E+02  0.36152488412E+02  0.44755387322E+02  0.00000000000E+00 0. -1.
</event>
<event>
 7    1  0.2385752E-015  0.9000776E+02  0.7816164E-02  0.1186339E+00
        -11   -1    0    0    0    0  0.00000000000E+00  0.00000000000E+00  0.45593999997E+02  0.45594000000E+02  0.51100000000E-03 0.  1.
         11   -1    0    0    0    0 -0.00000000000E+00 -0.00000000000E+00 -0.45593999997E+02  0.45594000000E+02  0.51100000000E-03 0. -1.
    9900012    2    1    2    0    0  0.85455784502E+00 -0.53530233429E+00 -0.61331309340E+00  0.90007758224E+02  0.90000019832E+02 0.  0.
        -12    1    1    2    0    0 -0.85455784502E+00  0.53530233429E+00  0.61331309340E+00  0.11802417761E+01  0.00000000000E+00 0.  1.
         11    1    3    3    0    0 -0.30135339392E+01 -0.86951897071E+01 -0.81333167196E+01  0.12281634743E+02  0.51100000000E-03 0. -1.
        -11    1    3    3    0    0 -0.14475355900E+02 -0.29067277462E+02 -0.79572174860E+01  0.33432915785E+02  0.51100000000E-03 0.  1.
         12    1    3    3    0    0  0.18343447684E+02  0.37227164835E+02  0.15477221112E+02  0.44293207696E+02  0.00000000000E+00 0. -1.
</event>
<event>
 7    1  0.2385752E-015  0.9000805E+02  0.7816164E-02  0.1186338E+00
        -11   -1    0    0    0    0  0.00000000000E+00  0.00000000000E+00  0.45593999997E+02  0.45594000000E+02  0.51100000000E-03 0. -1.
         11   -1    0    0    0    0 -0.00000000000E+00 -0.00000000000E+00 -0.45593999997E+02  0.45594000000E+02  0.51100000000E-03 0.  1.
    9900012    2    1    2    0    0 -0.74654840198E+00 -0.50603288369E+00 -0.76083448578E+00  0.90008053853E+02  0.90000319363E+02 0.  0.
        -12    1    1    2    0    0  0.74654840198E+00  0.50603288369E+00  0.76083448578E+00  0.11799461473E+01  0.00000000000E+00 0.  1.
         11    1    3    3    0    0 -0.25179509787E+01  0.88858097008E+00  0.82641714163E+01  0.86848248532E+01  0.51100000000E-03 0. -1.
        -11    1    3    3    0    0 -0.53824161947E+01 -0.37760719667E+02 -0.19459200812E+02  0.42819421416E+02  0.51100000000E-03 0.  1.
         12    1    3    3    0    0  0.71538187715E+01  0.36366105813E+02  0.10434194910E+02  0.38503807584E+02  0.00000000000E+00 0. -1.
</event>
<event>
 7    1  0.2385752E-015  0.9000764E+02  0.7816164E-02  0.1186339E+00
        -11   -1    0    0    0    0  0.00000000000E+00  0.00000000000E+00  0.45593999997E+02  0.45594000000E+02  0.51100000000E-03 0. -1.
         11   -1    0    0    0    0 -0.00000000000E+00 -0.00000000000E+00 -0.45593999997E+02  0.45594000000E+02  0.51100000000E-03 0.  1.
    9900012    2    1    2    0    0  0.89210057272E+00  0.72318043782E+00  0.27281181320E+00  0.90007635792E+02  0.89999895785E+02 0.  0.
        -12    1    1    2    0    0 -0.89210057272E+00 -0.72318043782E+00 -0.27281181320E+00  0.11803642077E+01  0.00000000000E+00 0.  1.
         11    1    3    3    0    0 -0.10866846280E+02  0.68216332445E+01  0.32645349343E+02  0.35076229304E+02  0.51100000000E-03 0. -1.
        -11    1    3    3    0    0 -0.52136626149E+01  0.38617771514E+01  0.78311465612E+01  0.10169683247E+02  0.51100000000E-03 0.  1.
        -12    1    3    3    0    0  0.16972609468E+02 -0.99602299580E+01 -0.40203684091E+02  0.44761723241E+02  0.00000000000E+00 0.  1.
</event>
<event>
 7    1  0.2385752E-015  0.9000770E+02  0.7816164E-02  0.1186339E+00
        -11   -1    0    0    0    0  0.00000000000E+00  0.00000000000E+00  0.45593999997E+02  0.45594000000E+02  0.51100000000E-03 0.  1.
         11   -1    0    0    0    0 -0.00000000000E+00 -0.00000000000E+00 -0.45593999997E+02  0.45594000000E+02  0.51100000000E-03 0. -1.
    9900012    2    1    2    0    0  0.11072957890E+00  0.49644548202E+00 -0.10650754458E+01  0.90007701368E+02  0.89999962226E+02 0.  0.
        -12    1    1    2    0    0 -0.11072957890E+00 -0.49644548202E+00  0.10650754458E+01  0.11802986323E+01  0.00000000000E+00 0.  1.
         11    1    3    3    0    0 -0.10820366001E+02  0.80302286485E+01 -0.31273768057E+02  0.34053097675E+02  0.51100000000E-03 0. -1.
        -11    1    3    3    0    0 -0.16258318725E+02  0.32601363029E+01  0.17349960357E+02  0.23999636270E+02  0.51100000000E-03 0.  1.
        -12    1    3    3    0    0  0.27189414305E+02 -0.10793919469E+02  0.12858732254E+02  0.31954967422E+02  0.00000000000E+00 0.  1.
</event>
<event>
 7    1  0.2385752E-015  0.9000780E+02  0.7816164E-02  0.1186339E+00
        -11   -1    0    0    0    0  0.00000000000E+00  0.00000000000E+00  0.45593999997E+02  0.45594000000E+02  0.51100000000E-03 0.  1.
         11   -1    0    0    0    0 -0.00000000000E+00 -0.00000000000E+00 -0.45593999997E+02  0.45594000000E+02  0.51100000000E-03 0. -1.
    9900012    2    1    2    0    0  0.19823707373E+00  0.29662937200E+00 -0.11249849692E+01  0.90007797431E+02  0.90000059558E+02 0.  0.
        -12    1    1    2    0    0 -0.19823707373E+00 -0.29662937200E+00  0.11249849692E+01  0.11802025685E+01  0.00000000000E+00 0.  1.
         11    1    3    3    0    0 -0.29024742154E+02 -0.23870890690E+02 -0.15023021105E+02  0.40471548559E+02  0.51100000000E-03 0. -1.
        -11    1    3    3    0    0  0.83190724539E+01 -0.54531612617E+01 -0.16604660029E+01  0.10084695427E+02  0.51100000000E-03 0.  1.
        -12    1    3    3    0    0  0.20903906774E+02  0.29620681323E+02  0.15558502138E+02  0.39451553445E+02  0.00000000000E+00 0.  1.
</event>
<event>
 7    1  0.2385752E-015  0.9000777E+02  0.7816164E-02  0.1186339E+00
        -11   -1    0    0    0    0  0.00000000000E+00  0.00000000000E+00  0.45593999997E+02  0.45594000000E+02  0.51100000000E-03 0.  1.
         11   -1    0    0    0    0 -0.00000000000E+00 -0.00000000000E+00 -0.45593999997E+02  0.45594000000E+02  0.51100000000E-03 0. -1.
    9900012    2    1    2    0    0  0.10408382759E+01 -0.17161532012E+00 -0.52928954989E+00  0.90007769699E+02  0.90000031459E+02 0.  0.
        -12    1    1    2    0    0 -0.10408382759E+01  0.17161532012E+00  0.52928954989E+00  0.11802303006E+01  0.00000000000E+00 0.  1.
         11    1    3    3    0    0  0.51963440100E+01  0.79389108041E+01 -0.19236925492E+01  0.96813681425E+01  0.51100000000E-03 0. -1.
        -11    1    3    3    0    0 -0.28936707785E+02  0.16665293865E+02  0.21702051365E+02  0.39825169312E+02  0.51100000000E-03 0.  1.
         12    1    3    3    0    0  0.24781202051E+02 -0.24775819989E+02 -0.20307648365E+02  0.40501232245E+02  0.00000000000E+00 0. -1.
</event>
<event>
 7    1  0.2385752E-015  0.9000807E+02  0.7816164E-02  0.1186338E+00
        -11   -1    0    0    0    0  0.00000000000E+00  0.00000000000E+00  0.45593999997E+02  0.45594000000E+02  0.51100000000E-03 0. -1.
         11   -1    0    0    0    0 -0.00000000000E+00 -0.00000000000E+00 -0.45593999997E+02  0.45594000000E+02  0.51100000000E-03 0.  1.
    9900012    2    1    2    0    0 -0.90199882424E+00  0.28030677510E+00 -0.70715103488E+00  0.90008069344E+02  0.90000335059E+02 0.  0.
        -12    1    1    2    0    0  0.90199882424E+00 -0.28030677510E+00  0.70715103488E+00  0.11799306561E+01  0.00000000000E+00 0.  1.
         11    1    3    3    0    0 -0.15348285250E+02  0.29436621058E+02  0.17165359359E+02  0.37372905715E+02  0.51100000000E-03 0. -1.
        -11    1    3    3    0    0  0.58001912956E+01  0.63964086990E+01  0.45116635920E+01  0.97422467603E+01  0.51100000000E-03 0.  1.
        -12    1    3    3    0    0  0.86460951305E+01 -0.35552722982E+02 -0.22384173986E+02  0.42892916868E+02  0.00000000000E+00 0.  1.
</event>
<event>
 7    1  0.2385752E-015  0.9000769E+02  0.7816164E-02  0.1186339E+00
        -11   -1    0    0    0    0  0.00000000000E+00  0.00000000000E+00  0.45593999997E+02  0.45594000000E+02  0.51100000000E-03 0.  1.
         11   -1    0    0    0    0 -0.00000000000E+00 -0.00000000000E+00 -0.45593999997E+02  0.45594000000E+02  0.51100000000E-03 0. -1.
    9900012    2    1    2    0    0 -0.10205973362E+01  0.32682778700E-01 -0.59198303810E+00  0.90007690293E+02  0.89999951005E+02 0.  0.
        -12    1    1    2    0    0  0.10205973362E+01 -0.32682778700E-01  0.59198303810E+00  0.11803097069E+01  0.00000000000E+00 0.  1.
         11    1    3    3    0    0  0.80321613667E-01 -0.32260960896E+01  0.87736913538E+01  0.93483585604E+01  0.51100000000E-03 0. -1.
        -11    1    3    3    0    0  0.73382899869E+01 -0.31981556045E+02  0.15921822648E+02  0.36471562397E+02  0.51100000000E-03 0.  1.
         12    1    3    3    0    0 -0.84392089367E+01  0.35240334913E+02 -0.25287497040E+02  0.44187769335E+02  0.00000000000E+00 0. -1.
</event>
<event>
 7    1  0.2385752E-015  0.9000776E+02  0.7816164E-02  0.1186339E+00
        -11   -1    0    0    0    0  0.00000000000E+00  0.00000000000E+00  0.45593999997E+02  0.45594000000E+02  0.51100000000E-03 0.  1.
         11   -1    0    0    0    0 -0.00000000000E+00 -0.00000000000E+00 -0.45593999997E+02  0.45594000000E+02  0.51100000000E-03 0. -1.
    9900012    2    1    2    0    0  0.10721077030E+01 -0.64862069027E-01  0.48922255475E+00  0.90007762429E+02  0.90000024093E+02 0.  0.
        -12    1    1    2    0    0 -0.10721077030E+01  0.64862069027E-01 -0.48922255475E+00  0.11802375706E+01  0.00000000000E+00 0.  1.
         11    1    3    3    0    0  0.90905816481E+01  0.18334585887E+00 -0.39163662656E+01  0.99000108784E+01  0.51100000000E-03 0. -1.
        -11    1    3    3    0    0  0.30556685574E+02 -0.19791293806E+02  0.56756991899E+01  0.36845894010E+02  0.51100000000E-03 0.  1.
         12    1    3    3    0    0 -0.38575159519E+02  0.19543085879E+02 -0.12701103695E+01  0.43261857541E+02  0.00000000000E+00 0. -1.
</event>
<event>
 7    1  0.2385752E-015  0.9000761E+02  0.7816164E-02  0.1186339E+00
        -11   -1    0    0    0    0  0.00000000000E+00  0.00000000000E+00  0.45593999997E+02  0.45594000000E+02  0.51100000000E-03 0.  1.
         11   -1    0    0    0    0 -0.00000000000E+00 -0.00000000000E+00 -0.45593999997E+02  0.45594000000E+02  0.51100000000E-03 0. -1.
    9900012    2    1    2    0    0  0.11146632857E+01 -0.33873335358E+00  0.19000125611E+00  0.90007612351E+02  0.89999872034E+02 0.  0.
        -12    1    1    2    0    0 -0.11146632857E+01  0.33873335358E+00 -0.19000125611E+00  0.11803876493E+01  0.00000000000E+00 0.  1.
         11    1    3    3    0    0 -0.30924859389E+02 -0.46127006925E+01 -0.25654195337E+01  0.31372046691E+02  0.51100000000E-03 0. -1.
        -11    1    3    3    0    0 -0.11625665546E+02 -0.88584620734E+00 -0.69973446933E+01  0.13597928368E+02  0.51100000000E-03 0.  1.
        -12    1    3    3    0    0  0.43665188221E+02  0.51598135462E+01  0.97527654831E+01  0.45037637291E+02  0.00000000000E+00 0.  1.
</event>
<event>
 7    1  0.2385752E-015  0.9000769E+02  0.7816164E-02  0.1186339E+00
        -11   -1    0    0    0    0  0.00000000000E+00  0.00000000000E+00  0.45593999997E+02  0.45594000000E+02  0.51100000000E-03 0.  1.
         11   -1    0    0    0    0 -0.00000000000E+00 -0.00000000000E+00 -0.45593999997E+02  0.45594000000E+02  0.51100000000E-03 0. -1.
    9900012    2    1    2    0    0  0.82338625924E+00  0.73497483953E+00 -0.41829318439E+00  0.90007694050E+02  0.89999954812E+02 0.  0.
        -12    1    1    2    0    0 -0.82338625924E+00 -0.73497483953E+00  0.41829318439E+00  0.11803059496E+01  0.00000000000E+00 0.  1.
         11    1    3    3    0    0  0.31639242981E+01  0.11794840231E+02  0.12484059360E+02  0.17463688368E+02  0.51100000000E-03 0. -1.
        -11    1    3    3    0    0 -0.22849345179E+02 -0.26629824267E+02  0.11642759418E+02  0.36970176666E+02  0.51100000000E-03 0.  1.
         12    1    3    3    0    0  0.20508807140E+02  0.15569958876E+02 -0.24545111963E+02  0.35573829017E+02  0.00000000000E+00 0. -1.
</event>
<event>
 7    1  0.2385752E-015  0.9000786E+02  0.7816164E-02  0.1186339E+00
        -11   -1    0    0    0    0  0.00000000000E+00  0.00000000000E+00  0.45593999997E+02  0.45594000000E+02  0.51100000000E-03 0.  1.
         11   -1    0    0    0    0 -0.00000000000E+00 -0.00000000000E+00 -0.45593999997E+02  0.45594000000E+02  0.51100000000E-03 0. -1.
    9900012    2    1    2    0    0 -0.29735717830E+00  0.41057085094E+00 -0.10657153944E+01  0.90007856357E+02  0.90000119261E+02 0.  0.
        -12    1    1    2    0    0  0.29735717830E+00 -0.41057085094E+00  0.10657153944E+01  0.11801436425E+01  0.00000000000E+00 0.  1.
         11    1    3    3    0    0  0.35648075208E+02  0.17980842637E+02 -0.10518114120E+02  0.41288336039E+02  0.51100000000E-03 0. -1.
        -11    1    3    3    0    0 -0.31566322552E+01  0.60316827121E+01 -0.12601253421E+01  0.69233979860E+01  0.51100000000E-03 0.  1.
        -12    1    3    3    0    0 -0.32788800131E+02 -0.23601954498E+02  0.10712524068E+02  0.41796122333E+02  0.00000000000E+00 0.  1.
</event>
<event>
 7    1  0.2385752E-015  0.9000772E+02  0.7816164E-02  0.1186339E+00
        -11   -1    0    0    0    0  0.00000000000E+00  0.00000000000E+00  0.45593999997E+02  0.45594000000E+02  0.51100000000E-03 0. -1.
         11   -1    0    0    0    0 -0.00000000000E+00 -0.00000000000E+00 -0.45593999997E+02  0.45594000000E+02  0.51100000000E-03 0.  1.
    9900012    2    1    2    0    0  0.78252609295E+00  0.55013388029E+00  0.69141589740E+00  0.90007724475E+02  0.89999985638E+02 0.  0.
        -12    1    1    2    0    0 -0.78252609295E+00 -0.55013388029E+00 -0.69141589740E+00  0.11802755253E+01  0.00000000000E+00 0.  1.
         11    1    3    3    0    0 -0.34438665700E+02  0.86101097000E+01  0.22618254708E+02  0.42092055433E+02  0.51100000000E-03 0. -1.
        -11    1    3    3    0    0  0.88499329872E+01  0.61529978668E+01  0.20825070767E-01  0.10778735110E+02  0.51100000000E-03 0.  1.
        -12    1    3    3    0    0  0.26371258806E+02 -0.14212973687E+02 -0.21947663882E+02  0.37136933932E+02  0.00000000000E+00 0.  1.
</event>
<event>
 7    1  0.2385752E-015  0.9000814E+02  0.7816164E-02  0.1186338E+00
        -11   -1    0    0    0    0  0.00000000000E+00  0.00000000000E+00  0.45593999997E+02  0.45594000000E+02  0.51100000000E-03 0.  1.
         11   -1    0    0    0    0 -0.00000000000E+00 -0.00000000000E+00 -0.45593999997E+02  0.45594000000E+02  0.51100000000E-03 0. -1.
    9900012    2    1    2    0    0  0.11511594420E+01 -0.17656555942E+00 -0.18899517409E+00  0.90008142961E+02  0.90000409647E+02 0.  0.
        -12    1    1    2    0    0 -0.11511594420E+01  0.17656555942E+00  0.18899517409E+00  0.11798570394E+01  0.00000000000E+00 0.  1.
         11    1    3    3    0    0  0.60680194019E+01 -0.10467168187E+02 -0.41995174507E+01  0.12806967494E+02  0.51100000000E-03 0. -1.
        -11    1    3    3    0    0  0.33411436896E+02  0.11602461726E+02 -0.93605294256E+01  0.36586346428E+02  0.51100000000E-03 0.  1.
         12    1    3    3    0    0 -0.38328296856E+02 -0.13118590985E+01  0.13371051702E+02  0.40614829038E+02  0.00000000000E+00 0. -1.
</event>
<event>
 7    1  0.2385752E-015  0.9000774E+02  0.7816164E-02  0.1186339E+00
        -11   -1    0    0    0    0  0.00000000000E+00  0.00000000000E+00  0.45593999997E+02  0.45594000000E+02  0.51100000000E-03 0.  1.
         11   -1    0    0    0    0 -0.00000000000E+00 -0.00000000000E+00 -0.45593999997E+02  0.45594000000E+02  0.51100000000E-03 0. -1.
    9900012    2    1    2    0    0 -0.87938793661E+00 -0.50766520353E+00 -0.60164582688E+00  0.90007735283E+02  0.89999996588E+02 0.  0.
        -12    1    1    2    0    0  0.87938793661E+00  0.50766520353E+00  0.60164582688E+00  0.11802647173E+01  0.00000000000E+00 0.  1.
         11    1    3    3    0    0  0.16212958876E+00 -0.52179625228E+01  0.70711669095E+01  0.87894721466E+01  0.51100000000E-03 0. -1.
        -11    1    3    3    0    0  0.13200468651E+02 -0.33815380159E+02  0.81463006156E+01  0.37203420836E+02  0.51100000000E-03 0.  1.
         12    1    3    3    0    0 -0.14241986177E+02  0.38525677479E+02 -0.15819113352E+02  0.44014842300E+02  0.00000000000E+00 0. -1.
</event>
<event>
 7    1  0.2385752E-015  0.9000775E+02  0.7816164E-02  0.1186339E+00
        -11   -1    0    0    0    0  0.00000000000E+00  0.00000000000E+00  0.45593999997E+02  0.45594000000E+02  0.51100000000E-03 0.  1.
         11   -1    0    0    0    0 -0.00000000000E+00 -0.00000000000E+00 -0.45593999997E+02  0.45594000000E+02  0.51100000000E-03 0. -1.
    9900012    2    1    2    0    0 -0.32717952610E+00  0.13975528461E+00 -0.11253473276E+01  0.90007752319E+02  0.90000013849E+02 0.  0.
        -12    1    1    2    0    0  0.32717952610E+00 -0.13975528461E+00  0.11253473276E+01  0.11802476815E+01  0.00000000000E+00 0.  1.
         11    1    3    3    0    0  0.12534273771E+02 -0.13783791433E+02  0.11201750007E+01  0.18664289902E+02  0.51100000000E-03 0. -1.
        -11    1    3    3    0    0 -0.31523117606E+02 -0.14574238391E+02  0.82561532798E+01  0.35697050796E+02  0.51100000000E-03 0.  1.
        -12    1    3    3    0    0  0.18661664309E+02  0.28497785109E+02 -0.10501675608E+02  0.35646411621E+02  0.00000000000E+00 0.  1.
</event>
<event>
 7    1  0.2385752E-015  0.9000770E+02  0.7816164E-02  0.1186339E+00
        -11   -1    0    0    0    0  0.00000000000E+00  0.00000000000E+00  0.45593999997E+02  0.45594000000E+02  0.51100000000E-03 0. -1.
         11   -1    0    0    0    0 -0.00000000000E+00 -0.00000000000E+00 -0.45593999997E+02  0.45594000000E+02  0.51100000000E-03 0.  1.
    9900012    2    1    2    0    0 -0.14832452999E+00 -0.13856953011E+00  0.11627109580E+01  0.90007704083E+02  0.89999964976E+02 0.  0.
        -12    1    1    2    0    0  0.14832452999E+00  0.13856953011E+00 -0.11627109580E+01  0.11802959175E+01  0.00000000000E+00 0.  1.
         11    1    3    3    0    0 -0.10074419034E+02 -0.33088682546E+00  0.27074050446E+01  0.10437118726E+02  0.51100000000E-03 0. -1.
        -11    1    3    3    0    0 -0.30561308278E+02  0.15774110940E+02 -0.90051432840E+01  0.35551494278E+02  0.51100000000E-03 0.  1.
         12    1    3    3    0    0  0.40487402782E+02 -0.15581793644E+02  0.74604491974E+01  0.44019091079E+02  0.00000000000E+00 0. -1.
</event>
<event>
 7    1  0.2385752E-015  0.9000784E+02  0.7816164E-02  0.1186339E+00
        -11   -1    0    0    0    0  0.00000000000E+00  0.00000000000E+00  0.45593999997E+02  0.45594000000E+02  0.51100000000E-03 0. -1.
         11   -1    0    0    0    0 -0.00000000000E+00 -0.00000000000E+00 -0.45593999997E+02  0.45594000000E+02  0.51100000000E-03 0.  1.
    9900012    2    1    2    0    0 -0.19110765343E+00 -0.35776881805E-01  0.11640319215E+01  0.90007842199E+02  0.90000104916E+02 0.  0.
        -12    1    1    2    0    0  0.19110765343E+00  0.35776881805E-01 -0.11640319215E+01  0.11801578008E+01  0.00000000000E+00 0.  1.
         11    1    3    3    0    0 -0.77812340480E+00  0.68987954111E+01 -0.65745121648E+01  0.95615409127E+01  0.51100000000E-03 0. -1.
        -11    1    3    3    0    0 -0.25432008652E+02  0.16021944116E+02 -0.19931412557E+02  0.36065925250E+02  0.51100000000E-03 0.  1.
         12    1    3    3    0    0  0.26019024403E+02 -0.22956516409E+02  0.27669956643E+02  0.44380376037E+02  0.00000000000E+00 0. -1.
</event>
<event>
 7    1  0.2385752E-015  0.9000773E+02  0.7816164E-02  0.1186339E+00
        -11   -1    0    0    0    0  0.00000000000E+00  0.00000000000E+00  0.45593999997E+02  0.45594000000E+02  0.51100000000E-03 0. -1.
         11   -1    0    0    0    0 -0.00000000000E+00 -0.00000000000E+00 -0.45593999997E+02  0.45594000000E+02  0.51100000000E-03 0.  1.
    9900012    2    1    2    0    0 -0.68468763804E+00  0.87494571130E+00 -0.39837798160E+00  0.90007732159E+02  0.89999993424E+02 0.  0.
        -12    1    1    2    0    0  0.68468763804E+00 -0.87494571130E+00  0.39837798160E+00  0.11802678406E+01  0.00000000000E+00 0.  1.
         11    1    3    3    0    0  0.35280706887E+01 -0.56576868234E+01 -0.58394787575E+01  0.88631944239E+01  0.51100000000E-03 0. -1.
        -11    1    3    3    0    0  0.12159856666E+02  0.18777472863E+02 -0.31670046140E+02  0.38774313972E+02  0.51100000000E-03 0.  1.
         12    1    3    3    0    0 -0.16372614993E+02 -0.12244840329E+02  0.37111146915E+02  0.42370223763E+02  0.00000000000E+00 0. -1.
</event>
<event>
 8    1  0.2385752E-015  0.9000768E+02  0.7816164E-02  0.1186339E+00
        -11   -1    0    0    0    0  0.00000000000E+00  0.00000000000E+00  0.45593999997E+02  0.45594000000E+02  0.51100000000E-03 0. -1.
         11   -1    0    0    0    0 -0.00000000000E+00 -0.00000000000E+00 -0.45593999997E+02  0.45594000000E+02  0.51100000000E-03 0.  1.
    9900012    2    1    2    0    0 -0.10678512520E+01  0.46681032654E+00  0.18692661762E+00  0.90007678121E+02  0.89999938672E+02 0.  0.
         23    2    3    3    0    0  0.14122390257E+02 -0.18693231985E+02  0.15745487875E+01  0.65517350362E+02  0.61165064914E+02 0.  0.
        -12    1    1    2    0    0  0.10678512520E+01 -0.46681032654E+00 -0.18692661762E+00  0.11803218789E+01  0.00000000000E+00 0.  1.
         11    1    4    4    0    0  0.30362874980E+02 -0.31893969470E+02 -0.28438495870E+01  0.44127281202E+02  0.51100000000E-03 0. -1.
        -11    1    4    4    0    0 -0.16240484723E+02  0.13200737485E+02  0.44183983745E+01  0.21390069159E+02  0.51100000000E-03 0.  1.
        -12    1    3    3    0    0 -0.15190241509E+02  0.19160042312E+02 -0.13876221698E+01  0.24490327760E+02  0.00000000000E+00 0.  1.
</event>
<event>
 7    1  0.2385752E-015  0.9000769E+02  0.7816164E-02  0.1186339E+00
        -11   -1    0    0    0    0  0.00000000000E+00  0.00000000000E+00  0.45593999997E+02  0.45594000000E+02  0.51100000000E-03 0. -1.
         11   -1    0    0    0    0 -0.00000000000E+00 -0.00000000000E+00 -0.45593999997E+02  0.45594000000E+02  0.51100000000E-03 0.  1.
    9900012    2    1    2    0    0  0.98182115404E+00  0.57875399397E+00 -0.30691242024E+00  0.90007693176E+02  0.89999953926E+02 0.  0.
        -12    1    1    2    0    0 -0.98182115404E+00 -0.57875399397E+00  0.30691242024E+00  0.11803068236E+01  0.00000000000E+00 0.  1.
         11    1    3    3    0    0 -0.72148840002E+01 -0.78375021899E+01 -0.10973983219E+01  0.10709121115E+02  0.51100000000E-03 0. -1.
        -11    1    3    3    0    0 -0.34733135247E+02  0.10435157996E+02 -0.10481082429E+01  0.36281975383E+02  0.51100000000E-03 0.  1.
         12    1    3    3    0    0  0.42929840402E+02 -0.20189018122E+01  0.18385941446E+01  0.43016596679E+02  0.00000000000E+00 0. -1.
</event>
<event>
 7    1  0.2385752E-015  0.9000770E+02  0.7816164E-02  0.1186339E+00
        -11   -1    0    0    0    0  0.00000000000E+00  0.00000000000E+00  0.45593999997E+02  0.45594000000E+02  0.51100000000E-03 0. -1.
         11   -1    0    0    0    0 -0.00000000000E+00 -0.00000000000E+00 -0.45593999997E+02  0.45594000000E+02  0.51100000000E-03 0.  1.
    9900012    2    1    2    0    0  0.97043810007E+00 -0.68995749953E-01 -0.66827721977E+00  0.90007701325E+02  0.89999962183E+02 0.  0.
        -12    1    1    2    0    0 -0.97043810007E+00  0.68995749953E-01  0.66827721977E+00  0.11802986749E+01  0.00000000000E+00 0.  1.
         11    1    3    3    0    0  0.31646120583E+01  0.19000282147E+01 -0.90638267858E+01  0.97866149899E+01  0.51100000000E-03 0. -1.
        -11    1    3    3    0    0 -0.30571518520E+02  0.21979448433E+02 -0.97469975271E+01  0.38893673767E+02  0.51100000000E-03 0.  1.
         12    1    3    3    0    0  0.28377344562E+02 -0.23948472398E+02  0.18142547093E+02  0.41327412568E+02  0.00000000000E+00 0. -1.
</event>
<event>
 7    1  0.2385752E-015  0.9000753E+02  0.7816164E-02  0.1186339E+00
        -11   -1    0    0    0    0  0.00000000000E+00  0.00000000000E+00  0.45593999997E+02  0.45594000000E+02  0.51100000000E-03 0.  1.
         11   -1    0    0    0    0 -0.00000000000E+00 -0.00000000000E+00 -0.45593999997E+02  0.45594000000E+02  0.51100000000E-03 0. -1.
    9900012    2    1    2    0    0  0.18208685682E+00 -0.91220014114E+00 -0.72680314893E+00  0.90007530797E+02  0.89999789404E+02 0.  0.
        -12    1    1    2    0    0 -0.18208685682E+00  0.91220014114E+00  0.72680314893E+00  0.11804692026E+01  0.00000000000E+00 0.  1.
         11    1    3    3    0    0  0.91336957375E+01 -0.68026530914E+00  0.35196620916E+01  0.98119916539E+01  0.51100000000E-03 0. -1.
        -11    1    3    3    0    0  0.29766811798E+02 -0.13168544921E+02  0.14059871154E+02  0.35456362434E+02  0.51100000000E-03 0.  1.
         12    1    3    3    0    0 -0.38718420679E+02  0.12936610089E+02 -0.18306336394E+02  0.44739176709E+02  0.00000000000E+00 0. -1.
</event>
<event>
 7    1  0.2385752E-015  0.9000774E+02  0.7816164E-02  0.1186339E+00
        -11   -1    0    0    0    0  0.00000000000E+00  0.00000000000E+00  0.45593999997E+02  0.45594000000E+02  0.51100000000E-03 0. -1.
         11   -1    0    0    0    0 -0.00000000000E+00 -0.00000000000E+00 -0.45593999997E+02  0.45594000000E+02  0.51100000000E-03 0.  1.
    9900012    2    1    2    0    0 -0.63689495494E+00 -0.64567525115E+00  0.75529530685E+00  0.90007744640E+02  0.90000006070E+02 0.  0.
        -12    1    1    2    0    0  0.63689495494E+00  0.64567525115E+00 -0.75529530685E+00  0.11802553597E+01  0.00000000000E+00 0.  1.
         11    1    3    3    0    0 -0.36808064935E+01 -0.80881982958E+00 -0.26140536064E+02  0.26410796124E+02  0.51100000000E-03 0. -1.
        -11    1    3    3    0    0 -0.10674822544E+02  0.14707839691E+02 -0.10646653529E+02  0.21062374424E+02  0.51100000000E-03 0.  1.
         12    1    3    3    0    0  0.13718734083E+02 -0.14544695113E+02  0.37542484900E+02  0.42534574092E+02  0.00000000000E+00 0. -1.
</event>
<event>
 8    1  0.2385752E-015  0.9000778E+02  0.7816164E-02  0.1186339E+00
        -11   -1    0    0    0    0  0.00000000000E+00  0.00000000000E+00  0.45593999997E+02  0.45594000000E+02  0.51100000000E-03 0.  1.
         11   -1    0    0    0    0 -0.00000000000E+00 -0.00000000000E+00 -0.45593999997E+02  0.45594000000E+02  0.51100000000E-03 0. -1.
    9900012    2    1    2    0    0 -0.82826005725E+00 -0.44605934756E+00 -0.71269030194E+00  0.90007783439E+02  0.90000045381E+02 0.  0.
         23    2    3    3    0    0  0.19935167474E+02 -0.19310717164E+02 -0.79228647761E+00  0.61954235126E+02  0.55383976316E+02 0.  0.
        -12    1    1    2    0    0  0.82826005725E+00  0.44605934756E+00  0.71269030194E+00  0.11802165608E+01  0.00000000000E+00 0.  1.
         11    1    4    4    0    0  0.28130495208E+02  0.72216905035E+01 -0.12752131510E+02  0.31718991672E+02  0.51100000000E-03 0.  1.
        -11    1    4    4    0    0 -0.81953277335E+01 -0.26532407668E+02  0.11959845032E+02  0.30235243455E+02  0.51100000000E-03 0. -1.
        -12    1    3    3    0    0 -0.20763427531E+02  0.18864657817E+02  0.79596175668E-01  0.28053548313E+02  0.00000000000E+00 0.  1.
</event>
<event>
 7    1  0.2385752E-015  0.9000763E+02  0.7816164E-02  0.1186339E+00
        -11   -1    0    0    0    0  0.00000000000E+00  0.00000000000E+00  0.45593999997E+02  0.45594000000E+02  0.51100000000E-03 0.  1.
         11   -1    0    0    0    0 -0.00000000000E+00 -0.00000000000E+00 -0.45593999997E+02  0.45594000000E+02  0.51100000000E-03 0. -1.
    9900012    2    1    2    0    0  0.20241632420E+00  0.10380916672E+01 -0.52408515631E+00  0.90007630596E+02  0.89999890520E+02 0.  0.
        -12    1    1    2    0    0 -0.20241632420E+00 -0.10380916672E+01  0.52408515631E+00  0.11803694036E+01  0.00000000000E+00 0.  1.
         11    1    3    3    0    0  0.45846597958E+01 -0.91775043312E+01 -0.33396668370E+01  0.10788839884E+02  0.51100000000E-03 0. -1.
        -11    1    3    3    0    0  0.22195175337E+02  0.34972046810E+02  0.89671646574E+01  0.42380182970E+02  0.51100000000E-03 0.  1.
         12    1    3    3    0    0 -0.26577418809E+02 -0.24756450811E+02 -0.61515829768E+01  0.36838607743E+02  0.00000000000E+00 0. -1.
</event>
<event>
 7    1  0.2385752E-015  0.9000779E+02  0.7816164E-02  0.1186339E+00
        -11   -1    0    0    0    0  0.00000000000E+00  0.00000000000E+00  0.45593999997E+02  0.45594000000E+02  0.51100000000E-03 0.  1.
         11   -1    0    0    0    0 -0.00000000000E+00 -0.00000000000E+00 -0.45593999997E+02  0.45594000000E+02  0.51100000000E-03 0. -1.
    9900012    2    1    2    0    0  0.18650040382E+00  0.16395138514E+00 -0.11537869792E+01  0.90007793725E+02  0.90000055803E+02 0.  0.
        -12    1    1    2    0    0 -0.18650040382E+00 -0.16395138514E+00  0.11537869792E+01  0.11802062746E+01  0.00000000000E+00 0.  1.
         11    1    3    3    0    0  0.38418612989E+01 -0.72184564077E+01  0.42113177091E+01  0.91978915116E+01  0.51100000000E-03 0. -1.
        -11    1    3    3    0    0  0.22307051146E+02 -0.21719499320E+02  0.17385555356E+02  0.35659482846E+02  0.51100000000E-03 0.  1.
         12    1    3    3    0    0 -0.25962412041E+02  0.29101907113E+02 -0.22750660044E+02  0.45150419368E+02  0.00000000000E+00 0. -1.
</event>
<event>
 7    1  0.2385752E-015  0.9000776E+02  0.7816164E-02  0.1186339E+00
        -11   -1    0    0    0    0  0.00000000000E+00  0.00000000000E+00  0.45593999997E+02  0.45594000000E+02  0.51100000000E-03 0. -1.
         11   -1    0    0    0    0 -0.00000000000E+00 -0.00000000000E+00 -0.45593999997E+02  0.45594000000E+02  0.51100000000E-03 0.  1.
    9900012    2    1    2    0    0  0.10167315170E+01  0.59022054452E+00 -0.10417439881E+00  0.90007764611E+02  0.90000026304E+02 0.  0.
        -12    1    1    2    0    0 -0.10167315170E+01 -0.59022054452E+00  0.10417439881E+00  0.11802353893E+01  0.00000000000E+00 0.  1.
         11    1    3    3    0    0 -0.12866500029E+01  0.71382474930E+01  0.30565074770E+01  0.78709773039E+01  0.51100000000E-03 0. -1.
        -11    1    3    3    0    0  0.25465799005E+02  0.14799758737E+02  0.25943075119E+02  0.39250260184E+02  0.51100000000E-03 0.  1.
         12    1    3    3    0    0 -0.23162417485E+02 -0.21347785686E+02 -0.29103756994E+02  0.42886527123E+02  0.00000000000E+00 0. -1.
</event>
<event>
 7    1  0.2385752E-015  0.9000768E+02  0.7816164E-02  0.1186339E+00
        -11   -1    0    0    0    0  0.00000000000E+00  0.00000000000E+00  0.45593999997E+02  0.45594000000E+02  0.51100000000E-03 0.  1.
         11   -1    0    0    0    0 -0.00000000000E+00 -0.00000000000E+00 -0.45593999997E+02  0.45594000000E+02  0.51100000000E-03 0. -1.
    9900012    2    1    2    0    0 -0.78907609676E+00 -0.87684537667E+00  0.40784362187E-01  0.90007677050E+02  0.89999937587E+02 0.  0.
        -12    1    1    2    0    0  0.78907609676E+00  0.87684537667E+00 -0.40784362187E-01  0.11803229496E+01  0.00000000000E+00 0.  1.
         11    1    3    3    0    0 -0.15236078836E+02  0.15704826800E+02 -0.31432028775E+02  0.38298199909E+02  0.51100000000E-03 0. -1.
        -11    1    3    3    0    0 -0.93361802020E+01 -0.26203934048E+01 -0.21772944103E+00  0.96993880596E+01  0.51100000000E-03 0.  1.
        -12    1    3    3    0    0  0.23783182941E+02 -0.13961278772E+02  0.31690542578E+02  0.42010089082E+02  0.00000000000E+00 0.  1.
</event>
<event>
 7    1  0.2385752E-015  0.9000778E+02  0.7816164E-02  0.1186339E+00
        -11   -1    0    0    0    0  0.00000000000E+00  0.00000000000E+00  0.45593999997E+02  0.45594000000E+02  0.51100000000E-03 0.  1.
         11   -1    0    0    0    0 -0.00000000000E+00 -0.00000000000E+00 -0.45593999997E+02  0.45594000000E+02  0.51100000000E-03 0. -1.
    9900012    2    1    2    0    0  0.88464838645E+00 -0.39587805523E+00 -0.67349927872E+00  0.90007778207E+02  0.90000040079E+02 0.  0.
        -12    1    1    2    0    0 -0.88464838645E+00  0.39587805523E+00  0.67349927872E+00  0.11802217930E+01  0.00000000000E+00 0.  1.
         11    1    3    3    0    0 -0.28299233755E+02 -0.20708626209E+02 -0.17335356722E+02  0.39117878566E+02  0.51100000000E-03 0. -1.
        -11    1    3    3    0    0 -0.55031040477E+01  0.99635080312E+01  0.92706465683E+00  0.11419942889E+02  0.51100000000E-03 0.  1.
        -12    1    3    3    0    0  0.34686986189E+02  0.10349240123E+02  0.15734792786E+02  0.39469956752E+02  0.00000000000E+00 0.  1.
</event>
<event>
 7    1  0.2385752E-015  0.9000717E+02  0.7816164E-02  0.1186340E+00
        -11   -1    0    0    0    0  0.00000000000E+00  0.00000000000E+00  0.45593999997E+02  0.45594000000E+02  0.51100000000E-03 0.  1.
         11   -1    0    0    0    0 -0.00000000000E+00 -0.00000000000E+00 -0.45593999997E+02  0.45594000000E+02  0.51100000000E-03 0. -1.
    9900012    2    1    2    0    0 -0.66037567875E+00  0.75500457632E+00  0.62308191481E+00  0.90007170199E+02  0.89999424043E+02 0.  0.
        -12    1    1    2    0    0  0.66037567875E+00 -0.75500457632E+00 -0.62308191481E+00  0.11808298014E+01  0.00000000000E+00 0.  1.
         11    1    3    3    0    0 -0.14383646915E+02 -0.32824112996E+02 -0.14866111307E+02  0.38798362829E+02  0.51100000000E-03 0. -1.
        -11    1    3    3    0    0  0.78563735152E+01 -0.45966501765E+01 -0.11086466992E+01  0.91695635348E+01  0.51100000000E-03 0.  1.
        -12    1    3    3    0    0  0.58668977212E+01  0.38175767749E+02  0.16597839921E+02  0.42039243834E+02  0.00000000000E+00 0.  1.
</event>
<event>
 7    1  0.2385752E-015  0.9000778E+02  0.7816164E-02  0.1186339E+00
        -11   -1    0    0    0    0  0.00000000000E+00  0.00000000000E+00  0.45593999997E+02  0.45594000000E+02  0.51100000000E-03 0. -1.
         11   -1    0    0    0    0 -0.00000000000E+00 -0.00000000000E+00 -0.45593999997E+02  0.45594000000E+02  0.51100000000E-03 0.  1.
    9900012    2    1    2    0    0 -0.10871351404E+01  0.36673060903E+00 -0.27671851261E+00  0.90007776594E+02  0.90000038445E+02 0.  0.
        -12    1    1    2    0    0  0.10871351404E+01 -0.36673060903E+00  0.27671851261E+00  0.11802234061E+01  0.00000000000E+00 0.  1.
         11    1    3    3    0    0  0.13544893347E+01 -0.74032103648E+01  0.34833092759E+01  0.82931061030E+01  0.51100000000E-03 0. -1.
        -11    1    3    3    0    0  0.19810989093E+02 -0.25369922670E+02  0.17341389386E+02  0.36562713947E+02  0.51100000000E-03 0.  1.
         12    1    3    3    0    0 -0.22252613568E+02  0.33139863644E+02 -0.21101417174E+02  0.45151956543E+02  0.00000000000E+00 0. -1.
</event>
<event>
 7    1  0.2385752E-015  0.9000772E+02  0.7816164E-02  0.1186339E+00
        -11   -1    0    0    0    0  0.00000000000E+00  0.00000000000E+00  0.45593999997E+02  0.45594000000E+02  0.51100000000E-03 0.  1.
         11   -1    0    0    0    0 -0.00000000000E+00 -0.00000000000E+00 -0.45593999997E+02  0.45594000000E+02  0.51100000000E-03 0. -1.
    9900012    2    1    2    0    0 -0.69021504421E+00  0.95356097381E+00 -0.85962820808E-01  0.90007718277E+02  0.89999979359E+02 0.  0.
        -12    1    1    2    0    0  0.69021504421E+00 -0.95356097381E+00  0.85962820808E-01  0.11802817226E+01  0.00000000000E+00 0.  1.
         11    1    3    3    0    0 -0.28019822430E+02  0.18981007148E+02  0.14794307749E+02  0.36935898844E+02  0.51100000000E-03 0. -1.
        -11    1    3    3    0    0 -0.83451278623E+01  0.27760899414E+01  0.94656519864E+00  0.88455537044E+01  0.51100000000E-03 0.  1.
        -12    1    3    3    0    0  0.35674735248E+02 -0.20803536115E+02 -0.15826835768E+02  0.44226265729E+02  0.00000000000E+00 0.  1.
</event>
<event>
 7    1  0.2385752E-015  0.9000774E+02  0.7816164E-02  0.1186339E+00
        -11   -1    0    0    0    0  0.00000000000E+00  0.00000000000E+00  0.45593999997E+02  0.45594000000E+02  0.51100000000E-03 0. -1.
         11   -1    0    0    0    0 -0.00000000000E+00 -0.00000000000E+00 -0.45593999997E+02  0.45594000000E+02  0.51100000000E-03 0.  1.
    9900012    2    1    2    0    0 -0.80289959241E+00 -0.70852633524E+00 -0.49635121413E+00  0.90007736533E+02  0.89999997855E+02 0.  0.
        -12    1    1    2    0    0  0.80289959241E+00  0.70852633524E+00  0.49635121413E+00  0.11802634668E+01  0.00000000000E+00 0.  1.
         11    1    3    3    0    0 -0.21715118186E+02 -0.21321909101E+02  0.20056623690E+02  0.36447747800E+02  0.51100000000E-03 0. -1.
        -11    1    3    3    0    0 -0.70487348014E+01 -0.41615409159E+01  0.37385788540E+01  0.89988919986E+01  0.51100000000E-03 0.  1.
        -12    1    3    3    0    0  0.27960953395E+02  0.24774923682E+02 -0.24291553758E+02  0.44561096735E+02  0.00000000000E+00 0.  1.
</event>
<event>
 7    1  0.2385752E-015  0.9000766E+02  0.7816164E-02  0.1186339E+00
        -11   -1    0    0    0    0  0.00000000000E+00  0.00000000000E+00  0.45593999997E+02  0.45594000000E+02  0.51100000000E-03 0. -1.
         11   -1    0    0    0    0 -0.00000000000E+00 -0.00000000000E+00 -0.45593999997E+02  0.45594000000E+02  0.51100000000E-03 0.  1.
    9900012    2    1    2    0    0  0.61583380821E+00  0.99360822603E+00  0.16341720765E+00  0.90007655233E+02  0.89999915482E+02 0.  0.
        -12    1    1    2    0    0 -0.61583380821E+00 -0.99360822603E+00 -0.16341720765E+00  0.11803447674E+01  0.00000000000E+00 0.  1.
         11    1    3    3    0    0  0.27565510949E+02 -0.65194299150E+01 -0.12931531594E+02  0.31138157780E+02  0.51100000000E-03 0. -1.
        -11    1    3    3    0    0  0.12845750060E+01  0.17742091560E+02 -0.10520001713E+02  0.20666455481E+02  0.51100000000E-03 0.  1.
        -12    1    3    3    0    0 -0.28234252146E+02 -0.10229053419E+02  0.23614950514E+02  0.38203041972E+02  0.00000000000E+00 0.  1.
</event>
<event>
 7    1  0.2385752E-015  0.9000763E+02  0.7816164E-02  0.1186339E+00
        -11   -1    0    0    0    0  0.00000000000E+00  0.00000000000E+00  0.45593999997E+02  0.45594000000E+02  0.51100000000E-03 0. -1.
         11   -1    0    0    0    0 -0.00000000000E+00 -0.00000000000E+00 -0.45593999997E+02  0.45594000000E+02  0.51100000000E-03 0.  1.
    9900012    2    1    2    0    0 -0.10565704312E+01 -0.42001587787E+00  0.31705055071E+00  0.90007629098E+02  0.89999889002E+02 0.  0.
        -12    1    1    2    0    0  0.10565704312E+01  0.42001587787E+00 -0.31705055071E+00  0.11803709017E+01  0.00000000000E+00 0.  1.
         11    1    3    3    0    0  0.13826300098E+02  0.16701889823E+00  0.82193405796E+01  0.16085771027E+02  0.51100000000E-03 0. -1.
        -11    1    3    3    0    0  0.99061209942E+01 -0.25601729259E+02  0.15608152855E+02  0.31578382004E+02  0.51100000000E-03 0.  1.
         12    1    3    3    0    0 -0.24788991524E+02  0.25014694483E+02 -0.23510442884E+02  0.42343476067E+02  0.00000000000E+00 0. -1.
</event>
<event>
 7    1  0.2385752E-015  0.9000772E+02  0.7816164E-02  0.1186339E+00
        -11   -1    0    0    0    0  0.00000000000E+00  0.00000000000E+00  0.45593999997E+02  0.45594000000E+02  0.51100000000E-03 0. -1.
         11   -1    0    0    0    0 -0.00000000000E+00 -0.00000000000E+00 -0.45593999997E+02  0.45594000000E+02  0.51100000000E-03 0.  1.
    9900012    2    1    2    0    0 -0.57940166055E+00  0.32855403932E+00  0.97437536510E+00  0.90007719782E+02  0.89999980883E+02 0.  0.
        -12    1    1    2    0    0  0.57940166055E+00 -0.32855403932E+00 -0.97437536510E+00  0.11802802181E+01  0.00000000000E+00 0.  1.
         11    1    3    3    0    0 -0.13792259812E+02  0.33822600598E+02  0.14156880401E+02  0.39174124175E+02  0.51100000000E-03 0. -1.
        -11    1    3    3    0    0  0.94987580540E+01  0.46707339220E+01 -0.11621722236E+01  0.10648605753E+02  0.51100000000E-03 0.  1.
        -12    1    3    3    0    0  0.37141000978E+01 -0.38164780481E+02 -0.12020332812E+02  0.40184989854E+02  0.00000000000E+00 0.  1.
</event>
<event>
 7    1  0.2385752E-015  0.9000781E+02  0.7816164E-02  0.1186339E+00
        -11   -1    0    0    0    0  0.00000000000E+00  0.00000000000E+00  0.45593999997E+02  0.45594000000E+02  0.51100000000E-03 0. -1.
         11   -1    0    0    0    0 -0.00000000000E+00 -0.00000000000E+00 -0.45593999997E+02  0.45594000000E+02  0.51100000000E-03 0.  1.
    9900012    2    1    2    0    0 -0.10135768687E+00  0.17033804043E+00  0.11634298623E+01  0.90007806171E+02  0.90000068413E+02 0.  0.
        -12    1    1    2    0    0  0.10135768687E+00 -0.17033804043E+00 -0.11634298623E+01  0.11801938287E+01  0.00000000000E+00 0.  1.
         11    1    3    3    0    0  0.75501242738E+00  0.66310015078E+01  0.66102489282E+01  0.93933814953E+01  0.51100000000E-03 0. -1.
        -11    1    3    3    0    0  0.36097808452E+02 -0.68335681777E+01  0.13429675288E+02  0.39116564364E+02  0.51100000000E-03 0.  1.
         12    1    3    3    0    0 -0.36954178566E+02  0.37290471036E+00 -0.18876494354E+02  0.41497860312E+02  0.00000000000E+00 0. -1.
</event>
<event>
 7    1  0.2385752E-015  0.9000778E+02  0.7816164E-02  0.1186339E+00
        -11   -1    0    0    0    0  0.00000000000E+00  0.00000000000E+00  0.45593999997E+02  0.45594000000E+02  0.51100000000E-03 0. -1.
         11   -1    0    0    0    0 -0.00000000000E+00 -0.00000000000E+00 -0.45593999997E+02  0.45594000000E+02  0.51100000000E-03 0.  1.
    9900012    2    1    2    0    0 -0.65943856001E+00 -0.22018148638E+00  0.95371828036E+00  0.90007780673E+02  0.90000042578E+02 0.  0.
        -12    1    1    2    0    0  0.65943856001E+00  0.22018148638E+00 -0.95371828036E+00  0.11802193269E+01  0.00000000000E+00 0.  1.
         11    1    3    3    0    0  0.56393425144E+01 -0.25874955153E+01 -0.83599174434E+01  0.10410837476E+02  0.51100000000E-03 0. -1.
        -11    1    3    3    0    0  0.22300501522E+02  0.87128189454E+01 -0.24908086924E+02  0.34549072008E+02  0.51100000000E-03 0.  1.
         12    1    3    3    0    0 -0.28599282596E+02 -0.63455049165E+01  0.34221722648E+02  0.45047871189E+02  0.00000000000E+00 0. -1.
</event>
<event>
 7    1  0.2385752E-015  0.9000773E+02  0.7816164E-02  0.1186339E+00
        -11   -1    0    0    0    0  0.00000000000E+00  0.00000000000E+00  0.45593999997E+02  0.45594000000E+02  0.51100000000E-03 0. -1.
         11   -1    0    0    0    0 -0.00000000000E+00 -0.00000000000E+00 -0.45593999997E+02  0.45594000000E+02  0.51100000000E-03 0.  1.
    9900012    2    1    2    0    0 -0.70660221286E+00 -0.35134635769E+00  0.87767170978E+00  0.90007729446E+02  0.89999990675E+02 0.  0.
        -12    1    1    2    0    0  0.70660221286E+00  0.35134635769E+00 -0.87767170978E+00  0.11802705539E+01  0.00000000000E+00 0.  1.
         11    1    3    3    0    0 -0.81699806037E+01 -0.48790614429E+01 -0.26637095979E+01  0.98817595959E+01  0.51100000000E-03 0. -1.
        -11    1    3    3    0    0  0.19488127920E+02 -0.21757008581E+02 -0.25775913625E+02  0.38955773329E+02  0.51100000000E-03 0.  1.
         12    1    3    3    0    0 -0.12024749529E+02  0.26284723666E+02  0.29317294932E+02  0.41170196521E+02  0.00000000000E+00 0. -1.
</event>
<event>
 7    1  0.2385752E-015  0.9000796E+02  0.7816164E-02  0.1186339E+00
        -11   -1    0    0    0    0  0.00000000000E+00  0.00000000000E+00  0.45593999997E+02  0.45594000000E+02  0.51100000000E-03 0.  1.
         11   -1    0    0    0    0 -0.00000000000E+00 -0.00000000000E+00 -0.45593999997E+02  0.45594000000E+02  0.51100000000E-03 0. -1.
    9900012    2    1    2    0    0  0.58364509094E+00 -0.45219748652E+00 -0.92052141548E+00  0.90007964477E+02  0.90000228808E+02 0.  0.
        -12    1    1    2    0    0 -0.58364509094E+00  0.45219748652E+00  0.92052141548E+00  0.11800355229E+01  0.00000000000E+00 0.  1.
         11    1    3    3    0    0 -0.57356912475E+01 -0.55119805549E+00 -0.87049115559E+01  0.10439226927E+02  0.51100000000E-03 0. -1.
        -11    1    3    3    0    0  0.24915485868E+01  0.38920561241E+02  0.10725625562E+02  0.40448200771E+02  0.51100000000E-03 0.  1.
         12    1    3    3    0    0  0.38277877517E+01 -0.38821560672E+02 -0.29412354214E+01  0.39120536779E+02  0.00000000000E+00 0. -1.
</event>
<event>
 7    1  0.2385752E-015  0.9000771E+02  0.7816164E-02  0.1186339E+00
        -11   -1    0    0    0    0  0.00000000000E+00  0.00000000000E+00  0.45593999997E+02  0.45594000000E+02  0.51100000000E-03 0.  1.
         11   -1    0    0    0    0 -0.00000000000E+00 -0.00000000000E+00 -0.45593999997E+02  0.45594000000E+02  0.51100000000E-03 0. -1.
    9900012    2    1    2    0    0  0.81950362333E+00 -0.75168908331E+00  0.39553875909E+00  0.90007714621E+02  0.89999975654E+02 0.  0.
        -12    1    1    2    0    0 -0.81950362333E+00  0.75168908331E+00 -0.39553875909E+00  0.11802853793E+01  0.00000000000E+00 0.  1.
         11    1    3    3    0    0  0.94909139806E+01  0.43154281290E+00  0.50185753665E+00  0.95139654526E+01  0.51100000000E-03 0. -1.
        -11    1    3    3    0    0 -0.12170744236E+02 -0.34169181638E+02  0.20282452316E+02  0.41557645040E+02  0.51100000000E-03 0.  1.
         12    1    3    3    0    0  0.34993338792E+01  0.32985949741E+02 -0.20388771094E+02  0.38936104128E+02  0.00000000000E+00 0. -1.
</event>
<event>
 7    1  0.2385752E-015  0.9000725E+02  0.7816164E-02  0.1186340E+00
        -11   -1    0    0    0    0  0.00000000000E+00  0.00000000000E+00  0.45593999997E+02  0.45594000000E+02  0.51100000000E-03 0. -1.
         11   -1    0    0    0    0 -0.00000000000E+00 -0.00000000000E+00 -0.45593999997E+02  0.45594000000E+02  0.51100000000E-03 0.  1.
    9900012    2    1    2    0    0 -0.23153869444E+00  0.11547546575E+01 -0.84295801387E-01  0.90007248431E+02  0.89999503309E+02 0.  0.
        -12    1    1    2    0    0  0.23153869444E+00 -0.11547546575E+01  0.84295801387E-01  0.11807515692E+01  0.00000000000E+00 0.  1.
         11    1    3    3    0    0  0.45103014498E+00  0.57570424272E+01  0.69786156089E+01  0.90580374132E+01  0.51100000000E-03 0. -1.
        -11    1    3    3    0    0 -0.46147078096E+01  0.36450868751E+02 -0.13630171723E+02  0.39188556267E+02  0.51100000000E-03 0.  1.
         12    1    3    3    0    0  0.39321389702E+01 -0.41053156520E+02  0.65672603129E+01  0.41760654750E+02  0.00000000000E+00 0. -1.
</event>
<event>
 7    1  0.2385752E-015  0.9000773E+02  0.7816164E-02  0.1186339E+00
        -11   -1    0    0    0    0  0.00000000000E+00  0.00000000000E+00  0.45593999997E+02  0.45594000000E+02  0.51100000000E-03 0.  1.
         11   -1    0    0    0    0 -0.00000000000E+00 -0.00000000000E+00 -0.45593999997E+02  0.45594000000E+02  0.51100000000E-03 0. -1.
    9900012    2    1    2    0    0 -0.11312575179E+01 -0.33600360534E+00 -0.19935764510E-01  0.90007729086E+02  0.89999990310E+02 0.  0.
        -12    1    1    2    0    0  0.11312575179E+01  0.33600360534E+00  0.19935764510E-01  0.11802709135E+01  0.00000000000E+00 0.  1.
         11    1    3    3    0    0  0.18857534276E+02 -0.66965508360E+01  0.17737681498E+01  0.20089714926E+02  0.51100000000E-03 0. -1.
        -11    1    3    3    0    0 -0.17089493122E+02 -0.14182372334E+02  0.26663817560E+02  0.34700859172E+02  0.51100000000E-03 0.  1.
        -12    1    3    3    0    0 -0.28992986724E+01  0.20542919565E+02 -0.28457521474E+02  0.35217154988E+02  0.00000000000E+00 0.  1.
</event>
<event>
 7    1  0.2466318E-015  0.9000778E+02  0.7816164E-02  0.1186339E+00
        -11   -1    0    0    0    0  0.00000000000E+00  0.00000000000E+00  0.45593999997E+02  0.45594000000E+02  0.51100000000E-03 0. -1.
         11   -1    0    0    0    0 -0.00000000000E+00 -0.00000000000E+00 -0.45593999997E+02  0.45594000000E+02  0.51100000000E-03 0.  1.
    9900012    2    1    2    0    0 -0.28334917142E+00  0.77014221785E-02  0.11456771429E+01  0.90007778758E+02  0.90000040637E+02 0.  0.
        -12    1    1    2    0    0  0.28334917142E+00 -0.77014221785E-02 -0.11456771429E+01  0.11802212422E+01  0.00000000000E+00 0.  1.
         11    1    3    3    0    0 -0.13030658557E+02  0.13770121583E+02  0.32424116712E+02  0.37559787747E+02  0.51100000000E-03 0. -1.
        -11    1    3    3    0    0  0.44224979120E+01  0.84622175954E+00  0.83018563391E+01  0.94443315266E+01  0.51100000000E-03 0.  1.
        -12    1    3    3    0    0  0.83248114733E+01 -0.14608641921E+02 -0.39580295908E+02  0.43003659484E+02  0.00000000000E+00 0.  1.
</event>
<event>
 7    1  0.2385752E-015  0.9000777E+02  0.7816164E-02  0.1186339E+00
        -11   -1    0    0    0    0  0.00000000000E+00  0.00000000000E+00  0.45593999997E+02  0.45594000000E+02  0.51100000000E-03 0.  1.
         11   -1    0    0    0    0 -0.00000000000E+00 -0.00000000000E+00 -0.45593999997E+02  0.45594000000E+02  0.51100000000E-03 0. -1.
    9900012    2    1    2    0    0  0.10515306104E+01 -0.48598543469E-01 -0.53373427703E+00  0.90007766667E+02  0.90000028387E+02 0.  0.
        -12    1    1    2    0    0 -0.10515306104E+01  0.48598543469E-01  0.53373427703E+00  0.11802333335E+01  0.00000000000E+00 0.  1.
         11    1    3    3    0    0 -0.27434292251E+02 -0.20260981525E+02  0.14175814013E+02  0.36933744284E+02  0.51100000000E-03 0. -1.
        -11    1    3    3    0    0  0.12864480223E+01 -0.21961133474E+01  0.98147118743E+01  0.10139350659E+02  0.51100000000E-03 0.  1.
        -12    1    3    3    0    0  0.27199374839E+02  0.22408496329E+02 -0.24524260164E+02  0.42934671723E+02  0.00000000000E+00 0.  1.
</event>
<event>
 7    1  0.2385752E-015  0.9000771E+02  0.7816164E-02  0.1186339E+00
        -11   -1    0    0    0    0  0.00000000000E+00  0.00000000000E+00  0.45593999997E+02  0.45594000000E+02  0.51100000000E-03 0.  1.
         11   -1    0    0    0    0 -0.00000000000E+00 -0.00000000000E+00 -0.45593999997E+02  0.45594000000E+02  0.51100000000E-03 0. -1.
    9900012    2    1    2    0    0  0.11413852692E+01  0.70617659633E-01 -0.29212392538E+00  0.90007710385E+02  0.89999971363E+02 0.  0.
        -12    1    1    2    0    0 -0.11413852692E+01 -0.70617659633E-01  0.29212392538E+00  0.11802896146E+01  0.00000000000E+00 0.  1.
         11    1    3    3    0    0  0.52417956933E+01  0.11813914144E+01 -0.23915780122E+02  0.24511969461E+02  0.51100000000E-03 0. -1.
        -11    1    3    3    0    0 -0.29039429065E+01 -0.29110796788E+02  0.65843696754E+00  0.29262688078E+02  0.51100000000E-03 0.  1.
        -12    1    3    3    0    0 -0.11964675176E+01  0.28000023033E+02  0.22965219229E+02  0.36233052847E+02  0.00000000000E+00 0.  1.
</event>
<event>
 7    1  0.2385752E-015  0.9000777E+02  0.7816164E-02  0.1186339E+00
        -11   -1    0    0    0    0  0.00000000000E+00  0.00000000000E+00  0.45593999997E+02  0.45594000000E+02  0.51100000000E-03 0.  1.
         11   -1    0    0    0    0 -0.00000000000E+00 -0.00000000000E+00 -0.45593999997E+02  0.45594000000E+02  0.51100000000E-03 0. -1.
    9900012    2    1    2    0    0  0.84161303820E+00  0.82108980835E+00 -0.10218692837E+00  0.90007769875E+02  0.90000031637E+02 0.  0.
        -12    1    1    2    0    0 -0.84161303820E+00 -0.82108980835E+00  0.10218692837E+00  0.11802301249E+01  0.00000000000E+00 0.  1.
         11    1    3    3    0    0  0.81231557683E+01 -0.36335064087E+02  0.12796738824E+01  0.37253994516E+02  0.51100000000E-03 0. -1.
        -11    1    3    3    0    0  0.83992534617E+01 -0.31734821704E+01 -0.29601407175E+01  0.94541462401E+01  0.51100000000E-03 0.  1.
        -12    1    3    3    0    0 -0.15680796192E+02  0.40329636066E+02  0.15782799067E+01  0.43299629119E+02  0.00000000000E+00 0.  1.
</event>
<event>
 7    1  0.2385752E-015  0.9000784E+02  0.7816164E-02  0.1186339E+00
        -11   -1    0    0    0    0  0.00000000000E+00  0.00000000000E+00  0.45593999997E+02  0.45594000000E+02  0.51100000000E-03 0. -1.
         11   -1    0    0    0    0 -0.00000000000E+00 -0.00000000000E+00 -0.45593999997E+02  0.45594000000E+02  0.51100000000E-03 0.  1.
    9900012    2    1    2    0    0  0.42072638593E+00 -0.10936606482E+01 -0.14022204166E+00  0.90007844703E+02  0.90000107453E+02 0.  0.
        -12    1    1    2    0    0 -0.42072638593E+00  0.10936606482E+01  0.14022204166E+00  0.11801552975E+01  0.00000000000E+00 0.  1.
         11    1    3    3    0    0  0.25259391763E+01 -0.81387658731E+01 -0.17969540556E+01  0.87091287049E+01  0.51100000000E-03 0. -1.
        -11    1    3    3    0    0  0.33737355048E+02 -0.72703871012E+01  0.18534732408E+02  0.39174021493E+02  0.51100000000E-03 0.  1.
         12    1    3    3    0    0 -0.35842567838E+02  0.14315492326E+02 -0.16878000394E+02  0.42124694505E+02  0.00000000000E+00 0. -1.
</event>
<event>
 7    1  0.2385752E-015  0.9000779E+02  0.7816164E-02  0.1186339E+00
        -11   -1    0    0    0    0  0.00000000000E+00  0.00000000000E+00  0.45593999997E+02  0.45594000000E+02  0.51100000000E-03 0. -1.
         11   -1    0    0    0    0 -0.00000000000E+00 -0.00000000000E+00 -0.45593999997E+02  0.45594000000E+02  0.51100000000E-03 0.  1.
    9900012    2    1    2    0    0 -0.22953960921E+00 -0.12415601573E+00  0.11509918987E+01  0.90007794298E+02  0.90000056383E+02 0.  0.
        -12    1    1    2    0    0  0.22953960921E+00  0.12415601573E+00 -0.11509918987E+01  0.11802057021E+01  0.00000000000E+00 0.  1.
         11    1    3    3    0    0 -0.16645144502E+02 -0.29453855268E+02  0.16222719118E+02  0.37520221768E+02  0.51100000000E-03 0. -1.
        -11    1    3    3    0    0 -0.83377931379E+01  0.32918386439E+01  0.60477602134E+01  0.10813436083E+02  0.51100000000E-03 0.  1.
        -12    1    3    3    0    0  0.24753398031E+02  0.26037860608E+02 -0.21119487433E+02  0.41674136447E+02  0.00000000000E+00 0.  1.
</event>
<event>
 7    1  0.2385752E-015  0.9000771E+02  0.7816164E-02  0.1186339E+00
        -11   -1    0    0    0    0  0.00000000000E+00  0.00000000000E+00  0.45593999997E+02  0.45594000000E+02  0.51100000000E-03 0. -1.
         11   -1    0    0    0    0 -0.00000000000E+00 -0.00000000000E+00 -0.45593999997E+02  0.45594000000E+02  0.51100000000E-03 0.  1.
    9900012    2    1    2    0    0 -0.13991767551E-01  0.54476322161E+00  0.10469621092E+01  0.90007706649E+02  0.89999967576E+02 0.  0.
        -12    1    1    2    0    0  0.13991767551E-01 -0.54476322161E+00 -0.10469621092E+01  0.11802933514E+01  0.00000000000E+00 0.  1.
         11    1    3    3    0    0  0.78896652464E+01 -0.48937890663E+01 -0.29439711289E+01  0.97397615676E+01  0.51100000000E-03 0. -1.
        -11    1    3    3    0    0  0.28441732131E+02 -0.52218249889E+01 -0.20246433070E+02  0.35300391430E+02  0.51100000000E-03 0.  1.
         12    1    3    3    0    0 -0.36345389145E+02  0.10660377277E+02  0.24237366308E+02  0.44967553651E+02  0.00000000000E+00 0. -1.
</event>
<event>
 7    1  0.2385752E-015  0.9000769E+02  0.7816164E-02  0.1186339E+00
        -11   -1    0    0    0    0  0.00000000000E+00  0.00000000000E+00  0.45593999997E+02  0.45594000000E+02  0.51100000000E-03 0.  1.
         11   -1    0    0    0    0 -0.00000000000E+00 -0.00000000000E+00 -0.45593999997E+02  0.45594000000E+02  0.51100000000E-03 0. -1.
    9900012    2    1    2    0    0  0.80157946084E+00  0.66619299645E+00 -0.55388611224E+00  0.90007689632E+02  0.89999950335E+02 0.  0.
        -12    1    1    2    0    0 -0.80157946084E+00 -0.66619299645E+00  0.55388611224E+00  0.11803103685E+01  0.00000000000E+00 0.  1.
         11    1    3    3    0    0 -0.25326107014E+01  0.99026279576E+01  0.57158682399E+01  0.11710990882E+02  0.51100000000E-03 0. -1.
        -11    1    3    3    0    0  0.38385368497E+02 -0.17174806143E+02 -0.19298462022E+01  0.42096731314E+02  0.51100000000E-03 0.  1.
         12    1    3    3    0    0 -0.35051178334E+02  0.79383711814E+01 -0.43399081500E+01  0.36199967436E+02  0.00000000000E+00 0. -1.
</event>
<event>
 7    1  0.2385752E-015  0.9000772E+02  0.7816164E-02  0.1186339E+00
        -11   -1    0    0    0    0  0.00000000000E+00  0.00000000000E+00  0.45593999997E+02  0.45594000000E+02  0.51100000000E-03 0.  1.
         11   -1    0    0    0    0 -0.00000000000E+00 -0.00000000000E+00 -0.45593999997E+02  0.45594000000E+02  0.51100000000E-03 0. -1.
    9900012    2    1    2    0    0  0.64745754984E+00 -0.69522181666E+00 -0.70037687540E+00  0.90007719347E+02  0.89999980442E+02 0.  0.
        -12    1    1    2    0    0 -0.64745754984E+00  0.69522181666E+00  0.70037687540E+00  0.11802806534E+01  0.00000000000E+00 0.  1.
         11    1    3    3    0    0  0.34938808712E+01 -0.82662341000E+01  0.38753849350E+00  0.89826508383E+01  0.51100000000E-03 0. -1.
        -11    1    3    3    0    0  0.32372328925E+02  0.28413240114E+01  0.21457214053E+02  0.38941659407E+02  0.51100000000E-03 0.  1.
         12    1    3    3    0    0 -0.35218752247E+02  0.47296882719E+01 -0.22545129422E+02  0.42083409101E+02  0.00000000000E+00 0. -1.
</event>
<event>
 7    1  0.2385752E-015  0.9000766E+02  0.7816164E-02  0.1186339E+00
        -11   -1    0    0    0    0  0.00000000000E+00  0.00000000000E+00  0.45593999997E+02  0.45594000000E+02  0.51100000000E-03 0.  1.
         11   -1    0    0    0    0 -0.00000000000E+00 -0.00000000000E+00 -0.45593999997E+02  0.45594000000E+02  0.51100000000E-03 0. -1.
    9900012    2    1    2    0    0  0.10167796332E+01  0.34770823358E+00 -0.48831749773E+00  0.90007662838E+02  0.89999923187E+02 0.  0.
        -12    1    1    2    0    0 -0.10167796332E+01 -0.34770823358E+00  0.48831749773E+00  0.11803371623E+01  0.00000000000E+00 0.  1.
         11    1    3    3    0    0 -0.67734151825E+01  0.40112754893E+02 -0.36581438978E+01  0.40844758236E+02  0.51100000000E-03 0. -1.
        -11    1    3    3    0    0  0.21025792055E+00  0.25302645215E+01 -0.48288018809E+01  0.54556186457E+01  0.51100000000E-03 0.  1.
        -12    1    3    3    0    0  0.75799368952E+01 -0.42295311181E+02  0.79986282810E+01  0.43707285956E+02  0.00000000000E+00 0.  1.
</event>
<event>
 7    1  0.2385752E-015  0.9000775E+02  0.7816164E-02  0.1186339E+00
        -11   -1    0    0    0    0  0.00000000000E+00  0.00000000000E+00  0.45593999997E+02  0.45594000000E+02  0.51100000000E-03 0.  1.
         11   -1    0    0    0    0 -0.00000000000E+00 -0.00000000000E+00 -0.45593999997E+02  0.45594000000E+02  0.51100000000E-03 0. -1.
    9900012    2    1    2    0    0 -0.88482008847E+00  0.90056343338E-01  0.77587080333E+00  0.90007749079E+02  0.90000010566E+02 0.  0.
        -12    1    1    2    0    0  0.88482008847E+00 -0.90056343338E-01 -0.77587080333E+00  0.11802509214E+01  0.00000000000E+00 0.  1.
         11    1    3    3    0    0  0.11909053843E+02  0.27891202982E+02 -0.38252275554E+01  0.30567583047E+02  0.51100000000E-03 0. -1.
        -11    1    3    3    0    0  0.12372207355E+02  0.80955645657E+01 -0.26024285828E+01  0.15012738433E+02  0.51100000000E-03 0.  1.
        -12    1    3    3    0    0 -0.25166081286E+02 -0.35896711205E+02  0.72035269415E+01  0.44427427598E+02  0.00000000000E+00 0.  1.
</event>
<event>
 7    1  0.2385752E-015  0.9000775E+02  0.7816164E-02  0.1186339E+00
        -11   -1    0    0    0    0  0.00000000000E+00  0.00000000000E+00  0.45593999997E+02  0.45594000000E+02  0.51100000000E-03 0. -1.
         11   -1    0    0    0    0 -0.00000000000E+00 -0.00000000000E+00 -0.45593999997E+02  0.45594000000E+02  0.51100000000E-03 0.  1.
    9900012    2    1    2    0    0 -0.11058774954E+01  0.31656071946E+00  0.26424224108E+00  0.90007745923E+02  0.90000007369E+02 0.  0.
        -12    1    1    2    0    0  0.11058774954E+01 -0.31656071946E+00 -0.26424224108E+00  0.11802540769E+01  0.00000000000E+00 0.  1.
         11    1    3    3    0    0  0.21386729502E+02 -0.24949025366E+02 -0.15337334337E+02  0.36264030255E+02  0.51100000000E-03 0. -1.
        -11    1    3    3    0    0  0.33196136560E+01 -0.10265055031E+01 -0.88606816991E+01  0.95176272677E+01  0.51100000000E-03 0.  1.
        -12    1    3    3    0    0 -0.25812220654E+02  0.26292091589E+02  0.24462258277E+02  0.44226088400E+02  0.00000000000E+00 0.  1.
</event>
<event>
 7    1  0.2385752E-015  0.9000774E+02  0.7816164E-02  0.1186339E+00
        -11   -1    0    0    0    0  0.00000000000E+00  0.00000000000E+00  0.45593999997E+02  0.45594000000E+02  0.51100000000E-03 0.  1.
         11   -1    0    0    0    0 -0.00000000000E+00 -0.00000000000E+00 -0.45593999997E+02  0.45594000000E+02  0.51100000000E-03 0. -1.
    9900012    2    1    2    0    0 -0.71361229238E+00  0.70569721467E+00  0.62109837543E+00  0.90007739751E+02  0.90000001116E+02 0.  0.
        -12    1    1    2    0    0  0.71361229238E+00 -0.70569721467E+00 -0.62109837543E+00  0.11802602487E+01  0.00000000000E+00 0.  1.
         11    1    3    3    0    0 -0.67693020609E+00 -0.68298984956E+01  0.60014492099E+01  0.91171893061E+01  0.51100000000E-03 0. -1.
        -11    1    3    3    0    0 -0.36633745220E+01 -0.23078690864E+02  0.27319401330E+02  0.35949909238E+02  0.51100000000E-03 0.  1.
         12    1    3    3    0    0  0.36266924357E+01  0.30614286574E+02 -0.32699752165E+02  0.44940641207E+02  0.00000000000E+00 0. -1.
</event>
<event>
 7    1  0.2385752E-015  0.9000797E+02  0.7816164E-02  0.1186339E+00
        -11   -1    0    0    0    0  0.00000000000E+00  0.00000000000E+00  0.45593999997E+02  0.45594000000E+02  0.51100000000E-03 0.  1.
         11   -1    0    0    0    0 -0.00000000000E+00 -0.00000000000E+00 -0.45593999997E+02  0.45594000000E+02  0.51100000000E-03 0. -1.
    9900012    2    1    2    0    0  0.26175889066E+00  0.40178947359E+00 -0.10781976498E+01  0.90007973445E+02  0.90000237894E+02 0.  0.
        -12    1    1    2    0    0 -0.26175889066E+00 -0.40178947359E+00  0.10781976498E+01  0.11800265547E+01  0.00000000000E+00 0.  1.
         11    1    3    3    0    0  0.17778439118E+02 -0.13907241969E+02 -0.30813597899E+02  0.38196362293E+02  0.51100000000E-03 0. -1.
        -11    1    3    3    0    0 -0.12128094626E+02  0.60722286848E+01 -0.59373059102E+01  0.14805885390E+02  0.51100000000E-03 0.  1.
        -12    1    3    3    0    0 -0.53885856019E+01  0.82368027580E+01  0.35672706159E+02  0.37005725762E+02  0.00000000000E+00 0.  1.
</event>
<event>
 7    1  0.2385752E-015  0.9000744E+02  0.7816164E-02  0.1186340E+00
        -11   -1    0    0    0    0  0.00000000000E+00  0.00000000000E+00  0.45593999997E+02  0.45594000000E+02  0.51100000000E-03 0. -1.
         11   -1    0    0    0    0 -0.00000000000E+00 -0.00000000000E+00 -0.45593999997E+02  0.45594000000E+02  0.51100000000E-03 0.  1.
    9900012    2    1    2    0    0 -0.11705853456E+01  0.15275265636E+00  0.10713241930E-01  0.90007441573E+02  0.89999699002E+02 0.  0.
        -12    1    1    2    0    0  0.11705853456E+01 -0.15275265636E+00 -0.10713241930E-01  0.11805584267E+01  0.00000000000E+00 0.  1.
         11    1    3    3    0    0  0.12009455515E+02 -0.34897474702E+02  0.19731916570E+02  0.41849842224E+02  0.51100000000E-03 0. -1.
        -11    1    3    3    0    0  0.26485744640E+01  0.11041732181E+02  0.27253859761E+01  0.11677436586E+02  0.51100000000E-03 0.  1.
        -12    1    3    3    0    0 -0.15828615325E+02  0.24008495178E+02 -0.22446589304E+02  0.36480162763E+02  0.00000000000E+00 0.  1.
</event>
<event>
 7    1  0.2385752E-015  0.9000774E+02  0.7816164E-02  0.1186339E+00
        -11   -1    0    0    0    0  0.00000000000E+00  0.00000000000E+00  0.45593999997E+02  0.45594000000E+02  0.51100000000E-03 0. -1.
         11   -1    0    0    0    0 -0.00000000000E+00 -0.00000000000E+00 -0.45593999997E+02  0.45594000000E+02  0.51100000000E-03 0.  1.
    9900012    2    1    2    0    0 -0.10811840240E+01  0.44049640543E+00 -0.17328505210E+00  0.90007735756E+02  0.89999997068E+02 0.  0.
        -12    1    1    2    0    0  0.10811840240E+01 -0.44049640543E+00  0.17328505210E+00  0.11802642443E+01  0.00000000000E+00 0.  1.
         11    1    3    3    0    0 -0.10385371616E-01  0.15734443943E+00 -0.99138836461E+01  0.99151376358E+01  0.51100000000E-03 0. -1.
        -11    1    3    3    0    0  0.79826337530E+01  0.36879589839E+02 -0.77691213720E+01  0.38525132517E+02  0.51100000000E-03 0.  1.
         12    1    3    3    0    0 -0.90534324054E+01 -0.36596437873E+02  0.17509719966E+02  0.41567465602E+02  0.00000000000E+00 0. -1.
</event>
<event>
 7    1  0.2385752E-015  0.9000774E+02  0.7816164E-02  0.1186339E+00
        -11   -1    0    0    0    0  0.00000000000E+00  0.00000000000E+00  0.45593999997E+02  0.45594000000E+02  0.51100000000E-03 0. -1.
         11   -1    0    0    0    0 -0.00000000000E+00 -0.00000000000E+00 -0.45593999997E+02  0.45594000000E+02  0.51100000000E-03 0.  1.
    9900012    2    1    2    0    0 -0.61998584282E-01  0.27385750565E+00  0.11463769878E+01  0.90007736489E+02  0.89999997810E+02 0.  0.
        -12    1    1    2    0    0  0.61998584282E-01 -0.27385750565E+00 -0.11463769878E+01  0.11802635112E+01  0.00000000000E+00 0.  1.
         11    1    3    3    0    0 -0.78647254253E+01 -0.16878863061E+01  0.35504418818E+01  0.87925254628E+01  0.51100000000E-03 0. -1.
        -11    1    3    3    0    0  0.27711840670E+01 -0.17857929815E+02 -0.36914996455E+02  0.41101120203E+02  0.51100000000E-03 0.  1.
         12    1    3    3    0    0  0.50315427740E+01  0.19819673627E+02  0.34510931561E+02  0.40114090823E+02  0.00000000000E+00 0. -1.
</event>
<event>
 7    1  0.2385752E-015  0.9000768E+02  0.7816164E-02  0.1186339E+00
        -11   -1    0    0    0    0  0.00000000000E+00  0.00000000000E+00  0.45593999997E+02  0.45594000000E+02  0.51100000000E-03 0. -1.
         11   -1    0    0    0    0 -0.00000000000E+00 -0.00000000000E+00 -0.45593999997E+02  0.45594000000E+02  0.51100000000E-03 0.  1.
    9900012    2    1    2    0    0  0.95255049917E-02 -0.46849603181E+00  0.10833140203E+01  0.90007682867E+02  0.89999943481E+02 0.  0.
        -12    1    1    2    0    0 -0.95255049917E-02  0.46849603181E+00 -0.10833140203E+01  0.11803171327E+01  0.00000000000E+00 0.  1.
         11    1    3    3    0    0  0.87044464246E+01  0.13097928452E+01  0.23220497559E+01  0.91035630490E+01  0.51100000000E-03 0. -1.
        -11    1    3    3    0    0  0.31748693907E+02  0.37953589549E+01  0.16973077650E+02  0.36200409937E+02  0.51100000000E-03 0.  1.
         12    1    3    3    0    0 -0.40443614827E+02 -0.55736478320E+01 -0.18211813386E+02  0.44703709882E+02  0.00000000000E+00 0. -1.
</event>
<event>
 7    1  0.2385752E-015  0.9000769E+02  0.7816164E-02  0.1186339E+00
        -11   -1    0    0    0    0  0.00000000000E+00  0.00000000000E+00  0.45593999997E+02  0.45594000000E+02  0.51100000000E-03 0. -1.
         11   -1    0    0    0    0 -0.00000000000E+00 -0.00000000000E+00 -0.45593999997E+02  0.45594000000E+02  0.51100000000E-03 0.  1.
    9900012    2    1    2    0    0  0.46156460519E+00 -0.64156885792E+00 -0.87662451237E+00  0.90007693675E+02  0.89999954432E+02 0.  0.
        -12    1    1    2    0    0 -0.46156460519E+00  0.64156885792E+00  0.87662451237E+00  0.11803063246E+01  0.00000000000E+00 0.  1.
         11    1    3    3    0    0 -0.22202654376E+02  0.23805551421E+02 -0.89979900808E+01  0.33773154510E+02  0.51100000000E-03 0. -1.
        -11    1    3    3    0    0 -0.10204604494E+02  0.46005471799E+01 -0.15940742906E+01  0.11306637889E+02  0.51100000000E-03 0.  1.
        -12    1    3    3    0    0  0.32868823476E+02 -0.29047667459E+02  0.97154398591E+01  0.44927901277E+02  0.00000000000E+00 0.  1.
</event>
<event>
 7    1  0.2385752E-015  0.9000777E+02  0.7816164E-02  0.1186339E+00
        -11   -1    0    0    0    0  0.00000000000E+00  0.00000000000E+00  0.45593999997E+02  0.45594000000E+02  0.51100000000E-03 0. -1.
         11   -1    0    0    0    0 -0.00000000000E+00 -0.00000000000E+00 -0.45593999997E+02  0.45594000000E+02  0.51100000000E-03 0.  1.
    9900012    2    1    2    0    0  0.91130340818E+00 -0.31756958631E+00  0.67943068018E+00  0.90007766806E+02  0.90000028527E+02 0.  0.
        -12    1    1    2    0    0 -0.91130340818E+00  0.31756958631E+00 -0.67943068018E+00  0.11802331944E+01  0.00000000000E+00 0.  1.
         11    1    3    3    0    0 -0.21945539542E+02  0.31870062451E+02  0.16070960583E+02  0.41899682108E+02  0.51100000000E-03 0. -1.
        -11    1    3    3    0    0 -0.55619333833E+00 -0.38299024912E+01 -0.10275156728E+02  0.10979815580E+02  0.51100000000E-03 0.  1.
        -12    1    3    3    0    0  0.23413036288E+02 -0.28357729546E+02 -0.51163731751E+01  0.37128269118E+02  0.00000000000E+00 0.  1.
</event>
<event>
 7    1  0.2385752E-015  0.9000777E+02  0.7816164E-02  0.1186339E+00
        -11   -1    0    0    0    0  0.00000000000E+00  0.00000000000E+00  0.45593999997E+02  0.45594000000E+02  0.51100000000E-03 0.  1.
         11   -1    0    0    0    0 -0.00000000000E+00 -0.00000000000E+00 -0.45593999997E+02  0.45594000000E+02  0.51100000000E-03 0. -1.
    9900012    2    1    2    0    0 -0.64594132787E+00  0.68956262268E+00  0.70724437912E+00  0.90007774843E+02  0.90000036671E+02 0.  0.
        -12    1    1    2    0    0  0.64594132787E+00 -0.68956262268E+00 -0.70724437912E+00  0.11802251571E+01  0.00000000000E+00 0.  1.
         11    1    3    3    0    0 -0.18225522751E+02 -0.27187154204E+02 -0.22589177062E+02  0.39769108034E+02  0.51100000000E-03 0. -1.
        -11    1    3    3    0    0 -0.57930211683E+01  0.47980405558E+01 -0.30643571352E+01  0.81222270557E+01  0.51100000000E-03 0.  1.
        -12    1    3    3    0    0  0.23372602591E+02  0.23078676271E+02  0.26360778576E+02  0.42116439753E+02  0.00000000000E+00 0.  1.
</event>
<event>
 7    1  0.2385752E-015  0.9000774E+02  0.7816164E-02  0.1186339E+00
        -11   -1    0    0    0    0  0.00000000000E+00  0.00000000000E+00  0.45593999997E+02  0.45594000000E+02  0.51100000000E-03 0. -1.
         11   -1    0    0    0    0 -0.00000000000E+00 -0.00000000000E+00 -0.45593999997E+02  0.45594000000E+02  0.51100000000E-03 0.  1.
    9900012    2    1    2    0    0 -0.37683375644E+00  0.10382537337E+01  0.41598920204E+00  0.90007736677E+02  0.89999998001E+02 0.  0.
        -12    1    1    2    0    0  0.37683375644E+00 -0.10382537337E+01 -0.41598920204E+00  0.11802633231E+01  0.00000000000E+00 0.  1.
         11    1    3    3    0    0 -0.95614145659E+01  0.13316912725E+01 -0.41449114101E+01  0.10505919332E+02  0.51100000000E-03 0. -1.
        -11    1    3    3    0    0  0.10939395828E+02  0.17026084287E+02 -0.32653959148E+02  0.38416649718E+02  0.51100000000E-03 0.  1.
         12    1    3    3    0    0 -0.17548150189E+01 -0.17319521826E+02  0.37214859760E+02  0.41085167627E+02  0.00000000000E+00 0. -1.
</event>
<event>
 7    1  0.2385752E-015  0.9000750E+02  0.7816164E-02  0.1186340E+00
        -11   -1    0    0    0    0  0.00000000000E+00  0.00000000000E+00  0.45593999997E+02  0.45594000000E+02  0.51100000000E-03 0.  1.
         11   -1    0    0    0    0 -0.00000000000E+00 -0.00000000000E+00 -0.45593999997E+02  0.45594000000E+02  0.51100000000E-03 0. -1.
    9900012    2    1    2    0    0  0.50150163616E+00 -0.15074158216E-02 -0.10686757304E+01  0.90007502656E+02  0.89999760890E+02 0.  0.
        -12    1    1    2    0    0 -0.50150163616E+00  0.15074158216E-02  0.10686757304E+01  0.11804973444E+01  0.00000000000E+00 0.  1.
         11    1    3    3    0    0 -0.31043817494E+01 -0.35578941729E+01  0.82408028389E+01  0.94977170247E+01  0.51100000000E-03 0. -1.
        -11    1    3    3    0    0 -0.23198724963E+02 -0.11272504329E+02  0.24017373697E+02  0.35243218260E+02  0.51100000000E-03 0.  1.
         12    1    3    3    0    0  0.26804608349E+02  0.14828891086E+02 -0.33326852266E+02  0.45266567371E+02  0.00000000000E+00 0. -1.
</event>
<event>
 7    1  0.2385752E-015  0.9000777E+02  0.7816164E-02  0.1186339E+00
        -11   -1    0    0    0    0  0.00000000000E+00  0.00000000000E+00  0.45593999997E+02  0.45594000000E+02  0.51100000000E-03 0.  1.
         11   -1    0    0    0    0 -0.00000000000E+00 -0.00000000000E+00 -0.45593999997E+02  0.45594000000E+02  0.51100000000E-03 0. -1.
    9900012    2    1    2    0    0 -0.10033292784E+01  0.30397965050E+00 -0.54209313492E+00  0.90007771956E+02  0.90000033746E+02 0.  0.
        -12    1    1    2    0    0  0.10033292784E+01 -0.30397965050E+00  0.54209313492E+00  0.11802280440E+01  0.00000000000E+00 0.  1.
         11    1    3    3    0    0  0.96112859998E+01 -0.32494504938E+02 -0.18443013805E+02  0.38579974446E+02  0.51100000000E-03 0. -1.
        -11    1    3    3    0    0 -0.27943791132E+01  0.26205923516E+01 -0.92976906686E+01  0.10055998754E+02  0.51100000000E-03 0.  1.
        -12    1    3    3    0    0 -0.78202361650E+01  0.30177892237E+02  0.27198611339E+02  0.41371798756E+02  0.00000000000E+00 0.  1.
</event>
<event>
 7    1  0.2385752E-015  0.9000771E+02  0.7816164E-02  0.1186339E+00
        -11   -1    0    0    0    0  0.00000000000E+00  0.00000000000E+00  0.45593999997E+02  0.45594000000E+02  0.51100000000E-03 0.  1.
         11   -1    0    0    0    0 -0.00000000000E+00 -0.00000000000E+00 -0.45593999997E+02  0.45594000000E+02  0.51100000000E-03 0. -1.
    9900012    2    1    2    0    0  0.42112354065E+00  0.71456749054E+00 -0.83971675511E+00  0.90007713609E+02  0.89999974629E+02 0.  0.
        -12    1    1    2    0    0 -0.42112354065E+00 -0.71456749054E+00  0.83971675511E+00  0.11802863906E+01  0.00000000000E+00 0.  1.
         11    1    3    3    0    0 -0.27904031221E+01  0.36054913206E+01  0.90913820496E+01  0.10170503679E+02  0.51100000000E-03 0. -1.
        -11    1    3    3    0    0 -0.32259577532E+02 -0.98565219729E+01  0.13960750941E+02  0.36506628645E+02  0.51100000000E-03 0.  1.
         12    1    3    3    0    0  0.35471104194E+02  0.69655981428E+01 -0.23891849746E+02  0.43330581286E+02  0.00000000000E+00 0. -1.
</event>
<event>
 7    1  0.2385752E-015  0.9000775E+02  0.7816164E-02  0.1186339E+00
        -11   -1    0    0    0    0  0.00000000000E+00  0.00000000000E+00  0.45593999997E+02  0.45594000000E+02  0.51100000000E-03 0.  1.
         11   -1    0    0    0    0 -0.00000000000E+00 -0.00000000000E+00 -0.45593999997E+02  0.45594000000E+02  0.51100000000E-03 0. -1.
    9900012    2    1    2    0    0  0.49943034429E+00 -0.46045011598E+00 -0.96515983431E+00  0.90007754905E+02  0.90000016470E+02 0.  0.
        -12    1    1    2    0    0 -0.49943034429E+00  0.46045011598E+00  0.96515983431E+00  0.11802450948E+01  0.00000000000E+00 0.  1.
         11    1    3    3    0    0 -0.29635169148E+02  0.20779969184E+02  0.80070655485E+01  0.37069710933E+02  0.51100000000E-03 0. -1.
        -11    1    3    3    0    0  0.77832633202E+00  0.92103181422E+01  0.14995923570E+01  0.93640017972E+01  0.51100000000E-03 0.  1.
        -12    1    3    3    0    0  0.29356273160E+02 -0.30450737442E+02 -0.10471817740E+02  0.43574042175E+02  0.00000000000E+00 0.  1.
</event>
<event>
 7    1  0.2385752E-015  0.9000788E+02  0.7816164E-02  0.1186339E+00
        -11   -1    0    0    0    0  0.00000000000E+00  0.00000000000E+00  0.45593999997E+02  0.45594000000E+02  0.51100000000E-03 0. -1.
         11   -1    0    0    0    0 -0.00000000000E+00 -0.00000000000E+00 -0.45593999997E+02  0.45594000000E+02  0.51100000000E-03 0.  1.
    9900012    2    1    2    0    0  0.47256126845E+00  0.36477452764E+00 -0.10179901016E+01  0.90007882016E+02  0.90000145259E+02 0.  0.
        -12    1    1    2    0    0 -0.47256126845E+00 -0.36477452764E+00  0.10179901016E+01  0.11801179837E+01  0.00000000000E+00 0.  1.
         11    1    3    3    0    0 -0.36502257298E+02  0.21217105586E+02 -0.13187961288E+02  0.44232371410E+02  0.51100000000E-03 0. -1.
        -11    1    3    3    0    0  0.91691462974E+01 -0.12613719352E+01 -0.98152942096E+00  0.93074004559E+01  0.51100000000E-03 0.  1.
        -12    1    3    3    0    0  0.27805672270E+02 -0.19590959124E+02  0.13151500607E+02  0.36468110151E+02  0.00000000000E+00 0.  1.
</event>
<event>
 7    1  0.2385752E-015  0.9000781E+02  0.7816164E-02  0.1186339E+00
        -11   -1    0    0    0    0  0.00000000000E+00  0.00000000000E+00  0.45593999997E+02  0.45594000000E+02  0.51100000000E-03 0. -1.
         11   -1    0    0    0    0 -0.00000000000E+00 -0.00000000000E+00 -0.45593999997E+02  0.45594000000E+02  0.51100000000E-03 0.  1.
    9900012    2    1    2    0    0 -0.20691915068E-01  0.11800095914E+01  0.22657261713E-02  0.90007806827E+02  0.90000069078E+02 0.  0.
        -12    1    1    2    0    0  0.20691915068E-01 -0.11800095914E+01 -0.22657261713E-02  0.11801931726E+01  0.00000000000E+00 0.  1.
         11    1    3    3    0    0 -0.91746002634E+01  0.38968733662E+02 -0.32639041435E+01  0.40167008400E+02  0.51100000000E-03 0. -1.
        -11    1    3    3    0    0 -0.10427621021E+02 -0.61621031170E+01 -0.19859942555E+01  0.12273995618E+02  0.51100000000E-03 0.  1.
        -12    1    3    3    0    0  0.19581529369E+02 -0.31626620954E+02  0.52521641252E+01  0.37566802810E+02  0.00000000000E+00 0.  1.
</event>
<event>
 7    1  0.2385752E-015  0.9000800E+02  0.7816164E-02  0.1186339E+00
        -11   -1    0    0    0    0  0.00000000000E+00  0.00000000000E+00  0.45593999997E+02  0.45594000000E+02  0.51100000000E-03 0.  1.
         11   -1    0    0    0    0 -0.00000000000E+00 -0.00000000000E+00 -0.45593999997E+02  0.45594000000E+02  0.51100000000E-03 0. -1.
    9900012    2    1    2    0    0  0.82905826238E+00  0.82390358177E+00  0.16197200670E+00  0.90008004388E+02  0.90000269245E+02 0.  0.
        -12    1    1    2    0    0 -0.82905826238E+00 -0.82390358177E+00 -0.16197200670E+00  0.11799956125E+01  0.00000000000E+00 0.  1.
         11    1    3    3    0    0  0.69992475834E+01 -0.10461201604E+01 -0.47283280725E+01  0.85112232227E+01  0.51100000000E-03 0. -1.
        -11    1    3    3    0    0  0.33249705976E+02  0.18239936743E+02  0.77852950600E+01  0.38714972030E+02  0.51100000000E-03 0.  1.
         12    1    3    3    0    0 -0.39419895297E+02 -0.16369913001E+02 -0.28949949807E+01  0.42781809134E+02  0.00000000000E+00 0. -1.
</event>
<event>
 7    1  0.2686187E-015  0.9000773E+02  0.7816164E-02  0.1186339E+00
        -11   -1    0    0    0    0  0.00000000000E+00  0.00000000000E+00  0.45593999997E+02  0.45594000000E+02  0.51100000000E-03 0. -1.
         11   -1    0    0    0    0 -0.00000000000E+00 -0.00000000000E+00 -0.45593999997E+02  0.45594000000E+02  0.51100000000E-03 0.  1.
    9900012    2    1    2    0    0 -0.50975259084E+00 -0.20644065413E+00  0.10443092075E+01  0.90007725808E+02  0.89999986989E+02 0.  0.
        -12    1    1    2    0    0  0.50975259084E+00  0.20644065413E+00 -0.10443092075E+01  0.11802741920E+01  0.00000000000E+00 0.  1.
         11    1    3    3    0    0 -0.17133366596E+02  0.29356369029E+02  0.15990727034E+02  0.37563972165E+02  0.51100000000E-03 0. -1.
        -11    1    3    3    0    0 -0.86399873351E+01  0.28195552487E+01 -0.40595908950E+01  0.99538711789E+01  0.51100000000E-03 0.  1.
        -12    1    3    3    0    0  0.25263601340E+02 -0.32382364931E+02 -0.10886826931E+02  0.42489882464E+02  0.00000000000E+00 0.  1.
</event>
<event>
 7    1  0.2385752E-015  0.9000753E+02  0.7816164E-02  0.1186339E+00
        -11   -1    0    0    0    0  0.00000000000E+00  0.00000000000E+00  0.45593999997E+02  0.45594000000E+02  0.51100000000E-03 0.  1.
         11   -1    0    0    0    0 -0.00000000000E+00 -0.00000000000E+00 -0.45593999997E+02  0.45594000000E+02  0.51100000000E-03 0. -1.
    9900012    2    1    2    0    0 -0.86689186882E+00 -0.22286593996E+00 -0.76964122948E+00  0.90007526213E+02  0.89999784759E+02 0.  0.
        -12    1    1    2    0    0  0.86689186882E+00  0.22286593996E+00  0.76964122948E+00  0.11804737869E+01  0.00000000000E+00 0.  1.
         11    1    3    3    0    0  0.75630198282E+01  0.12642221388E+01  0.65281805735E+01  0.10070485013E+02  0.51100000000E-03 0. -1.
        -11    1    3    3    0    0 -0.14403553888E+02  0.11235789689E+02  0.32746746341E+02  0.37497396320E+02  0.51100000000E-03 0.  1.
         12    1    3    3    0    0  0.59736421910E+01 -0.12722877767E+02 -0.40044568144E+02  0.42439644880E+02  0.00000000000E+00 0. -1.
</event>
<event>
 7    1  0.2385752E-015  0.9000779E+02  0.7816164E-02  0.1186339E+00
        -11   -1    0    0    0    0  0.00000000000E+00  0.00000000000E+00  0.45593999997E+02  0.45594000000E+02  0.51100000000E-03 0. -1.
         11   -1    0    0    0    0 -0.00000000000E+00 -0.00000000000E+00 -0.45593999997E+02  0.45594000000E+02  0.51100000000E-03 0.  1.
    9900012    2    1    2    0    0  0.27203991713E+00  0.11477211239E+01 -0.40463926984E-01  0.90007785264E+02  0.90000047229E+02 0.  0.
        -12    1    1    2    0    0 -0.27203991713E+00 -0.11477211239E+01  0.40463926984E-01  0.11802147365E+01  0.00000000000E+00 0.  1.
         11    1    3    3    0    0  0.99492452359E+01 -0.15619826504E+02  0.29976835217E+02  0.35236020074E+02  0.51100000000E-03 0. -1.
        -11    1    3    3    0    0  0.13874934365E+02  0.28123212270E+01 -0.15629046474E-01  0.14157090056E+02  0.51100000000E-03 0.  1.
        -12    1    3    3    0    0 -0.23552139684E+02  0.13955226401E+02 -0.30001670097E+02  0.40614675134E+02  0.00000000000E+00 0.  1.
</event>
<event>
 7    1  0.2385752E-015  0.9000782E+02  0.7816164E-02  0.1186339E+00
        -11   -1    0    0    0    0  0.00000000000E+00  0.00000000000E+00  0.45593999997E+02  0.45594000000E+02  0.51100000000E-03 0.  1.
         11   -1    0    0    0    0 -0.00000000000E+00 -0.00000000000E+00 -0.45593999997E+02  0.45594000000E+02  0.51100000000E-03 0. -1.
    9900012    2    1    2    0    0 -0.97138832076E+00  0.67022734794E+00 -0.36284955762E-02  0.90007824956E+02  0.90000087446E+02 0.  0.
        -12    1    1    2    0    0  0.97138832076E+00 -0.67022734794E+00  0.36284955762E-02  0.11801750436E+01  0.00000000000E+00 0.  1.
         11    1    3    3    0    0 -0.24504294666E+02  0.34259972625E+02  0.11493747055E+02  0.43661337622E+02  0.51100000000E-03 0. -1.
        -11    1    3    3    0    0  0.65671419871E+01 -0.10239251888E+01 -0.64845495998E+01  0.92857503975E+01  0.51100000000E-03 0.  1.
        -12    1    3    3    0    0  0.16965764358E+02 -0.32565820088E+02 -0.50128259508E+01  0.37060736937E+02  0.00000000000E+00 0.  1.
</event>
<event>
 7    1  0.2385752E-015  0.9000786E+02  0.7816164E-02  0.1186339E+00
        -11   -1    0    0    0    0  0.00000000000E+00  0.00000000000E+00  0.45593999997E+02  0.45594000000E+02  0.51100000000E-03 0.  1.
         11   -1    0    0    0    0 -0.00000000000E+00 -0.00000000000E+00 -0.45593999997E+02  0.45594000000E+02  0.51100000000E-03 0. -1.
    9900012    2    1    2    0    0 -0.37686708700E+00 -0.25135613863E-01 -0.11180675610E+01  0.90007857775E+02  0.90000120697E+02 0.  0.
        -12    1    1    2    0    0  0.37686708700E+00  0.25135613863E-01  0.11180675610E+01  0.11801422251E+01  0.00000000000E+00 0.  1.
         11    1    3    3    0    0  0.61457487052E+01  0.33046731145E+01 -0.78759626648E+01  0.10522446469E+02  0.51100000000E-03 0. -1.
        -11    1    3    3    0    0  0.32152149755E+02 -0.19044917959E+02  0.13810047951E+01  0.37394876768E+02  0.51100000000E-03 0.  1.
         12    1    3    3    0    0 -0.38674765548E+02  0.15715109231E+02  0.53768903087E+01  0.42090534538E+02  0.00000000000E+00 0. -1.
</event>
<event>
 7    1  0.2385752E-015  0.9000775E+02  0.7816164E-02  0.1186339E+00
        -11   -1    0    0    0    0  0.00000000000E+00  0.00000000000E+00  0.45593999997E+02  0.45594000000E+02  0.51100000000E-03 0.  1.
         11   -1    0    0    0    0 -0.00000000000E+00 -0.00000000000E+00 -0.45593999997E+02  0.45594000000E+02  0.51100000000E-03 0. -1.
    9900012    2    1    2    0    0  0.72443921929E+00  0.14878004709E+00 -0.91980971395E+00  0.90007746809E+02  0.90000008267E+02 0.  0.
        -12    1    1    2    0    0 -0.72443921929E+00 -0.14878004709E+00  0.91980971395E+00  0.11802531909E+01  0.00000000000E+00 0.  1.
         11    1    3    3    0    0  0.77157372643E+00  0.87628309815E+01  0.46256065146E+01  0.99387508629E+01  0.51100000000E-03 0. -1.
        -11    1    3    3    0    0  0.23714246415E+02 -0.54407279785E+01  0.29104588233E+02  0.37934734221E+02  0.51100000000E-03 0.  1.
         12    1    3    3    0    0 -0.23761380923E+02 -0.31733229558E+01 -0.34650004461E+02  0.42134261725E+02  0.00000000000E+00 0. -1.
</event>
<event>
 7    1  0.3067522E-015  0.9000772E+02  0.7816164E-02  0.1186339E+00
        -11   -1    0    0    0    0  0.00000000000E+00  0.00000000000E+00  0.45593999997E+02  0.45594000000E+02  0.51100000000E-03 0. -1.
         11   -1    0    0    0    0 -0.00000000000E+00 -0.00000000000E+00 -0.45593999997E+02  0.45594000000E+02  0.51100000000E-03 0.  1.
    9900012    2    1    2    0    0 -0.51390946602E-01  0.10489509627E+01  0.53862212915E+00  0.90007723359E+02  0.89999984507E+02 0.  0.
        -12    1    1    2    0    0  0.51390946602E-01 -0.10489509627E+01 -0.53862212915E+00  0.11802766411E+01  0.00000000000E+00 0.  1.
         11    1    3    3    0    0 -0.54790336050E+01 -0.90636236658E+01  0.37640180477E+02  0.39101819265E+02  0.51100000000E-03 0. -1.
        -11    1    3    3    0    0  0.37145514266E+01  0.74787279438E+01  0.42950405587E+01  0.93902416168E+01  0.51100000000E-03 0.  1.
        -12    1    3    3    0    0  0.17130912318E+01  0.26338466847E+01 -0.41396598906E+02  0.41515662478E+02  0.00000000000E+00 0.  1.
</event>
<event>
 7    1  0.2385752E-015  0.9000837E+02  0.7816164E-02  0.1186338E+00
        -11   -1    0    0    0    0  0.00000000000E+00  0.00000000000E+00  0.45593999997E+02  0.45594000000E+02  0.51100000000E-03 0. -1.
         11   -1    0    0    0    0 -0.00000000000E+00 -0.00000000000E+00 -0.45593999997E+02  0.45594000000E+02  0.51100000000E-03 0.  1.
    9900012    2    1    2    0    0  0.44852297956E+00  0.26698010622E+00  0.10578650047E+01  0.90008368868E+02  0.90000638534E+02 0.  0.
        -12    1    1    2    0    0 -0.44852297956E+00 -0.26698010622E+00 -0.10578650047E+01  0.11796311324E+01  0.00000000000E+00 0.  1.
         11    1    3    3    0    0 -0.93109361626E+01 -0.88934819445E+00  0.96470388820E+01  0.13436883265E+02  0.51100000000E-03 0. -1.
        -11    1    3    3    0    0 -0.15209480013E+02  0.20937187746E+01 -0.36207301527E+02  0.39327860667E+02  0.51100000000E-03 0.  1.
         12    1    3    3    0    0  0.24968939155E+02 -0.93739047397E+00  0.27618127649E+02  0.37243624935E+02  0.00000000000E+00 0. -1.
</event>
<event>
 7    1  0.2385752E-015  0.9000766E+02  0.7816164E-02  0.1186339E+00
        -11   -1    0    0    0    0  0.00000000000E+00  0.00000000000E+00  0.45593999997E+02  0.45594000000E+02  0.51100000000E-03 0. -1.
         11   -1    0    0    0    0 -0.00000000000E+00 -0.00000000000E+00 -0.45593999997E+02  0.45594000000E+02  0.51100000000E-03 0.  1.
    9900012    2    1    2    0    0 -0.76038114802E+00 -0.75268659967E+00 -0.49847256025E+00  0.90007664666E+02  0.89999925039E+02 0.  0.
        -12    1    1    2    0    0  0.76038114802E+00  0.75268659967E+00  0.49847256025E+00  0.11803353341E+01  0.00000000000E+00 0.  1.
         11    1    3    3    0    0 -0.43711868875E+01  0.16658564434E+01  0.75485903279E+01  0.88805162403E+01  0.51100000000E-03 0. -1.
        -11    1    3    3    0    0 -0.29753094981E+02  0.23658224986E+02 -0.76763485868E+01  0.38779950984E+02  0.51100000000E-03 0.  1.
         12    1    3    3    0    0  0.33363900720E+02 -0.26076768029E+02 -0.37071430130E+00  0.42347197442E+02  0.00000000000E+00 0. -1.
</event>
<event>
 7    1  0.2385752E-015  0.9000776E+02  0.7816164E-02  0.1186339E+00
        -11   -1    0    0    0    0  0.00000000000E+00  0.00000000000E+00  0.45593999997E+02  0.45594000000E+02  0.51100000000E-03 0.  1.
         11   -1    0    0    0    0 -0.00000000000E+00 -0.00000000000E+00 -0.45593999997E+02  0.45594000000E+02  0.51100000000E-03 0. -1.
    9900012    2    1    2    0    0  0.49953247912E-01 -0.77595485643E+00  0.88789520343E+00  0.90007763092E+02  0.90000024765E+02 0.  0.
        -12    1    1    2    0    0 -0.49953247912E-01  0.77595485643E+00 -0.88789520343E+00  0.11802369078E+01  0.00000000000E+00 0.  1.
         11    1    3    3    0    0 -0.82579900056E+01 -0.22588733324E+02 -0.11781738452E+02  0.26781609984E+02  0.51100000000E-03 0. -1.
        -11    1    3    3    0    0  0.19776553808E+02 -0.92282030004E+01 -0.90687050871E+01  0.23632884364E+02  0.51100000000E-03 0.  1.
         12    1    3    3    0    0 -0.11468610555E+02  0.31040981468E+02  0.21738338743E+02  0.39593268744E+02  0.00000000000E+00 0. -1.
</event>
<event>
 7    1  0.2385752E-015  0.9000865E+02  0.7816164E-02  0.1186337E+00
        -11   -1    0    0    0    0  0.00000000000E+00  0.00000000000E+00  0.45593999997E+02  0.45594000000E+02  0.51100000000E-03 0.  1.
         11   -1    0    0    0    0 -0.00000000000E+00 -0.00000000000E+00 -0.45593999997E+02  0.45594000000E+02  0.51100000000E-03 0. -1.
    9900012    2    1    2    0    0  0.19744700203E+00 -0.11626314125E+01  0.12982836644E-01  0.90008650317E+02  0.90000923697E+02 0.  0.
        -12    1    1    2    0    0 -0.19744700203E+00  0.11626314125E+01 -0.12982836644E-01  0.11793496827E+01  0.00000000000E+00 0.  1.
         11    1    3    3    0    0  0.63709772260E+01  0.34361655934E+01 -0.50702897132E+01  0.88376706680E+01  0.51100000000E-03 0. -1.
        -11    1    3    3    0    0  0.15202690066E+02  0.33705084129E+02 -0.30545486318E+00  0.36976313828E+02  0.51100000000E-03 0.  1.
         12    1    3    3    0    0 -0.21376220290E+02 -0.38303881135E+02  0.53887274130E+01  0.44194665821E+02  0.00000000000E+00 0. -1.
</event>
<event>
 7    1  0.2385752E-015  0.9000777E+02  0.7816164E-02  0.1186339E+00
        -11   -1    0    0    0    0  0.00000000000E+00  0.00000000000E+00  0.45593999997E+02  0.45594000000E+02  0.51100000000E-03 0.  1.
         11   -1    0    0    0    0 -0.00000000000E+00 -0.00000000000E+00 -0.45593999997E+02  0.45594000000E+02  0.51100000000E-03 0. -1.
    9900012    2    1    2    0    0 -0.11739071813E+01 -0.11399300171E+00  0.43370756164E-01  0.90007773963E+02  0.90000035780E+02 0.  0.
        -12    1    1    2    0    0  0.11739071813E+01  0.11399300171E+00 -0.43370756164E-01  0.11802260365E+01  0.00000000000E+00 0.  1.
         11    1    3    3    0    0 -0.30602599818E+02  0.25202273686E+02  0.21299598531E+01  0.39701516896E+02  0.51100000000E-03 0. -1.
        -11    1    3    3    0    0  0.16219086033E+01  0.31354990697E+01  0.84444276714E+01  0.91526116979E+01  0.51100000000E-03 0.  1.
        -12    1    3    3    0    0  0.27806784034E+02 -0.28451765758E+02 -0.10531016768E+02  0.41153645370E+02  0.00000000000E+00 0.  1.
</event>
<event>
 7    1  0.2385752E-015  0.9000774E+02  0.7816164E-02  0.1186339E+00
        -11   -1    0    0    0    0  0.00000000000E+00  0.00000000000E+00  0.45593999997E+02  0.45594000000E+02  0.51100000000E-03 0.  1.
         11   -1    0    0    0    0 -0.00000000000E+00 -0.00000000000E+00 -0.45593999997E+02  0.45594000000E+02  0.51100000000E-03 0. -1.
    9900012    2    1    2    0    0 -0.10185803668E+01  0.56968123578E+00 -0.17596847824E+00  0.90007742579E+02  0.90000003981E+02 0.  0.
        -12    1    1    2    0    0  0.10185803668E+01 -0.56968123578E+00  0.17596847824E+00  0.11802574208E+01  0.00000000000E+00 0.  1.
         11    1    3    3    0    0 -0.10289784733E+02  0.29446062453E+02 -0.21430637182E+02  0.37844715274E+02  0.51100000000E-03 0. -1.
        -11    1    3    3    0    0  0.50687793465E+01  0.80881237793E+01  0.48988864177E+00  0.95577330719E+01  0.51100000000E-03 0.  1.
        -12    1    3    3    0    0  0.42024250199E+01 -0.36964504997E+02  0.20764780062E+02  0.42605294234E+02  0.00000000000E+00 0.  1.
</event>
<event>
 7    1  0.2385752E-015  0.9000788E+02  0.7816164E-02  0.1186339E+00
        -11   -1    0    0    0    0  0.00000000000E+00  0.00000000000E+00  0.45593999997E+02  0.45594000000E+02  0.51100000000E-03 0. -1.
         11   -1    0    0    0    0 -0.00000000000E+00 -0.00000000000E+00 -0.45593999997E+02  0.45594000000E+02  0.51100000000E-03 0.  1.
    9900012    2    1    2    0    0 -0.35721847542E+00  0.16743641582E+00  0.11122232218E+01  0.90007881155E+02  0.90000144386E+02 0.  0.
        -12    1    1    2    0    0  0.35721847542E+00 -0.16743641582E+00 -0.11122232218E+01  0.11801188447E+01  0.00000000000E+00 0.  1.
         11    1    3    3    0    0  0.34003650780E+01 -0.58982349962E+01  0.81853714054E+01  0.10646687938E+02  0.51100000000E-03 0. -1.
        -11    1    3    3    0    0  0.21765262580E+02 -0.23715799701E+02 -0.20197982990E+02  0.38001635857E+02  0.51100000000E-03 0.  1.
         12    1    3    3    0    0 -0.25522846133E+02  0.29781471113E+02  0.13124834807E+02  0.41359557361E+02  0.00000000000E+00 0. -1.
</event>
<event>
 7    1  0.2540627E-015  0.9000812E+02  0.7816164E-02  0.1186338E+00
        -11   -1    0    0    0    0  0.00000000000E+00  0.00000000000E+00  0.45593999997E+02  0.45594000000E+02  0.51100000000E-03 0. -1.
         11   -1    0    0    0    0 -0.00000000000E+00 -0.00000000000E+00 -0.45593999997E+02  0.45594000000E+02  0.51100000000E-03 0.  1.
    9900012    2    1    2    0    0 -0.72515108722E+00 -0.42757941236E+00  0.82671133278E+00  0.90008118700E+02  0.90000385067E+02 0.  0.
        -12    1    1    2    0    0  0.72515108722E+00  0.42757941236E+00 -0.82671133278E+00  0.11798812995E+01  0.00000000000E+00 0.  1.
         11    1    3    3    0    0 -0.16667249271E+02  0.37677565745E+02  0.99384710939E+01  0.42381238381E+02  0.51100000000E-03 0. -1.
        -11    1    3    3    0    0 -0.38908641798E+01 -0.59990378188E+01 -0.67211976430E+01  0.98133468722E+01  0.51100000000E-03 0.  1.
        -12    1    3    3    0    0  0.19832962364E+02 -0.32106107339E+02 -0.23905621181E+01  0.37813533448E+02  0.00000000000E+00 0.  1.
</event>
<event>
 7    1  0.2793019E-015  0.9000776E+02  0.7816164E-02  0.1186339E+00
        -11   -1    0    0    0    0  0.00000000000E+00  0.00000000000E+00  0.45593999997E+02  0.45594000000E+02  0.51100000000E-03 0.  1.
         11   -1    0    0    0    0 -0.00000000000E+00 -0.00000000000E+00 -0.45593999997E+02  0.45594000000E+02  0.51100000000E-03 0. -1.
    9900012    2    1    2    0    0  0.88482708970E+00  0.40225600963E+00 -0.66950192375E+00  0.90007762015E+02  0.90000023673E+02 0.  0.
        -12    1    1    2    0    0 -0.88482708970E+00 -0.40225600963E+00  0.66950192375E+00  0.11802379853E+01  0.00000000000E+00 0.  1.
         11    1    3    3    0    0 -0.20156506469E+02  0.31607447705E+01 -0.37645442498E+02  0.42818855679E+02  0.51100000000E-03 0. -1.
        -11    1    3    3    0    0  0.68150707531E+01 -0.61680319853E+01  0.21858133642E+01  0.94481526377E+01  0.51100000000E-03 0.  1.
        -12    1    3    3    0    0  0.14226262806E+02  0.34095432244E+01  0.34790127210E+02  0.37740753698E+02  0.00000000000E+00 0.  1.
</event>
<event>
 7    1  0.2385752E-015  0.9000777E+02  0.7816164E-02  0.1186339E+00
        -11   -1    0    0    0    0  0.00000000000E+00  0.00000000000E+00  0.45593999997E+02  0.45594000000E+02  0.51100000000E-03 0. -1.
         11   -1    0    0    0    0 -0.00000000000E+00 -0.00000000000E+00 -0.45593999997E+02  0.45594000000E+02  0.51100000000E-03 0.  1.
    9900012    2    1    2    0    0 -0.15446367717E+00 -0.10972400670E+01  0.40637927566E+00  0.90007771671E+02  0.90000033457E+02 0.  0.
        -12    1    1    2    0    0  0.15446367717E+00  0.10972400670E+01 -0.40637927566E+00  0.11802283287E+01  0.00000000000E+00 0.  1.
         11    1    3    3    0    0  0.72296943772E+01  0.58114130321E+01  0.19250913706E+01  0.94734882310E+01  0.51100000000E-03 0. -1.
        -11    1    3    3    0    0  0.58615773231E+01 -0.18176070990E+02 -0.36654089711E+02  0.41330980367E+02  0.51100000000E-03 0.  1.
         12    1    3    3    0    0 -0.13245735377E+02  0.11267417891E+02  0.35135377616E+02  0.39203303073E+02  0.00000000000E+00 0. -1.
</event>
<event>
 7    1  0.2385752E-015  0.9000755E+02  0.7816164E-02  0.1186339E+00
        -11   -1    0    0    0    0  0.00000000000E+00  0.00000000000E+00  0.45593999997E+02  0.45594000000E+02  0.51100000000E-03 0.  1.
         11   -1    0    0    0    0 -0.00000000000E+00 -0.00000000000E+00 -0.45593999997E+02  0.45594000000E+02  0.51100000000E-03 0. -1.
    9900012    2    1    2    0    0  0.91432785302E+00  0.25338892663E+00 -0.70232557564E+00  0.90007549838E+02  0.89999808696E+02 0.  0.
        -12    1    1    2    0    0 -0.91432785302E+00 -0.25338892663E+00  0.70232557564E+00  0.11804501621E+01  0.00000000000E+00 0.  1.
         11    1    3    3    0    0  0.25528044641E+01  0.14226871837E+02 -0.20749455717E+01  0.14602263259E+02  0.51100000000E-03 0. -1.
        -11    1    3    3    0    0  0.23584375023E+02  0.52840743619E+01  0.25804660196E+02  0.35355688017E+02  0.51100000000E-03 0.  1.
         12    1    3    3    0    0 -0.25222851634E+02 -0.19257557272E+02 -0.24432040199E+02  0.40049598562E+02  0.00000000000E+00 0. -1.
</event>
<event>
 7    1  0.2385752E-015  0.9000780E+02  0.7816164E-02  0.1186339E+00
        -11   -1    0    0    0    0  0.00000000000E+00  0.00000000000E+00  0.45593999997E+02  0.45594000000E+02  0.51100000000E-03 0.  1.
         11   -1    0    0    0    0 -0.00000000000E+00 -0.00000000000E+00 -0.45593999997E+02  0.45594000000E+02  0.51100000000E-03 0. -1.
    9900012    2    1    2    0    0 -0.51853948768E+00 -0.28428497060E+00 -0.10213588875E+01  0.90007798694E+02  0.90000060837E+02 0.  0.
        -12    1    1    2    0    0  0.51853948768E+00  0.28428497060E+00  0.10213588875E+01  0.11802013057E+01  0.00000000000E+00 0.  1.
         11    1    3    3    0    0 -0.63375131537E+01 -0.43425065801E+01 -0.53682532642E+01  0.93722771908E+01  0.51100000000E-03 0. -1.
        -11    1    3    3    0    0  0.26998962065E+02 -0.11176621282E+02  0.31508944564E+02  0.42972949673E+02  0.51100000000E-03 0.  1.
         12    1    3    3    0    0 -0.21179988399E+02  0.15234842891E+02 -0.27162050187E+02  0.37662571830E+02  0.00000000000E+00 0. -1.
</event>
<event>
 7    1  0.2385752E-015  0.9000776E+02  0.7816164E-02  0.1186339E+00
        -11   -1    0    0    0    0  0.00000000000E+00  0.00000000000E+00  0.45593999997E+02  0.45594000000E+02  0.51100000000E-03 0. -1.
         11   -1    0    0    0    0 -0.00000000000E+00 -0.00000000000E+00 -0.45593999997E+02  0.45594000000E+02  0.51100000000E-03 0.  1.
    9900012    2    1    2    0    0  0.76540559290E+00 -0.89753731619E+00  0.39314993534E-01  0.90007760777E+02  0.90000022419E+02 0.  0.
        -12    1    1    2    0    0 -0.76540559290E+00  0.89753731619E+00 -0.39314993534E-01  0.11802392233E+01  0.00000000000E+00 0.  1.
         11    1    3    3    0    0 -0.60900762310E+01  0.12967267744E+02  0.24413911855E+02  0.28306857006E+02  0.51100000000E-03 0. -1.
        -11    1    3    3    0    0  0.15023461325E+02 -0.53636874858E+01  0.14205054122E+02  0.21360175479E+02  0.51100000000E-03 0.  1.
        -12    1    3    3    0    0 -0.81679795014E+01 -0.85011175741E+01 -0.38579650983E+02  0.40340728292E+02  0.00000000000E+00 0.  1.
</event>
<event>
 7    1  0.2385752E-015  0.9000770E+02  0.7816164E-02  0.1186339E+00
        -11   -1    0    0    0    0  0.00000000000E+00  0.00000000000E+00  0.45593999997E+02  0.45594000000E+02  0.51100000000E-03 0. -1.
         11   -1    0    0    0    0 -0.00000000000E+00 -0.00000000000E+00 -0.45593999997E+02  0.45594000000E+02  0.51100000000E-03 0.  1.
    9900012    2    1    2    0    0 -0.31899805867E+00 -0.95568068549E+00  0.61483943007E+00  0.90007697980E+02  0.89999958793E+02 0.  0.
        -12    1    1    2    0    0  0.31899805867E+00  0.95568068549E+00 -0.61483943007E+00  0.11803020202E+01  0.00000000000E+00 0.  1.
         11    1    3    3    0    0 -0.61910007305E+01  0.68582909569E+01 -0.34267286355E+01  0.98542942060E+01  0.51100000000E-03 0. -1.
        -11    1    3    3    0    0 -0.14696116414E+02  0.72592186021E+01  0.35829872681E+02  0.39401165833E+02  0.51100000000E-03 0.  1.
         12    1    3    3    0    0  0.20568119086E+02 -0.15073190245E+02 -0.31788304616E+02  0.40752237941E+02  0.00000000000E+00 0. -1.
</event>
<event>
 7    1  0.2385752E-015  0.9000784E+02  0.7816164E-02  0.1186339E+00
        -11   -1    0    0    0    0  0.00000000000E+00  0.00000000000E+00  0.45593999997E+02  0.45594000000E+02  0.51100000000E-03 0.  1.
         11   -1    0    0    0    0 -0.00000000000E+00 -0.00000000000E+00 -0.45593999997E+02  0.45594000000E+02  0.51100000000E-03 0. -1.
    9900012    2    1    2    0    0  0.46976462971E+00 -0.82873114545E+00 -0.69664271480E+00  0.90007836795E+02  0.90000099440E+02 0.  0.
        -12    1    1    2    0    0 -0.46976462971E+00  0.82873114545E+00  0.69664271480E+00  0.11801632052E+01  0.00000000000E+00 0.  1.
         11    1    3    3    0    0 -0.13068935655E+02 -0.35526251790E+02 -0.19160182194E+02  0.42426692392E+02  0.51100000000E-03 0. -1.
        -11    1    3    3    0    0  0.88502463733E+01  0.13598542822E+01 -0.45171217994E+00  0.89654954516E+01  0.51100000000E-03 0.  1.
        -12    1    3    3    0    0  0.46884539113E+01  0.33337666362E+02  0.18915251659E+02  0.38615648951E+02  0.00000000000E+00 0.  1.
</event>
<event>
 7    1  0.2385752E-015  0.9000723E+02  0.7816164E-02  0.1186340E+00
        -11   -1    0    0    0    0  0.00000000000E+00  0.00000000000E+00  0.45593999997E+02  0.45594000000E+02  0.51100000000E-03 0. -1.
         11   -1    0    0    0    0 -0.00000000000E+00 -0.00000000000E+00 -0.45593999997E+02  0.45594000000E+02  0.51100000000E-03 0.  1.
    9900012    2    1    2    0    0  0.41693090772E-01  0.14888115243E+00  0.11706028664E+01  0.90007231190E+02  0.89999485840E+02 0.  0.
        -12    1    1    2    0    0 -0.41693090772E-01 -0.14888115243E+00 -0.11706028664E+01  0.11807688098E+01  0.00000000000E+00 0.  1.
         11    1    3    3    0    0  0.11396054878E+02  0.50544580371E+01 -0.21947182870E+01  0.12658372781E+02  0.51100000000E-03 0. -1.
        -11    1    3    3    0    0 -0.42391078204E+02  0.70235960629E+01 -0.44307285379E+01  0.43196825909E+02  0.51100000000E-03 0.  1.
         12    1    3    3    0    0  0.31036716417E+02 -0.11929172948E+02  0.77960496912E+01  0.34152032501E+02  0.00000000000E+00 0. -1.
</event>
<event>
 7    1  0.2385752E-015  0.9000764E+02  0.7816164E-02  0.1186339E+00
        -11   -1    0    0    0    0  0.00000000000E+00  0.00000000000E+00  0.45593999997E+02  0.45594000000E+02  0.51100000000E-03 0. -1.
         11   -1    0    0    0    0 -0.00000000000E+00 -0.00000000000E+00 -0.45593999997E+02  0.45594000000E+02  0.51100000000E-03 0.  1.
    9900012    2    1    2    0    0  0.11092311185E+01  0.37335328942E+00  0.15315358934E+00  0.90007643115E+02  0.89999903205E+02 0.  0.
        -12    1    1    2    0    0 -0.11092311185E+01 -0.37335328942E+00 -0.15315358934E+00  0.11803568845E+01  0.00000000000E+00 0.  1.
         11    1    3    3    0    0 -0.33920083783E+02 -0.79893156344E+01 -0.17996868442E+02  0.39221021432E+02  0.51100000000E-03 0. -1.
        -11    1    3    3    0    0 -0.23327785833E+01 -0.55697023235E+01  0.72758276629E+01  0.94552159326E+01  0.51100000000E-03 0.  1.
        -12    1    3    3    0    0  0.37362093485E+02  0.13932371247E+02  0.10874194369E+02  0.41331405751E+02  0.00000000000E+00 0.  1.
</event>
<event>
 7    1  0.2385752E-015  0.9000772E+02  0.7816164E-02  0.1186339E+00
        -11   -1    0    0    0    0  0.00000000000E+00  0.00000000000E+00  0.45593999997E+02  0.45594000000E+02  0.51100000000E-03 0.  1.
         11   -1    0    0    0    0 -0.00000000000E+00 -0.00000000000E+00 -0.45593999997E+02  0.45594000000E+02  0.51100000000E-03 0. -1.
    9900012    2    1    2    0    0  0.11621779639E+01  0.14438845379E+00 -0.14678440443E+00  0.90007724055E+02  0.89999985212E+02 0.  0.
        -12    1    1    2    0    0 -0.11621779639E+01 -0.14438845379E+00  0.14678440443E+00  0.11802759451E+01  0.00000000000E+00 0.  1.
         11    1    3    3    0    0 -0.27969625707E+02  0.15217973607E+01 -0.11672256260E+02  0.30345632237E+02  0.51100000000E-03 0. -1.
        -11    1    3    3    0    0 -0.75905115210E+00 -0.57098451959E+01 -0.17103003151E+02  0.18046916852E+02  0.51100000000E-03 0.  1.
        -12    1    3    3    0    0  0.29890854823E+02  0.43324362890E+01  0.28628475006E+02  0.41615174966E+02  0.00000000000E+00 0.  1.
</event>
<event>
 7    1  0.2385752E-015  0.9000780E+02  0.7816164E-02  0.1186339E+00
        -11   -1    0    0    0    0  0.00000000000E+00  0.00000000000E+00  0.45593999997E+02  0.45594000000E+02  0.51100000000E-03 0. -1.
         11   -1    0    0    0    0 -0.00000000000E+00 -0.00000000000E+00 -0.45593999997E+02  0.45594000000E+02  0.51100000000E-03 0.  1.
    9900012    2    1    2    0    0 -0.34990668193E+00 -0.74213076067E-01  0.11246857828E+01  0.90007804941E+02  0.90000067166E+02 0.  0.
        -12    1    1    2    0    0  0.34990668193E+00  0.74213076067E-01 -0.11246857828E+01  0.11801950587E+01  0.00000000000E+00 0.  1.
         11    1    3    3    0    0  0.20766660180E+02 -0.21561322887E+02  0.19835578682E+02  0.35910931505E+02  0.51100000000E-03 0. -1.
        -11    1    3    3    0    0  0.74654749313E+01 -0.53088188763E+01  0.25666254396E+01  0.95133821652E+01  0.51100000000E-03 0.  1.
        -12    1    3    3    0    0 -0.28582041793E+02  0.26795928687E+02 -0.21277518339E+02  0.44583491271E+02  0.00000000000E+00 0.  1.
</event>
<event>
 7    1  0.2385752E-015  0.9000769E+02  0.7816164E-02  0.1186339E+00
        -11   -1    0    0    0    0  0.00000000000E+00  0.00000000000E+00  0.45593999997E+02  0.45594000000E+02  0.51100000000E-03 0. -1.
         11   -1    0    0    0    0 -0.00000000000E+00 -0.00000000000E+00 -0.45593999997E+02  0.45594000000E+02  0.51100000000E-03 0.  1.
    9900012    2    1    2    0    0 -0.70345099411E+00  0.92028238898E+00  0.22666262273E+00  0.90007686939E+02  0.89999947607E+02 0.  0.
        -12    1    1    2    0    0  0.70345099411E+00 -0.92028238898E+00 -0.22666262273E+00  0.11803130606E+01  0.00000000000E+00 0.  1.
         11    1    3    3    0    0 -0.97866784923E+01 -0.30005775702E+01 -0.51157753504E+01  0.11443500311E+02  0.51100000000E-03 0. -1.
        -11    1    3    3    0    0 -0.14057806603E+02  0.32793216979E+02  0.17335029680E+02  0.39667622320E+02  0.51100000000E-03 0.  1.
         12    1    3    3    0    0  0.23141034101E+02 -0.28872357019E+02 -0.11992591707E+02  0.38896564308E+02  0.00000000000E+00 0. -1.
</event>
<event>
 7    1  0.2385752E-015  0.9000775E+02  0.7816164E-02  0.1186339E+00
        -11   -1    0    0    0    0  0.00000000000E+00  0.00000000000E+00  0.45593999997E+02  0.45594000000E+02  0.51100000000E-03 0.  1.
         11   -1    0    0    0    0 -0.00000000000E+00 -0.00000000000E+00 -0.45593999997E+02  0.45594000000E+02  0.51100000000E-03 0. -1.
    9900012    2    1    2    0    0 -0.80562441455E-01 -0.18357184218E-01 -0.11773587161E+01  0.90007745434E+02  0.90000006874E+02 0.  0.
        -12    1    1    2    0    0  0.80562441455E-01  0.18357184218E-01  0.11773587161E+01  0.11802545656E+01  0.00000000000E+00 0.  1.
         11    1    3    3    0    0  0.82018838572E+01  0.59393457425E+01 -0.34339428511E+01  0.10692927121E+02  0.51100000000E-03 0. -1.
        -11    1    3    3    0    0 -0.32251343090E+01 -0.37929621451E+02  0.19357673156E+02  0.42705704361E+02  0.51100000000E-03 0.  1.
         12    1    3    3    0    0 -0.50573119897E+01  0.31971918524E+02 -0.17101089021E+02  0.36609113952E+02  0.00000000000E+00 0. -1.
</event>
<event>
 7    1  0.2385752E-015  0.9000789E+02  0.7816164E-02  0.1186339E+00
        -11   -1    0    0    0    0  0.00000000000E+00  0.00000000000E+00  0.45593999997E+02  0.45594000000E+02  0.51100000000E-03 0. -1.
         11   -1    0    0    0    0 -0.00000000000E+00 -0.00000000000E+00 -0.45593999997E+02  0.45594000000E+02  0.51100000000E-03 0.  1.
    9900012    2    1    2    0    0 -0.19041791045E+00  0.93459389157E+00  0.69492752840E+00  0.90007894499E+02  0.90000157907E+02 0.  0.
        -12    1    1    2    0    0  0.19041791045E+00 -0.93459389157E+00 -0.69492752840E+00  0.11801055006E+01  0.00000000000E+00 0.  1.
         11    1    3    3    0    0  0.14183460693E+02 -0.38968938611E+02 -0.66923728678E+01  0.42006387474E+02  0.51100000000E-03 0. -1.
        -11    1    3    3    0    0 -0.63908692002E+01  0.67465963583E+01 -0.63276084177E+01  0.11242704306E+02  0.51100000000E-03 0.  1.
        -12    1    3    3    0    0 -0.79830094035E+01  0.33156936145E+02  0.13714908814E+02  0.36758802720E+02  0.00000000000E+00 0.  1.
</event>
<event>
 7    1  0.2385752E-015  0.9000735E+02  0.7816164E-02  0.1186340E+00
        -11   -1    0    0    0    0  0.00000000000E+00  0.00000000000E+00  0.45593999997E+02  0.45594000000E+02  0.51100000000E-03 0.  1.
         11   -1    0    0    0    0 -0.00000000000E+00 -0.00000000000E+00 -0.45593999997E+02  0.45594000000E+02  0.51100000000E-03 0. -1.
    9900012    2    1    2    0    0 -0.11172797714E+01 -0.18124738285E+00  0.33581381199E+00  0.90007349494E+02  0.89999605706E+02 0.  0.
        -12    1    1    2    0    0  0.11172797714E+01  0.18124738285E+00 -0.33581381199E+00  0.11806505061E+01  0.00000000000E+00 0.  1.
         11    1    3    3    0    0 -0.85202233163E+01 -0.33704847586E+01 -0.25584141447E+00  0.91662330299E+01  0.51100000000E-03 0. -1.
        -11    1    3    3    0    0  0.27373008749E+02 -0.27783241463E+02 -0.13665254068E+02  0.41327101074E+02  0.51100000000E-03 0.  1.
         12    1    3    3    0    0 -0.19970065204E+02  0.30972478839E+02  0.14256909294E+02  0.39514015390E+02  0.00000000000E+00 0. -1.
</event>
<event>
 7    1  0.2385752E-015  0.9000768E+02  0.7816164E-02  0.1186339E+00
        -11   -1    0    0    0    0  0.00000000000E+00  0.00000000000E+00  0.45593999997E+02  0.45594000000E+02  0.51100000000E-03 0.  1.
         11   -1    0    0    0    0 -0.00000000000E+00 -0.00000000000E+00 -0.45593999997E+02  0.45594000000E+02  0.51100000000E-03 0. -1.
    9900012    2    1    2    0    0 -0.51919664393E+00  0.23355323212E+00 -0.10339436620E+01  0.90007681499E+02  0.89999942095E+02 0.  0.
        -12    1    1    2    0    0  0.51919664393E+00 -0.23355323212E+00  0.10339436620E+01  0.11803185008E+01  0.00000000000E+00 0.  1.
         11    1    3    3    0    0  0.38233784132E+01  0.29193596692E+02 -0.26625445240E+02  0.39696330369E+02  0.51100000000E-03 0. -1.
        -11    1    3    3    0    0  0.53477381842E+01  0.53932767885E+01  0.51810524154E+01  0.91939677287E+01  0.51100000000E-03 0.  1.
        -12    1    3    3    0    0 -0.96903132413E+01 -0.34353320248E+02  0.20410449162E+02  0.41117383402E+02  0.00000000000E+00 0.  1.
</event>
<event>
 7    1  0.2385752E-015  0.9000796E+02  0.7816164E-02  0.1186339E+00
        -11   -1    0    0    0    0  0.00000000000E+00  0.00000000000E+00  0.45593999997E+02  0.45594000000E+02  0.51100000000E-03 0. -1.
         11   -1    0    0    0    0 -0.00000000000E+00 -0.00000000000E+00 -0.45593999997E+02  0.45594000000E+02  0.51100000000E-03 0.  1.
    9900012    2    1    2    0    0 -0.87033034910E-01 -0.28440663867E+00  0.11419417501E+01  0.90007960659E+02  0.90000224940E+02 0.  0.
        -12    1    1    2    0    0  0.87033034910E-01  0.28440663867E+00 -0.11419417501E+01  0.11800393408E+01  0.00000000000E+00 0.  1.
         11    1    3    3    0    0 -0.81379455393E+00  0.81350694793E+01 -0.47054405860E+01  0.94330688738E+01  0.51100000000E-03 0. -1.
        -11    1    3    3    0    0  0.30386577735E+02 -0.14918133839E+02 -0.21174923885E+02  0.39928338627E+02  0.51100000000E-03 0.  1.
         12    1    3    3    0    0 -0.29659816216E+02  0.64986577212E+01  0.27022306221E+02  0.40646553159E+02  0.00000000000E+00 0. -1.
</event>
<event>
 7    1  0.2385752E-015  0.9000769E+02  0.7816164E-02  0.1186339E+00
        -11   -1    0    0    0    0  0.00000000000E+00  0.00000000000E+00  0.45593999997E+02  0.45594000000E+02  0.51100000000E-03 0.  1.
         11   -1    0    0    0    0 -0.00000000000E+00 -0.00000000000E+00 -0.45593999997E+02  0.45594000000E+02  0.51100000000E-03 0. -1.
    9900012    2    1    2    0    0 -0.52646889634E+00 -0.27496158393E+00 -0.10199782885E+01  0.90007691108E+02  0.89999951831E+02 0.  0.
        -12    1    1    2    0    0  0.52646889634E+00  0.27496158393E+00  0.10199782885E+01  0.11803088920E+01  0.00000000000E+00 0.  1.
         11    1    3    3    0    0 -0.29867457051E+01 -0.79569029706E+01 -0.48447203935E+01  0.97828559604E+01  0.51100000000E-03 0. -1.
        -11    1    3    3    0    0 -0.12942764991E+00 -0.34663941261E+02 -0.91658543916E+01  0.35855522061E+02  0.51100000000E-03 0.  1.
         12    1    3    3    0    0  0.25897044586E+01  0.42345882648E+02  0.12990596497E+02  0.44369313086E+02  0.00000000000E+00 0. -1.
</event>
<event>
 7    1  0.2385752E-015  0.9000776E+02  0.7816164E-02  0.1186339E+00
        -11   -1    0    0    0    0  0.00000000000E+00  0.00000000000E+00  0.45593999997E+02  0.45594000000E+02  0.51100000000E-03 0.  1.
         11   -1    0    0    0    0 -0.00000000000E+00 -0.00000000000E+00 -0.45593999997E+02  0.45594000000E+02  0.51100000000E-03 0. -1.
    9900012    2    1    2    0    0 -0.11306713427E+00 -0.11751915789E+00 -0.11689212991E+01  0.90007757681E+02  0.90000019282E+02 0.  0.
        -12    1    1    2    0    0  0.11306713427E+00  0.11751915789E+00  0.11689212991E+01  0.11802423195E+01  0.00000000000E+00 0.  1.
         11    1    3    3    0    0  0.21986238944E+02 -0.69107960982E+01 -0.72210464495E+01  0.24151548971E+02  0.51100000000E-03 0. -1.
        -11    1    3    3    0    0  0.64303237207E+00  0.14683881932E+02  0.29054609095E+02  0.32560715427E+02  0.51100000000E-03 0.  1.
        -12    1    3    3    0    0 -0.22742338450E+02 -0.78906049918E+01 -0.23002483944E+02  0.33295493282E+02  0.00000000000E+00 0.  1.
</event>
<event>
 7    1  0.2385752E-015  0.9000773E+02  0.7816164E-02  0.1186339E+00
        -11   -1    0    0    0    0  0.00000000000E+00  0.00000000000E+00  0.45593999997E+02  0.45594000000E+02  0.51100000000E-03 0.  1.
         11   -1    0    0    0    0 -0.00000000000E+00 -0.00000000000E+00 -0.45593999997E+02  0.45594000000E+02  0.51100000000E-03 0. -1.
    9900012    2    1    2    0    0  0.14925825793E+00 -0.99082798759E+00 -0.62371098511E+00  0.90007731589E+02  0.89999992846E+02 0.  0.
        -12    1    1    2    0    0 -0.14925825793E+00  0.99082798759E+00  0.62371098511E+00  0.11802684108E+01  0.00000000000E+00 0.  1.
         11    1    3    3    0    0 -0.98943715100E+01  0.34649223256E+02 -0.18120179032E+02  0.40333709824E+02  0.51100000000E-03 0. -1.
        -11    1    3    3    0    0  0.34277420364E+01 -0.83078685396E+01 -0.77614770608E+01  0.11874789327E+02  0.51100000000E-03 0.  1.
        -12    1    3    3    0    0  0.66158877316E+01 -0.27332182704E+02  0.25257945107E+02  0.37799232438E+02  0.00000000000E+00 0.  1.
</event>
<event>
 7    1  0.2385752E-015  0.9000828E+02  0.7816164E-02  0.1186338E+00
        -11   -1    0    0    0    0  0.00000000000E+00  0.00000000000E+00  0.45593999997E+02  0.45594000000E+02  0.51100000000E-03 0. -1.
         11   -1    0    0    0    0 -0.00000000000E+00 -0.00000000000E+00 -0.45593999997E+02  0.45594000000E+02  0.51100000000E-03 0.  1.
    9900012    2    1    2    0    0  0.98302406252E+00 -0.18850805827E+00  0.62439609428E+00  0.90008278813E+02  0.90000547292E+02 0.  0.
        -12    1    1    2    0    0 -0.98302406252E+00  0.18850805827E+00 -0.62439609428E+00  0.11797211866E+01  0.00000000000E+00 0.  1.
         11    1    3    3    0    0  0.36821835577E+01  0.60696311248E+00 -0.76701492967E+01  0.85298341407E+01  0.51100000000E-03 0. -1.
        -11    1    3    3    0    0  0.21946496962E+02  0.18150788929E+02 -0.23565411189E+02  0.36965233294E+02  0.51100000000E-03 0.  1.
         12    1    3    3    0    0 -0.24645656457E+02 -0.18946260100E+02  0.31859956580E+02  0.44513211379E+02  0.00000000000E+00 0. -1.
</event>
<event>
 7    1  0.2385752E-015  0.9000776E+02  0.7816164E-02  0.1186339E+00
        -11   -1    0    0    0    0  0.00000000000E+00  0.00000000000E+00  0.45593999997E+02  0.45594000000E+02  0.51100000000E-03 0. -1.
         11   -1    0    0    0    0 -0.00000000000E+00 -0.00000000000E+00 -0.45593999997E+02  0.45594000000E+02  0.51100000000E-03 0.  1.
    9900012    2    1    2    0    0  0.41775427498E+00 -0.10965514441E+01  0.12656943440E+00  0.90007761242E+02  0.90000022891E+02 0.  0.
        -12    1    1    2    0    0 -0.41775427498E+00  0.10965514441E+01 -0.12656943440E+00  0.11802387579E+01  0.00000000000E+00 0.  1.
         11    1    3    3    0    0 -0.70947938444E+01 -0.11977171354E+01  0.39051446253E+01  0.81866220651E+01  0.51100000000E-03 0. -1.
        -11    1    3    3    0    0 -0.26679720547E+02 -0.43995122124E+01 -0.28578183047E+02  0.39343052026E+02  0.51100000000E-03 0.  1.
         12    1    3    3    0    0  0.34192268667E+02  0.45006779037E+01  0.24799607856E+02  0.42478087151E+02  0.00000000000E+00 0. -1.
</event>
<event>
 7    1  0.2385752E-015  0.9000771E+02  0.7816164E-02  0.1186339E+00
        -11   -1    0    0    0    0  0.00000000000E+00  0.00000000000E+00  0.45593999997E+02  0.45594000000E+02  0.51100000000E-03 0.  1.
         11   -1    0    0    0    0 -0.00000000000E+00 -0.00000000000E+00 -0.45593999997E+02  0.45594000000E+02  0.51100000000E-03 0. -1.
    9900012    2    1    2    0    0 -0.26371829243E+00 -0.45950959465E+00 -0.10547030864E+01  0.90007705543E+02  0.89999966456E+02 0.  0.
        -12    1    1    2    0    0  0.26371829243E+00  0.45950959465E+00  0.10547030864E+01  0.11802944572E+01  0.00000000000E+00 0.  1.
         11    1    3    3    0    0  0.32169064963E+02  0.11526434143E+02  0.95575928894E+01  0.35483165117E+02  0.51100000000E-03 0. -1.
        -11    1    3    3    0    0  0.94477504737E+01  0.12977319838E+01 -0.15185659691E+01  0.96566112161E+01  0.51100000000E-03 0.  1.
        -12    1    3    3    0    0 -0.41880533729E+02 -0.13283675721E+02 -0.90937300066E+01  0.44867929209E+02  0.00000000000E+00 0.  1.
</event>
<event>
 7    1  0.2385752E-015  0.9000777E+02  0.7816164E-02  0.1186339E+00
        -11   -1    0    0    0    0  0.00000000000E+00  0.00000000000E+00  0.45593999997E+02  0.45594000000E+02  0.51100000000E-03 0.  1.
         11   -1    0    0    0    0 -0.00000000000E+00 -0.00000000000E+00 -0.45593999997E+02  0.45594000000E+02  0.51100000000E-03 0. -1.
    9900012    2    1    2    0    0 -0.85768020205E+00  0.55873311255E+00 -0.58749785212E+00  0.90007766232E+02  0.90000027947E+02 0.  0.
        -12    1    1    2    0    0  0.85768020205E+00 -0.55873311255E+00  0.58749785212E+00  0.11802337676E+01  0.00000000000E+00 0.  1.
         11    1    3    3    0    0 -0.30431777289E+02 -0.12667559055E+02 -0.19045925512E+02  0.38069770163E+02  0.51100000000E-03 0. -1.
        -11    1    3    3    0    0 -0.28484879222E+01 -0.88574066670E+01  0.30481385653E+01  0.97907448788E+01  0.51100000000E-03 0.  1.
        -12    1    3    3    0    0  0.32422585009E+02  0.22083698835E+02  0.15410289095E+02  0.42147251190E+02  0.00000000000E+00 0.  1.
</event>
<event>
 7    1  0.2385752E-015  0.9000770E+02  0.7816164E-02  0.1186339E+00
        -11   -1    0    0    0    0  0.00000000000E+00  0.00000000000E+00  0.45593999997E+02  0.45594000000E+02  0.51100000000E-03 0.  1.
         11   -1    0    0    0    0 -0.00000000000E+00 -0.00000000000E+00 -0.45593999997E+02  0.45594000000E+02  0.51100000000E-03 0. -1.
    9900012    2    1    2    0    0 -0.82057465811E+00 -0.31718730365E+00 -0.78686119857E+00  0.90007702961E+02  0.89999963840E+02 0.  0.
        -12    1    1    2    0    0  0.82057465811E+00  0.31718730365E+00  0.78686119857E+00  0.11802970393E+01  0.00000000000E+00 0.  1.
         11    1    3    3    0    0  0.15523264593E+02 -0.29410267265E+02  0.13295635690E+02  0.35814933937E+02  0.51100000000E-03 0. -1.
        -11    1    3    3    0    0 -0.79328149425E+01 -0.68326016648E+01  0.61196778022E+01  0.12127013445E+02  0.51100000000E-03 0.  1.
        -12    1    3    3    0    0 -0.84110243089E+01  0.35925681626E+02 -0.20202174691E+02  0.42065755579E+02  0.00000000000E+00 0.  1.
</event>
<event>
 7    1  0.2385752E-015  0.9000765E+02  0.7816164E-02  0.1186339E+00
        -11   -1    0    0    0    0  0.00000000000E+00  0.00000000000E+00  0.45593999997E+02  0.45594000000E+02  0.51100000000E-03 0. -1.
         11   -1    0    0    0    0 -0.00000000000E+00 -0.00000000000E+00 -0.45593999997E+02  0.45594000000E+02  0.51100000000E-03 0.  1.
    9900012    2    1    2    0    0  0.43346605269E+00 -0.12674730512E+00  0.10905331419E+01  0.90007652495E+02  0.89999912708E+02 0.  0.
        -12    1    1    2    0    0 -0.43346605269E+00  0.12674730512E+00 -0.10905331419E+01  0.11803475047E+01  0.00000000000E+00 0.  1.
         11    1    3    3    0    0 -0.98660873601E+01 -0.64153338155E+00  0.67175920858E+00  0.99097177343E+01  0.51100000000E-03 0. -1.
        -11    1    3    3    0    0 -0.30442181334E+02 -0.13555712081E+02 -0.11709161240E+02  0.35321214469E+02  0.51100000000E-03 0.  1.
         12    1    3    3    0    0  0.40741734747E+02  0.14070498157E+02  0.12127935173E+02  0.44776720292E+02  0.00000000000E+00 0. -1.
</event>
<event>
 7    1  0.2385752E-015  0.9000730E+02  0.7816164E-02  0.1186340E+00
        -11   -1    0    0    0    0  0.00000000000E+00  0.00000000000E+00  0.45593999997E+02  0.45594000000E+02  0.51100000000E-03 0.  1.
         11   -1    0    0    0    0 -0.00000000000E+00 -0.00000000000E+00 -0.45593999997E+02  0.45594000000E+02  0.51100000000E-03 0. -1.
    9900012    2    1    2    0    0  0.75387873307E+00 -0.77536407794E+00 -0.47385265975E+00  0.90007297268E+02  0.89999552791E+02 0.  0.
        -12    1    1    2    0    0 -0.75387873307E+00  0.77536407794E+00  0.47385265975E+00  0.11807027317E+01  0.00000000000E+00 0.  1.
         11    1    3    3    0    0  0.99012299846E+01  0.30234078725E+01  0.54373564637E+01  0.11693596365E+02  0.51100000000E-03 0. -1.
        -11    1    3    3    0    0  0.26424872726E+02  0.19788415471E+02  0.69493017516E+01  0.33736450325E+02  0.51100000000E-03 0.  1.
         12    1    3    3    0    0 -0.35572223978E+02 -0.23587187421E+02 -0.12860510875E+02  0.44577250578E+02  0.00000000000E+00 0. -1.
</event>
<event>
 7    1  0.2385752E-015  0.9000767E+02  0.7816164E-02  0.1186339E+00
        -11   -1    0    0    0    0  0.00000000000E+00  0.00000000000E+00  0.45593999997E+02  0.45594000000E+02  0.51100000000E-03 0.  1.
         11   -1    0    0    0    0 -0.00000000000E+00 -0.00000000000E+00 -0.45593999997E+02  0.45594000000E+02  0.51100000000E-03 0. -1.
    9900012    2    1    2    0    0  0.97373858228E+00  0.25771841072E+00  0.61530102117E+00  0.90007669134E+02  0.89999929567E+02 0.  0.
        -12    1    1    2    0    0 -0.97373858228E+00 -0.25771841072E+00 -0.61530102117E+00  0.11803308657E+01  0.00000000000E+00 0.  1.
         11    1    3    3    0    0  0.23272552113E+02 -0.37621210817E+02 -0.23325089988E+00  0.44238236758E+02  0.51100000000E-03 0. -1.
        -11    1    3    3    0    0 -0.19944053950E+01  0.83577539261E+01  0.45958151063E+01  0.97442916788E+01  0.51100000000E-03 0.  1.
        -12    1    3    3    0    0 -0.20304408136E+02  0.29521175302E+02 -0.37472631852E+01  0.36025140698E+02  0.00000000000E+00 0.  1.
</event>
<event>
 7    1  0.2385752E-015  0.9000771E+02  0.7816164E-02  0.1186339E+00
        -11   -1    0    0    0    0  0.00000000000E+00  0.00000000000E+00  0.45593999997E+02  0.45594000000E+02  0.51100000000E-03 0.  1.
         11   -1    0    0    0    0 -0.00000000000E+00 -0.00000000000E+00 -0.45593999997E+02  0.45594000000E+02  0.51100000000E-03 0. -1.
    9900012    2    1    2    0    0 -0.11520780887E+01  0.48165308349E-01 -0.25194991312E+00  0.90007710807E+02  0.89999971790E+02 0.  0.
        -12    1    1    2    0    0  0.11520780887E+01 -0.48165308349E-01  0.25194991312E+00  0.11802891925E+01  0.00000000000E+00 0.  1.
         11    1    3    3    0    0  0.80055679110E+01 -0.24797646080E+01 -0.72200946515E+00  0.84118754162E+01  0.51100000000E-03 0. -1.
        -11    1    3    3    0    0  0.35833512668E+02  0.60573851165E+01 -0.20184316722E+01  0.36397892951E+02  0.51100000000E-03 0.  1.
         12    1    3    3    0    0 -0.44991158668E+02 -0.35294552001E+01  0.24884912242E+01  0.45197942440E+02  0.00000000000E+00 0. -1.
</event>
<event>
 7    1  0.2385752E-015  0.9000775E+02  0.7816164E-02  0.1186339E+00
        -11   -1    0    0    0    0  0.00000000000E+00  0.00000000000E+00  0.45593999997E+02  0.45594000000E+02  0.51100000000E-03 0. -1.
         11   -1    0    0    0    0 -0.00000000000E+00 -0.00000000000E+00 -0.45593999997E+02  0.45594000000E+02  0.51100000000E-03 0.  1.
    9900012    2    1    2    0    0  0.88523310674E-01 -0.11613912094E+01  0.19060368061E+00  0.90007747620E+02  0.90000009088E+02 0.  0.
        -12    1    1    2    0    0 -0.88523310674E-01  0.11613912094E+01 -0.19060368061E+00  0.11802523802E+01  0.00000000000E+00 0.  1.
         11    1    3    3    0    0 -0.66978302114E+01 -0.48783646529E+01  0.22501380156E+01  0.85861803253E+01  0.51100000000E-03 0. -1.
        -11    1    3    3    0    0  0.37566846411E+01  0.31435068961E+02 -0.28792536288E+02  0.42793532060E+02  0.51100000000E-03 0.  1.
         12    1    3    3    0    0  0.30296688809E+01 -0.27718095517E+02  0.26733001953E+02  0.38628035234E+02  0.00000000000E+00 0. -1.
</event>
<event>
 7    1  0.2385752E-015  0.9000657E+02  0.7816164E-02  0.1186341E+00
        -11   -1    0    0    0    0  0.00000000000E+00  0.00000000000E+00  0.45593999997E+02  0.45594000000E+02  0.51100000000E-03 0. -1.
         11   -1    0    0    0    0 -0.00000000000E+00 -0.00000000000E+00 -0.45593999997E+02  0.45594000000E+02  0.51100000000E-03 0.  1.
    9900012    2    1    2    0    0 -0.28107362960E+00  0.93303559000E+00  0.66800483753E+00  0.90006565169E+02  0.89998811021E+02 0.  0.
        -12    1    1    2    0    0  0.28107362960E+00 -0.93303559000E+00 -0.66800483753E+00  0.11814348312E+01  0.00000000000E+00 0.  1.
         11    1    3    3    0    0 -0.53689854576E+01 -0.80697157295E+01  0.37011653440E+01  0.10375208044E+02  0.51100000000E-03 0. -1.
        -11    1    3    3    0    0 -0.33898483569E+02  0.42422155259E+00  0.13411771663E+02  0.36457684671E+02  0.51100000000E-03 0.  1.
         12    1    3    3    0    0  0.38986395397E+02  0.85785297669E+01 -0.16444932169E+02  0.43173672453E+02  0.00000000000E+00 0. -1.
</event>
<event>
 7    1  0.2385752E-015  0.9000777E+02  0.7816164E-02  0.1186339E+00
        -11   -1    0    0    0    0  0.00000000000E+00  0.00000000000E+00  0.45593999997E+02  0.45594000000E+02  0.51100000000E-03 0.  1.
         11   -1    0    0    0    0 -0.00000000000E+00 -0.00000000000E+00 -0.45593999997E+02  0.45594000000E+02  0.51100000000E-03 0. -1.
    9900012    2    1    2    0    0 -0.33330714108E+00  0.99894736517E+00 -0.53287430092E+00  0.90007769298E+02  0.90000031053E+02 0.  0.
        -12    1    1    2    0    0  0.33330714108E+00 -0.99894736517E+00  0.53287430092E+00  0.11802307017E+01  0.00000000000E+00 0.  1.
         11    1    3    3    0    0  0.86829174754E+01  0.10768462402E+02 -0.29391924300E+02  0.32484427849E+02  0.51100000000E-03 0. -1.
        -11    1    3    3    0    0 -0.18296484608E+02 -0.19408155644E+01 -0.69837839467E+01  0.19679973388E+02  0.51100000000E-03 0.  1.
        -12    1    3    3    0    0  0.92802599917E+01 -0.78286994720E+01  0.35842833946E+02  0.37843368061E+02  0.00000000000E+00 0.  1.
</event>
<event>
 7    1  0.2385752E-015  0.9000779E+02  0.7816164E-02  0.1186339E+00
        -11   -1    0    0    0    0  0.00000000000E+00  0.00000000000E+00  0.45593999997E+02  0.45594000000E+02  0.51100000000E-03 0.  1.
         11   -1    0    0    0    0 -0.00000000000E+00 -0.00000000000E+00 -0.45593999997E+02  0.45594000000E+02  0.51100000000E-03 0. -1.
    9900012    2    1    2    0    0  0.47883705027E+00 -0.20251360109E+00 -0.10595297130E+01  0.90007788200E+02  0.90000050205E+02 0.  0.
        -12    1    1    2    0    0 -0.47883705027E+00  0.20251360109E+00  0.10595297130E+01  0.11802117997E+01  0.00000000000E+00 0.  1.
         11    1    3    3    0    0 -0.28428098838E+02 -0.22574352703E+02 -0.13112396216E+01  0.36324613599E+02  0.51100000000E-03 0. -1.
        -11    1    3    3    0    0 -0.14142207150E+01 -0.68093323065E+01 -0.82089190582E+01  0.10758874433E+02  0.51100000000E-03 0.  1.
        -12    1    3    3    0    0  0.30321156603E+02  0.29181171408E+02  0.84606289667E+01  0.42924300169E+02  0.00000000000E+00 0.  1.
</event>
<event>
 7    1  0.2385752E-015  0.9000758E+02  0.7816164E-02  0.1186339E+00
        -11   -1    0    0    0    0  0.00000000000E+00  0.00000000000E+00  0.45593999997E+02  0.45594000000E+02  0.51100000000E-03 0.  1.
         11   -1    0    0    0    0 -0.00000000000E+00 -0.00000000000E+00 -0.45593999997E+02  0.45594000000E+02  0.51100000000E-03 0. -1.
    9900012    2    1    2    0    0  0.32082118426E+00 -0.36079653471E+00 -0.10771629967E+01  0.90007584610E+02  0.89999843927E+02 0.  0.
        -12    1    1    2    0    0 -0.32082118426E+00  0.36079653471E+00  0.10771629967E+01  0.11804153901E+01  0.00000000000E+00 0.  1.
         11    1    3    3    0    0 -0.39910651478E+01 -0.72668275184E+01  0.44483528778E+01  0.94086782697E+01  0.51100000000E-03 0. -1.
        -11    1    3    3    0    0 -0.31249353803E+02 -0.18712320693E+02 -0.50205294288E+01  0.36767904140E+02  0.51100000000E-03 0.  1.
         12    1    3    3    0    0  0.35561240135E+02  0.25618351677E+02 -0.50498644570E+00  0.43831002200E+02  0.00000000000E+00 0. -1.
</event>
<event>
 7    1  0.2385752E-015  0.9000803E+02  0.7816164E-02  0.1186338E+00
        -11   -1    0    0    0    0  0.00000000000E+00  0.00000000000E+00  0.45593999997E+02  0.45594000000E+02  0.51100000000E-03 0. -1.
         11   -1    0    0    0    0 -0.00000000000E+00 -0.00000000000E+00 -0.45593999997E+02  0.45594000000E+02  0.51100000000E-03 0.  1.
    9900012    2    1    2    0    0  0.34745041838E+00 -0.30743989159E+00  0.10849338940E+01  0.90008032782E+02  0.90000298015E+02 0.  0.
        -12    1    1    2    0    0 -0.34745041838E+00  0.30743989159E+00 -0.10849338940E+01  0.11799672175E+01  0.00000000000E+00 0.  1.
         11    1    3    3    0    0 -0.13737291759E+02  0.18406877282E+02  0.35358121009E+02  0.42163052993E+02  0.51100000000E-03 0. -1.
        -11    1    3    3    0    0 -0.59118965168E+01 -0.45004160895E+01 -0.28016665280E+01  0.79406297609E+01  0.51100000000E-03 0.  1.
        -12    1    3    3    0    0  0.19996638694E+02 -0.14213901084E+02 -0.31471520588E+02  0.39904350028E+02  0.00000000000E+00 0.  1.
</event>
<event>
 7    1  0.2385752E-015  0.9000810E+02  0.7816164E-02  0.1186338E+00
        -11   -1    0    0    0    0  0.00000000000E+00  0.00000000000E+00  0.45593999997E+02  0.45594000000E+02  0.51100000000E-03 0.  1.
         11   -1    0    0    0    0 -0.00000000000E+00 -0.00000000000E+00 -0.45593999997E+02  0.45594000000E+02  0.51100000000E-03 0. -1.
    9900012    2    1    2    0    0  0.24857063389E-01 -0.11455546551E+01 -0.28151912867E+00  0.90008099004E+02  0.90000365110E+02 0.  0.
        -12    1    1    2    0    0 -0.24857063389E-01  0.11455546551E+01  0.28151912867E+00  0.11799009964E+01  0.00000000000E+00 0.  1.
         11    1    3    3    0    0  0.89880079334E+01 -0.36440096411E+02 -0.19446653225E+02  0.42270997563E+02  0.51100000000E-03 0. -1.
        -11    1    3    3    0    0  0.28549680225E+01 -0.26240364801E+01  0.27860794594E+01  0.47747930713E+01  0.51100000000E-03 0.  1.
        -12    1    3    3    0    0 -0.11818118892E+02  0.37918578236E+02  0.16379054637E+02  0.42962308369E+02  0.00000000000E+00 0.  1.
</event>
<event>
 7    1  0.2385752E-015  0.9000776E+02  0.7816164E-02  0.1186339E+00
        -11   -1    0    0    0    0  0.00000000000E+00  0.00000000000E+00  0.45593999997E+02  0.45594000000E+02  0.51100000000E-03 0. -1.
         11   -1    0    0    0    0 -0.00000000000E+00 -0.00000000000E+00 -0.45593999997E+02  0.45594000000E+02  0.51100000000E-03 0.  1.
    9900012    2    1    2    0    0  0.20439465601E+00 -0.30066313787E+00  0.11228503561E+01  0.90007759169E+02  0.90000020790E+02 0.  0.
        -12    1    1    2    0    0 -0.20439465601E+00  0.30066313787E+00 -0.11228503561E+01  0.11802408314E+01  0.00000000000E+00 0.  1.
         11    1    3    3    0    0 -0.87515039503E+01 -0.10301952561E+02  0.54054987930E+01  0.14558106519E+02  0.51100000000E-03 0. -1.
        -11    1    3    3    0    0 -0.12151995152E+01  0.18488551590E+02 -0.36324660765E+02  0.40777251375E+02  0.51100000000E-03 0.  1.
         12    1    3    3    0    0  0.10171098122E+02 -0.84872621673E+01  0.32042012328E+02  0.34672401274E+02  0.00000000000E+00 0. -1.
</event>
<event>
 7    1  0.2385752E-015  0.9000779E+02  0.7816164E-02  0.1186339E+00
        -11   -1    0    0    0    0  0.00000000000E+00  0.00000000000E+00  0.45593999997E+02  0.45594000000E+02  0.51100000000E-03 0.  1.
         11   -1    0    0    0    0 -0.00000000000E+00 -0.00000000000E+00 -0.45593999997E+02  0.45594000000E+02  0.51100000000E-03 0. -1.
    9900012    2    1    2    0    0 -0.58859006273E+00 -0.43176028084E+00 -0.92738356205E+00  0.90007790072E+02  0.90000052101E+02 0.  0.
        -12    1    1    2    0    0  0.58859006273E+00  0.43176028084E+00  0.92738356205E+00  0.11802099276E+01  0.00000000000E+00 0.  1.
         11    1    3    3    0    0  0.15734083845E+02 -0.33984723936E+02 -0.24628513554E+01  0.37531166948E+02  0.51100000000E-03 0. -1.
        -11    1    3    3    0    0  0.46822701887E+01 -0.35971546409E+01  0.73251333221E+01  0.94085468633E+01  0.51100000000E-03 0.  1.
        -12    1    3    3    0    0 -0.21004944096E+02  0.37150118296E+02 -0.57896655287E+01  0.43068076261E+02  0.00000000000E+00 0.  1.
</event>
<event>
 7    1  0.2385752E-015  0.9000775E+02  0.7816164E-02  0.1186339E+00
        -11   -1    0    0    0    0  0.00000000000E+00  0.00000000000E+00  0.45593999997E+02  0.45594000000E+02  0.51100000000E-03 0.  1.
         11   -1    0    0    0    0 -0.00000000000E+00 -0.00000000000E+00 -0.45593999997E+02  0.45594000000E+02  0.51100000000E-03 0. -1.
    9900012    2    1    2    0    0 -0.90183631169E+00 -0.53790172926E+00  0.53882595215E+00  0.90007754089E+02  0.90000015643E+02 0.  0.
        -12    1    1    2    0    0  0.90183631169E+00  0.53790172926E+00 -0.53882595215E+00  0.11802459109E+01  0.00000000000E+00 0.  1.
         11    1    3    3    0    0 -0.34833850828E+01 -0.80530202239E+01  0.38171291988E+01  0.95684681085E+01  0.51100000000E-03 0. -1.
        -11    1    3    3    0    0  0.32171590867E+02  0.12978531468E+02 -0.25481817954E+02  0.43043891372E+02  0.51100000000E-03 0.  1.
         12    1    3    3    0    0 -0.29590042096E+02 -0.54634129735E+01  0.22203514708E+02  0.37395394608E+02  0.00000000000E+00 0. -1.
</event>
<event>
 7    1  0.2385752E-015  0.9000760E+02  0.7816164E-02  0.1186339E+00
        -11   -1    0    0    0    0  0.00000000000E+00  0.00000000000E+00  0.45593999997E+02  0.45594000000E+02  0.51100000000E-03 0. -1.
         11   -1    0    0    0    0 -0.00000000000E+00 -0.00000000000E+00 -0.45593999997E+02  0.45594000000E+02  0.51100000000E-03 0.  1.
    9900012    2    1    2    0    0  0.38472483692E+00  0.73451647581E+00  0.84012568167E+00  0.90007602264E+02  0.89999861814E+02 0.  0.
        -12    1    1    2    0    0 -0.38472483692E+00 -0.73451647581E+00 -0.84012568167E+00  0.11803977357E+01  0.00000000000E+00 0.  1.
         11    1    3    3    0    0  0.20942971475E+02 -0.39777395249E+01 -0.15887316687E+02  0.26586411900E+02  0.51100000000E-03 0. -1.
        -11    1    3    3    0    0  0.64801549731E+01 -0.13794185232E+02 -0.12348392807E+02  0.19615166578E+02  0.51100000000E-03 0.  1.
         12    1    3    3    0    0 -0.27038401611E+02  0.18506441233E+02  0.29075835176E+02  0.43806023786E+02  0.00000000000E+00 0. -1.
</event>
<event>
 7    1  0.2385752E-015  0.9000767E+02  0.7816164E-02  0.1186339E+00
        -11   -1    0    0    0    0  0.00000000000E+00  0.00000000000E+00  0.45593999997E+02  0.45594000000E+02  0.51100000000E-03 0.  1.
         11   -1    0    0    0    0 -0.00000000000E+00 -0.00000000000E+00 -0.45593999997E+02  0.45594000000E+02  0.51100000000E-03 0. -1.
    9900012    2    1    2    0    0 -0.11212031027E+01  0.26656598412E+00  0.25501423517E+00  0.90007666962E+02  0.89999927365E+02 0.  0.
        -12    1    1    2    0    0  0.11212031027E+01 -0.26656598412E+00 -0.25501423517E+00  0.11803330384E+01  0.00000000000E+00 0.  1.
         11    1    3    3    0    0  0.80266067262E+01  0.16025349784E+01 -0.18316044850E+01  0.83874495017E+01  0.51100000000E-03 0. -1.
        -11    1    3    3    0    0  0.32083645203E+02  0.14044055269E+02  0.11020897802E+02  0.36715881666E+02  0.51100000000E-03 0.  1.
         12    1    3    3    0    0 -0.41231455032E+02 -0.15380024263E+02 -0.89342790817E+01  0.44904335794E+02  0.00000000000E+00 0. -1.
</event>
<event>
 7    1  0.2385752E-015  0.9000771E+02  0.7816164E-02  0.1186339E+00
        -11   -1    0    0    0    0  0.00000000000E+00  0.00000000000E+00  0.45593999997E+02  0.45594000000E+02  0.51100000000E-03 0. -1.
         11   -1    0    0    0    0 -0.00000000000E+00 -0.00000000000E+00 -0.45593999997E+02  0.45594000000E+02  0.51100000000E-03 0.  1.
    9900012    2    1    2    0    0 -0.11335822171E+01  0.45413296208E-01 -0.32558199634E+00  0.90007714167E+02  0.89999975194E+02 0.  0.
        -12    1    1    2    0    0  0.11335822171E+01 -0.45413296208E-01  0.32558199634E+00  0.11802858326E+01  0.00000000000E+00 0.  1.
         11    1    3    3    0    0  0.34913372049E+01  0.74777234705E+01 -0.11236148250E+02  0.13941191181E+02  0.51100000000E-03 0. -1.
        -11    1    3    3    0    0  0.13585627717E+02  0.30317427369E+02  0.24817865008E+01  0.33314785715E+02  0.51100000000E-03 0.  1.
         12    1    3    3    0    0 -0.18210547139E+02 -0.37749737543E+02  0.84287797529E+01  0.42751737272E+02  0.00000000000E+00 0. -1.
</event>
<event>
 7    1  0.2385752E-015  0.9000773E+02  0.7816164E-02  0.1186339E+00
        -11   -1    0    0    0    0  0.00000000000E+00  0.00000000000E+00  0.45593999997E+02  0.45594000000E+02  0.51100000000E-03 0. -1.
         11   -1    0    0    0    0 -0.00000000000E+00 -0.00000000000E+00 -0.45593999997E+02  0.45594000000E+02  0.51100000000E-03 0.  1.
    9900012    2    1    2    0    0 -0.24803053601E+00 -0.94263693352E+00  0.66555442655E+00  0.90007726206E+02  0.89999987391E+02 0.  0.
        -12    1    1    2    0    0  0.24803053601E+00  0.94263693352E+00 -0.66555442655E+00  0.11802737945E+01  0.00000000000E+00 0.  1.
         11    1    3    3    0    0  0.60782507376E+01 -0.48849963589E+01 -0.58579613659E+01  0.97531550322E+01  0.51100000000E-03 0. -1.
        -11    1    3    3    0    0 -0.12403869463E+02 -0.36766421863E+02  0.21303710101E+01  0.38860831632E+02  0.51100000000E-03 0.  1.
         12    1    3    3    0    0  0.60775881894E+01  0.40708781288E+02  0.43931447824E+01  0.41393739541E+02  0.00000000000E+00 0. -1.
</event>
<event>
 7    1  0.2385752E-015  0.9000774E+02  0.7816164E-02  0.1186339E+00
        -11   -1    0    0    0    0  0.00000000000E+00  0.00000000000E+00  0.45593999997E+02  0.45594000000E+02  0.51100000000E-03 0.  1.
         11   -1    0    0    0    0 -0.00000000000E+00 -0.00000000000E+00 -0.45593999997E+02  0.45594000000E+02  0.51100000000E-03 0. -1.
    9900012    2    1    2    0    0  0.34471351576E+00 -0.98228623043E+00  0.55614041809E+00  0.90007743328E+02  0.90000004740E+02 0.  0.
        -12    1    1    2    0    0 -0.34471351576E+00  0.98228623043E+00 -0.55614041809E+00  0.11802566717E+01  0.00000000000E+00 0.  1.
         11    1    3    3    0    0  0.20453330119E+01  0.54282910256E+01  0.83185056629E+01  0.10141364174E+02  0.51100000000E-03 0. -1.
        -11    1    3    3    0    0  0.25974189859E+02 -0.14174152697E+02  0.23213670710E+02  0.37609036834E+02  0.51100000000E-03 0.  1.
         12    1    3    3    0    0 -0.27674809355E+02  0.77635754414E+01 -0.30976035955E+02  0.42257342320E+02  0.00000000000E+00 0. -1.
</event>
<event>
 7    1  0.2385752E-015  0.9000784E+02  0.7816164E-02  0.1186339E+00
        -11   -1    0    0    0    0  0.00000000000E+00  0.00000000000E+00  0.45593999997E+02  0.45594000000E+02  0.51100000000E-03 0.  1.
         11   -1    0    0    0    0 -0.00000000000E+00 -0.00000000000E+00 -0.45593999997E+02  0.45594000000E+02  0.51100000000E-03 0. -1.
    9900012    2    1    2    0    0  0.10781142272E+01  0.57759029380E-01 -0.47656227495E+00  0.90007839844E+02  0.90000102530E+02 0.  0.
        -12    1    1    2    0    0 -0.10781142272E+01 -0.57759029380E-01  0.47656227495E+00  0.11801601562E+01  0.00000000000E+00 0.  1.
         11    1    3    3    0    0  0.24612116576E+00 -0.25666737902E+02 -0.22073499061E+02  0.33853823584E+02  0.51100000000E-03 0. -1.
        -11    1    3    3    0    0 -0.14163662808E+02  0.36981378889E+01 -0.77096341439E+01  0.16544607184E+02  0.51100000000E-03 0.  1.
        -12    1    3    3    0    0  0.14995655870E+02  0.22026359043E+02  0.29306570930E+02  0.39609409076E+02  0.00000000000E+00 0.  1.
</event>
<event>
 7    1  0.2385752E-015  0.9000779E+02  0.7816164E-02  0.1186339E+00
        -11   -1    0    0    0    0  0.00000000000E+00  0.00000000000E+00  0.45593999997E+02  0.45594000000E+02  0.51100000000E-03 0. -1.
         11   -1    0    0    0    0 -0.00000000000E+00 -0.00000000000E+00 -0.45593999997E+02  0.45594000000E+02  0.51100000000E-03 0.  1.
    9900012    2    1    2    0    0 -0.96312164397E+00  0.57190999209E-02  0.68209419834E+00  0.90007793025E+02  0.90000055093E+02 0.  0.
        -12    1    1    2    0    0  0.96312164397E+00 -0.57190999209E-02 -0.68209419834E+00  0.11802069753E+01  0.00000000000E+00 0.  1.
         11    1    3    3    0    0 -0.62226919261E+00  0.21393173439E+01 -0.10246713035E+02  0.10486134937E+02  0.51100000000E-03 0. -1.
        -11    1    3    3    0    0  0.21071525054E+02  0.24287818993E+02 -0.16212430578E+02  0.36010418285E+02  0.51100000000E-03 0.  1.
         12    1    3    3    0    0 -0.21412377506E+02 -0.26421417237E+02  0.27141237811E+02  0.43511239803E+02  0.00000000000E+00 0. -1.
</event>
<event>
 7    1  0.2385752E-015  0.9000786E+02  0.7816164E-02  0.1186339E+00
        -11   -1    0    0    0    0  0.00000000000E+00  0.00000000000E+00  0.45593999997E+02  0.45594000000E+02  0.51100000000E-03 0. -1.
         11   -1    0    0    0    0 -0.00000000000E+00 -0.00000000000E+00 -0.45593999997E+02  0.45594000000E+02  0.51100000000E-03 0.  1.
    9900012    2    1    2    0    0  0.26913882076E+00  0.11134540747E+01  0.28376008804E+00  0.90007857861E+02  0.90000120784E+02 0.  0.
        -12    1    1    2    0    0 -0.26913882076E+00 -0.11134540747E+01 -0.28376008804E+00  0.11801421392E+01  0.00000000000E+00 0.  1.
         11    1    3    3    0    0 -0.22262468504E+01  0.36854272977E+01 -0.77257051129E+01  0.88444937198E+01  0.51100000000E-03 0. -1.
        -11    1    3    3    0    0  0.18429470979E+02  0.32547204772E+02 -0.98289433795E+01  0.38672652705E+02  0.51100000000E-03 0.  1.
         12    1    3    3    0    0 -0.15934085308E+02 -0.35119177995E+02  0.17838408580E+02  0.42490711436E+02  0.00000000000E+00 0. -1.
</event>
<event>
 7    1  0.2385752E-015  0.9000774E+02  0.7816164E-02  0.1186339E+00
        -11   -1    0    0    0    0  0.00000000000E+00  0.00000000000E+00  0.45593999997E+02  0.45594000000E+02  0.51100000000E-03 0. -1.
         11   -1    0    0    0    0 -0.00000000000E+00 -0.00000000000E+00 -0.45593999997E+02  0.45594000000E+02  0.51100000000E-03 0.  1.
    9900012    2    1    2    0    0 -0.17450279356E+00  0.52533584826E+00  0.10423936674E+01  0.90007740056E+02  0.90000001424E+02 0.  0.
        -12    1    1    2    0    0  0.17450279356E+00 -0.52533584826E+00 -0.10423936674E+01  0.11802599444E+01  0.00000000000E+00 0.  1.
         11    1    3    3    0    0 -0.11118138743E+02  0.10303997435E+02  0.29552001182E+02  0.33213041811E+02  0.51100000000E-03 0. -1.
        -11    1    3    3    0    0  0.20981663342E+01  0.18658881119E+02 -0.69206383729E+01  0.20011281377E+02  0.51100000000E-03 0.  1.
        -12    1    3    3    0    0  0.88454696151E+01 -0.28437542706E+02 -0.21588969142E+02  0.36783416868E+02  0.00000000000E+00 0.  1.
</event>
<event>
 7    1  0.2385752E-015  0.9000771E+02  0.7816164E-02  0.1186339E+00
        -11   -1    0    0    0    0  0.00000000000E+00  0.00000000000E+00  0.45593999997E+02  0.45594000000E+02  0.51100000000E-03 0.  1.
         11   -1    0    0    0    0 -0.00000000000E+00 -0.00000000000E+00 -0.45593999997E+02  0.45594000000E+02  0.51100000000E-03 0. -1.
    9900012    2    1    2    0    0 -0.96745267827E+00  0.26853486627E+00  0.62048410357E+00  0.90007713517E+02  0.89999974535E+02 0.  0.
        -12    1    1    2    0    0  0.96745267827E+00 -0.26853486627E+00 -0.62048410357E+00  0.11802864830E+01  0.00000000000E+00 0.  1.
         11    1    3    3    0    0 -0.55730040691E+00  0.10456927262E+02  0.89513247433E+00  0.10509955942E+02  0.51100000000E-03 0. -1.
        -11    1    3    3    0    0  0.14497814195E+02  0.44299073220E+01  0.35205148864E+02  0.38330317010E+02  0.51100000000E-03 0.  1.
         12    1    3    3    0    0 -0.14907966467E+02 -0.14618299717E+02 -0.35479797235E+02  0.41167440564E+02  0.00000000000E+00 0. -1.
</event>
<event>
 7    1  0.2385752E-015  0.9000772E+02  0.7816164E-02  0.1186339E+00
        -11   -1    0    0    0    0  0.00000000000E+00  0.00000000000E+00  0.45593999997E+02  0.45594000000E+02  0.51100000000E-03 0.  1.
         11   -1    0    0    0    0 -0.00000000000E+00 -0.00000000000E+00 -0.45593999997E+02  0.45594000000E+02  0.51100000000E-03 0. -1.
    9900012    2    1    2    0    0  0.38022745655E+00 -0.89696203796E+00  0.66629835466E+00  0.90007717274E+02  0.89999978342E+02 0.  0.
        -12    1    1    2    0    0 -0.38022745655E+00  0.89696203796E+00 -0.66629835466E+00  0.11802827262E+01  0.00000000000E+00 0.  1.
         11    1    3    3    0    0  0.52463597070E+01  0.36279151691E+02 -0.73910113858E+01  0.37394226655E+02  0.51100000000E-03 0. -1.
        -11    1    3    3    0    0 -0.12529284333E+01  0.28565895546E+01 -0.85660141316E+01  0.91162784022E+01  0.51100000000E-03 0.  1.
        -12    1    3    3    0    0 -0.36132038172E+01 -0.40032703284E+02  0.16623323872E+02  0.43497212216E+02  0.00000000000E+00 0.  1.
</event>
<event>
 7    1  0.2385752E-015  0.9000761E+02  0.7816164E-02  0.1186339E+00
        -11   -1    0    0    0    0  0.00000000000E+00  0.00000000000E+00  0.45593999997E+02  0.45594000000E+02  0.51100000000E-03 0.  1.
         11   -1    0    0    0    0 -0.00000000000E+00 -0.00000000000E+00 -0.45593999997E+02  0.45594000000E+02  0.51100000000E-03 0. -1.
    9900012    2    1    2    0    0  0.88807919254E+00 -0.64873505867E+00  0.42870431553E+00  0.90007606329E+02  0.89999865932E+02 0.  0.
        -12    1    1    2    0    0 -0.88807919254E+00  0.64873505867E+00 -0.42870431553E+00  0.11803936711E+01  0.00000000000E+00 0.  1.
         11    1    3    3    0    0  0.12143870392E+01 -0.27741124177E+02 -0.24335642579E+02  0.36922462086E+02  0.51100000000E-03 0. -1.
        -11    1    3    3    0    0  0.44590086023E+00 -0.30784118523E+01 -0.79732298393E+01  0.85584952790E+01  0.51100000000E-03 0.  1.
        -12    1    3    3    0    0 -0.77220870687E+00  0.30170800971E+02  0.32737576734E+02  0.44526648964E+02  0.00000000000E+00 0.  1.
</event>
<event>
 7    1  0.2385752E-015  0.9000776E+02  0.7816164E-02  0.1186339E+00
        -11   -1    0    0    0    0  0.00000000000E+00  0.00000000000E+00  0.45593999997E+02  0.45594000000E+02  0.51100000000E-03 0. -1.
         11   -1    0    0    0    0 -0.00000000000E+00 -0.00000000000E+00 -0.45593999997E+02  0.45594000000E+02  0.51100000000E-03 0.  1.
    9900012    2    1    2    0    0 -0.35322685512E+00 -0.10852722818E+01  0.30064403165E+00  0.90007757664E+02  0.90000019266E+02 0.  0.
        -12    1    1    2    0    0  0.35322685512E+00  0.10852722818E+01 -0.30064403165E+00  0.11802423356E+01  0.00000000000E+00 0.  1.
         11    1    3    3    0    0  0.70639207891E+01  0.18097679552E+02  0.13717512069E+02  0.23782243790E+02  0.51100000000E-03 0. -1.
        -11    1    3    3    0    0 -0.51414552384E+01  0.15516275325E+02 -0.24742078224E+02  0.29654001366E+02  0.51100000000E-03 0.  1.
         12    1    3    3    0    0 -0.22756924058E+01 -0.34699227159E+02  0.11325210187E+02  0.36571512508E+02  0.00000000000E+00 0. -1.
</event>
<event>
 7    1  0.2385752E-015  0.9000773E+02  0.7816164E-02  0.1186339E+00
        -11   -1    0    0    0    0  0.00000000000E+00  0.00000000000E+00  0.45593999997E+02  0.45594000000E+02  0.51100000000E-03 0.  1.
         11   -1    0    0    0    0 -0.00000000000E+00 -0.00000000000E+00 -0.45593999997E+02  0.45594000000E+02  0.51100000000E-03 0. -1.
    9900012    2    1    2    0    0 -0.16474642404E+00  0.11633255257E+01  0.11214867035E+00  0.90007726732E+02  0.89999987925E+02 0.  0.
        -12    1    1    2    0    0  0.16474642404E+00 -0.11633255257E+01 -0.11214867035E+00  0.11802732681E+01  0.00000000000E+00 0.  1.
         11    1    3    3    0    0 -0.29282068133E+02  0.12425034892E+02 -0.10164045060E+02  0.33393544563E+02  0.51100000000E-03 0. -1.
        -11    1    3    3    0    0 -0.51184168752E+01 -0.64473707549E+01 -0.12677365539E+02  0.15115633570E+02  0.51100000000E-03 0.  1.
        -12    1    3    3    0    0  0.34235738584E+02 -0.48143386116E+01  0.22953559270E+02  0.41498548599E+02  0.00000000000E+00 0.  1.
</event>
<event>
 7    1  0.2385752E-015  0.9000773E+02  0.7816164E-02  0.1186339E+00
        -11   -1    0    0    0    0  0.00000000000E+00  0.00000000000E+00  0.45593999997E+02  0.45594000000E+02  0.51100000000E-03 0. -1.
         11   -1    0    0    0    0 -0.00000000000E+00 -0.00000000000E+00 -0.45593999997E+02  0.45594000000E+02  0.51100000000E-03 0.  1.
    9900012    2    1    2    0    0  0.66092296575E+00  0.55716275492E+00  0.80361166803E+00  0.90007728330E+02  0.89999989544E+02 0.  0.
        -12    1    1    2    0    0 -0.66092296575E+00 -0.55716275492E+00 -0.80361166803E+00  0.11802716700E+01  0.00000000000E+00 0.  1.
         11    1    3    3    0    0 -0.33103400596E+01 -0.48568505737E+01 -0.79398784757E+01  0.98787154668E+01  0.51100000000E-03 0. -1.
        -11    1    3    3    0    0  0.29668444488E+02  0.14763820731E+01 -0.24092818328E+02  0.38247355433E+02  0.51100000000E-03 0.  1.
         12    1    3    3    0    0 -0.25697181463E+02  0.39376312555E+01  0.32836308471E+02  0.41881657430E+02  0.00000000000E+00 0. -1.
</event>
<event>
 7    1  0.2385752E-015  0.9000775E+02  0.7816164E-02  0.1186339E+00
        -11   -1    0    0    0    0  0.00000000000E+00  0.00000000000E+00  0.45593999997E+02  0.45594000000E+02  0.51100000000E-03 0.  1.
         11   -1    0    0    0    0 -0.00000000000E+00 -0.00000000000E+00 -0.45593999997E+02  0.45594000000E+02  0.51100000000E-03 0. -1.
    9900012    2    1    2    0    0 -0.56527717825E+00  0.10360625096E+01  0.45505593287E-02  0.90007752348E+02  0.90000013879E+02 0.  0.
        -12    1    1    2    0    0  0.56527717825E+00 -0.10360625096E+01 -0.45505593287E-02  0.11802476518E+01  0.00000000000E+00 0.  1.
         11    1    3    3    0    0  0.14845630359E+02 -0.14061793937E+02 -0.33719156837E+02  0.39434861830E+02  0.51100000000E-03 0. -1.
        -11    1    3    3    0    0  0.71945291833E+01  0.68742036404E+01  0.10592671906E+01  0.10006896277E+02  0.51100000000E-03 0.  1.
        -12    1    3    3    0    0 -0.22605436720E+02  0.82236528063E+01  0.32664440206E+02  0.40565994241E+02  0.00000000000E+00 0.  1.
</event>
<event>
 7    1  0.2385752E-015  0.9000771E+02  0.7816164E-02  0.1186339E+00
        -11   -1    0    0    0    0  0.00000000000E+00  0.00000000000E+00  0.45593999997E+02  0.45594000000E+02  0.51100000000E-03 0. -1.
         11   -1    0    0    0    0 -0.00000000000E+00 -0.00000000000E+00 -0.45593999997E+02  0.45594000000E+02  0.51100000000E-03 0.  1.
    9900012    2    1    2    0    0  0.19314607974E+00  0.47549621089E+00  0.10628665172E+01  0.90007708812E+02  0.89999969769E+02 0.  0.
        -12    1    1    2    0    0 -0.19314607974E+00 -0.47549621089E+00 -0.10628665172E+01  0.11802911878E+01  0.00000000000E+00 0.  1.
         11    1    3    3    0    0  0.32955579984E+01 -0.35779423432E+01 -0.33444068466E+01  0.59031712959E+01  0.51100000000E-03 0. -1.
        -11    1    3    3    0    0  0.21971308123E+02 -0.44402997829E+01 -0.32012257045E+02  0.39079908446E+02  0.51100000000E-03 0.  1.
         12    1    3    3    0    0 -0.25073720041E+02  0.84937383369E+01  0.36419530409E+02  0.45024629070E+02  0.00000000000E+00 0. -1.
</event>
<event>
 7    1  0.2385752E-015  0.9000772E+02  0.7816164E-02  0.1186339E+00
        -11   -1    0    0    0    0  0.00000000000E+00  0.00000000000E+00  0.45593999997E+02  0.45594000000E+02  0.51100000000E-03 0. -1.
         11   -1    0    0    0    0 -0.00000000000E+00 -0.00000000000E+00 -0.45593999997E+02  0.45594000000E+02  0.51100000000E-03 0.  1.
    9900012    2    1    2    0    0 -0.80467615232E-01 -0.76923702548E-01  0.11750152684E+01  0.90007723264E+02  0.89999984411E+02 0.  0.
        -12    1    1    2    0    0  0.80467615232E-01  0.76923702548E-01 -0.11750152684E+01  0.11802767362E+01  0.00000000000E+00 0.  1.
         11    1    3    3    0    0  0.21754899475E+01 -0.73699188769E+01 -0.62358478878E+01  0.98961740034E+01  0.51100000000E-03 0. -1.
        -11    1    3    3    0    0  0.10408271467E+02 -0.34463480605E+02  0.56482803708E+01  0.36441277169E+02  0.51100000000E-03 0.  1.
         12    1    3    3    0    0 -0.12664229030E+02  0.41756475779E+02  0.17625827854E+01  0.43670272091E+02  0.00000000000E+00 0. -1.
</event>
<event>
 7    1  0.2385752E-015  0.9000771E+02  0.7816164E-02  0.1186339E+00
        -11   -1    0    0    0    0  0.00000000000E+00  0.00000000000E+00  0.45593999997E+02  0.45594000000E+02  0.51100000000E-03 0. -1.
         11   -1    0    0    0    0 -0.00000000000E+00 -0.00000000000E+00 -0.45593999997E+02  0.45594000000E+02  0.51100000000E-03 0.  1.
    9900012    2    1    2    0    0 -0.45611690161E+00 -0.73593841920E+00  0.80214840669E+00  0.90007707642E+02  0.89999968583E+02 0.  0.
        -12    1    1    2    0    0  0.45611690161E+00  0.73593841920E+00 -0.80214840669E+00  0.11802923583E+01  0.00000000000E+00 0.  1.
         11    1    3    3    0    0 -0.68283037166E+01 -0.64160754264E+01  0.30395138221E+01  0.98504010101E+01  0.51100000000E-03 0. -1.
        -11    1    3    3    0    0  0.31813416727E+02 -0.24534363903E+02 -0.53793790785E+01  0.40533519653E+02  0.51100000000E-03 0.  1.
         12    1    3    3    0    0 -0.25441229912E+02  0.30214500910E+02  0.31420136632E+01  0.39623786978E+02  0.00000000000E+00 0. -1.
</event>
<event>
 7    1  0.2735718E-015  0.9000782E+02  0.7816164E-02  0.1186339E+00
        -11   -1    0    0    0    0  0.00000000000E+00  0.00000000000E+00  0.45593999997E+02  0.45594000000E+02  0.51100000000E-03 0. -1.
         11   -1    0    0    0    0 -0.00000000000E+00 -0.00000000000E+00 -0.45593999997E+02  0.45594000000E+02  0.51100000000E-03 0.  1.
    9900012    2    1    2    0    0  0.64173507904E+00  0.65185286107E+00  0.74571434187E+00  0.90007819529E+02  0.90000081947E+02 0.  0.
        -12    1    1    2    0    0 -0.64173507904E+00 -0.65185286107E+00 -0.74571434187E+00  0.11801804709E+01  0.00000000000E+00 0.  1.
         11    1    3    3    0    0 -0.29368663135E+02 -0.24123031045E+02  0.11726554916E+02  0.39773748774E+02  0.51100000000E-03 0. -1.
        -11    1    3    3    0    0 -0.54524412066E+01  0.80323339158E+01 -0.94565274263E+00  0.97540639026E+01  0.51100000000E-03 0.  1.
        -12    1    3    3    0    0  0.35462839421E+02  0.16742549990E+02 -0.10035187831E+02  0.40480006852E+02  0.00000000000E+00 0.  1.
</event>
<event>
 7    1  0.2385752E-015  0.9000776E+02  0.7816164E-02  0.1186339E+00
        -11   -1    0    0    0    0  0.00000000000E+00  0.00000000000E+00  0.45593999997E+02  0.45594000000E+02  0.51100000000E-03 0. -1.
         11   -1    0    0    0    0 -0.00000000000E+00 -0.00000000000E+00 -0.45593999997E+02  0.45594000000E+02  0.51100000000E-03 0.  1.
    9900012    2    1    2    0    0 -0.10004124315E+01  0.54163854764E+00  0.31427051414E+00  0.90007761335E+02  0.90000022985E+02 0.  0.
        -12    1    1    2    0    0  0.10004124315E+01 -0.54163854764E+00 -0.31427051414E+00  0.11802386646E+01  0.00000000000E+00 0.  1.
         11    1    3    3    0    0 -0.31032465361E+00 -0.63112435327E+01  0.77731549017E+01  0.10017486397E+02  0.51100000000E-03 0. -1.
        -11    1    3    3    0    0 -0.96394125331E+01  0.94791463879E+01  0.34475349735E+02  0.37031368188E+02  0.51100000000E-03 0.  1.
         12    1    3    3    0    0  0.89493247552E+01 -0.26262643076E+01 -0.41934234123E+02  0.42958906751E+02  0.00000000000E+00 0. -1.
</event>
<event>
 7    1  0.2385752E-015  0.9000773E+02  0.7816164E-02  0.1186339E+00
        -11   -1    0    0    0    0  0.00000000000E+00  0.00000000000E+00  0.45593999997E+02  0.45594000000E+02  0.51100000000E-03 0.  1.
         11   -1    0    0    0    0 -0.00000000000E+00 -0.00000000000E+00 -0.45593999997E+02  0.45594000000E+02  0.51100000000E-03 0. -1.
    9900012    2    1    2    0    0  0.11358624363E+01 -0.10876054814E+00 -0.30170863292E+00  0.90007728662E+02  0.89999989881E+02 0.  0.
        -12    1    1    2    0    0 -0.11358624363E+01  0.10876054814E+00  0.30170863292E+00  0.11802713375E+01  0.00000000000E+00 0.  1.
         11    1    3    3    0    0 -0.39350062704E+02  0.76211698499E+01 -0.68904970672E+01  0.40669258842E+02  0.51100000000E-03 0. -1.
        -11    1    3    3    0    0  0.30837631370E+01  0.78082430997E+01  0.11689374157E+01  0.84761235440E+01  0.51100000000E-03 0.  1.
        -12    1    3    3    0    0  0.37402162003E+02 -0.15538173498E+02  0.54198510185E+01  0.40862346276E+02  0.00000000000E+00 0.  1.
</event>
<event>
 7    1  0.2385752E-015  0.9000771E+02  0.7816164E-02  0.1186339E+00
        -11   -1    0    0    0    0  0.00000000000E+00  0.00000000000E+00  0.45593999997E+02  0.45594000000E+02  0.51100000000E-03 0. -1.
         11   -1    0    0    0    0 -0.00000000000E+00 -0.00000000000E+00 -0.45593999997E+02  0.45594000000E+02  0.51100000000E-03 0.  1.
    9900012    2    1    2    0    0 -0.87695258766E+00  0.78215823820E+00  0.11079330941E+00  0.90007706601E+02  0.89999967528E+02 0.  0.
        -12    1    1    2    0    0  0.87695258766E+00 -0.78215823820E+00 -0.11079330941E+00  0.11802933991E+01  0.00000000000E+00 0.  1.
         11    1    3    3    0    0 -0.13041282722E+02  0.39310326871E+02  0.72010213825E+00  0.41423367814E+02  0.51100000000E-03 0. -1.
        -11    1    3    3    0    0  0.88839091436E+01 -0.20657075211E+00 -0.44372743515E+01  0.99325685036E+01  0.51100000000E-03 0.  1.
        -12    1    3    3    0    0  0.32804209903E+01 -0.38321597880E+02  0.38279655226E+01  0.38651770283E+02  0.00000000000E+00 0.  1.
</event>
<event>
 7    1  0.2433294E-015  0.9000769E+02  0.7816164E-02  0.1186339E+00
        -11   -1    0    0    0    0  0.00000000000E+00  0.00000000000E+00  0.45593999997E+02  0.45594000000E+02  0.51100000000E-03 0. -1.
         11   -1    0    0    0    0 -0.00000000000E+00 -0.00000000000E+00 -0.45593999997E+02  0.45594000000E+02  0.51100000000E-03 0.  1.
    9900012    2    1    2    0    0 -0.96099779427E+00  0.19042542869E-02  0.68527650401E+00  0.90007693144E+02  0.89999953894E+02 0.  0.
        -12    1    1    2    0    0  0.96099779427E+00 -0.19042542869E-02 -0.68527650401E+00  0.11803068557E+01  0.00000000000E+00 0.  1.
         11    1    3    3    0    0 -0.11213694323E+02 -0.22520617512E+01  0.36045702856E+02  0.37816813948E+02  0.51100000000E-03 0. -1.
        -11    1    3    3    0    0 -0.10505805978E+02  0.11157742637E+01  0.67716044250E+00  0.10586569699E+02  0.51100000000E-03 0.  1.
        -12    1    3    3    0    0  0.20758502507E+02  0.11381917418E+01 -0.36037586795E+02  0.41604309498E+02  0.00000000000E+00 0.  1.
</event>
<event>
 7    1  0.2385752E-015  0.9000772E+02  0.7816164E-02  0.1186339E+00
        -11   -1    0    0    0    0  0.00000000000E+00  0.00000000000E+00  0.45593999997E+02  0.45594000000E+02  0.51100000000E-03 0.  1.
         11   -1    0    0    0    0 -0.00000000000E+00 -0.00000000000E+00 -0.45593999997E+02  0.45594000000E+02  0.51100000000E-03 0. -1.
    9900012    2    1    2    0    0  0.71938525628E+00 -0.25937179457E+00  0.89903466672E+00  0.90007723674E+02  0.89999984826E+02 0.  0.
        -12    1    1    2    0    0 -0.71938525628E+00  0.25937179457E+00 -0.89903466672E+00  0.11802763264E+01  0.00000000000E+00 0.  1.
         11    1    3    3    0    0  0.23934195439E+02  0.12660464131E+00 -0.74810110477E+01  0.25076428506E+02  0.51100000000E-03 0. -1.
        -11    1    3    3    0    0  0.17516963473E+02  0.85132266083E+01 -0.66984350558E+01  0.20595826496E+02  0.51100000000E-03 0.  1.
         12    1    3    3    0    0 -0.40731773656E+02 -0.88992030442E+01  0.15078480770E+02  0.44335468671E+02  0.00000000000E+00 0. -1.
</event>
<event>
 7    1  0.2385752E-015  0.9000786E+02  0.7816164E-02  0.1186339E+00
        -11   -1    0    0    0    0  0.00000000000E+00  0.00000000000E+00  0.45593999997E+02  0.45594000000E+02  0.51100000000E-03 0. -1.
         11   -1    0    0    0    0 -0.00000000000E+00 -0.00000000000E+00 -0.45593999997E+02  0.45594000000E+02  0.51100000000E-03 0.  1.
    9900012    2    1    2    0    0 -0.36591760030E+00 -0.13204872813E+00  0.11141801276E+01  0.90007860214E+02  0.90000123169E+02 0.  0.
        -12    1    1    2    0    0  0.36591760030E+00  0.13204872813E+00 -0.11141801276E+01  0.11801397856E+01  0.00000000000E+00 0.  1.
         11    1    3    3    0    0  0.32285660777E+02  0.20616508052E+02  0.12136650203E+02  0.40183361911E+02  0.51100000000E-03 0. -1.
        -11    1    3    3    0    0  0.30942126321E+01 -0.10746124934E+02 -0.48787157228E+01  0.12200623766E+02  0.51100000000E-03 0.  1.
        -12    1    3    3    0    0 -0.35745791009E+02 -0.10002431846E+02 -0.61437543530E+01  0.37623874538E+02  0.00000000000E+00 0.  1.
</event>
<event>
 7    1  0.2385752E-015  0.9000730E+02  0.7816164E-02  0.1186340E+00
        -11   -1    0    0    0    0  0.00000000000E+00  0.00000000000E+00  0.45593999997E+02  0.45594000000E+02  0.51100000000E-03 0.  1.
         11   -1    0    0    0    0 -0.00000000000E+00 -0.00000000000E+00 -0.45593999997E+02  0.45594000000E+02  0.51100000000E-03 0. -1.
    9900012    2    1    2    0    0  0.10920666764E+01 -0.44214042851E+00 -0.77215219926E-01  0.90007296831E+02  0.89999552348E+02 0.  0.
        -12    1    1    2    0    0 -0.10920666764E+01  0.44214042851E+00  0.77215219926E-01  0.11807031695E+01  0.00000000000E+00 0.  1.
         11    1    3    3    0    0  0.38298423193E+02  0.10991115132E+01 -0.18348296880E+02  0.42481022396E+02  0.51100000000E-03 0. -1.
        -11    1    3    3    0    0 -0.24582784466E+00  0.24499585457E+00  0.94882348416E+01  0.94945802945E+01  0.51100000000E-03 0.  1.
        -12    1    3    3    0    0 -0.36960528672E+02 -0.17862477963E+01  0.87828468188E+01  0.38031694140E+02  0.00000000000E+00 0.  1.
</event>
<event>
 7    1  0.2385752E-015  0.9000774E+02  0.7816164E-02  0.1186339E+00
        -11   -1    0    0    0    0  0.00000000000E+00  0.00000000000E+00  0.45593999997E+02  0.45594000000E+02  0.51100000000E-03 0.  1.
         11   -1    0    0    0    0 -0.00000000000E+00 -0.00000000000E+00 -0.45593999997E+02  0.45594000000E+02  0.51100000000E-03 0. -1.
    9900012    2    1    2    0    0 -0.33265000285E+00 -0.77315014841E+00 -0.82739917247E+00  0.90007743008E+02  0.90000004416E+02 0.  0.
        -12    1    1    2    0    0  0.33265000285E+00  0.77315014841E+00  0.82739917247E+00  0.11802569919E+01  0.00000000000E+00 0.  1.
         11    1    3    3    0    0  0.69883266443E+01  0.12829891867E+01 -0.42740797246E+01  0.82915938332E+01  0.51100000000E-03 0. -1.
        -11    1    3    3    0    0  0.29527626959E+02 -0.16523874119E+02  0.19436536958E+02  0.39021764938E+02  0.51100000000E-03 0.  1.
         12    1    3    3    0    0 -0.36848603606E+02  0.14467734784E+02 -0.15989856406E+02  0.42694384237E+02  0.00000000000E+00 0. -1.
</event>
<event>
 7    1  0.2385752E-015  0.9000789E+02  0.7816164E-02  0.1186339E+00
        -11   -1    0    0    0    0  0.00000000000E+00  0.00000000000E+00  0.45593999997E+02  0.45594000000E+02  0.51100000000E-03 0.  1.
         11   -1    0    0    0    0 -0.00000000000E+00 -0.00000000000E+00 -0.45593999997E+02  0.45594000000E+02  0.51100000000E-03 0. -1.
    9900012    2    1    2    0    0 -0.75988832385E+00  0.47597424855E+00  0.76725742177E+00  0.90007887420E+02  0.90000150734E+02 0.  0.
        -12    1    1    2    0    0  0.75988832385E+00 -0.47597424855E+00 -0.76725742177E+00  0.11801125799E+01  0.00000000000E+00 0.  1.
         11    1    3    3    0    0  0.28024290079E+02  0.37685655900E+01 -0.29104153653E+02  0.40578500232E+02  0.51100000000E-03 0. -1.
        -11    1    3    3    0    0  0.45374476800E+01  0.12611197487E+01  0.80893999223E+01  0.93604084223E+01  0.51100000000E-03 0.  1.
        -12    1    3    3    0    0 -0.33321626082E+02 -0.45537110902E+01  0.21782011152E+02  0.40068978765E+02  0.00000000000E+00 0.  1.
</event>
<event>
 7    1  0.2385752E-015  0.9000774E+02  0.7816164E-02  0.1186339E+00
        -11   -1    0    0    0    0  0.00000000000E+00  0.00000000000E+00  0.45593999997E+02  0.45594000000E+02  0.51100000000E-03 0.  1.
         11   -1    0    0    0    0 -0.00000000000E+00 -0.00000000000E+00 -0.45593999997E+02  0.45594000000E+02  0.51100000000E-03 0. -1.
    9900012    2    1    2    0    0  0.64797032430E+00  0.86728521781E+00 -0.47008085568E+00  0.90007735114E+02  0.89999996418E+02 0.  0.
        -12    1    1    2    0    0 -0.64797032430E+00 -0.86728521781E+00  0.47008085568E+00  0.11802648860E+01  0.00000000000E+00 0.  1.
         11    1    3    3    0    0 -0.60616909529E+01 -0.26996106338E+02 -0.26443372076E+02  0.38272519929E+02  0.51100000000E-03 0. -1.
        -11    1    3    3    0    0 -0.31000485768E+01  0.22723079156E+01 -0.75274755250E+01  0.84520158828E+01  0.51100000000E-03 0.  1.
        -12    1    3    3    0    0  0.98097098541E+01  0.25591083641E+02  0.33500766746E+02  0.43283199303E+02  0.00000000000E+00 0.  1.
</event>
<event>
 7    1  0.2385752E-015  0.9000724E+02  0.7816164E-02  0.1186340E+00
        -11   -1    0    0    0    0  0.00000000000E+00  0.00000000000E+00  0.45593999997E+02  0.45594000000E+02  0.51100000000E-03 0.  1.
         11   -1    0    0    0    0 -0.00000000000E+00 -0.00000000000E+00 -0.45593999997E+02  0.45594000000E+02  0.51100000000E-03 0. -1.
    9900012    2    1    2    0    0  0.10717544901E+01 -0.23462095568E+00 -0.43644840266E+00  0.90007240969E+02  0.89999495749E+02 0.  0.
        -12    1    1    2    0    0 -0.10717544901E+01  0.23462095568E+00  0.43644840266E+00  0.11807590305E+01  0.00000000000E+00 0.  1.
         11    1    3    3    0    0  0.16831259516E+01 -0.80325472964E+01 -0.64532807118E+01  0.10440285496E+02  0.51100000000E-03 0. -1.
        -11    1    3    3    0    0  0.22822597365E+02  0.27579666480E+02 -0.18507910009E+02  0.40299524647E+02  0.51100000000E-03 0.  1.
         12    1    3    3    0    0 -0.23433968826E+02 -0.19781740139E+02  0.24524742318E+02  0.39267430826E+02  0.00000000000E+00 0. -1.
</event>
<event>
 7    1  0.2385752E-015  0.9000772E+02  0.7816164E-02  0.1186339E+00
        -11   -1    0    0    0    0  0.00000000000E+00  0.00000000000E+00  0.45593999997E+02  0.45594000000E+02  0.51100000000E-03 0. -1.
         11   -1    0    0    0    0 -0.00000000000E+00 -0.00000000000E+00 -0.45593999997E+02  0.45594000000E+02  0.51100000000E-03 0.  1.
    9900012    2    1    2    0    0 -0.74870225483E+00 -0.90645646934E+00 -0.10411410189E+00  0.90007721159E+02  0.89999982278E+02 0.  0.
        -12    1    1    2    0    0  0.74870225483E+00  0.90645646934E+00  0.10411410189E+00  0.11802788414E+01  0.00000000000E+00 0.  1.
         11    1    3    3    0    0  0.30045124611E+01  0.75098497537E+01  0.40052076743E+01  0.90258865065E+01  0.51100000000E-03 0. -1.
        -11    1    3    3    0    0 -0.38276341708E+02  0.84738155198E+01 -0.13420573128E+02  0.41436646430E+02  0.51100000000E-03 0.  1.
         12    1    3    3    0    0  0.34523126992E+02 -0.16890121743E+02  0.93112513519E+01  0.39545188222E+02  0.00000000000E+00 0. -1.
</event>
<event>
 7    1  0.2385752E-015  0.9000772E+02  0.7816164E-02  0.1186339E+00
        -11   -1    0    0    0    0  0.00000000000E+00  0.00000000000E+00  0.45593999997E+02  0.45594000000E+02  0.51100000000E-03 0. -1.
         11   -1    0    0    0    0 -0.00000000000E+00 -0.00000000000E+00 -0.45593999997E+02  0.45594000000E+02  0.51100000000E-03 0.  1.
    9900012    2    1    2    0    0 -0.36045310539E+00  0.11130247928E+01 -0.15591457882E+00  0.90007720378E+02  0.89999981487E+02 0.  0.
        -12    1    1    2    0    0  0.36045310539E+00 -0.11130247928E+01  0.15591457882E+00  0.11802796222E+01  0.00000000000E+00 0.  1.
         11    1    3    3    0    0  0.15251789394E+02 -0.34196224554E+02 -0.15998789105E+01  0.37477439430E+02  0.51100000000E-03 0. -1.
        -11    1    3    3    0    0 -0.70790939151E+01 -0.66337593771E+01  0.59119781944E+00  0.97195601369E+01  0.51100000000E-03 0.  1.
        -12    1    3    3    0    0 -0.85331485840E+01  0.41943008724E+02  0.85276651226E+00  0.42810720811E+02  0.00000000000E+00 0.  1.
</event>
<event>
 7    1  0.2385752E-015  0.9000774E+02  0.7816164E-02  0.1186339E+00
        -11   -1    0    0    0    0  0.00000000000E+00  0.00000000000E+00  0.45593999997E+02  0.45594000000E+02  0.51100000000E-03 0.  1.
         11   -1    0    0    0    0 -0.00000000000E+00 -0.00000000000E+00 -0.45593999997E+02  0.45594000000E+02  0.51100000000E-03 0. -1.
    9900012    2    1    2    0    0 -0.39295445390E+00  0.11127487156E+01  0.19881069597E-01  0.90007738095E+02  0.89999999438E+02 0.  0.
        -12    1    1    2    0    0  0.39295445390E+00 -0.11127487156E+01 -0.19881069597E-01  0.11802619047E+01  0.00000000000E+00 0.  1.
         11    1    3    3    0    0  0.73359608531E+01 -0.31206309704E+01  0.70006513749E+01  0.10609607873E+02  0.51100000000E-03 0. -1.
        -11    1    3    3    0    0  0.72977922306E+01 -0.35229468605E+02  0.26902660171E+01  0.36077843078E+02  0.51100000000E-03 0.  1.
         12    1    3    3    0    0 -0.15026707538E+02  0.39462848291E+02 -0.96710363224E+01  0.43320287144E+02  0.00000000000E+00 0. -1.
</event>
<event>
 7    1  0.2385752E-015  0.9000785E+02  0.7816164E-02  0.1186339E+00
        -11   -1    0    0    0    0  0.00000000000E+00  0.00000000000E+00  0.45593999997E+02  0.45594000000E+02  0.51100000000E-03 0. -1.
         11   -1    0    0    0    0 -0.00000000000E+00 -0.00000000000E+00 -0.45593999997E+02  0.45594000000E+02  0.51100000000E-03 0.  1.
    9900012    2    1    2    0    0 -0.15416070412E+00  0.11356368357E+01 -0.28161432004E+00  0.90007854598E+02  0.90000117478E+02 0.  0.
        -12    1    1    2    0    0  0.15416070412E+00 -0.11356368357E+01  0.28161432004E+00  0.11801454023E+01  0.00000000000E+00 0.  1.
         11    1    3    3    0    0 -0.70496278887E+01  0.89776595731E+01  0.80987335202E+00  0.11443405083E+02  0.51100000000E-03 0. -1.
        -11    1    3    3    0    0  0.38806594236E+02  0.12072279519E+02 -0.39979391231E+01  0.40837179218E+02  0.51100000000E-03 0.  1.
         12    1    3    3    0    0 -0.31911127051E+02 -0.19914302256E+02  0.29064514510E+01  0.37727270297E+02  0.00000000000E+00 0. -1.
</event>
<event>
 7    1  0.2385752E-015  0.9000768E+02  0.7816164E-02  0.1186339E+00
        -11   -1    0    0    0    0  0.00000000000E+00  0.00000000000E+00  0.45593999997E+02  0.45594000000E+02  0.51100000000E-03 0. -1.
         11   -1    0    0    0    0 -0.00000000000E+00 -0.00000000000E+00 -0.45593999997E+02  0.45594000000E+02  0.51100000000E-03 0.  1.
    9900012    2    1    2    0    0 -0.24001166218E+00 -0.15998540569E+00  0.11445344008E+01  0.90007678043E+02  0.89999938593E+02 0.  0.
        -12    1    1    2    0    0  0.24001166218E+00  0.15998540569E+00 -0.11445344008E+01  0.11803219572E+01  0.00000000000E+00 0.  1.
         11    1    3    3    0    0  0.35303332102E+02  0.13144124551E+02  0.56604131178E+01  0.38093746792E+02  0.51100000000E-03 0. -1.
        -11    1    3    3    0    0  0.52348945150E+01 -0.78631552504E+01 -0.51710698204E+01  0.10769089768E+02  0.51100000000E-03 0.  1.
        -12    1    3    3    0    0 -0.40778238279E+02 -0.54409547061E+01  0.65519110343E+00  0.41144841483E+02  0.00000000000E+00 0.  1.
</event>
<event>
 7    1  0.2385752E-015  0.9000783E+02  0.7816164E-02  0.1186339E+00
        -11   -1    0    0    0    0  0.00000000000E+00  0.00000000000E+00  0.45593999997E+02  0.45594000000E+02  0.51100000000E-03 0. -1.
         11   -1    0    0    0    0 -0.00000000000E+00 -0.00000000000E+00 -0.45593999997E+02  0.45594000000E+02  0.51100000000E-03 0.  1.
    9900012    2    1    2    0    0 -0.53868974682E+00 -0.16423227497E+00  0.10371333048E+01  0.90007828667E+02  0.90000091205E+02 0.  0.
        -12    1    1    2    0    0  0.53868974682E+00  0.16423227497E+00 -0.10371333048E+01  0.11801713331E+01  0.00000000000E+00 0.  1.
         11    1    3    3    0    0  0.35777242998E+02  0.58954082378E+01  0.62219610748E+00  0.36265053193E+02  0.51100000000E-03 0. -1.
        -11    1    3    3    0    0  0.81186411652E+01  0.20122822576E+01  0.18163417870E+01  0.85592471632E+01  0.51100000000E-03 0.  1.
        -12    1    3    3    0    0 -0.44434573910E+02 -0.80719227703E+01 -0.14014045896E+01  0.45183528311E+02  0.00000000000E+00 0.  1.
</event>
<event>
 7    1  0.2385752E-015  0.9000771E+02  0.7816164E-02  0.1186339E+00
        -11   -1    0    0    0    0  0.00000000000E+00  0.00000000000E+00  0.45593999997E+02  0.45594000000E+02  0.51100000000E-03 0. -1.
         11   -1    0    0    0    0 -0.00000000000E+00 -0.00000000000E+00 -0.45593999997E+02  0.45594000000E+02  0.51100000000E-03 0.  1.
    9900012    2    1    2    0    0  0.93608871753E+00 -0.59148980004E+00  0.40862053962E+00  0.90007706386E+02  0.89999967310E+02 0.  0.
        -12    1    1    2    0    0 -0.93608871753E+00  0.59148980004E+00 -0.40862053962E+00  0.11802936143E+01  0.00000000000E+00 0.  1.
         11    1    3    3    0    0  0.48963886768E+01  0.37740392342E+02  0.27647234811E+01  0.38156985368E+02  0.51100000000E-03 0. -1.
        -11    1    3    3    0    0  0.38077283195E+01  0.27963600909E+00  0.98934511799E+01  0.10604591824E+02  0.51100000000E-03 0.  1.
        -12    1    3    3    0    0 -0.77680282787E+01 -0.38611518151E+02 -0.12249554121E+02  0.41246129193E+02  0.00000000000E+00 0.  1.
</event>
<event>
 7    1  0.2385752E-015  0.9000751E+02  0.7816164E-02  0.1186339E+00
        -11   -1    0    0    0    0  0.00000000000E+00  0.00000000000E+00  0.45593999997E+02  0.45594000000E+02  0.51100000000E-03 0. -1.
         11   -1    0    0    0    0 -0.00000000000E+00 -0.00000000000E+00 -0.45593999997E+02  0.45594000000E+02  0.51100000000E-03 0.  1.
    9900012    2    1    2    0    0 -0.46298939933E+00  0.10724423253E+01  0.17046397725E+00  0.90007512943E+02  0.89999771313E+02 0.  0.
        -12    1    1    2    0    0  0.46298939933E+00 -0.10724423253E+01 -0.17046397725E+00  0.11804870573E+01  0.00000000000E+00 0.  1.
         11    1    3    3    0    0  0.17782489077E+01 -0.10987895622E+02  0.44824927112E+01  0.11999531681E+02  0.51100000000E-03 0. -1.
        -11    1    3    3    0    0  0.25816166626E+02  0.21127985562E+02 -0.25254905667E+02  0.41841086191E+02  0.51100000000E-03 0.  1.
         12    1    3    3    0    0 -0.28057404933E+02 -0.90676476142E+01  0.20942876933E+02  0.36166895071E+02  0.00000000000E+00 0. -1.
</event>
<event>
 7    1  0.2385752E-015  0.9000771E+02  0.7816164E-02  0.1186339E+00
        -11   -1    0    0    0    0  0.00000000000E+00  0.00000000000E+00  0.45593999997E+02  0.45594000000E+02  0.51100000000E-03 0. -1.
         11   -1    0    0    0    0 -0.00000000000E+00 -0.00000000000E+00 -0.45593999997E+02  0.45594000000E+02  0.51100000000E-03 0.  1.
    9900012    2    1    2    0    0  0.78940024458E+00 -0.75574425623E+00  0.44585978212E+00  0.90007706362E+02  0.89999967286E+02 0.  0.
        -12    1    1    2    0    0 -0.78940024458E+00  0.75574425623E+00 -0.44585978212E+00  0.11802936382E+01  0.00000000000E+00 0.  1.
         11    1    3    3    0    0 -0.76924974159E+01  0.31663992880E+01  0.69625557300E+00  0.83477765320E+01  0.51100000000E-03 0. -1.
        -11    1    3    3    0    0 -0.35239837071E+02  0.47531004255E+01  0.76981439949E+01  0.36382681342E+02  0.51100000000E-03 0.  1.
         12    1    3    3    0    0  0.43721734731E+02 -0.86752439697E+01 -0.79485397858E+01  0.45277248487E+02  0.00000000000E+00 0. -1.
</event>
<event>
 7    1  0.2385752E-015  0.9000773E+02  0.7816164E-02  0.1186339E+00
        -11   -1    0    0    0    0  0.00000000000E+00  0.00000000000E+00  0.45593999997E+02  0.45594000000E+02  0.51100000000E-03 0.  1.
         11   -1    0    0    0    0 -0.00000000000E+00 -0.00000000000E+00 -0.45593999997E+02  0.45594000000E+02  0.51100000000E-03 0. -1.
    9900012    2    1    2    0    0  0.11491140482E+01  0.13297712923E-01  0.26908071568E+00  0.90007726999E+02  0.89999988196E+02 0.  0.
        -12    1    1    2    0    0 -0.11491140482E+01 -0.13297712923E-01 -0.26908071568E+00  0.11802730008E+01  0.00000000000E+00 0.  1.
         11    1    3    3    0    0 -0.12564647889E+00 -0.85183381782E+01  0.41206628592E+01  0.94634948627E+01  0.51100000000E-03 0. -1.
        -11    1    3    3    0    0  0.97677054956E+01 -0.34417084906E+02  0.42255931172E+01  0.36024983574E+02  0.51100000000E-03 0.  1.
         12    1    3    3    0    0 -0.84929449685E+01  0.42948720797E+02 -0.80771752607E+01  0.44519248562E+02  0.00000000000E+00 0. -1.
</event>
<event>
 7    1  0.2385752E-015  0.9000769E+02  0.7816164E-02  0.1186339E+00
        -11   -1    0    0    0    0  0.00000000000E+00  0.00000000000E+00  0.45593999997E+02  0.45594000000E+02  0.51100000000E-03 0. -1.
         11   -1    0    0    0    0 -0.00000000000E+00 -0.00000000000E+00 -0.45593999997E+02  0.45594000000E+02  0.51100000000E-03 0.  1.
    9900012    2    1    2    0    0  0.57513791969E+00  0.71223245137E+00  0.74502700657E+00  0.90007693289E+02  0.89999954040E+02 0.  0.
        -12    1    1    2    0    0 -0.57513791969E+00 -0.71223245137E+00 -0.74502700657E+00  0.11803067110E+01  0.00000000000E+00 0.  1.
         11    1    3    3    0    0 -0.10400621358E+02  0.11237103515E+02  0.40041131860E+02  0.42868842542E+02  0.51100000000E-03 0. -1.
        -11    1    3    3    0    0  0.84806393718E+01 -0.17342952042E+01 -0.21965294540E+01  0.89304963979E+01  0.51100000000E-03 0.  1.
        -12    1    3    3    0    0  0.24951199055E+01 -0.87905758597E+01 -0.37099575399E+02  0.38208354349E+02  0.00000000000E+00 0.  1.
</event>
<event>
 7    1  0.2385752E-015  0.9000765E+02  0.7816164E-02  0.1186339E+00
        -11   -1    0    0    0    0  0.00000000000E+00  0.00000000000E+00  0.45593999997E+02  0.45594000000E+02  0.51100000000E-03 0.  1.
         11   -1    0    0    0    0 -0.00000000000E+00 -0.00000000000E+00 -0.45593999997E+02  0.45594000000E+02  0.51100000000E-03 0. -1.
    9900012    2    1    2    0    0  0.44817774608E+00  0.63414282448E+00 -0.88894104235E+00  0.90007654038E+02  0.89999914271E+02 0.  0.
        -12    1    1    2    0    0 -0.44817774608E+00 -0.63414282448E+00  0.88894104235E+00  0.11803459623E+01  0.00000000000E+00 0.  1.
         11    1    3    3    0    0 -0.66943592082E+01  0.32485907524E+01 -0.38902371076E+01  0.83965309562E+01  0.51100000000E-03 0. -1.
        -11    1    3    3    0    0  0.15600943925E+02  0.35400282486E+02  0.14004182253E+02  0.41142272327E+02  0.51100000000E-03 0.  1.
         12    1    3    3    0    0 -0.84584069704E+01 -0.38014730414E+02 -0.11002886188E+02  0.40468850754E+02  0.00000000000E+00 0. -1.
</event>
<event>
 7    1  0.2385752E-015  0.9000760E+02  0.7816164E-02  0.1186339E+00
        -11   -1    0    0    0    0  0.00000000000E+00  0.00000000000E+00  0.45593999997E+02  0.45594000000E+02  0.51100000000E-03 0.  1.
         11   -1    0    0    0    0 -0.00000000000E+00 -0.00000000000E+00 -0.45593999997E+02  0.45594000000E+02  0.51100000000E-03 0. -1.
    9900012    2    1    2    0    0 -0.34246605006E+00  0.11026837113E+01 -0.24527844693E+00  0.90007595036E+02  0.89999854490E+02 0.  0.
        -12    1    1    2    0    0  0.34246605006E+00 -0.11026837113E+01  0.24527844693E+00  0.11804049641E+01  0.00000000000E+00 0.  1.
         11    1    3    3    0    0 -0.80158315786E+01  0.58155777232E+01  0.23870431697E+01  0.10186877613E+02  0.51100000000E-03 0. -1.
        -11    1    3    3    0    0 -0.13176593433E+01  0.16684472327E+02  0.33170196534E+02  0.37153327998E+02  0.51100000000E-03 0.  1.
         12    1    3    3    0    0  0.89910248719E+01 -0.21397366338E+02 -0.35802518150E+02  0.42667389425E+02  0.00000000000E+00 0. -1.
</event>
<event>
 7    1  0.2385752E-015  0.9000773E+02  0.7816164E-02  0.1186339E+00
        -11   -1    0    0    0    0  0.00000000000E+00  0.00000000000E+00  0.45593999997E+02  0.45594000000E+02  0.51100000000E-03 0.  1.
         11   -1    0    0    0    0 -0.00000000000E+00 -0.00000000000E+00 -0.45593999997E+02  0.45594000000E+02  0.51100000000E-03 0. -1.
    9900012    2    1    2    0    0  0.23680761053E+00  0.11346656027E+01 -0.22245200324E+00  0.90007733603E+02  0.89999994886E+02 0.  0.
        -12    1    1    2    0    0 -0.23680761053E+00 -0.11346656027E+01  0.22245200324E+00  0.11802663971E+01  0.00000000000E+00 0.  1.
         11    1    3    3    0    0 -0.17707716630E+02 -0.15921036389E+02  0.20090856256E+02  0.31155820216E+02  0.51100000000E-03 0.  1.
        -11    1    3    3    0    0 -0.15601661236E+02  0.13299886497E+01 -0.14516325810E+02  0.21351918378E+02  0.51100000000E-03 0. -1.
        -12    1    3    3    0    0  0.33546185477E+02  0.15725713342E+02 -0.57969824490E+01  0.37499995009E+02  0.00000000000E+00 0.  1.
</event>
<event>
 7    1  0.2385752E-015  0.9000772E+02  0.7816164E-02  0.1186339E+00
        -11   -1    0    0    0    0  0.00000000000E+00  0.00000000000E+00  0.45593999997E+02  0.45594000000E+02  0.51100000000E-03 0.  1.
         11   -1    0    0    0    0 -0.00000000000E+00 -0.00000000000E+00 -0.45593999997E+02  0.45594000000E+02  0.51100000000E-03 0. -1.
    9900012    2    1    2    0    0  0.75253022639E+00 -0.90770732648E+00 -0.53104629240E-01  0.90007722730E+02  0.89999983870E+02 0.  0.
        -12    1    1    2    0    0 -0.75253022639E+00  0.90770732648E+00  0.53104629240E-01  0.11802772699E+01  0.00000000000E+00 0.  1.
         11    1    3    3    0    0  0.16665170042E+01 -0.61870813486E-01  0.98916943882E+01  0.10031287308E+02  0.51100000000E-03 0. -1.
        -11    1    3    3    0    0 -0.10083393585E+02  0.33836006110E+01  0.33617090031E+02  0.35259499737E+02  0.51100000000E-03 0.  1.
         12    1    3    3    0    0  0.91694068072E+01 -0.42294371240E+01 -0.43561889049E+02  0.44716935685E+02  0.00000000000E+00 0. -1.
</event>
<event>
 7    1  0.2385752E-015  0.9000773E+02  0.7816164E-02  0.1186339E+00
        -11   -1    0    0    0    0  0.00000000000E+00  0.00000000000E+00  0.45593999997E+02  0.45594000000E+02  0.51100000000E-03 0. -1.
         11   -1    0    0    0    0 -0.00000000000E+00 -0.00000000000E+00 -0.45593999997E+02  0.45594000000E+02  0.51100000000E-03 0.  1.
    9900012    2    1    2    0    0 -0.44290531013E+00 -0.10938521985E+01  0.19185986147E-01  0.90007726367E+02  0.89999987555E+02 0.  0.
        -12    1    1    2    0    0  0.44290531013E+00  0.10938521985E+01 -0.19185986147E-01  0.11802736327E+01  0.00000000000E+00 0.  1.
         11    1    3    3    0    0 -0.40635866537E+00 -0.54661030612E+01 -0.75932686302E+01  0.93648886161E+01  0.51100000000E-03 0. -1.
        -11    1    3    3    0    0 -0.38501308737E+02 -0.68927022885E+01  0.10379055186E+02  0.40467084230E+02  0.51100000000E-03 0.  1.
         12    1    3    3    0    0  0.38464762092E+02  0.11264953151E+02 -0.27666005700E+01  0.40175753521E+02  0.00000000000E+00 0. -1.
</event>
<event>
 7    1  0.2385752E-015  0.9000792E+02  0.7816164E-02  0.1186339E+00
        -11   -1    0    0    0    0  0.00000000000E+00  0.00000000000E+00  0.45593999997E+02  0.45594000000E+02  0.51100000000E-03 0.  1.
         11   -1    0    0    0    0 -0.00000000000E+00 -0.00000000000E+00 -0.45593999997E+02  0.45594000000E+02  0.51100000000E-03 0. -1.
    9900012    2    1    2    0    0 -0.19031230777E-01  0.14230727550E+00 -0.11713118050E+01  0.90007921658E+02  0.90000185424E+02 0.  0.
        -12    1    1    2    0    0  0.19031230777E-01 -0.14230727550E+00  0.11713118050E+01  0.11800783419E+01  0.00000000000E+00 0.  1.
         11    1    3    3    0    0 -0.41431360719E+02  0.83377893541E+00  0.11998093152E+01  0.41457114962E+02  0.51100000000E-03 0. -1.
        -11    1    3    3    0    0  0.15864710128E+01  0.23336708274E+01  0.69811444777E+01  0.75298929796E+01  0.51100000000E-03 0.  1.
        -12    1    3    3    0    0  0.39825858475E+02 -0.30251424873E+01 -0.93522655978E+01  0.41020913717E+02  0.00000000000E+00 0.  1.
</event>
<event>
 7    1  0.2385752E-015  0.9000768E+02  0.7816164E-02  0.1186339E+00
        -11   -1    0    0    0    0  0.00000000000E+00  0.00000000000E+00  0.45593999997E+02  0.45594000000E+02  0.51100000000E-03 0.  1.
         11   -1    0    0    0    0 -0.00000000000E+00 -0.00000000000E+00 -0.45593999997E+02  0.45594000000E+02  0.51100000000E-03 0. -1.
    9900012    2    1    2    0    0 -0.89177103409E+00 -0.42681926649E+00 -0.64476003826E+00  0.90007684038E+02  0.89999944667E+02 0.  0.
        -12    1    1    2    0    0  0.89177103409E+00  0.42681926649E+00  0.64476003826E+00  0.11803159621E+01  0.00000000000E+00 0.  1.
         11    1    3    3    0    0  0.22679307591E+00 -0.39879673591E+01  0.86878678606E+01  0.95621319265E+01  0.51100000000E-03 0. -1.
        -11    1    3    3    0    0  0.27551714733E+02 -0.19914710310E+02  0.13880131934E+02  0.36719895618E+02  0.51100000000E-03 0.  1.
         12    1    3    3    0    0 -0.28670278843E+02  0.23475858403E+02 -0.23212759833E+02  0.43725656493E+02  0.00000000000E+00 0. -1.
</event>
<event>
 7    1  0.2385752E-015  0.9000775E+02  0.7816164E-02  0.1186339E+00
        -11   -1    0    0    0    0  0.00000000000E+00  0.00000000000E+00  0.45593999997E+02  0.45594000000E+02  0.51100000000E-03 0. -1.
         11   -1    0    0    0    0 -0.00000000000E+00 -0.00000000000E+00 -0.45593999997E+02  0.45594000000E+02  0.51100000000E-03 0.  1.
    9900012    2    1    2    0    0 -0.26161843949E+00 -0.74774429038E-01  0.11484532887E+01  0.90007754102E+02  0.90000015656E+02 0.  0.
        -12    1    1    2    0    0  0.26161843949E+00  0.74774429038E-01 -0.11484532887E+01  0.11802458978E+01  0.00000000000E+00 0.  1.
         11    1    3    3    0    0  0.20134327585E+02 -0.10903331790E+02  0.33265413149E+02  0.40383926304E+02  0.51100000000E-03 0. -1.
        -11    1    3    3    0    0  0.24753143853E-01  0.11421301651E+02  0.16284739649E+00  0.11422489381E+02  0.51100000000E-03 0.  1.
        -12    1    3    3    0    0 -0.20420699168E+02 -0.59274429021E+00 -0.32279807257E+02  0.38201338417E+02  0.00000000000E+00 0.  1.
</event>
<event>
 7    1  0.2385752E-015  0.9000736E+02  0.7816164E-02  0.1186340E+00
        -11   -1    0    0    0    0  0.00000000000E+00  0.00000000000E+00  0.45593999997E+02  0.45594000000E+02  0.51100000000E-03 0.  1.
         11   -1    0    0    0    0 -0.00000000000E+00 -0.00000000000E+00 -0.45593999997E+02  0.45594000000E+02  0.51100000000E-03 0. -1.
    9900012    2    1    2    0    0 -0.99933913980E+00 -0.17808208895E+00 -0.60292120696E+00  0.90007362067E+02  0.89999618446E+02 0.  0.
        -12    1    1    2    0    0  0.99933913980E+00  0.17808208895E+00  0.60292120696E+00  0.11806379329E+01  0.00000000000E+00 0.  1.
         11    1    3    3    0    0  0.34678284125E+00 -0.72573511051E+01  0.49222764073E+01  0.87760018626E+01  0.51100000000E-03 0. -1.
        -11    1    3    3    0    0  0.33060326264E+02 -0.14206973087E+02  0.10850867837E+02  0.37584100229E+02  0.51100000000E-03 0.  1.
         12    1    3    3    0    0 -0.34406448245E+02  0.21286242103E+02 -0.16376065452E+02  0.43647259975E+02  0.00000000000E+00 0. -1.
</event>
<event>
 7    1  0.2385752E-015  0.9000775E+02  0.7816164E-02  0.1186339E+00
        -11   -1    0    0    0    0  0.00000000000E+00  0.00000000000E+00  0.45593999997E+02  0.45594000000E+02  0.51100000000E-03 0.  1.
         11   -1    0    0    0    0 -0.00000000000E+00 -0.00000000000E+00 -0.45593999997E+02  0.45594000000E+02  0.51100000000E-03 0. -1.
    9900012    2    1    2    0    0  0.35021115831E-01 -0.94500311105E+00 -0.70620806270E+00  0.90007751218E+02  0.90000012735E+02 0.  0.
        -12    1    1    2    0    0 -0.35021115831E-01  0.94500311105E+00  0.70620806270E+00  0.11802487815E+01  0.00000000000E+00 0.  1.
         11    1    3    3    0    0 -0.33497751637E+01 -0.92399005254E+01  0.55884322500E+00  0.98442400102E+01  0.51100000000E-03 0. -1.
        -11    1    3    3    0    0 -0.26100110731E+02  0.19042661412E+02  0.23694226098E+02  0.40065634707E+02  0.51100000000E-03 0.  1.
         12    1    3    3    0    0  0.29484907010E+02 -0.10747763998E+02 -0.24959277385E+02  0.40097876502E+02  0.00000000000E+00 0. -1.
</event>
<event>
 7    1  0.3498085E-015  0.9000711E+02  0.7816164E-02  0.1186340E+00
        -11   -1    0    0    0    0  0.00000000000E+00  0.00000000000E+00  0.45593999997E+02  0.45594000000E+02  0.51100000000E-03 0. -1.
         11   -1    0    0    0    0 -0.00000000000E+00 -0.00000000000E+00 -0.45593999997E+02  0.45594000000E+02  0.51100000000E-03 0.  1.
    9900012    2    1    2    0    0 -0.17419366562E+00 -0.51882538532E+00  0.10464064186E+01  0.90007114906E+02  0.89999368020E+02 0.  0.
        -12    1    1    2    0    0  0.17419366562E+00  0.51882538532E+00 -0.10464064186E+01  0.11808850945E+01  0.00000000000E+00 0.  1.
         11    1    3    3    0    0  0.35546462192E+02 -0.19734823742E+02  0.96565949656E+01  0.41788324555E+02  0.51100000000E-03 0. -1.
        -11    1    3    3    0    0 -0.39532326777E+01  0.55877247583E+01  0.74377510479E+01  0.10107960105E+02  0.51100000000E-03 0.  1.
        -12    1    3    3    0    0 -0.31767423180E+02  0.13628273599E+02 -0.16047939595E+02  0.38110830246E+02  0.00000000000E+00 0.  1.
</event>
<event>
 7    1  0.2385752E-015  0.9000775E+02  0.7816164E-02  0.1186339E+00
        -11   -1    0    0    0    0  0.00000000000E+00  0.00000000000E+00  0.45593999997E+02  0.45594000000E+02  0.51100000000E-03 0. -1.
         11   -1    0    0    0    0 -0.00000000000E+00 -0.00000000000E+00 -0.45593999997E+02  0.45594000000E+02  0.51100000000E-03 0.  1.
    9900012    2    1    2    0    0 -0.10451251215E+01 -0.49374189862E+00 -0.23857293933E+00  0.90007752302E+02  0.90000013832E+02 0.  0.
        -12    1    1    2    0    0  0.10451251215E+01  0.49374189862E+00  0.23857293933E+00  0.11802476983E+01  0.00000000000E+00 0.  1.
         11    1    3    3    0    0 -0.55998296620E+01  0.26752828979E+02  0.91186409648E+01  0.28813565623E+02  0.51100000000E-03 0. -1.
        -11    1    3    3    0    0 -0.14421159645E+02  0.76521820300E+01 -0.13594543754E+02  0.21244701821E+02  0.51100000000E-03 0.  1.
        -12    1    3    3    0    0  0.18975864186E+02 -0.34898752908E+02  0.42373298496E+01  0.39949484857E+02  0.00000000000E+00 0.  1.
</event>
<event>
 7    1  0.2385752E-015  0.9000773E+02  0.7816164E-02  0.1186339E+00
        -11   -1    0    0    0    0  0.00000000000E+00  0.00000000000E+00  0.45593999997E+02  0.45594000000E+02  0.51100000000E-03 0. -1.
         11   -1    0    0    0    0 -0.00000000000E+00 -0.00000000000E+00 -0.45593999997E+02  0.45594000000E+02  0.51100000000E-03 0.  1.
    9900012    2    1    2    0    0 -0.12622419164E+00 -0.10064269375E+01  0.60350386011E+00  0.90007726881E+02  0.89999988076E+02 0.  0.
        -12    1    1    2    0    0  0.12622419164E+00  0.10064269375E+01 -0.60350386011E+00  0.11802731193E+01  0.00000000000E+00 0.  1.
         11    1    3    3    0    0 -0.78798092148E+01 -0.52017043092E+01  0.13481450610E+02  0.16458998505E+02  0.51100000000E-03 0. -1.
        -11    1    3    3    0    0  0.11669648242E+02 -0.24560540275E+02  0.16861546538E+02  0.31995508757E+02  0.51100000000E-03 0.  1.
         12    1    3    3    0    0 -0.39160632190E+01  0.28755817647E+02 -0.29739493288E+02  0.41553219619E+02  0.00000000000E+00 0. -1.
</event>
<event>
 7    1  0.2385752E-015  0.9000796E+02  0.7816164E-02  0.1186339E+00
        -11   -1    0    0    0    0  0.00000000000E+00  0.00000000000E+00  0.45593999997E+02  0.45594000000E+02  0.51100000000E-03 0.  1.
         11   -1    0    0    0    0 -0.00000000000E+00 -0.00000000000E+00 -0.45593999997E+02  0.45594000000E+02  0.51100000000E-03 0. -1.
    9900012    2    1    2    0    0 -0.62659002403E+00 -0.40166419584E+00 -0.91571546821E+00  0.90007964406E+02  0.90000228736E+02 0.  0.
        -12    1    1    2    0    0  0.62659002403E+00  0.40166419584E+00  0.91571546821E+00  0.11800355940E+01  0.00000000000E+00 0.  1.
         11    1    3    3    0    0  0.35818834849E+02  0.71317640199E+01 -0.18194368341E+02  0.40803014933E+02  0.51100000000E-03 0. -1.
        -11    1    3    3    0    0  0.31284474793E+00 -0.89699289382E+01  0.11888015924E+01  0.90537697387E+01  0.51100000000E-03 0.  1.
        -12    1    3    3    0    0 -0.36758269621E+02  0.14365007225E+01  0.16089851280E+02  0.40151179735E+02  0.00000000000E+00 0.  1.
</event>
<event>
 7    1  0.2385752E-015  0.9000789E+02  0.7816164E-02  0.1186339E+00
        -11   -1    0    0    0    0  0.00000000000E+00  0.00000000000E+00  0.45593999997E+02  0.45594000000E+02  0.51100000000E-03 0.  1.
         11   -1    0    0    0    0 -0.00000000000E+00 -0.00000000000E+00 -0.45593999997E+02  0.45594000000E+02  0.51100000000E-03 0. -1.
    9900012    2    1    2    0    0  0.98463594284E+00  0.43647660893E+00 -0.48232675535E+00  0.90007890315E+02  0.90000153667E+02 0.  0.
        -12    1    1    2    0    0 -0.98463594284E+00 -0.43647660893E+00  0.48232675535E+00  0.11801096852E+01  0.00000000000E+00 0.  1.
         11    1    3    3    0    0  0.17942518750E+02 -0.12069166140E+02 -0.32346355629E+02  0.38908681206E+02  0.51100000000E-03 0. -1.
        -11    1    3    3    0    0  0.75169050444E+01  0.48386868960E+01 -0.14496476312E+01  0.90563917119E+01  0.51100000000E-03 0.  1.
        -12    1    3    3    0    0 -0.24474787852E+02  0.76669558533E+01  0.33313676505E+02  0.42042817397E+02  0.00000000000E+00 0.  1.
</event>
<event>
 7    1  0.2385752E-015  0.9000778E+02  0.7816164E-02  0.1186339E+00
        -11   -1    0    0    0    0  0.00000000000E+00  0.00000000000E+00  0.45593999997E+02  0.45594000000E+02  0.51100000000E-03 0.  1.
         11   -1    0    0    0    0 -0.00000000000E+00 -0.00000000000E+00 -0.45593999997E+02  0.45594000000E+02  0.51100000000E-03 0. -1.
    9900012    2    1    2    0    0 -0.19260420063E+00 -0.68270358587E+00 -0.94325443135E+00  0.90007784136E+02  0.90000046086E+02 0.  0.
        -12    1    1    2    0    0  0.19260420063E+00  0.68270358587E+00  0.94325443135E+00  0.11802158644E+01  0.00000000000E+00 0.  1.
         11    1    3    3    0    0 -0.13242422574E+02  0.32939230230E+02  0.41942442373E+01  0.35748375190E+02  0.51100000000E-03 0. -1.
        -11    1    3    3    0    0 -0.22912256540E+01  0.84682594714E+01 -0.34563641599E+01  0.94290819775E+01  0.51100000000E-03 0.  1.
        -12    1    3    3    0    0  0.15341044027E+02 -0.42090193287E+02 -0.16811345087E+01  0.44830326968E+02  0.00000000000E+00 0.  1.
</event>
<event>
 7    1  0.2385752E-015  0.9000771E+02  0.7816164E-02  0.1186339E+00
        -11   -1    0    0    0    0  0.00000000000E+00  0.00000000000E+00  0.45593999997E+02  0.45594000000E+02  0.51100000000E-03 0. -1.
         11   -1    0    0    0    0 -0.00000000000E+00 -0.00000000000E+00 -0.45593999997E+02  0.45594000000E+02  0.51100000000E-03 0.  1.
    9900012    2    1    2    0    0  0.97449873399E+00  0.43928124893E+00  0.50046366664E+00  0.90007712035E+02  0.89999973034E+02 0.  0.
        -12    1    1    2    0    0 -0.97449873399E+00 -0.43928124893E+00 -0.50046366664E+00  0.11802879648E+01  0.00000000000E+00 0.  1.
         11    1    3    3    0    0 -0.42884913732E+01  0.34234459440E+01  0.48478358526E+01  0.73220661773E+01  0.51100000000E-03 0. -1.
        -11    1    3    3    0    0 -0.38490371216E+02 -0.12110746838E+01 -0.53848490331E+01  0.38884083860E+02  0.51100000000E-03 0.  1.
         12    1    3    3    0    0  0.43753361323E+02 -0.17730900113E+01  0.10374768471E+01  0.43801561998E+02  0.00000000000E+00 0. -1.
</event>
<event>
 7    1  0.2385752E-015  0.9000776E+02  0.7816164E-02  0.1186339E+00
        -11   -1    0    0    0    0  0.00000000000E+00  0.00000000000E+00  0.45593999997E+02  0.45594000000E+02  0.51100000000E-03 0. -1.
         11   -1    0    0    0    0 -0.00000000000E+00 -0.00000000000E+00 -0.45593999997E+02  0.45594000000E+02  0.51100000000E-03 0.  1.
    9900012    2    1    2    0    0 -0.63917170016E-02  0.15102304873E+00  0.11705231311E+01  0.90007757137E+02  0.90000018731E+02 0.  0.
        -12    1    1    2    0    0  0.63917170016E-02 -0.15102304873E+00 -0.11705231311E+01  0.11802428631E+01  0.00000000000E+00 0.  1.
         11    1    3    3    0    0 -0.65451529821E+01 -0.25233682522E+02  0.27180152720E+02  0.37660834608E+02  0.51100000000E-03 0. -1.
        -11    1    3    3    0    0  0.10569512365E+02 -0.27100475119E+01  0.34455766068E+01  0.11442506175E+02  0.51100000000E-03 0.  1.
        -12    1    3    3    0    0 -0.40307511000E+01  0.28094753083E+02 -0.29455206196E+02  0.40904416354E+02  0.00000000000E+00 0.  1.
</event>
<event>
 7    1  0.2385752E-015  0.9000779E+02  0.7816164E-02  0.1186339E+00
        -11   -1    0    0    0    0  0.00000000000E+00  0.00000000000E+00  0.45593999997E+02  0.45594000000E+02  0.51100000000E-03 0.  1.
         11   -1    0    0    0    0 -0.00000000000E+00 -0.00000000000E+00 -0.45593999997E+02  0.45594000000E+02  0.51100000000E-03 0. -1.
    9900012    2    1    2    0    0  0.92553228212E+00 -0.72116634495E+00  0.12728640231E+00  0.90007791234E+02  0.90000053279E+02 0.  0.
        -12    1    1    2    0    0 -0.92553228212E+00  0.72116634495E+00 -0.12728640231E+00  0.11802087657E+01  0.00000000000E+00 0.  1.
         11    1    3    3    0    0 -0.28869721739E+01  0.45726792178E+01 -0.52485199480E+01  0.75359780697E+01  0.51100000000E-03 0. -1.
        -11    1    3    3    0    0  0.36991668844E+02  0.18582272042E+02  0.36751748361E+01  0.41559491196E+02  0.51100000000E-03 0.  1.
         12    1    3    3    0    0 -0.33179164388E+02 -0.23876117605E+02  0.17006315142E+01  0.40912321969E+02  0.00000000000E+00 0. -1.
</event>
<event>
 7    1  0.2385752E-015  0.9000783E+02  0.7816164E-02  0.1186339E+00
        -11   -1    0    0    0    0  0.00000000000E+00  0.00000000000E+00  0.45593999997E+02  0.45594000000E+02  0.51100000000E-03 0. -1.
         11   -1    0    0    0    0 -0.00000000000E+00 -0.00000000000E+00 -0.45593999997E+02  0.45594000000E+02  0.51100000000E-03 0.  1.
    9900012    2    1    2    0    0 -0.48648957611E+00  0.16229130979E+00  0.10629121187E+01  0.90007833593E+02  0.90000096196E+02 0.  0.
        -12    1    1    2    0    0  0.48648957611E+00 -0.16229130979E+00 -0.10629121187E+01  0.11801664073E+01  0.00000000000E+00 0.  1.
         11    1    3    3    0    0 -0.48445428913E+00 -0.12435364002E+01  0.11689677236E+02  0.11765612304E+02  0.51100000000E-03 0. -1.
        -11    1    3    3    0    0 -0.19832445362E+02  0.20225075016E+02  0.21861750860E+02  0.35781499401E+02  0.51100000000E-03 0.  1.
         12    1    3    3    0    0  0.19830410075E+02 -0.18819247306E+02 -0.32488515977E+02  0.42460721889E+02  0.00000000000E+00 0. -1.
</event>
<event>
 7    1  0.2385752E-015  0.9000774E+02  0.7816164E-02  0.1186339E+00
        -11   -1    0    0    0    0  0.00000000000E+00  0.00000000000E+00  0.45593999997E+02  0.45594000000E+02  0.51100000000E-03 0.  1.
         11   -1    0    0    0    0 -0.00000000000E+00 -0.00000000000E+00 -0.45593999997E+02  0.45594000000E+02  0.51100000000E-03 0. -1.
    9900012    2    1    2    0    0  0.11258863695E+01 -0.24725729580E+00  0.25349445936E+00  0.90007739127E+02  0.90000000483E+02 0.  0.
        -12    1    1    2    0    0 -0.11258863695E+01  0.24725729580E+00 -0.25349445936E+00  0.11802608730E+01  0.00000000000E+00 0.  1.
         11    1    3    3    0    0  0.63694682130E+01  0.59814309405E+01  0.40088081904E+01  0.96134377192E+01  0.51100000000E-03 0. -1.
        -11    1    3    3    0    0  0.34311218254E+02  0.41596877137E+01 -0.15450500317E+02  0.37858693325E+02  0.51100000000E-03 0.  1.
         12    1    3    3    0    0 -0.39554800098E+02 -0.10388375950E+02  0.11695186586E+02  0.42535608083E+02  0.00000000000E+00 0. -1.
</event>
<event>
 7    1  0.2385752E-015  0.9000768E+02  0.7816164E-02  0.1186339E+00
        -11   -1    0    0    0    0  0.00000000000E+00  0.00000000000E+00  0.45593999997E+02  0.45594000000E+02  0.51100000000E-03 0. -1.
         11   -1    0    0    0    0 -0.00000000000E+00 -0.00000000000E+00 -0.45593999997E+02  0.45594000000E+02  0.51100000000E-03 0.  1.
    9900012    2    1    2    0    0  0.21629831872E+00 -0.11603318678E+01  0.97855315563E-03  0.90007679720E+02  0.89999940292E+02 0.  0.
        -12    1    1    2    0    0 -0.21629831872E+00  0.11603318678E+01 -0.97855315564E-03  0.11803202801E+01  0.00000000000E+00 0.  1.
         11    1    3    3    0    0  0.29525831389E+02  0.10400690215E+02  0.23678583595E+02  0.39250788495E+02  0.51100000000E-03 0. -1.
        -11    1    3    3    0    0 -0.53868759163E+01 -0.46642972707E+01  0.78384816248E+01  0.10593200442E+02  0.51100000000E-03 0.  1.
        -12    1    3    3    0    0 -0.23922657154E+02 -0.68967248123E+01 -0.31516086667E+02  0.40163690782E+02  0.00000000000E+00 0.  1.
</event>
<event>
 7    1  0.2385752E-015  0.9000768E+02  0.7816164E-02  0.1186339E+00
        -11   -1    0    0    0    0  0.00000000000E+00  0.00000000000E+00  0.45593999997E+02  0.45594000000E+02  0.51100000000E-03 0. -1.
         11   -1    0    0    0    0 -0.00000000000E+00 -0.00000000000E+00 -0.45593999997E+02  0.45594000000E+02  0.51100000000E-03 0.  1.
    9900012    2    1    2    0    0  0.61520871667E-01 -0.70197599250E+00  0.94688356560E+00  0.90007684958E+02  0.89999945599E+02 0.  0.
        -12    1    1    2    0    0 -0.61520871667E-01  0.70197599250E+00 -0.94688356560E+00  0.11803150421E+01  0.00000000000E+00 0.  1.
         11    1    3    3    0    0  0.75881236654E+00  0.19480602157E+02  0.32023973674E+02  0.37491392969E+02  0.51100000000E-03 0. -1.
        -11    1    3    3    0    0  0.91742801541E+00  0.53803765988E+01  0.55744374536E+01  0.78015690533E+01  0.51100000000E-03 0.  1.
        -12    1    3    3    0    0 -0.16147195103E+01 -0.25562954748E+02 -0.36651527562E+02  0.44714722936E+02  0.00000000000E+00 0.  1.
</event>
