<event>
 7    1  0.2476315E-009  0.4778727E+02  0.7816164E-02  0.1312668E+00
        -11   -1    0    0    0    0  0.00000000000E+00  0.00000000000E+00  0.45593999997E+02  0.45594000000E+02  0.51100000000E-03 0.  1.
         11   -1    0    0    0    0 -0.00000000000E+00 -0.00000000000E+00 -0.45593999997E+02  0.45594000000E+02  0.51100000000E-03 0. -1.
    9900012    2    1    2    0    0 -0.25730986623E+02  0.32730978388E+02 -0.12256532681E+02  0.47787271755E+02  0.20000003239E+02 0.  0.
         12    1    1    2    0    0  0.25730986623E+02 -0.32730978388E+02  0.12256532681E+02  0.43400728245E+02  0.00000000000E+00 0. -1.
         11    1    3    3    0    0 -0.15779055052E+02  0.26585520184E+02 -0.14001678113E+02  0.33938406739E+02  0.51100000000E-03 0. -1.
        -11    1    3    3    0    0 -0.10390412513E+02  0.67547885201E+01  0.51007852419E+00  0.12403548706E+02  0.51100000000E-03 0.  1.
         12    1    3    3    0    0  0.43848094136E+00 -0.60933031569E+00  0.12350669075E+01  0.14453163098E+01  0.00000000000E+00 0. -1.
</event>
<event>
 7    1  0.2476315E-009  0.4778727E+02  0.7816164E-02  0.1312668E+00
        -11   -1    0    0    0    0  0.00000000000E+00  0.00000000000E+00  0.45593999997E+02  0.45594000000E+02  0.51100000000E-03 0.  1.
         11   -1    0    0    0    0 -0.00000000000E+00 -0.00000000000E+00 -0.45593999997E+02  0.45594000000E+02  0.51100000000E-03 0. -1.
    9900012    2    1    2    0    0  0.10163987263E+02  0.37514634355E+02  0.19312409479E+02  0.47787267428E+02  0.19999983511E+02 0.  0.
         12    1    1    2    0    0 -0.10163987263E+02 -0.37514634355E+02 -0.19312409479E+02  0.43400732572E+02  0.00000000000E+00 0. -1.
         11    1    3    3    0    0  0.12244086923E+02  0.28232420833E+02  0.15849833443E+02  0.34615090222E+02  0.51100000000E-03 0. -1.
        -11    1    3    3    0    0 -0.29477573969E+01  0.43287449695E-01  0.24580621937E+01  0.38383873545E+01  0.51100000000E-03 0.  1.
         12    1    3    3    0    0  0.86765773732E+00  0.92389260731E+01  0.10045138426E+01  0.93337898516E+01  0.00000000000E+00 0. -1.
</event>
<event>
 7    1  0.2476315E-009  0.4778727E+02  0.7816164E-02  0.1312668E+00
        -11   -1    0    0    0    0  0.00000000000E+00  0.00000000000E+00  0.45593999997E+02  0.45594000000E+02  0.51100000000E-03 0.  1.
         11   -1    0    0    0    0 -0.00000000000E+00 -0.00000000000E+00 -0.45593999997E+02  0.45594000000E+02  0.51100000000E-03 0. -1.
    9900012    2    1    2    0    0 -0.83849755259E+01 -0.22687593898E+02  0.36035938696E+02  0.47787267182E+02  0.19999982389E+02 0.  0.
         12    1    1    2    0    0  0.83849755259E+01  0.22687593898E+02 -0.36035938696E+02  0.43400732818E+02  0.00000000000E+00 0. -1.
         11    1    3    3    0    0  0.21156583811E+01  0.18294325214E+01  0.31724700050E+01  0.42293498235E+01  0.51100000000E-03 0. -1.
        -11    1    3    3    0    0 -0.10991750571E+02 -0.13909400060E+02  0.23216655884E+02  0.29211352268E+02  0.51100000000E-03 0.  1.
        -12    1    3    3    0    0  0.49111666384E+00 -0.10607626359E+02  0.96468128077E+01  0.14346565091E+02  0.00000000000E+00 0.  1.
</event>
<event>
 7    1  0.2476315E-009  0.4778727E+02  0.7816164E-02  0.1312668E+00
        -11   -1    0    0    0    0  0.00000000000E+00  0.00000000000E+00  0.45593999997E+02  0.45594000000E+02  0.51100000000E-03 0. -1.
         11   -1    0    0    0    0 -0.00000000000E+00 -0.00000000000E+00 -0.45593999997E+02  0.45594000000E+02  0.51100000000E-03 0.  1.
    9900012    2    1    2    0    0  0.40010005767E+02 -0.15311488196E+02  0.69556332324E+01  0.47787273441E+02  0.20000010926E+02 0.  0.
         12    1    1    2    0    0 -0.40010005767E+02  0.15311488196E+02 -0.69556332324E+01  0.43400726559E+02  0.00000000000E+00 0. -1.
         11    1    3    3    0    0  0.22638080173E+02 -0.17117586822E+02 -0.11745934819E+01  0.28405529790E+02  0.51100000000E-03 0. -1.
        -11    1    3    3    0    0  0.99637226448E+01  0.17795747580E+01  0.55083492703E+01  0.11523218613E+02  0.51100000000E-03 0.  1.
        -12    1    3    3    0    0  0.74082029485E+01  0.26523867927E-01  0.26218774440E+01  0.78585250380E+01  0.00000000000E+00 0.  1.
</event>
<event>
 7    1  0.2476315E-009  0.4778726E+02  0.7816164E-02  0.1312668E+00
        -11   -1    0    0    0    0  0.00000000000E+00  0.00000000000E+00  0.45593999997E+02  0.45594000000E+02  0.51100000000E-03 0.  1.
         11   -1    0    0    0    0 -0.00000000000E+00 -0.00000000000E+00 -0.45593999997E+02  0.45594000000E+02  0.51100000000E-03 0. -1.
    9900012    2    1    2    0    0  0.62208544884E+01  0.42395215474E+02  0.68971371187E+01  0.47787264682E+02  0.19999970993E+02 0.  0.
         12    1    1    2    0    0 -0.62208544884E+01 -0.42395215474E+02 -0.68971371187E+01  0.43400735318E+02  0.00000000000E+00 0. -1.
         11    1    3    3    0    0  0.37617728430E+01  0.26345434328E+01  0.13033939319E+01  0.47739491016E+01  0.51100000000E-03 0. -1.
        -11    1    3    3    0    0 -0.46263080539E+01  0.14073399868E+02 -0.27988029278E+01  0.15076359247E+02  0.51100000000E-03 0.  1.
        -12    1    3    3    0    0  0.70853896993E+01  0.25687272173E+02  0.83925461145E+01  0.27936956333E+02  0.00000000000E+00 0.  1.
</event>
<event>
 7    1  0.2476315E-009  0.4778727E+02  0.7816164E-02  0.1312668E+00
        -11   -1    0    0    0    0  0.00000000000E+00  0.00000000000E+00  0.45593999997E+02  0.45594000000E+02  0.51100000000E-03 0.  1.
         11   -1    0    0    0    0 -0.00000000000E+00 -0.00000000000E+00 -0.45593999997E+02  0.45594000000E+02  0.51100000000E-03 0. -1.
    9900012    2    1    2    0    0 -0.13750727077E+02  0.74972051761E+01  0.40476323576E+02  0.47787270158E+02  0.19999995957E+02 0.  0.
         12    1    1    2    0    0  0.13750727077E+02 -0.74972051761E+01 -0.40476323576E+02  0.43400729842E+02  0.00000000000E+00 0. -1.
         11    1    3    3    0    0 -0.48358550086E+01  0.13037079168E+02  0.24331773016E+02  0.28024740949E+02  0.51100000000E-03 0. -1.
        -11    1    3    3    0    0 -0.49547654858E+01 -0.37565656622E+01  0.56366555387E+01  0.83924592651E+01  0.51100000000E-03 0.  1.
        -12    1    3    3    0    0 -0.39601065829E+01 -0.17833083294E+01  0.10507895021E+02  0.11370069943E+02  0.00000000000E+00 0.  1.
</event>
<event>
 7    1  0.2476315E-009  0.4778726E+02  0.7816164E-02  0.1312668E+00
        -11   -1    0    0    0    0  0.00000000000E+00  0.00000000000E+00  0.45593999997E+02  0.45594000000E+02  0.51100000000E-03 0. -1.
         11   -1    0    0    0    0 -0.00000000000E+00 -0.00000000000E+00 -0.45593999997E+02  0.45594000000E+02  0.51100000000E-03 0.  1.
    9900012    2    1    2    0    0 -0.41053892551E+02  0.13744009809E+02  0.30502299559E+01  0.47787264960E+02  0.19999972260E+02 0.  0.
         12    1    1    2    0    0  0.41053892551E+02 -0.13744009809E+02 -0.30502299559E+01  0.43400735040E+02  0.00000000000E+00 0. -1.
         11    1    3    3    0    0 -0.49931342436E+01  0.17529950670E+01 -0.45973632161E+01  0.70100021456E+01  0.51100000000E-03 0. -1.
        -11    1    3    3    0    0 -0.24954012846E+02  0.25874301331E+01  0.76366810918E+01  0.26224348422E+02  0.51100000000E-03 0.  1.
        -12    1    3    3    0    0 -0.11106745462E+02  0.94035846094E+01  0.10912080200E-01  0.14552914393E+02  0.00000000000E+00 0.  1.
</event>
<event>
 7    1  0.2476315E-009  0.4778727E+02  0.7816164E-02  0.1312668E+00
        -11   -1    0    0    0    0  0.00000000000E+00  0.00000000000E+00  0.45593999997E+02  0.45594000000E+02  0.51100000000E-03 0.  1.
         11   -1    0    0    0    0 -0.00000000000E+00 -0.00000000000E+00 -0.45593999997E+02  0.45594000000E+02  0.51100000000E-03 0. -1.
    9900012    2    1    2    0    0  0.31744082119E+01 -0.20845480879E+02  0.37934315784E+02  0.47787271267E+02  0.20000001016E+02 0.  0.
         12    1    1    2    0    0 -0.31744082119E+01  0.20845480879E+02 -0.37934315784E+02  0.43400728733E+02  0.00000000000E+00 0. -1.
         11    1    3    3    0    0  0.90425795480E+01 -0.36229896790E+01  0.13142643556E+02  0.16359198605E+02  0.51100000000E-03 0. -1.
        -11    1    3    3    0    0 -0.40415830718E+01 -0.14383287711E+02  0.15437141949E+02  0.21482986545E+02  0.51100000000E-03 0.  1.
         12    1    3    3    0    0 -0.18265882643E+01 -0.28392034891E+01  0.93545302788E+01  0.99450861171E+01  0.00000000000E+00 0. -1.
</event>
<event>
 7    1  0.2476315E-009  0.4778727E+02  0.7816164E-02  0.1312668E+00
        -11   -1    0    0    0    0  0.00000000000E+00  0.00000000000E+00  0.45593999997E+02  0.45594000000E+02  0.51100000000E-03 0. -1.
         11   -1    0    0    0    0 -0.00000000000E+00 -0.00000000000E+00 -0.45593999997E+02  0.45594000000E+02  0.51100000000E-03 0.  1.
    9900012    2    1    2    0    0 -0.17832677036E+02  0.37452981748E+02 -0.12762945243E+02  0.47787274391E+02  0.20000015260E+02 0.  0.
         12    1    1    2    0    0  0.17832677036E+02 -0.37452981748E+02  0.12762945243E+02  0.43400725609E+02  0.00000000000E+00 0. -1.
         11    1    3    3    0    0 -0.12576335662E+01  0.61948089010E+01  0.32587428987E+01  0.71117301023E+01  0.51100000000E-03 0. -1.
        -11    1    3    3    0    0 -0.17258857282E+02  0.23297966239E+02 -0.14928096790E+02  0.32611523417E+02  0.51100000000E-03 0.  1.
        -12    1    3    3    0    0  0.68381381263E+00  0.79602066084E+01 -0.10935913520E+01  0.80640208720E+01  0.00000000000E+00 0.  1.
</event>
<event>
 7    1  0.2476315E-009  0.4778727E+02  0.7816164E-02  0.1312668E+00
        -11   -1    0    0    0    0  0.00000000000E+00  0.00000000000E+00  0.45593999997E+02  0.45594000000E+02  0.51100000000E-03 0. -1.
         11   -1    0    0    0    0 -0.00000000000E+00 -0.00000000000E+00 -0.45593999997E+02  0.45594000000E+02  0.51100000000E-03 0.  1.
    9900012    2    1    2    0    0  0.18310247077E+02 -0.25536961355E+02 -0.29936959560E+02  0.47787273151E+02  0.20000009606E+02 0.  0.
         12    1    1    2    0    0 -0.18310247077E+02  0.25536961355E+02  0.29936959560E+02  0.43400726849E+02  0.00000000000E+00 0. -1.
         11    1    3    3    0    0  0.10669401722E+02 -0.76304484295E+01 -0.21742413763E+02  0.25392763395E+02  0.51100000000E-03 0. -1.
        -11    1    3    3    0    0  0.83733899017E+01 -0.11040733606E+02 -0.63817427500E+01  0.15255756218E+02  0.51100000000E-03 0.  1.
         12    1    3    3    0    0 -0.73254454665E+00 -0.68657793202E+01 -0.18128030468E+01  0.71387535378E+01  0.00000000000E+00 0. -1.
</event>
<event>
 7    1  0.2476315E-009  0.4778727E+02  0.7816164E-02  0.1312668E+00
        -11   -1    0    0    0    0  0.00000000000E+00  0.00000000000E+00  0.45593999997E+02  0.45594000000E+02  0.51100000000E-03 0.  1.
         11   -1    0    0    0    0 -0.00000000000E+00 -0.00000000000E+00 -0.45593999997E+02  0.45594000000E+02  0.51100000000E-03 0. -1.
    9900012    2    1    2    0    0 -0.24417743663E+02  0.30170054625E+02  0.19420734926E+02  0.47787270205E+02  0.19999996171E+02 0.  0.
         12    1    1    2    0    0  0.24417743663E+02 -0.30170054625E+02 -0.19420734926E+02  0.43400729795E+02  0.00000000000E+00 0. -1.
         11    1    3    3    0    0  0.95593789562E+00  0.19919931410E+01  0.29176134975E+00  0.22286719993E+01  0.51100000000E-03 0. -1.
        -11    1    3    3    0    0 -0.98773901160E+01  0.13815872877E+01  0.75511813362E+01  0.12509674607E+02  0.51100000000E-03 0.  1.
        -12    1    3    3    0    0 -0.15496291443E+02  0.26796474196E+02  0.11577792240E+02  0.33048923598E+02  0.00000000000E+00 0.  1.
</event>
<event>
 7    1  0.2476315E-009  0.4778727E+02  0.7816164E-02  0.1312668E+00
        -11   -1    0    0    0    0  0.00000000000E+00  0.00000000000E+00  0.45593999997E+02  0.45594000000E+02  0.51100000000E-03 0.  1.
         11   -1    0    0    0    0 -0.00000000000E+00 -0.00000000000E+00 -0.45593999997E+02  0.45594000000E+02  0.51100000000E-03 0. -1.
    9900012    2    1    2    0    0 -0.25683938090E+02 -0.59446584942E+01  0.34476364628E+02  0.47787270071E+02  0.19999995560E+02 0.  0.
         12    1    1    2    0    0  0.25683938090E+02  0.59446584942E+01 -0.34476364628E+02  0.43400729929E+02  0.00000000000E+00 0. -1.
         11    1    3    3    0    0 -0.11530049265E+02 -0.25607135612E+01  0.67375577463E+01  0.13597572380E+02  0.51100000000E-03 0. -1.
        -11    1    3    3    0    0 -0.97513261701E+00 -0.61962730847E+01  0.11391326485E+02  0.13004114853E+02  0.51100000000E-03 0.  1.
        -12    1    3    3    0    0 -0.13178756208E+02  0.28123281518E+01  0.16347480397E+02  0.21185582837E+02  0.00000000000E+00 0.  1.
</event>
<event>
 7    1  0.2476315E-009  0.4778727E+02  0.7816164E-02  0.1312668E+00
        -11   -1    0    0    0    0  0.00000000000E+00  0.00000000000E+00  0.45593999997E+02  0.45594000000E+02  0.51100000000E-03 0.  1.
         11   -1    0    0    0    0 -0.00000000000E+00 -0.00000000000E+00 -0.45593999997E+02  0.45594000000E+02  0.51100000000E-03 0. -1.
    9900012    2    1    2    0    0  0.40223737414E+02 -0.84758400126E+01  0.13922446193E+02  0.47787269321E+02  0.19999992142E+02 0.  0.
         12    1    1    2    0    0 -0.40223737414E+02  0.84758400126E+01 -0.13922446193E+02  0.43400730679E+02  0.00000000000E+00 0. -1.
         11    1    3    3    0    0  0.19530915702E+01  0.30489589024E+01 -0.21363888829E+00  0.36271695447E+01  0.51100000000E-03 0. -1.
        -11    1    3    3    0    0  0.38245649677E+02 -0.10792146453E+02  0.15465073104E+02  0.42642333786E+02  0.51100000000E-03 0.  1.
        -12    1    3    3    0    0  0.24996166406E-01 -0.73265246207E+00 -0.13289880226E+01  0.15177659908E+01  0.00000000000E+00 0.  1.
</event>
<event>
 7    1  0.2476315E-009  0.4778727E+02  0.7816164E-02  0.1312668E+00
        -11   -1    0    0    0    0  0.00000000000E+00  0.00000000000E+00  0.45593999997E+02  0.45594000000E+02  0.51100000000E-03 0.  1.
         11   -1    0    0    0    0 -0.00000000000E+00 -0.00000000000E+00 -0.45593999997E+02  0.45594000000E+02  0.51100000000E-03 0. -1.
    9900012    2    1    2    0    0  0.99202829340E+01 -0.14272644535E+02  0.39768113678E+02  0.47787271193E+02  0.20000000676E+02 0.  0.
         12    1    1    2    0    0 -0.99202829340E+01  0.14272644535E+02 -0.39768113678E+02  0.43400728807E+02  0.00000000000E+00 0. -1.
         11    1    3    3    0    0 -0.22292744745E+01  0.14687105158E+01  0.57783032230E+01  0.63651837098E+01  0.51100000000E-03 0. -1.
        -11    1    3    3    0    0  0.92629351830E+01 -0.12144817786E+02  0.13389843828E+02  0.20312225020E+02  0.51100000000E-03 0.  1.
        -12    1    3    3    0    0  0.28866222255E+01 -0.35965372646E+01  0.20599966627E+02  0.21109862463E+02  0.00000000000E+00 0.  1.
</event>
<event>
 7    1  0.2476315E-009  0.4778727E+02  0.7816164E-02  0.1312668E+00
        -11   -1    0    0    0    0  0.00000000000E+00  0.00000000000E+00  0.45593999997E+02  0.45594000000E+02  0.51100000000E-03 0.  1.
         11   -1    0    0    0    0 -0.00000000000E+00 -0.00000000000E+00 -0.45593999997E+02  0.45594000000E+02  0.51100000000E-03 0. -1.
    9900012    2    1    2    0    0  0.38459903165E+02 -0.32155226399E+01  0.19852440901E+02  0.47787272506E+02  0.20000006662E+02 0.  0.
         12    1    1    2    0    0 -0.38459903165E+02  0.32155226399E+01 -0.19852440901E+02  0.43400727494E+02  0.00000000000E+00 0. -1.
         11    1    3    3    0    0  0.24240107639E+02 -0.17132424103E+01  0.38183800299E+01  0.24598740704E+02  0.51100000000E-03 0. -1.
        -11    1    3    3    0    0 -0.42986062878E+00 -0.49745034618E+00  0.44146590556E+01  0.44633453648E+01  0.51100000000E-03 0.  1.
        -12    1    3    3    0    0  0.14649656155E+02 -0.10048298834E+01  0.11619401815E+02  0.18725186437E+02  0.00000000000E+00 0.  1.
</event>
<event>
 7    1  0.2476315E-009  0.4778727E+02  0.7816164E-02  0.1312668E+00
        -11   -1    0    0    0    0  0.00000000000E+00  0.00000000000E+00  0.45593999997E+02  0.45594000000E+02  0.51100000000E-03 0.  1.
         11   -1    0    0    0    0 -0.00000000000E+00 -0.00000000000E+00 -0.45593999997E+02  0.45594000000E+02  0.51100000000E-03 0. -1.
    9900012    2    1    2    0    0  0.23067604606E+02  0.27740582930E+02  0.24124041840E+02  0.47787265925E+02  0.19999976657E+02 0.  0.
         12    1    1    2    0    0 -0.23067604606E+02 -0.27740582930E+02 -0.24124041840E+02  0.43400734075E+02  0.00000000000E+00 0. -1.
         11    1    3    3    0    0  0.15045037865E+02  0.15157084190E+02  0.39112958480E+01  0.21711485463E+02  0.51100000000E-03 0. -1.
        -11    1    3    3    0    0 -0.54118690089E+00  0.11276596320E+01  0.51679740188E+01  0.53171848969E+01  0.51100000000E-03 0.  1.
         12    1    3    3    0    0  0.85637536416E+01  0.11455839108E+02  0.15044771974E+02  0.20758595565E+02  0.00000000000E+00 0. -1.
</event>
<event>
 7    1  0.2476315E-009  0.4778727E+02  0.7816164E-02  0.1312668E+00
        -11   -1    0    0    0    0  0.00000000000E+00  0.00000000000E+00  0.45593999997E+02  0.45594000000E+02  0.51100000000E-03 0. -1.
         11   -1    0    0    0    0 -0.00000000000E+00 -0.00000000000E+00 -0.45593999997E+02  0.45594000000E+02  0.51100000000E-03 0.  1.
    9900012    2    1    2    0    0 -0.32074760888E+02 -0.35685879941E+01 -0.29018927030E+02  0.47787271524E+02  0.20000002186E+02 0.  0.
         12    1    1    2    0    0  0.32074760888E+02  0.35685879941E+01  0.29018927030E+02  0.43400728476E+02  0.00000000000E+00 0. -1.
         11    1    3    3    0    0 -0.22853372891E+01 -0.39455985151E+01 -0.10844402622E+02  0.11763995183E+02  0.51100000000E-03 0. -1.
        -11    1    3    3    0    0 -0.21065086421E+02  0.43602412696E+01 -0.12632274976E+02  0.24946421410E+02  0.51100000000E-03 0.  1.
        -12    1    3    3    0    0 -0.87243371781E+01 -0.39832307486E+01 -0.55422494312E+01  0.11076854931E+02  0.00000000000E+00 0.  1.
</event>
<event>
 7    1  0.2476315E-009  0.4778727E+02  0.7816164E-02  0.1312668E+00
        -11   -1    0    0    0    0  0.00000000000E+00  0.00000000000E+00  0.45593999997E+02  0.45594000000E+02  0.51100000000E-03 0.  1.
         11   -1    0    0    0    0 -0.00000000000E+00 -0.00000000000E+00 -0.45593999997E+02  0.45594000000E+02  0.51100000000E-03 0. -1.
    9900012    2    1    2    0    0  0.88264788057E+01 -0.42475599756E+02 -0.12410492355E+01  0.47787268371E+02  0.19999987812E+02 0.  0.
         12    1    1    2    0    0 -0.88264788057E+01  0.42475599756E+02  0.12410492355E+01  0.43400731629E+02  0.00000000000E+00 0. -1.
         11    1    3    3    0    0 -0.11118892138E+00 -0.19424226342E+01 -0.14947277554E+01  0.24534832361E+01  0.51100000000E-03 0. -1.
        -11    1    3    3    0    0 -0.19441357698E+01 -0.97007570863E-01  0.27676214117E+01  0.33836079707E+01  0.51100000000E-03 0.  1.
        -12    1    3    3    0    0  0.10881803497E+02 -0.40436169551E+02 -0.25139428918E+01  0.41950177164E+02  0.00000000000E+00 0.  1.
</event>
<event>
 7    1  0.2476315E-009  0.4778727E+02  0.7816164E-02  0.1312668E+00
        -11   -1    0    0    0    0  0.00000000000E+00  0.00000000000E+00  0.45593999997E+02  0.45594000000E+02  0.51100000000E-03 0. -1.
         11   -1    0    0    0    0 -0.00000000000E+00 -0.00000000000E+00 -0.45593999997E+02  0.45594000000E+02  0.51100000000E-03 0.  1.
    9900012    2    1    2    0    0 -0.30940546545E+02  0.95304789077E+01 -0.28904606371E+02  0.47787265926E+02  0.19999976661E+02 0.  0.
         12    1    1    2    0    0  0.30940546545E+02 -0.95304789077E+01  0.28904606371E+02  0.43400734074E+02  0.00000000000E+00 0. -1.
         11    1    3    3    0    0 -0.24428857438E+02  0.15287345750E+02 -0.24600398471E+02  0.37889993679E+02  0.51100000000E-03 0. -1.
        -11    1    3    3    0    0 -0.36609679433E+01 -0.35846680360E+01 -0.35538273040E+01  0.62355609193E+01  0.51100000000E-03 0.  1.
         12    1    3    3    0    0 -0.28507211640E+01 -0.21721988059E+01 -0.75038059600E+00  0.36617113275E+01  0.00000000000E+00 0. -1.
</event>
<event>
 7    1  0.2476315E-009  0.4778726E+02  0.7816164E-02  0.1312668E+00
        -11   -1    0    0    0    0  0.00000000000E+00  0.00000000000E+00  0.45593999997E+02  0.45594000000E+02  0.51100000000E-03 0.  1.
         11   -1    0    0    0    0 -0.00000000000E+00 -0.00000000000E+00 -0.45593999997E+02  0.45594000000E+02  0.51100000000E-03 0. -1.
    9900012    2    1    2    0    0 -0.35471607659E+02  0.14481733351E+02  0.20387954098E+02  0.47787260109E+02  0.19999950140E+02 0.  0.
         12    1    1    2    0    0  0.35471607659E+02 -0.14481733351E+02 -0.20387954098E+02  0.43400739891E+02  0.00000000000E+00 0. -1.
         11    1    3    3    0    0 -0.21408002386E+02  0.45808125944E+01  0.15623616278E+02  0.26895795137E+02  0.51100000000E-03 0.  1.
        -11    1    3    3    0    0 -0.98945283477E+01  0.38025133697E+01 -0.21013941899E+01  0.10806324859E+02  0.51100000000E-03 0. -1.
        -12    1    3    3    0    0 -0.41690769253E+01  0.60984073869E+01  0.68657320095E+01  0.10085140113E+02  0.00000000000E+00 0.  1.
</event>
<event>
 7    1  0.2476315E-009  0.4778726E+02  0.7816164E-02  0.1312668E+00
        -11   -1    0    0    0    0  0.00000000000E+00  0.00000000000E+00  0.45593999997E+02  0.45594000000E+02  0.51100000000E-03 0.  1.
         11   -1    0    0    0    0 -0.00000000000E+00 -0.00000000000E+00 -0.45593999997E+02  0.45594000000E+02  0.51100000000E-03 0. -1.
    9900012    2    1    2    0    0  0.35190744257E+02 -0.17815946634E+02  0.18106013860E+02  0.47787260677E+02  0.19999952733E+02 0.  0.
         12    1    1    2    0    0 -0.35190744257E+02  0.17815946634E+02 -0.18106013860E+02  0.43400739323E+02  0.00000000000E+00 0. -1.
         11    1    3    3    0    0 -0.72302711996E+00 -0.21369818579E+01  0.41473035197E+01  0.47211848537E+01  0.51100000000E-03 0. -1.
        -11    1    3    3    0    0  0.31563219821E+02 -0.17041469033E+02  0.10599393858E+02  0.37403150438E+02  0.51100000000E-03 0.  1.
        -12    1    3    3    0    0  0.43505515557E+01  0.13625042570E+01  0.33593164831E+01  0.56629253856E+01  0.00000000000E+00 0.  1.
</event>
<event>
 7    1  0.2476315E-009  0.4778727E+02  0.7816164E-02  0.1312668E+00
        -11   -1    0    0    0    0  0.00000000000E+00  0.00000000000E+00  0.45593999997E+02  0.45594000000E+02  0.51100000000E-03 0.  1.
         11   -1    0    0    0    0 -0.00000000000E+00 -0.00000000000E+00 -0.45593999997E+02  0.45594000000E+02  0.51100000000E-03 0. -1.
    9900012    2    1    2    0    0  0.98735697037E+01 -0.11959414332E+02  0.40535269898E+02  0.47787273330E+02  0.20000010419E+02 0.  0.
         12    1    1    2    0    0 -0.98735697037E+01  0.11959414332E+02 -0.40535269898E+02  0.43400726670E+02  0.00000000000E+00 0. -1.
         11    1    3    3    0    0 -0.51943142216E+01 -0.79766365109E+00  0.64429873459E+01  0.83144003832E+01  0.51100000000E-03 0. -1.
        -11    1    3    3    0    0  0.12792527964E+02 -0.57637496715E+01  0.23592059873E+02  0.27449132432E+02  0.51100000000E-03 0.  1.
         12    1    3    3    0    0  0.22753559617E+01 -0.53980010091E+01  0.10500222679E+02  0.12023740514E+02  0.00000000000E+00 0. -1.
</event>
<event>
 7    1  0.2476315E-009  0.4778727E+02  0.7816164E-02  0.1312668E+00
        -11   -1    0    0    0    0  0.00000000000E+00  0.00000000000E+00  0.45593999997E+02  0.45594000000E+02  0.51100000000E-03 0.  1.
         11   -1    0    0    0    0 -0.00000000000E+00 -0.00000000000E+00 -0.45593999997E+02  0.45594000000E+02  0.51100000000E-03 0. -1.
    9900012    2    1    2    0    0  0.34086357049E+02  0.22336227098E+00  0.26864355167E+02  0.47787271825E+02  0.20000003561E+02 0.  0.
         12    1    1    2    0    0 -0.34086357049E+02 -0.22336227098E+00 -0.26864355167E+02  0.43400728175E+02  0.00000000000E+00 0. -1.
         11    1    3    3    0    0  0.23024159320E+02 -0.11659348123E+01  0.80619540934E+01  0.24422662027E+02  0.51100000000E-03 0. -1.
        -11    1    3    3    0    0  0.49202864314E+01  0.16196119500E+01  0.15593022675E+02  0.16430907395E+02  0.51100000000E-03 0.  1.
        -12    1    3    3    0    0  0.61419112971E+01 -0.23031486675E+00  0.32093783985E+01  0.69337024037E+01  0.00000000000E+00 0.  1.
</event>
<event>
 7    1  0.2476315E-009  0.4778728E+02  0.7816164E-02  0.1312668E+00
        -11   -1    0    0    0    0  0.00000000000E+00  0.00000000000E+00  0.45593999997E+02  0.45594000000E+02  0.51100000000E-03 0. -1.
         11   -1    0    0    0    0 -0.00000000000E+00 -0.00000000000E+00 -0.45593999997E+02  0.45594000000E+02  0.51100000000E-03 0.  1.
    9900012    2    1    2    0    0  0.20552621602E+02  0.27261985051E+02 -0.26795456754E+02  0.47787278966E+02  0.20000036118E+02 0.  0.
         12    1    1    2    0    0 -0.20552621602E+02 -0.27261985051E+02  0.26795456754E+02  0.43400721034E+02  0.00000000000E+00 0. -1.
         11    1    3    3    0    0 -0.13164854273E+01  0.36985701290E+01 -0.86201196439E+01  0.94720123424E+01  0.51100000000E-03 0. -1.
        -11    1    3    3    0    0  0.10980773090E+02  0.77586977833E+01 -0.28238548087E+01  0.13738592547E+02  0.51100000000E-03 0.  1.
         12    1    3    3    0    0  0.10888333939E+02  0.15804717139E+02 -0.15351482301E+02  0.24576674076E+02  0.00000000000E+00 0. -1.
</event>
<event>
 7    1  0.2476315E-009  0.4778728E+02  0.7816164E-02  0.1312668E+00
        -11   -1    0    0    0    0  0.00000000000E+00  0.00000000000E+00  0.45593999997E+02  0.45594000000E+02  0.51100000000E-03 0.  1.
         11   -1    0    0    0    0 -0.00000000000E+00 -0.00000000000E+00 -0.45593999997E+02  0.45594000000E+02  0.51100000000E-03 0. -1.
    9900012    2    1    2    0    0 -0.42533653164E+02  0.48722004703E+01 -0.71255013898E+01  0.47787276977E+02  0.20000027047E+02 0.  0.
         12    1    1    2    0    0  0.42533653164E+02 -0.48722004703E+01  0.71255013898E+01  0.43400723023E+02  0.00000000000E+00 0. -1.
         11    1    3    3    0    0 -0.30821949954E+01  0.26736950632E+01 -0.50550779024E+01  0.64963362091E+01  0.51100000000E-03 0. -1.
        -11    1    3    3    0    0 -0.33157064855E+02  0.15147387474E+01  0.27905000666E+01  0.33308741708E+02  0.51100000000E-03 0.  1.
        -12    1    3    3    0    0 -0.62943933137E+01  0.68376665966E+00 -0.48609235540E+01  0.79821990597E+01  0.00000000000E+00 0.  1.
</event>
<event>
 7    1  0.2476315E-009  0.4778727E+02  0.7816164E-02  0.1312668E+00
        -11   -1    0    0    0    0  0.00000000000E+00  0.00000000000E+00  0.45593999997E+02  0.45594000000E+02  0.51100000000E-03 0.  1.
         11   -1    0    0    0    0 -0.00000000000E+00 -0.00000000000E+00 -0.45593999997E+02  0.45594000000E+02  0.51100000000E-03 0. -1.
    9900012    2    1    2    0    0  0.27798897681E+02 -0.33299582013E+02  0.14079069688E+01  0.47787273317E+02  0.20000010363E+02 0.  0.
         12    1    1    2    0    0 -0.27798897681E+02  0.33299582013E+02 -0.14079069688E+01  0.43400726683E+02  0.00000000000E+00 0. -1.
         11    1    3    3    0    0 -0.23566421687E+01 -0.40428162413E+01  0.23941184497E+01  0.52564178758E+01  0.51100000000E-03 0. -1.
        -11    1    3    3    0    0  0.10789802694E+02 -0.12926511413E+02  0.22709270840E+01  0.16990339889E+02  0.51100000000E-03 0.  1.
         12    1    3    3    0    0  0.19365737156E+02 -0.16330254359E+02 -0.32571385649E+01  0.25540515552E+02  0.00000000000E+00 0. -1.
</event>
<event>
 7    1  0.2476315E-009  0.4778727E+02  0.7816164E-02  0.1312668E+00
        -11   -1    0    0    0    0  0.00000000000E+00  0.00000000000E+00  0.45593999997E+02  0.45594000000E+02  0.51100000000E-03 0.  1.
         11   -1    0    0    0    0 -0.00000000000E+00 -0.00000000000E+00 -0.45593999997E+02  0.45594000000E+02  0.51100000000E-03 0. -1.
    9900012    2    1    2    0    0  0.13082455834E+02 -0.10145319713E+02  0.40119137395E+02  0.47787270190E+02  0.19999996104E+02 0.  0.
         12    1    1    2    0    0 -0.13082455834E+02  0.10145319713E+02 -0.40119137395E+02  0.43400729810E+02  0.00000000000E+00 0. -1.
         11    1    3    3    0    0  0.50143132118E+01 -0.14770134555E+01  0.11136757783E+01  0.53446402811E+01  0.51100000000E-03 0. -1.
        -11    1    3    3    0    0  0.54434976283E+01 -0.73349404918E+01  0.38355091847E+02  0.39427732490E+02  0.51100000000E-03 0.  1.
        -12    1    3    3    0    0  0.26246449935E+01 -0.13333657662E+01  0.65036976937E+00  0.30148974187E+01  0.00000000000E+00 0.  1.
</event>
<event>
 7    1  0.2476315E-009  0.4778728E+02  0.7816164E-02  0.1312668E+00
        -11   -1    0    0    0    0  0.00000000000E+00  0.00000000000E+00  0.45593999997E+02  0.45594000000E+02  0.51100000000E-03 0.  1.
         11   -1    0    0    0    0 -0.00000000000E+00 -0.00000000000E+00 -0.45593999997E+02  0.45594000000E+02  0.51100000000E-03 0. -1.
    9900012    2    1    2    0    0  0.39006555142E+02 -0.70353012373E+01  0.17680951800E+02  0.47787275765E+02  0.20000021524E+02 0.  0.
         12    1    1    2    0    0 -0.39006555142E+02  0.70353012373E+01 -0.17680951800E+02  0.43400724235E+02  0.00000000000E+00 0. -1.
         11    1    3    3    0    0  0.27405916103E+02 -0.13037596733E+01  0.15986999759E+02  0.31754813624E+02  0.51100000000E-03 0. -1.
        -11    1    3    3    0    0 -0.14695337522E+01 -0.17261068606E+01  0.39043181502E+00  0.23003068505E+01  0.51100000000E-03 0.  1.
        -12    1    3    3    0    0  0.13070172791E+02 -0.40054347034E+01  0.13035202261E+01  0.13732155291E+02  0.00000000000E+00 0.  1.
</event>
<event>
 7    1  0.2476315E-009  0.4778727E+02  0.7816164E-02  0.1312668E+00
        -11   -1    0    0    0    0  0.00000000000E+00  0.00000000000E+00  0.45593999997E+02  0.45594000000E+02  0.51100000000E-03 0.  1.
         11   -1    0    0    0    0 -0.00000000000E+00 -0.00000000000E+00 -0.45593999997E+02  0.45594000000E+02  0.51100000000E-03 0. -1.
    9900012    2    1    2    0    0  0.27424724644E+02 -0.83582448194E+01  0.32582938231E+02  0.47787266804E+02  0.19999980664E+02 0.  0.
         12    1    1    2    0    0 -0.27424724644E+02  0.83582448194E+01 -0.32582938231E+02  0.43400733196E+02  0.00000000000E+00 0. -1.
         11    1    3    3    0    0  0.13106928329E+02  0.48063305953E+01  0.11393500874E+02  0.18019551783E+02  0.51100000000E-03 0. -1.
        -11    1    3    3    0    0  0.13628919229E+02 -0.90082035583E+01  0.14400435501E+02  0.21777688435E+02  0.51100000000E-03 0.  1.
         12    1    3    3    0    0  0.68887708605E+00 -0.41563718564E+01  0.67890018561E+01  0.79900265863E+01  0.00000000000E+00 0. -1.
</event>
<event>
 7    1  0.2476315E-009  0.4778727E+02  0.7816164E-02  0.1312668E+00
        -11   -1    0    0    0    0  0.00000000000E+00  0.00000000000E+00  0.45593999997E+02  0.45594000000E+02  0.51100000000E-03 0.  1.
         11   -1    0    0    0    0 -0.00000000000E+00 -0.00000000000E+00 -0.45593999997E+02  0.45594000000E+02  0.51100000000E-03 0. -1.
    9900012    2    1    2    0    0  0.14041318292E+02  0.16959355859E+02  0.37401132402E+02  0.47787273330E+02  0.20000010421E+02 0.  0.
         12    1    1    2    0    0 -0.14041318292E+02 -0.16959355859E+02 -0.37401132402E+02  0.43400726670E+02  0.00000000000E+00 0. -1.
         11    1    3    3    0    0  0.13498950387E+02  0.98889261711E+01  0.29102168731E+02  0.33570057305E+02  0.51100000000E-03 0. -1.
        -11    1    3    3    0    0  0.33764526512E+00  0.65808288809E+01  0.10255481979E+02  0.12190005085E+02  0.51100000000E-03 0.  1.
         12    1    3    3    0    0  0.20472263908E+00  0.48960080694E+00 -0.19565183074E+01  0.20272109402E+01  0.00000000000E+00 0. -1.
</event>
<event>
 7    1  0.2476315E-009  0.4778727E+02  0.7816164E-02  0.1312668E+00
        -11   -1    0    0    0    0  0.00000000000E+00  0.00000000000E+00  0.45593999997E+02  0.45594000000E+02  0.51100000000E-03 0.  1.
         11   -1    0    0    0    0 -0.00000000000E+00 -0.00000000000E+00 -0.45593999997E+02  0.45594000000E+02  0.51100000000E-03 0. -1.
    9900012    2    1    2    0    0  0.41816864890E+02  0.67093892178E+01  0.94845727180E+01  0.47787271751E+02  0.20000003222E+02 0.  0.
         12    1    1    2    0    0 -0.41816864890E+02 -0.67093892178E+01 -0.94845727180E+01  0.43400728249E+02  0.00000000000E+00 0. -1.
         11    1    3    3    0    0  0.14747915199E+02  0.26691969553E+01  0.12136071843E+02  0.19284964484E+02  0.51100000000E-03 0. -1.
        -11    1    3    3    0    0  0.16392839875E+02  0.56596867209E+01 -0.34214817086E+01  0.17676645334E+02  0.51100000000E-03 0.  1.
         12    1    3    3    0    0  0.10676109816E+02 -0.16194944585E+01  0.76998258381E+00  0.10825661933E+02  0.00000000000E+00 0. -1.
</event>
<event>
 7    1  0.2476315E-009  0.4778727E+02  0.7816164E-02  0.1312668E+00
        -11   -1    0    0    0    0  0.00000000000E+00  0.00000000000E+00  0.45593999997E+02  0.45594000000E+02  0.51100000000E-03 0. -1.
         11   -1    0    0    0    0 -0.00000000000E+00 -0.00000000000E+00 -0.45593999997E+02  0.45594000000E+02  0.51100000000E-03 0.  1.
    9900012    2    1    2    0    0  0.35351827530E+02 -0.59216402575E+01 -0.24470504802E+02  0.47787272606E+02  0.20000007120E+02 0.  0.
         12    1    1    2    0    0 -0.35351827530E+02  0.59216402575E+01  0.24470504802E+02  0.43400727394E+02  0.00000000000E+00 0. -1.
         11    1    3    3    0    0  0.79631992003E+01 -0.27846203182E+01 -0.13607828046E+02  0.16010610113E+02  0.51100000000E-03 0. -1.
        -11    1    3    3    0    0  0.28520162462E+02 -0.26993239673E+01 -0.10483102763E+02  0.30505433295E+02  0.51100000000E-03 0.  1.
        -12    1    3    3    0    0 -0.11315341319E+01 -0.43769597203E+00 -0.37957399332E+00  0.12712291973E+01  0.00000000000E+00 0.  1.
</event>
<event>
 7    1  0.2476315E-009  0.4778727E+02  0.7816164E-02  0.1312668E+00
        -11   -1    0    0    0    0  0.00000000000E+00  0.00000000000E+00  0.45593999997E+02  0.45594000000E+02  0.51100000000E-03 0.  1.
         11   -1    0    0    0    0 -0.00000000000E+00 -0.00000000000E+00 -0.45593999997E+02  0.45594000000E+02  0.51100000000E-03 0. -1.
    9900012    2    1    2    0    0  0.20014666121E+02 -0.32941717937E+01  0.38369061524E+02  0.47787270629E+02  0.19999998106E+02 0.  0.
         12    1    1    2    0    0 -0.20014666121E+02  0.32941717937E+01 -0.38369061524E+02  0.43400729371E+02  0.00000000000E+00 0. -1.
         11    1    3    3    0    0  0.17877133900E+02 -0.28455642838E+01  0.29496148653E+02  0.34607975067E+02  0.51100000000E-03 0. -1.
        -11    1    3    3    0    0 -0.30870746447E+01  0.20464002396E+01  0.49641679571E+01  0.61936053773E+01  0.51100000000E-03 0.  1.
         12    1    3    3    0    0  0.52246068650E+01 -0.24950077496E+01  0.39087449134E+01  0.69856901851E+01  0.00000000000E+00 0. -1.
</event>
<event>
 7    1  0.2476315E-009  0.4778727E+02  0.7816164E-02  0.1312668E+00
        -11   -1    0    0    0    0  0.00000000000E+00  0.00000000000E+00  0.45593999997E+02  0.45594000000E+02  0.51100000000E-03 0. -1.
         11   -1    0    0    0    0 -0.00000000000E+00 -0.00000000000E+00 -0.45593999997E+02  0.45594000000E+02  0.51100000000E-03 0.  1.
    9900012    2    1    2    0    0 -0.32437047992E+02  0.10105358338E+02 -0.27006349953E+02  0.47787270889E+02  0.19999999289E+02 0.  0.
         12    1    1    2    0    0  0.32437047992E+02 -0.10105358338E+02  0.27006349953E+02  0.43400729111E+02  0.00000000000E+00 0. -1.
         11    1    3    3    0    0 -0.21322888019E+02 -0.66005111922E+00 -0.95829029214E+01  0.23386604064E+02  0.51100000000E-03 0. -1.
        -11    1    3    3    0    0 -0.92805789906E+01  0.11754261247E+02 -0.14862702326E+02  0.21099566928E+02  0.51100000000E-03 0.  1.
        -12    1    3    3    0    0 -0.18335809824E+01 -0.98885178939E+00 -0.25607447063E+01  0.33010998972E+01  0.00000000000E+00 0.  1.
</event>
<event>
 7    1  0.2476315E-009  0.4778727E+02  0.7816164E-02  0.1312668E+00
        -11   -1    0    0    0    0  0.00000000000E+00  0.00000000000E+00  0.45593999997E+02  0.45594000000E+02  0.51100000000E-03 0. -1.
         11   -1    0    0    0    0 -0.00000000000E+00 -0.00000000000E+00 -0.45593999997E+02  0.45594000000E+02  0.51100000000E-03 0.  1.
    9900012    2    1    2    0    0 -0.24414360165E+02 -0.35879688410E+02  0.45885224368E+00  0.47787267655E+02  0.19999984545E+02 0.  0.
         12    1    1    2    0    0  0.24414360165E+02  0.35879688410E+02 -0.45885224368E+00  0.43400732345E+02  0.00000000000E+00 0. -1.
         11    1    3    3    0    0 -0.14172630298E+02 -0.94104625404E+01  0.63691645007E+01  0.18165530862E+02  0.51100000000E-03 0. -1.
        -11    1    3    3    0    0 -0.74796499002E+01 -0.13235064202E+02 -0.52605389647E+01  0.16086806940E+02  0.51100000000E-03 0.  1.
         12    1    3    3    0    0 -0.27620799670E+01 -0.13234161668E+02 -0.64977329224E+00  0.13534929853E+02  0.00000000000E+00 0. -1.
</event>
<event>
 7    1  0.2476315E-009  0.4778727E+02  0.7816164E-02  0.1312668E+00
        -11   -1    0    0    0    0  0.00000000000E+00  0.00000000000E+00  0.45593999997E+02  0.45594000000E+02  0.51100000000E-03 0.  1.
         11   -1    0    0    0    0 -0.00000000000E+00 -0.00000000000E+00 -0.45593999997E+02  0.45594000000E+02  0.51100000000E-03 0. -1.
    9900012    2    1    2    0    0 -0.23628745125E+02 -0.25794887786E+02  0.25689091465E+02  0.47787271292E+02  0.20000001129E+02 0.  0.
         12    1    1    2    0    0  0.23628745125E+02  0.25794887786E+02 -0.25689091465E+02  0.43400728708E+02  0.00000000000E+00 0. -1.
         11    1    3    3    0    0 -0.32308421901E+01  0.19837426397E+01 -0.47203902323E+00  0.38205231603E+01  0.51100000000E-03 0. -1.
        -11    1    3    3    0    0 -0.10591668424E+02 -0.10518607061E+02  0.15140007123E+02  0.21261334635E+02  0.51100000000E-03 0.  1.
         12    1    3    3    0    0 -0.98062345108E+01 -0.17260023365E+02  0.11021123365E+02  0.22705413497E+02  0.00000000000E+00 0. -1.
</event>
<event>
 7    1  0.2476315E-009  0.4778727E+02  0.7816164E-02  0.1312668E+00
        -11   -1    0    0    0    0  0.00000000000E+00  0.00000000000E+00  0.45593999997E+02  0.45594000000E+02  0.51100000000E-03 0. -1.
         11   -1    0    0    0    0 -0.00000000000E+00 -0.00000000000E+00 -0.45593999997E+02  0.45594000000E+02  0.51100000000E-03 0.  1.
    9900012    2    1    2    0    0 -0.40154098302E+02 -0.78094485035E+01  0.14501193239E+02  0.47787266115E+02  0.19999977525E+02 0.  0.
         12    1    1    2    0    0  0.40154098302E+02  0.78094485035E+01 -0.14501193239E+02  0.43400733885E+02  0.00000000000E+00 0. -1.
         11    1    3    3    0    0 -0.13728127981E+02 -0.60610736289E+01  0.12354002488E+02  0.19437579302E+02  0.51100000000E-03 0. -1.
        -11    1    3    3    0    0 -0.97784244144E+01  0.10317199214E-01 -0.39326700077E+01  0.10539619733E+02  0.51100000000E-03 0.  1.
        -12    1    3    3    0    0 -0.16647545907E+02 -0.17586920739E+01  0.60798607590E+01  0.17810067080E+02  0.00000000000E+00 0.  1.
</event>
<event>
 7    1  0.2476315E-009  0.4778725E+02  0.7816164E-02  0.1312668E+00
        -11   -1    0    0    0    0  0.00000000000E+00  0.00000000000E+00  0.45593999997E+02  0.45594000000E+02  0.51100000000E-03 0. -1.
         11   -1    0    0    0    0 -0.00000000000E+00 -0.00000000000E+00 -0.45593999997E+02  0.45594000000E+02  0.51100000000E-03 0.  1.
    9900012    2    1    2    0    0  0.29998046649E+02 -0.30989323575E+02 -0.48378072530E+01  0.47787247041E+02  0.19999890558E+02 0.  0.
         12    1    1    2    0    0 -0.29998046649E+02  0.30989323575E+02  0.48378072530E+01  0.43400752959E+02  0.00000000000E+00 0. -1.
         11    1    3    3    0    0  0.12980669004E+01 -0.34395618113E+01 -0.51446531701E+01  0.63232127620E+01  0.51100000000E-03 0. -1.
        -11    1    3    3    0    0  0.28657018351E+02 -0.24259402806E+02 -0.17433009180E+01  0.37586998066E+02  0.51100000000E-03 0.  1.
        -12    1    3    3    0    0  0.42961398303E-01 -0.32903589574E+01  0.20501468351E+01  0.38770362128E+01  0.00000000000E+00 0.  1.
</event>
<event>
 7    1  0.2476315E-009  0.4778727E+02  0.7816164E-02  0.1312668E+00
        -11   -1    0    0    0    0  0.00000000000E+00  0.00000000000E+00  0.45593999997E+02  0.45594000000E+02  0.51100000000E-03 0.  1.
         11   -1    0    0    0    0 -0.00000000000E+00 -0.00000000000E+00 -0.45593999997E+02  0.45594000000E+02  0.51100000000E-03 0. -1.
    9900012    2    1    2    0    0  0.31454546669E+02 -0.12562010769E+02  0.27137260565E+02  0.47787268074E+02  0.19999986458E+02 0.  0.
         12    1    1    2    0    0 -0.31454546669E+02  0.12562010769E+02 -0.27137260565E+02  0.43400731926E+02  0.00000000000E+00 0. -1.
         11    1    3    3    0    0  0.16776047318E+02 -0.11637873319E+02  0.63146157950E+01  0.21371715699E+02  0.51100000000E-03 0. -1.
        -11    1    3    3    0    0  0.11439254945E+02  0.21958495604E+01  0.13591829927E+02  0.17900171788E+02  0.51100000000E-03 0.  1.
         12    1    3    3    0    0  0.32392444051E+01 -0.31199870108E+01  0.72308148427E+01  0.85153805877E+01  0.00000000000E+00 0. -1.
</event>
<event>
 7    1  0.2476315E-009  0.4778727E+02  0.7816164E-02  0.1312668E+00
        -11   -1    0    0    0    0  0.00000000000E+00  0.00000000000E+00  0.45593999997E+02  0.45594000000E+02  0.51100000000E-03 0.  1.
         11   -1    0    0    0    0 -0.00000000000E+00 -0.00000000000E+00 -0.45593999997E+02  0.45594000000E+02  0.51100000000E-03 0. -1.
    9900012    2    1    2    0    0  0.73274675568E+01  0.20343511804E+01  0.42729298369E+02  0.47787270690E+02  0.19999998384E+02 0.  0.
         12    1    1    2    0    0 -0.73274675568E+01 -0.20343511804E+01 -0.42729298369E+02  0.43400729310E+02  0.00000000000E+00 0. -1.
         11    1    3    3    0    0  0.89275575450E+00 -0.18622440775E+01  0.60039622525E+01  0.63492148201E+01  0.51100000000E-03 0. -1.
        -11    1    3    3    0    0 -0.13755159892E+01 -0.15820238003E+01  0.29231530708E+02  0.29306607299E+02  0.51100000000E-03 0.  1.
        -12    1    3    3    0    0  0.78102277915E+01  0.54786190582E+01  0.74938054083E+01  0.12131448571E+02  0.00000000000E+00 0.  1.
</event>
<event>
 7    1  0.2476315E-009  0.4778729E+02  0.7816164E-02  0.1312668E+00
        -11   -1    0    0    0    0  0.00000000000E+00  0.00000000000E+00  0.45593999997E+02  0.45594000000E+02  0.51100000000E-03 0.  1.
         11   -1    0    0    0    0 -0.00000000000E+00 -0.00000000000E+00 -0.45593999997E+02  0.45594000000E+02  0.51100000000E-03 0. -1.
    9900012    2    1    2    0    0 -0.23572410197E+02  0.36003888082E+02 -0.56287623153E+01  0.47787292118E+02  0.20000096082E+02 0.  0.
         12    1    1    2    0    0  0.23572410197E+02 -0.36003888082E+02  0.56287623153E+01  0.43400707882E+02  0.00000000000E+00 0. -1.
         11    1    3    3    0    0 -0.10922767372E+01  0.19366877855E+02 -0.15166554740E+01  0.19456856642E+02  0.51100000000E-03 0. -1.
        -11    1    3    3    0    0 -0.12467797528E+02  0.10055361900E+02 -0.16907390566E+01  0.16106361381E+02  0.51100000000E-03 0.  1.
         12    1    3    3    0    0 -0.10012335932E+02  0.65816483268E+01 -0.24213677847E+01  0.12224074094E+02  0.00000000000E+00 0. -1.
</event>
<event>
 7    1  0.2476315E-009  0.4778727E+02  0.7816164E-02  0.1312668E+00
        -11   -1    0    0    0    0  0.00000000000E+00  0.00000000000E+00  0.45593999997E+02  0.45594000000E+02  0.51100000000E-03 0.  1.
         11   -1    0    0    0    0 -0.00000000000E+00 -0.00000000000E+00 -0.45593999997E+02  0.45594000000E+02  0.51100000000E-03 0. -1.
    9900012    2    1    2    0    0  0.26231870939E+01  0.35802361720E+02  0.24391249922E+02  0.47787270881E+02  0.19999999256E+02 0.  0.
         12    1    1    2    0    0 -0.26231870939E+01 -0.35802361720E+02 -0.24391249922E+02  0.43400729119E+02  0.00000000000E+00 0. -1.
         11    1    3    3    0    0  0.82127850208E+01  0.10656011743E+02  0.56456682314E+01  0.14590201990E+02  0.51100000000E-03 0. -1.
        -11    1    3    3    0    0 -0.20505718858E+01  0.22889347008E+02  0.14220687898E+02  0.27025081241E+02  0.51100000000E-03 0.  1.
         12    1    3    3    0    0 -0.35390260411E+01  0.22570029690E+01  0.45248937931E+01  0.61719876507E+01  0.00000000000E+00 0. -1.
</event>
<event>
 7    1  0.2476315E-009  0.4778727E+02  0.7816164E-02  0.1312668E+00
        -11   -1    0    0    0    0  0.00000000000E+00  0.00000000000E+00  0.45593999997E+02  0.45594000000E+02  0.51100000000E-03 0. -1.
         11   -1    0    0    0    0 -0.00000000000E+00 -0.00000000000E+00 -0.45593999997E+02  0.45594000000E+02  0.51100000000E-03 0.  1.
    9900012    2    1    2    0    0  0.15796242124E+02 -0.35146785121E+02  0.19970110512E+02  0.47787273238E+02  0.20000010001E+02 0.  0.
         12    1    1    2    0    0 -0.15796242124E+02  0.35146785121E+02 -0.19970110512E+02  0.43400726762E+02  0.00000000000E+00 0. -1.
         11    1    3    3    0    0  0.80085001468E+01 -0.22633414599E+02  0.12040998340E+02  0.26858763417E+02  0.51100000000E-03 0.  1.
        -11    1    3    3    0    0  0.50103894326E+01 -0.59196064872E+00 -0.17323425922E+01  0.53343632041E+01  0.51100000000E-03 0. -1.
         12    1    3    3    0    0  0.27773525445E+01 -0.11921409874E+02  0.96614547641E+01  0.15594146616E+02  0.00000000000E+00 0. -1.
</event>
<event>
 7    1  0.2476315E-009  0.4778725E+02  0.7816164E-02  0.1312668E+00
        -11   -1    0    0    0    0  0.00000000000E+00  0.00000000000E+00  0.45593999997E+02  0.45594000000E+02  0.51100000000E-03 0.  1.
         11   -1    0    0    0    0 -0.00000000000E+00 -0.00000000000E+00 -0.45593999997E+02  0.45594000000E+02  0.51100000000E-03 0. -1.
    9900012    2    1    2    0    0 -0.11018757646E+02  0.29965615127E+02  0.29398532673E+02  0.47787253079E+02  0.19999918087E+02 0.  0.
         12    1    1    2    0    0  0.11018757646E+02 -0.29965615127E+02 -0.29398532673E+02  0.43400746921E+02  0.00000000000E+00 0. -1.
         11    1    3    3    0    0 -0.13365069430E+02  0.21901912283E+02  0.18583084522E+02  0.31680433601E+02  0.51100000000E-03 0. -1.
        -11    1    3    3    0    0 -0.84968059350E+00  0.78008325404E+01  0.45558952369E+01  0.90736501533E+01  0.51100000000E-03 0.  1.
         12    1    3    3    0    0  0.31959923775E+01  0.26287030391E+00  0.62595529136E+01  0.70331693248E+01  0.00000000000E+00 0. -1.
</event>
<event>
 7    1  0.2476315E-009  0.4778727E+02  0.7816164E-02  0.1312668E+00
        -11   -1    0    0    0    0  0.00000000000E+00  0.00000000000E+00  0.45593999997E+02  0.45594000000E+02  0.51100000000E-03 0.  1.
         11   -1    0    0    0    0 -0.00000000000E+00 -0.00000000000E+00 -0.45593999997E+02  0.45594000000E+02  0.51100000000E-03 0. -1.
    9900012    2    1    2    0    0  0.30876909680E+01  0.91190352403E+01  0.42319410261E+02  0.47787272771E+02  0.20000007871E+02 0.  0.
         12    1    1    2    0    0 -0.30876909680E+01 -0.91190352403E+01 -0.42319410261E+02  0.43400727229E+02  0.00000000000E+00 0. -1.
         11    1    3    3    0    0  0.39824607322E+01  0.29746786927E+01  0.99782715966E+00  0.50699473478E+01  0.51100000000E-03 0. -1.
        -11    1    3    3    0    0 -0.37094649455E+01  0.62335338078E+01  0.21359895830E+02  0.22557974733E+02  0.51100000000E-03 0.  1.
         12    1    3    3    0    0  0.28146951813E+01 -0.89177260140E-01  0.19961687271E+02  0.20159350690E+02  0.00000000000E+00 0. -1.
</event>
<event>
 7    1  0.2476315E-009  0.4778727E+02  0.7816164E-02  0.1312668E+00
        -11   -1    0    0    0    0  0.00000000000E+00  0.00000000000E+00  0.45593999997E+02  0.45594000000E+02  0.51100000000E-03 0. -1.
         11   -1    0    0    0    0 -0.00000000000E+00 -0.00000000000E+00 -0.45593999997E+02  0.45594000000E+02  0.51100000000E-03 0.  1.
    9900012    2    1    2    0    0 -0.42733671666E+02 -0.67688903731E+00  0.75497207333E+01  0.47787272403E+02  0.20000006193E+02 0.  0.
         12    1    1    2    0    0  0.42733671666E+02  0.67688903731E+00 -0.75497207333E+01  0.43400727597E+02  0.00000000000E+00 0. -1.
         11    1    3    3    0    0 -0.52180764280E+01  0.17531460495E+01  0.74954243718E+01  0.92996359850E+01  0.51100000000E-03 0. -1.
        -11    1    3    3    0    0 -0.26129468907E+02 -0.29492637674E+01 -0.35487036380E+01  0.26533763395E+02  0.51100000000E-03 0.  1.
         12    1    3    3    0    0 -0.11386126331E+02  0.51922868061E+00  0.36029999995E+01  0.11953873023E+02  0.00000000000E+00 0. -1.
</event>
<event>
 7    1  0.2476315E-009  0.4778727E+02  0.7816164E-02  0.1312668E+00
        -11   -1    0    0    0    0  0.00000000000E+00  0.00000000000E+00  0.45593999997E+02  0.45594000000E+02  0.51100000000E-03 0.  1.
         11   -1    0    0    0    0 -0.00000000000E+00 -0.00000000000E+00 -0.45593999997E+02  0.45594000000E+02  0.51100000000E-03 0. -1.
    9900012    2    1    2    0    0  0.25944049068E+02 -0.27203800169E+01  0.34686150483E+02  0.47787272070E+02  0.20000004675E+02 0.  0.
         12    1    1    2    0    0 -0.25944049068E+02  0.27203800169E+01 -0.34686150483E+02  0.43400727930E+02  0.00000000000E+00 0. -1.
         11    1    3    3    0    0  0.11883307610E+02  0.26022081758E+01  0.49008055284E+01  0.13114967870E+02  0.51100000000E-03 0. -1.
        -11    1    3    3    0    0  0.12862936690E+02 -0.22457522543E+01  0.16821677800E+02  0.21294773719E+02  0.51100000000E-03 0.  1.
         12    1    3    3    0    0  0.11978047683E+01 -0.30768359384E+01  0.12963667155E+02  0.13377530480E+02  0.00000000000E+00 0. -1.
</event>
<event>
 7    1  0.2476315E-009  0.4778727E+02  0.7816164E-02  0.1312668E+00
        -11   -1    0    0    0    0  0.00000000000E+00  0.00000000000E+00  0.45593999997E+02  0.45594000000E+02  0.51100000000E-03 0. -1.
         11   -1    0    0    0    0 -0.00000000000E+00 -0.00000000000E+00 -0.45593999997E+02  0.45594000000E+02  0.51100000000E-03 0.  1.
    9900012    2    1    2    0    0 -0.33553563908E+02 -0.27455685952E+02  0.19916806509E+01  0.47787272657E+02  0.20000007354E+02 0.  0.
         12    1    1    2    0    0  0.33553563908E+02  0.27455685952E+02 -0.19916806509E+01  0.43400727343E+02  0.00000000000E+00 0. -1.
         11    1    3    3    0    0 -0.25735924990E+02 -0.19752863828E+02 -0.31430977009E+01  0.32594363438E+02  0.51100000000E-03 0. -1.
        -11    1    3    3    0    0 -0.82684323754E+00 -0.68806563680E+01  0.92631950736E+00  0.69917930379E+01  0.51100000000E-03 0.  1.
         12    1    3    3    0    0 -0.69907956807E+01 -0.82216575661E+00  0.42084588444E+01  0.82011161817E+01  0.00000000000E+00 0. -1.
</event>
<event>
 7    1  0.2476315E-009  0.4778727E+02  0.7816164E-02  0.1312668E+00
        -11   -1    0    0    0    0  0.00000000000E+00  0.00000000000E+00  0.45593999997E+02  0.45594000000E+02  0.51100000000E-03 0.  1.
         11   -1    0    0    0    0 -0.00000000000E+00 -0.00000000000E+00 -0.45593999997E+02  0.45594000000E+02  0.51100000000E-03 0. -1.
    9900012    2    1    2    0    0 -0.95792595952E+00  0.16160959488E+02  0.40268213896E+02  0.47787270926E+02  0.19999999462E+02 0.  0.
         12    1    1    2    0    0  0.95792595952E+00 -0.16160959488E+02 -0.40268213896E+02  0.43400729074E+02  0.00000000000E+00 0. -1.
         11    1    3    3    0    0 -0.51881397877E+01  0.48622672812E+01  0.71452600559E+01  0.10080336259E+02  0.51100000000E-03 0. -1.
        -11    1    3    3    0    0  0.69009110720E+01  0.34911835062E+01  0.74420389138E+01  0.10732887745E+02  0.51100000000E-03 0.  1.
        -12    1    3    3    0    0 -0.26706972438E+01  0.78075087004E+01  0.25680914927E+02  0.26974046922E+02  0.00000000000E+00 0.  1.
</event>
<event>
 7    1  0.2476315E-009  0.4778726E+02  0.7816164E-02  0.1312668E+00
        -11   -1    0    0    0    0  0.00000000000E+00  0.00000000000E+00  0.45593999997E+02  0.45594000000E+02  0.51100000000E-03 0.  1.
         11   -1    0    0    0    0 -0.00000000000E+00 -0.00000000000E+00 -0.45593999997E+02  0.45594000000E+02  0.51100000000E-03 0. -1.
    9900012    2    1    2    0    0  0.27405637902E+02  0.68869891711E+00  0.33646416447E+02  0.47787255367E+02  0.19999928519E+02 0.  0.
         12    1    1    2    0    0 -0.27405637902E+02 -0.68869891711E+00 -0.33646416447E+02  0.43400744633E+02  0.00000000000E+00 0. -1.
         11    1    3    3    0    0  0.10939216871E+02 -0.12258515681E+01  0.79800991145E+01  0.13595997939E+02  0.51100000000E-03 0. -1.
        -11    1    3    3    0    0 -0.78795785713E+00 -0.35991655310E+00  0.12083677239E+02  0.12114688332E+02  0.51100000000E-03 0.  1.
        -12    1    3    3    0    0  0.17254378888E+02  0.22744670383E+01  0.13582640094E+02  0.22076569096E+02  0.00000000000E+00 0.  1.
</event>
<event>
 7    1  0.2476315E-009  0.4778727E+02  0.7816164E-02  0.1312668E+00
        -11   -1    0    0    0    0  0.00000000000E+00  0.00000000000E+00  0.45593999997E+02  0.45594000000E+02  0.51100000000E-03 0. -1.
         11   -1    0    0    0    0 -0.00000000000E+00 -0.00000000000E+00 -0.45593999997E+02  0.45594000000E+02  0.51100000000E-03 0.  1.
    9900012    2    1    2    0    0 -0.39649002161E+02  0.69652997304E+01 -0.16219261222E+02  0.47787271812E+02  0.20000003498E+02 0.  0.
         12    1    1    2    0    0  0.39649002161E+02 -0.69652997304E+01  0.16219261222E+02  0.43400728188E+02  0.00000000000E+00 0. -1.
         11    1    3    3    0    0 -0.16633485839E+02 -0.47184332581E+01 -0.48019932110E+01  0.17944235917E+02  0.51100000000E-03 0. -1.
        -11    1    3    3    0    0 -0.16047792356E+02  0.81705145556E+01 -0.28114767346E+01  0.18226172096E+02  0.51100000000E-03 0.  1.
        -12    1    3    3    0    0 -0.69677239662E+01  0.35132184329E+01 -0.86057912764E+01  0.11616863799E+02  0.00000000000E+00 0.  1.
</event>
<event>
 7    1 -0.9138618E-009  0.4778727E+02  0.7816164E-02  0.1312668E+00
        -11   -1    0    0    0    0  0.00000000000E+00  0.00000000000E+00  0.45593999997E+02  0.45594000000E+02  0.51100000000E-03 0. -1.
         11   -1    0    0    0    0 -0.00000000000E+00 -0.00000000000E+00 -0.45593999997E+02  0.45594000000E+02  0.51100000000E-03 0.  1.
    9900012    2    1    2    0    0  0.67969390315E+01  0.30193570930E+02  0.30426521337E+02  0.47787270670E+02  0.19999998293E+02 0.  0.
         12    1    1    2    0    0 -0.67969390315E+01 -0.30193570930E+02 -0.30426521337E+02  0.43400729330E+02  0.00000000000E+00 0. -1.
         11    1    3    3    0    0  0.36777133807E+00  0.74665699403E+01  0.12389120579E+02  0.14469804125E+02  0.51100000000E-03 0. -1.
        -11    1    3    3    0    0  0.88339833043E+01  0.53911910176E+01  0.84571102203E+01  0.13365138052E+02  0.51100000000E-03 0.  1.
        -12    1    3    3    0    0 -0.24048156109E+01  0.17335809972E+02  0.95802905372E+01  0.19952328493E+02  0.00000000000E+00 0.  1.
</event>
<event>
 7    1  0.2476315E-009  0.4778728E+02  0.7816164E-02  0.1312668E+00
        -11   -1    0    0    0    0  0.00000000000E+00  0.00000000000E+00  0.45593999997E+02  0.45594000000E+02  0.51100000000E-03 0.  1.
         11   -1    0    0    0    0 -0.00000000000E+00 -0.00000000000E+00 -0.45593999997E+02  0.45594000000E+02  0.51100000000E-03 0. -1.
    9900012    2    1    2    0    0  0.18336769648E+01  0.26625401905E+02  0.34224963479E+02  0.47787279695E+02  0.20000039441E+02 0.  0.
         12    1    1    2    0    0 -0.18336769648E+01 -0.26625401905E+02 -0.34224963479E+02  0.43400720305E+02  0.00000000000E+00 0. -1.
         11    1    3    3    0    0 -0.34677220921E+01  0.38797421161E+01  0.94996808526E+01  0.10831501833E+02  0.51100000000E-03 0. -1.
        -11    1    3    3    0    0  0.74173709654E+01  0.75516310485E+01  0.43332442972E+01  0.11437723984E+02  0.51100000000E-03 0.  1.
        -12    1    3    3    0    0 -0.21159719085E+01  0.15194028741E+02  0.20392038329E+02  0.25518053878E+02  0.00000000000E+00 0.  1.
</event>
<event>
 7    1  0.2476315E-009  0.4778727E+02  0.7816164E-02  0.1312668E+00
        -11   -1    0    0    0    0  0.00000000000E+00  0.00000000000E+00  0.45593999997E+02  0.45594000000E+02  0.51100000000E-03 0. -1.
         11   -1    0    0    0    0 -0.00000000000E+00 -0.00000000000E+00 -0.45593999997E+02  0.45594000000E+02  0.51100000000E-03 0.  1.
    9900012    2    1    2    0    0 -0.56683994094E+01 -0.40643740395E+02 -0.14127233708E+02  0.47787272847E+02  0.20000008221E+02 0.  0.
         12    1    1    2    0    0  0.56683994094E+01  0.40643740395E+02  0.14127233708E+02  0.43400727153E+02  0.00000000000E+00 0. -1.
         11    1    3    3    0    0  0.39167530298E+01 -0.13042219169E+02 -0.66396095537E+00  0.13633828499E+02  0.51100000000E-03 0. -1.
        -11    1    3    3    0    0  0.16099515874E+01 -0.12397433055E+02 -0.56699723494E+01  0.13727231228E+02  0.51100000000E-03 0.  1.
         12    1    3    3    0    0 -0.11195104027E+02 -0.15204088171E+02 -0.77933004032E+01  0.20426213121E+02  0.00000000000E+00 0. -1.
</event>
<event>
 7    1  0.2476315E-009  0.4778732E+02  0.7816164E-02  0.1312668E+00
        -11   -1    0    0    0    0  0.00000000000E+00  0.00000000000E+00  0.45593999997E+02  0.45594000000E+02  0.51100000000E-03 0. -1.
         11   -1    0    0    0    0 -0.00000000000E+00 -0.00000000000E+00 -0.45593999997E+02  0.45594000000E+02  0.51100000000E-03 0.  1.
    9900012    2    1    2    0    0 -0.33617011879E+02  0.27245541842E+02  0.33460581282E+01  0.47787318636E+02  0.20000216986E+02 0.  0.
         12    1    1    2    0    0  0.33617011879E+02 -0.27245541842E+02 -0.33460581282E+01  0.43400681364E+02  0.00000000000E+00 0. -1.
         11    1    3    3    0    0 -0.58309128771E+01  0.69487344740E+01 -0.63659144689E+01  0.11081936792E+02  0.51100000000E-03 0. -1.
        -11    1    3    3    0    0 -0.26032208372E+02  0.20968593376E+02  0.85725905040E+01  0.34508652380E+02  0.51100000000E-03 0.  1.
         12    1    3    3    0    0 -0.17538906299E+01 -0.67178600861E+00  0.11393820931E+01  0.21967294638E+01  0.00000000000E+00 0. -1.
</event>
<event>
 7    1  0.2476315E-009  0.4778727E+02  0.7816164E-02  0.1312668E+00
        -11   -1    0    0    0    0  0.00000000000E+00  0.00000000000E+00  0.45593999997E+02  0.45594000000E+02  0.51100000000E-03 0.  1.
         11   -1    0    0    0    0 -0.00000000000E+00 -0.00000000000E+00 -0.45593999997E+02  0.45594000000E+02  0.51100000000E-03 0. -1.
    9900012    2    1    2    0    0 -0.28930195798E-01  0.42745785220E+02  0.75113350149E+01  0.47787272533E+02  0.20000006785E+02 0.  0.
         12    1    1    2    0    0  0.28930195798E-01 -0.42745785220E+02 -0.75113350149E+01  0.43400727467E+02  0.00000000000E+00 0. -1.
         11    1    3    3    0    0  0.10605550533E+01  0.24119758842E+02  0.11056682516E+02  0.26554430367E+02  0.51100000000E-03 0. -1.
        -11    1    3    3    0    0  0.22889134298E+01  0.53659791786E+01  0.24067311596E+01  0.63107220166E+01  0.51100000000E-03 0.  1.
         12    1    3    3    0    0 -0.33783986789E+01  0.13260047199E+02 -0.59520786606E+01  0.14922120149E+02  0.00000000000E+00 0. -1.
</event>
<event>
 7    1  0.2476315E-009  0.4778727E+02  0.7816164E-02  0.1312668E+00
        -11   -1    0    0    0    0  0.00000000000E+00  0.00000000000E+00  0.45593999997E+02  0.45594000000E+02  0.51100000000E-03 0. -1.
         11   -1    0    0    0    0 -0.00000000000E+00 -0.00000000000E+00 -0.45593999997E+02  0.45594000000E+02  0.51100000000E-03 0.  1.
    9900012    2    1    2    0    0 -0.36587372790E+02  0.49272560304E+01  0.22819060719E+02  0.47787271529E+02  0.20000002211E+02 0.  0.
         12    1    1    2    0    0  0.36587372790E+02 -0.49272560304E+01 -0.22819060719E+02  0.43400728471E+02  0.00000000000E+00 0. -1.
         11    1    3    3    0    0 -0.11746927304E+02  0.42295029566E+01  0.89729972500E+01  0.15375099228E+02  0.51100000000E-03 0. -1.
        -11    1    3    3    0    0 -0.26606275290E+02 -0.12998936854E+01  0.12684878296E+02  0.29504063212E+02  0.51100000000E-03 0.  1.
        -12    1    3    3    0    0  0.17658298038E+01  0.19976467592E+01  0.11611851733E+01  0.29081090896E+01  0.00000000000E+00 0.  1.
</event>
<event>
 7    1  0.2476315E-009  0.4778727E+02  0.7816164E-02  0.1312668E+00
        -11   -1    0    0    0    0  0.00000000000E+00  0.00000000000E+00  0.45593999997E+02  0.45594000000E+02  0.51100000000E-03 0.  1.
         11   -1    0    0    0    0 -0.00000000000E+00 -0.00000000000E+00 -0.45593999997E+02  0.45594000000E+02  0.51100000000E-03 0. -1.
    9900012    2    1    2    0    0 -0.29244991118E+02  0.15690540247E+02  0.27967132731E+02  0.47787273371E+02  0.20000010608E+02 0.  0.
         12    1    1    2    0    0  0.29244991118E+02 -0.15690540247E+02 -0.27967132731E+02  0.43400726629E+02  0.00000000000E+00 0. -1.
         11    1    3    3    0    0  0.69357483444E+00 -0.24606039446E+01  0.17010777110E+01  0.30707138361E+01  0.51100000000E-03 0. -1.
        -11    1    3    3    0    0 -0.23055015664E+02  0.18058010985E+02  0.21839697491E+02  0.36532148784E+02  0.51100000000E-03 0.  1.
        -12    1    3    3    0    0 -0.68835502879E+01  0.93133205980E-01  0.44263575294E+01  0.81844107508E+01  0.00000000000E+00 0.  1.
</event>
<event>
 7    1  0.2476315E-009  0.4778727E+02  0.7816164E-02  0.1312668E+00
        -11   -1    0    0    0    0  0.00000000000E+00  0.00000000000E+00  0.45593999997E+02  0.45594000000E+02  0.51100000000E-03 0.  1.
         11   -1    0    0    0    0 -0.00000000000E+00 -0.00000000000E+00 -0.45593999997E+02  0.45594000000E+02  0.51100000000E-03 0. -1.
    9900012    2    1    2    0    0 -0.33799621243E+02  0.50873495644E+01  0.26745611164E+02  0.47787271455E+02  0.20000001871E+02 0.  0.
         12    1    1    2    0    0  0.33799621243E+02 -0.50873495644E+01 -0.26745611164E+02  0.43400728545E+02  0.00000000000E+00 0. -1.
         11    1    3    3    0    0 -0.10566238281E+02 -0.54716061225E+01  0.81348587973E+01  0.14413875013E+02  0.51100000000E-03 0. -1.
        -11    1    3    3    0    0 -0.13512998566E+02  0.95124435832E+01  0.63770615187E+01  0.17713120195E+02  0.51100000000E-03 0.  1.
        -12    1    3    3    0    0 -0.97203843957E+01  0.10465121037E+01  0.12233690848E+02  0.15660276247E+02  0.00000000000E+00 0.  1.
</event>
<event>
 7    1  0.2476315E-009  0.4778727E+02  0.7816164E-02  0.1312668E+00
        -11   -1    0    0    0    0  0.00000000000E+00  0.00000000000E+00  0.45593999997E+02  0.45594000000E+02  0.51100000000E-03 0.  1.
         11   -1    0    0    0    0 -0.00000000000E+00 -0.00000000000E+00 -0.45593999997E+02  0.45594000000E+02  0.51100000000E-03 0. -1.
    9900012    2    1    2    0    0 -0.30244774949E+02 -0.22285821433E+02  0.21730602575E+02  0.47787270318E+02  0.19999996687E+02 0.  0.
         12    1    1    2    0    0  0.30244774949E+02  0.22285821433E+02 -0.21730602575E+02  0.43400729682E+02  0.00000000000E+00 0. -1.
         11    1    3    3    0    0 -0.13768482288E+02 -0.49380839117E+01  0.12887144957E+02  0.19494468001E+02  0.51100000000E-03 0.  1.
        -11    1    3    3    0    0 -0.75210444002E+01 -0.42599056145E+01 -0.22593640571E+01  0.89340713517E+01  0.51100000000E-03 0. -1.
        -12    1    3    3    0    0 -0.89552482607E+01 -0.13087831906E+02  0.11102821675E+02  0.19358730965E+02  0.00000000000E+00 0.  1.
</event>
<event>
 7    1  0.2476315E-009  0.4778727E+02  0.7816164E-02  0.1312668E+00
        -11   -1    0    0    0    0  0.00000000000E+00  0.00000000000E+00  0.45593999997E+02  0.45594000000E+02  0.51100000000E-03 0.  1.
         11   -1    0    0    0    0 -0.00000000000E+00 -0.00000000000E+00 -0.45593999997E+02  0.45594000000E+02  0.51100000000E-03 0. -1.
    9900012    2    1    2    0    0  0.75792119581E+01 -0.25715067725E+02  0.34130837688E+02  0.47787271397E+02  0.20000001607E+02 0.  0.
         12    1    1    2    0    0 -0.75792119581E+01  0.25715067725E+02 -0.34130837688E+02  0.43400728603E+02  0.00000000000E+00 0. -1.
         11    1    3    3    0    0  0.69041192226E+01 -0.18873000461E+02  0.15472011298E+02  0.25362179372E+02  0.51100000000E-03 0. -1.
        -11    1    3    3    0    0 -0.28567934324E+01 -0.80107932162E+01  0.14767740301E+02  0.17041720293E+02  0.51100000000E-03 0.  1.
         12    1    3    3    0    0  0.35318861679E+01  0.11687259522E+01  0.38910860887E+01  0.53833717319E+01  0.00000000000E+00 0. -1.
</event>
<event>
 7    1  0.2476315E-009  0.4778727E+02  0.7816164E-02  0.1312668E+00
        -11   -1    0    0    0    0  0.00000000000E+00  0.00000000000E+00  0.45593999997E+02  0.45594000000E+02  0.51100000000E-03 0. -1.
         11   -1    0    0    0    0 -0.00000000000E+00 -0.00000000000E+00 -0.45593999997E+02  0.45594000000E+02  0.51100000000E-03 0.  1.
    9900012    2    1    2    0    0 -0.34333408325E+02 -0.12251921971E+02 -0.23552719516E+02  0.47787272865E+02  0.20000008303E+02 0.  0.
         12    1    1    2    0    0  0.34333408325E+02  0.12251921971E+02  0.23552719516E+02  0.43400727135E+02  0.00000000000E+00 0. -1.
         11    1    3    3    0    0 -0.18927097153E+01  0.14444681823E+01  0.28578313571E+01  0.37196826105E+01  0.51100000000E-03 0. -1.
        -11    1    3    3    0    0 -0.19539399900E+02 -0.85015792088E+01 -0.14716519687E+02  0.25896736271E+02  0.51100000000E-03 0.  1.
         12    1    3    3    0    0 -0.12901298709E+02 -0.51948109448E+01 -0.11694031186E+02  0.18170853984E+02  0.00000000000E+00 0. -1.
</event>
<event>
 7    1  0.2476315E-009  0.4778727E+02  0.7816164E-02  0.1312668E+00
        -11   -1    0    0    0    0  0.00000000000E+00  0.00000000000E+00  0.45593999997E+02  0.45594000000E+02  0.51100000000E-03 0.  1.
         11   -1    0    0    0    0 -0.00000000000E+00 -0.00000000000E+00 -0.45593999997E+02  0.45594000000E+02  0.51100000000E-03 0. -1.
    9900012    2    1    2    0    0  0.31289454004E+02 -0.25826788192E+02  0.15413321312E+02  0.47787269660E+02  0.19999993689E+02 0.  0.
         12    1    1    2    0    0 -0.31289454004E+02  0.25826788192E+02 -0.15413321312E+02  0.43400730340E+02  0.00000000000E+00 0. -1.
         11    1    3    3    0    0  0.79575333949E+01 -0.16469616654E+02  0.68042682689E+01  0.19515857076E+02  0.51100000000E-03 0. -1.
        -11    1    3    3    0    0  0.23166490846E+02 -0.93432817052E+01  0.99733568468E+01  0.26897045529E+02  0.51100000000E-03 0.  1.
        -12    1    3    3    0    0  0.16542976293E+00 -0.13889832576E-01 -0.13643038040E+01  0.13743670556E+01  0.00000000000E+00 0.  1.
</event>
<event>
 7    1  0.2476315E-009  0.4778728E+02  0.7816164E-02  0.1312668E+00
        -11   -1    0    0    0    0  0.00000000000E+00  0.00000000000E+00  0.45593999997E+02  0.45594000000E+02  0.51100000000E-03 0.  1.
         11   -1    0    0    0    0 -0.00000000000E+00 -0.00000000000E+00 -0.45593999997E+02  0.45594000000E+02  0.51100000000E-03 0. -1.
    9900012    2    1    2    0    0 -0.25693993909E+02 -0.27730365042E+02  0.21318263942E+02  0.47787275975E+02  0.20000022481E+02 0.  0.
         12    1    1    2    0    0  0.25693993909E+02  0.27730365042E+02 -0.21318263942E+02  0.43400724025E+02  0.00000000000E+00 0. -1.
         11    1    3    3    0    0  0.64853771503E+00 -0.29345134924E+00  0.65626651797E+01  0.66011581851E+01  0.51100000000E-03 0. -1.
        -11    1    3    3    0    0 -0.20425299653E+02 -0.24236027083E+02  0.12778814320E+02  0.34174200362E+02  0.51100000000E-03 0.  1.
         12    1    3    3    0    0 -0.59172319711E+01 -0.32008866104E+01  0.19767844423E+01  0.70119174285E+01  0.00000000000E+00 0. -1.
</event>
<event>
 7    1  0.2476315E-009  0.4778728E+02  0.7816164E-02  0.1312668E+00
        -11   -1    0    0    0    0  0.00000000000E+00  0.00000000000E+00  0.45593999997E+02  0.45594000000E+02  0.51100000000E-03 0.  1.
         11   -1    0    0    0    0 -0.00000000000E+00 -0.00000000000E+00 -0.45593999997E+02  0.45594000000E+02  0.51100000000E-03 0. -1.
    9900012    2    1    2    0    0  0.38521412016E+02  0.72275040531E+01 -0.18640990878E+02  0.47787279505E+02  0.20000038575E+02 0.  0.
         12    1    1    2    0    0 -0.38521412016E+02 -0.72275040531E+01  0.18640990878E+02  0.43400720495E+02  0.00000000000E+00 0. -1.
         11    1    3    3    0    0  0.16911156655E+02 -0.29887178008E+01 -0.72589417962E+01  0.18644352758E+02  0.51100000000E-03 0. -1.
        -11    1    3    3    0    0  0.77619239224E+01  0.10387767331E+02 -0.50768129815E+01  0.13925774787E+02  0.51100000000E-03 0.  1.
        -12    1    3    3    0    0  0.13848331439E+02 -0.17154547750E+00 -0.63052361002E+01  0.15217151960E+02  0.00000000000E+00 0.  1.
</event>
<event>
 7    1  0.2476315E-009  0.4778727E+02  0.7816164E-02  0.1312668E+00
        -11   -1    0    0    0    0  0.00000000000E+00  0.00000000000E+00  0.45593999997E+02  0.45594000000E+02  0.51100000000E-03 0.  1.
         11   -1    0    0    0    0 -0.00000000000E+00 -0.00000000000E+00 -0.45593999997E+02  0.45594000000E+02  0.51100000000E-03 0. -1.
    9900012    2    1    2    0    0 -0.66533358842E+01 -0.10690961576E+02  0.41533837376E+02  0.47787272069E+02  0.20000004672E+02 0.  0.
         12    1    1    2    0    0  0.66533358842E+01  0.10690961576E+02 -0.41533837376E+02  0.43400727931E+02  0.00000000000E+00 0. -1.
         11    1    3    3    0    0 -0.23829615662E+01  0.37243430023E+00  0.29349253386E+01  0.37988156231E+01  0.51100000000E-03 0. -1.
        -11    1    3    3    0    0  0.63584289435E+01 -0.99910449575E+00  0.12761208674E+02  0.14292525162E+02  0.51100000000E-03 0.  1.
        -12    1    3    3    0    0 -0.10628803262E+02 -0.10064291380E+02  0.25837703363E+02  0.29695931284E+02  0.00000000000E+00 0.  1.
</event>
<event>
 7    1  0.2476315E-009  0.4778728E+02  0.7816164E-02  0.1312668E+00
        -11   -1    0    0    0    0  0.00000000000E+00  0.00000000000E+00  0.45593999997E+02  0.45594000000E+02  0.51100000000E-03 0. -1.
         11   -1    0    0    0    0 -0.00000000000E+00 -0.00000000000E+00 -0.45593999997E+02  0.45594000000E+02  0.51100000000E-03 0.  1.
    9900012    2    1    2    0    0  0.37207011788E+02  0.15341051491E+02  0.16245398855E+02  0.47787279142E+02  0.20000036919E+02 0.  0.
         12    1    1    2    0    0 -0.37207011788E+02 -0.15341051491E+02 -0.16245398855E+02  0.43400720858E+02  0.00000000000E+00 0. -1.
         11    1    3    3    0    0  0.19042865519E+02  0.69146649019E+01  0.11543825985E+02  0.23317444896E+02  0.51100000000E-03 0. -1.
        -11    1    3    3    0    0  0.27449702095E+01  0.54638009800E+01 -0.31903498577E+01  0.68968336993E+01  0.51100000000E-03 0.  1.
        -12    1    3    3    0    0  0.15419176060E+02  0.29625856094E+01  0.78919227274E+01  0.17573000546E+02  0.00000000000E+00 0.  1.
</event>
<event>
 7    1  0.2476315E-009  0.4778727E+02  0.7816164E-02  0.1312668E+00
        -11   -1    0    0    0    0  0.00000000000E+00  0.00000000000E+00  0.45593999997E+02  0.45594000000E+02  0.51100000000E-03 0.  1.
         11   -1    0    0    0    0 -0.00000000000E+00 -0.00000000000E+00 -0.45593999997E+02  0.45594000000E+02  0.51100000000E-03 0. -1.
    9900012    2    1    2    0    0  0.41732173552E+02  0.85694959335E+01  0.82832733850E+01  0.47787272035E+02  0.20000004518E+02 0.  0.
         12    1    1    2    0    0 -0.41732173552E+02 -0.85694959335E+01 -0.82832733850E+01  0.43400727965E+02  0.00000000000E+00 0. -1.
         11    1    3    3    0    0  0.30875457893E+01 -0.26123625332E+01  0.37221098191E+01  0.54964969546E+01  0.51100000000E-03 0. -1.
        -11    1    3    3    0    0  0.37440107042E+02  0.95771984733E+01  0.68489004532E+01  0.39247825208E+02  0.51100000000E-03 0.  1.
        -12    1    3    3    0    0  0.12045207207E+01  0.16046599934E+01 -0.22877368874E+01  0.30429498725E+01  0.00000000000E+00 0.  1.
</event>
<event>
 7    1  0.2476315E-009  0.4778727E+02  0.7816164E-02  0.1312668E+00
        -11   -1    0    0    0    0  0.00000000000E+00  0.00000000000E+00  0.45593999997E+02  0.45594000000E+02  0.51100000000E-03 0.  1.
         11   -1    0    0    0    0 -0.00000000000E+00 -0.00000000000E+00 -0.45593999997E+02  0.45594000000E+02  0.51100000000E-03 0. -1.
    9900012    2    1    2    0    0 -0.84303257515E+01  0.83294274141E+01  0.41751328064E+02  0.47787272490E+02  0.20000006590E+02 0.  0.
         12    1    1    2    0    0  0.84303257515E+01 -0.83294274141E+01 -0.41751328064E+02  0.43400727510E+02  0.00000000000E+00 0. -1.
         11    1    3    3    0    0  0.20117721341E+00  0.28385404988E+01  0.15673783370E+01  0.32487627717E+01  0.51100000000E-03 0. -1.
        -11    1    3    3    0    0  0.19344241741E+01  0.72404088614E+01  0.23907376712E+02  0.25054504164E+02  0.51100000000E-03 0.  1.
        -12    1    3    3    0    0 -0.10565927139E+02 -0.17495219461E+01  0.16276573014E+02  0.19484005554E+02  0.00000000000E+00 0.  1.
</event>
<event>
 7    1  0.2476315E-009  0.4778724E+02  0.7816164E-02  0.1312668E+00
        -11   -1    0    0    0    0  0.00000000000E+00  0.00000000000E+00  0.45593999997E+02  0.45594000000E+02  0.51100000000E-03 0. -1.
         11   -1    0    0    0    0 -0.00000000000E+00 -0.00000000000E+00 -0.45593999997E+02  0.45594000000E+02  0.51100000000E-03 0.  1.
    9900012    2    1    2    0    0 -0.12490305336E+02 -0.18145117092E+02 -0.37394823691E+02  0.47787241474E+02  0.19999865178E+02 0.  0.
         12    1    1    2    0    0  0.12490305336E+02  0.18145117092E+02  0.37394823691E+02  0.43400758526E+02  0.00000000000E+00 0. -1.
         11    1    3    3    0    0 -0.72325335286E+01  0.65176637581E+00 -0.16317751909E+02  0.17860665393E+02  0.51100000000E-03 0. -1.
        -11    1    3    3    0    0 -0.61366853477E+01 -0.15018110362E+02 -0.20271584248E+02  0.25964199855E+02  0.51100000000E-03 0.  1.
         12    1    3    3    0    0  0.87891353997E+00 -0.37787731057E+01 -0.80548753441E+00  0.39623762268E+01  0.00000000000E+00 0. -1.
</event>
<event>
 7    1  0.2476315E-009  0.4778727E+02  0.7816164E-02  0.1312668E+00
        -11   -1    0    0    0    0  0.00000000000E+00  0.00000000000E+00  0.45593999997E+02  0.45594000000E+02  0.51100000000E-03 0.  1.
         11   -1    0    0    0    0 -0.00000000000E+00 -0.00000000000E+00 -0.45593999997E+02  0.45594000000E+02  0.51100000000E-03 0. -1.
    9900012    2    1    2    0    0  0.72985969217E+01  0.34378953537E+02  0.25464516009E+02  0.47787267992E+02  0.19999986082E+02 0.  0.
         12    1    1    2    0    0 -0.72985969217E+01 -0.34378953537E+02 -0.25464516009E+02  0.43400732008E+02  0.00000000000E+00 0. -1.
         11    1    3    3    0    0  0.22772148102E+01  0.19754662222E+02  0.93183692230E+01  0.21960518938E+02  0.51100000000E-03 0. -1.
        -11    1    3    3    0    0  0.28182206700E+01  0.10229770905E+02  0.17729501577E+02  0.20662183015E+02  0.51100000000E-03 0.  1.
        -12    1    3    3    0    0  0.22031614415E+01  0.43945204093E+01 -0.15833547918E+01  0.51645660381E+01  0.00000000000E+00 0.  1.
</event>
<event>
 7    1  0.2476315E-009  0.4778727E+02  0.7816164E-02  0.1312668E+00
        -11   -1    0    0    0    0  0.00000000000E+00  0.00000000000E+00  0.45593999997E+02  0.45594000000E+02  0.51100000000E-03 0.  1.
         11   -1    0    0    0    0 -0.00000000000E+00 -0.00000000000E+00 -0.45593999997E+02  0.45594000000E+02  0.51100000000E-03 0. -1.
    9900012    2    1    2    0    0 -0.16567053879E+02  0.13260987760E+02  0.37858979398E+02  0.47787269687E+02  0.19999993812E+02 0.  0.
         12    1    1    2    0    0  0.16567053879E+02 -0.13260987760E+02 -0.37858979398E+02  0.43400730313E+02  0.00000000000E+00 0. -1.
         11    1    3    3    0    0 -0.65671331767E+01 -0.81454302276E+00  0.17226607045E+02  0.18453907690E+02  0.51100000000E-03 0. -1.
        -11    1    3    3    0    0 -0.45639802469E+01  0.11643714354E+02  0.67139326375E+01  0.14194466928E+02  0.51100000000E-03 0.  1.
         12    1    3    3    0    0 -0.54359404554E+01  0.24318164287E+01  0.13918439715E+02  0.15138895068E+02  0.00000000000E+00 0. -1.
</event>
<event>
 7    1  0.2476315E-009  0.4778728E+02  0.7816164E-02  0.1312668E+00
        -11   -1    0    0    0    0  0.00000000000E+00  0.00000000000E+00  0.45593999997E+02  0.45594000000E+02  0.51100000000E-03 0.  1.
         11   -1    0    0    0    0 -0.00000000000E+00 -0.00000000000E+00 -0.45593999997E+02  0.45594000000E+02  0.51100000000E-03 0. -1.
    9900012    2    1    2    0    0  0.25775960943E+02 -0.18620462417E+02  0.29538126518E+02  0.47787277640E+02  0.20000030072E+02 0.  0.
         12    1    1    2    0    0 -0.25775960943E+02  0.18620462417E+02 -0.29538126518E+02  0.43400722360E+02  0.00000000000E+00 0. -1.
         11    1    3    3    0    0  0.84120858940E+01 -0.17548356759E+02  0.12013586548E+02  0.22869942633E+02  0.51100000000E-03 0. -1.
        -11    1    3    3    0    0  0.10307874649E+02 -0.20240773127E+01  0.11650781579E+02  0.15687252163E+02  0.51100000000E-03 0.  1.
         12    1    3    3    0    0  0.70560004003E+01  0.95197165469E+00  0.58737583907E+01  0.92300828443E+01  0.00000000000E+00 0. -1.
</event>
<event>
 7    1  0.2476315E-009  0.4778727E+02  0.7816164E-02  0.1312668E+00
        -11   -1    0    0    0    0  0.00000000000E+00  0.00000000000E+00  0.45593999997E+02  0.45594000000E+02  0.51100000000E-03 0. -1.
         11   -1    0    0    0    0 -0.00000000000E+00 -0.00000000000E+00 -0.45593999997E+02  0.45594000000E+02  0.51100000000E-03 0.  1.
    9900012    2    1    2    0    0  0.21988211835E+02 -0.37239538654E+02  0.36549202909E+01  0.47787272573E+02  0.20000006968E+02 0.  0.
         12    1    1    2    0    0 -0.21988211835E+02  0.37239538654E+02 -0.36549202909E+01  0.43400727427E+02  0.00000000000E+00 0. -1.
         11    1    3    3    0    0  0.89522472710E+01 -0.26916060106E+02  0.48691319617E+01  0.28780644001E+02  0.51100000000E-03 0. -1.
        -11    1    3    3    0    0  0.76981166822E+01 -0.10119809236E+02 -0.35128047664E+01  0.13191335680E+02  0.51100000000E-03 0.  1.
         12    1    3    3    0    0  0.53378478818E+01 -0.20366931263E+00  0.22985930956E+01  0.58152928918E+01  0.00000000000E+00 0. -1.
</event>
<event>
 7    1  0.2476315E-009  0.4778727E+02  0.7816164E-02  0.1312668E+00
        -11   -1    0    0    0    0  0.00000000000E+00  0.00000000000E+00  0.45593999997E+02  0.45594000000E+02  0.51100000000E-03 0.  1.
         11   -1    0    0    0    0 -0.00000000000E+00 -0.00000000000E+00 -0.45593999997E+02  0.45594000000E+02  0.51100000000E-03 0. -1.
    9900012    2    1    2    0    0 -0.22167943334E+01  0.15817379561E+02  0.40354922368E+02  0.47787269216E+02  0.19999991664E+02 0.  0.
         12    1    1    2    0    0  0.22167943334E+01 -0.15817379561E+02 -0.40354922368E+02  0.43400730784E+02  0.00000000000E+00 0. -1.
         11    1    3    3    0    0 -0.47904405157E+01  0.63626026485E+00  0.47482031760E+00  0.48557802724E+01  0.51100000000E-03 0. -1.
        -11    1    3    3    0    0  0.21976258150E+01  0.11492071431E+02  0.25096438364E+02  0.27689862473E+02  0.51100000000E-03 0.  1.
         12    1    3    3    0    0  0.37602036728E+00  0.36890478651E+01  0.14783663686E+02  0.15241626470E+02  0.00000000000E+00 0. -1.
</event>
<event>
 7    1  0.2476315E-009  0.4778727E+02  0.7816164E-02  0.1312668E+00
        -11   -1    0    0    0    0  0.00000000000E+00  0.00000000000E+00  0.45593999997E+02  0.45594000000E+02  0.51100000000E-03 0.  1.
         11   -1    0    0    0    0 -0.00000000000E+00 -0.00000000000E+00 -0.45593999997E+02  0.45594000000E+02  0.51100000000E-03 0. -1.
    9900012    2    1    2    0    0  0.24978071130E+02  0.25984000942E+01  0.35397284633E+02  0.47787268672E+02  0.19999989185E+02 0.  0.
         12    1    1    2    0    0 -0.24978071130E+02 -0.25984000942E+01 -0.35397284633E+02  0.43400731328E+02  0.00000000000E+00 0. -1.
         11    1    3    3    0    0  0.95112746963E+01  0.46083830175E+01  0.29817144467E+01  0.10981446248E+02  0.51100000000E-03 0. -1.
        -11    1    3    3    0    0  0.52023551526E+01 -0.44368616880E+01  0.11436484397E+02  0.13324541884E+02  0.51100000000E-03 0.  1.
         12    1    3    3    0    0  0.10264441281E+02  0.24268787648E+01  0.20979085788E+02  0.23481280541E+02  0.00000000000E+00 0. -1.
</event>
<event>
 7    1  0.2476315E-009  0.4778727E+02  0.7816164E-02  0.1312668E+00
        -11   -1    0    0    0    0  0.00000000000E+00  0.00000000000E+00  0.45593999997E+02  0.45594000000E+02  0.51100000000E-03 0.  1.
         11   -1    0    0    0    0 -0.00000000000E+00 -0.00000000000E+00 -0.45593999997E+02  0.45594000000E+02  0.51100000000E-03 0. -1.
    9900012    2    1    2    0    0  0.34738612058E+02  0.14858979700E+02  0.21355629192E+02  0.47787270240E+02  0.19999996334E+02 0.  0.
         12    1    1    2    0    0 -0.34738612058E+02 -0.14858979700E+02 -0.21355629192E+02  0.43400729760E+02  0.00000000000E+00 0. -1.
         11    1    3    3    0    0  0.77139035842E+01  0.40882650202E+00  0.58003488285E+00  0.77464758659E+01  0.51100000000E-03 0. -1.
        -11    1    3    3    0    0  0.12058544738E+01  0.72043835394E+01  0.31776154425E+01  0.79658312407E+01  0.51100000000E-03 0.  1.
        -12    1    3    3    0    0  0.25818854000E+02  0.72457696584E+01  0.17597978867E+02  0.32074963134E+02  0.00000000000E+00 0.  1.
</event>
<event>
 7    1  0.2476315E-009  0.4778727E+02  0.7816164E-02  0.1312668E+00
        -11   -1    0    0    0    0  0.00000000000E+00  0.00000000000E+00  0.45593999997E+02  0.45594000000E+02  0.51100000000E-03 0. -1.
         11   -1    0    0    0    0 -0.00000000000E+00 -0.00000000000E+00 -0.45593999997E+02  0.45594000000E+02  0.51100000000E-03 0.  1.
    9900012    2    1    2    0    0 -0.23921489007E+02 -0.36146591988E+02 -0.21930602231E+01  0.47787271184E+02  0.20000000635E+02 0.  0.
         12    1    1    2    0    0  0.23921489007E+02  0.36146591988E+02  0.21930602231E+01  0.43400728816E+02  0.00000000000E+00 0. -1.
         11    1    3    3    0    0 -0.97584848945E+00 -0.11866246595E+01 -0.56114908080E+01  0.58180054749E+01  0.51100000000E-03 0. -1.
        -11    1    3    3    0    0 -0.15961302716E+02 -0.23453966081E+02  0.23266763456E+01  0.28465156462E+02  0.51100000000E-03 0.  1.
         12    1    3    3    0    0 -0.69843378019E+01 -0.11506001247E+02  0.10917542393E+01  0.13504109247E+02  0.00000000000E+00 0. -1.
</event>
<event>
 7    1  0.2476315E-009  0.4778727E+02  0.7816164E-02  0.1312668E+00
        -11   -1    0    0    0    0  0.00000000000E+00  0.00000000000E+00  0.45593999997E+02  0.45594000000E+02  0.51100000000E-03 0.  1.
         11   -1    0    0    0    0 -0.00000000000E+00 -0.00000000000E+00 -0.45593999997E+02  0.45594000000E+02  0.51100000000E-03 0. -1.
    9900012    2    1    2    0    0 -0.11026867335E+02  0.76616226230E+01  0.41271429072E+02  0.47787272793E+02  0.20000007973E+02 0.  0.
         12    1    1    2    0    0  0.11026867335E+02 -0.76616226230E+01 -0.41271429072E+02  0.43400727207E+02  0.00000000000E+00 0. -1.
         11    1    3    3    0    0  0.36488101331E+01 -0.10521217312E+01  0.85874352483E+01  0.93896123418E+01  0.51100000000E-03 0. -1.
        -11    1    3    3    0    0 -0.76812220934E+01  0.10410355712E+02  0.21773171365E+02  0.25326817219E+02  0.51100000000E-03 0.  1.
        -12    1    3    3    0    0 -0.69944553746E+01 -0.16966113574E+01  0.10910822459E+02  0.13070843233E+02  0.00000000000E+00 0.  1.
</event>
<event>
 7    1  0.2476315E-009  0.4778727E+02  0.7816164E-02  0.1312668E+00
        -11   -1    0    0    0    0  0.00000000000E+00  0.00000000000E+00  0.45593999997E+02  0.45594000000E+02  0.51100000000E-03 0.  1.
         11   -1    0    0    0    0 -0.00000000000E+00 -0.00000000000E+00 -0.45593999997E+02  0.45594000000E+02  0.51100000000E-03 0. -1.
    9900012    2    1    2    0    0  0.19212690259E+02 -0.22218199221E+02  0.31950703141E+02  0.47787271034E+02  0.19999999951E+02 0.  0.
         12    1    1    2    0    0 -0.19212690259E+02  0.22218199221E+02 -0.31950703141E+02  0.43400728966E+02  0.00000000000E+00 0. -1.
         11    1    3    3    0    0  0.39355749834E+01 -0.96893355649E+00  0.16600767268E+02  0.17088389533E+02  0.51100000000E-03 0. -1.
        -11    1    3    3    0    0  0.94745530865E+01 -0.12129041856E+02  0.64140169886E+01  0.16673944546E+02  0.51100000000E-03 0.  1.
        -12    1    3    3    0    0  0.58025621894E+01 -0.91202238081E+01  0.89359188845E+01  0.14024936955E+02  0.00000000000E+00 0.  1.
</event>
<event>
 7    1  0.2476315E-009  0.4778727E+02  0.7816164E-02  0.1312668E+00
        -11   -1    0    0    0    0  0.00000000000E+00  0.00000000000E+00  0.45593999997E+02  0.45594000000E+02  0.51100000000E-03 0. -1.
         11   -1    0    0    0    0 -0.00000000000E+00 -0.00000000000E+00 -0.45593999997E+02  0.45594000000E+02  0.51100000000E-03 0.  1.
    9900012    2    1    2    0    0 -0.39137808821E+02  0.14045387142E+02 -0.12433117659E+02  0.47787269661E+02  0.19999993692E+02 0.  0.
         12    1    1    2    0    0  0.39137808821E+02 -0.14045387142E+02  0.12433117659E+02  0.43400730339E+02  0.00000000000E+00 0. -1.
         11    1    3    3    0    0 -0.28841890839E+01  0.10700595939E+01  0.37893791723E+01  0.48808778901E+01  0.51100000000E-03 0. -1.
        -11    1    3    3    0    0 -0.25970134508E+02  0.62472430342E+01 -0.14795415890E+02  0.30534902382E+02  0.51100000000E-03 0.  1.
        -12    1    3    3    0    0 -0.10283485229E+02  0.67280845136E+01 -0.14270809413E+01  0.12371489388E+02  0.00000000000E+00 0.  1.
</event>
<event>
 7    1  0.2476315E-009  0.4778727E+02  0.7816164E-02  0.1312668E+00
        -11   -1    0    0    0    0  0.00000000000E+00  0.00000000000E+00  0.45593999997E+02  0.45594000000E+02  0.51100000000E-03 0.  1.
         11   -1    0    0    0    0 -0.00000000000E+00 -0.00000000000E+00 -0.45593999997E+02  0.45594000000E+02  0.51100000000E-03 0. -1.
    9900012    2    1    2    0    0  0.11480402645E+02 -0.36771844370E+01  0.41692951005E+02  0.47787268511E+02  0.19999988448E+02 0.  0.
         12    1    1    2    0    0 -0.11480402645E+02  0.36771844370E+01 -0.41692951005E+02  0.43400731489E+02  0.00000000000E+00 0. -1.
         11    1    3    3    0    0  0.57477969578E+01 -0.81157339007E+01  0.16993983232E+02  0.19690042482E+02  0.51100000000E-03 0. -1.
        -11    1    3    3    0    0  0.53442753384E+01  0.42107881603E+01  0.25918813508E+02  0.26796957099E+02  0.51100000000E-03 0.  1.
        -12    1    3    3    0    0  0.38833034889E+00  0.22776130340E+00 -0.12198457351E+01  0.13002689294E+01  0.00000000000E+00 0.  1.
</event>
<event>
 7    1  0.2476315E-009  0.4778727E+02  0.7816164E-02  0.1312668E+00
        -11   -1    0    0    0    0  0.00000000000E+00  0.00000000000E+00  0.45593999997E+02  0.45594000000E+02  0.51100000000E-03 0. -1.
         11   -1    0    0    0    0 -0.00000000000E+00 -0.00000000000E+00 -0.45593999997E+02  0.45594000000E+02  0.51100000000E-03 0.  1.
    9900012    2    1    2    0    0 -0.37290841472E+01  0.34625287020E+02  0.25899931604E+02  0.47787273890E+02  0.20000012973E+02 0.  0.
         12    1    1    2    0    0  0.37290841472E+01 -0.34625287020E+02 -0.25899931604E+02  0.43400726110E+02  0.00000000000E+00 0. -1.
         11    1    3    3    0    0  0.54304172673E+00 -0.40626248527E+00 -0.21847188207E+01  0.22875620451E+01  0.51100000000E-03 0. -1.
        -11    1    3    3    0    0 -0.26098683521E+01  0.44419553293E+01  0.36522102256E+01  0.63151421010E+01  0.51100000000E-03 0.  1.
         12    1    3    3    0    0 -0.16622575218E+01  0.30589594176E+02  0.24432440199E+02  0.39184569744E+02  0.00000000000E+00 0. -1.
</event>
<event>
 7    1  0.2476315E-009  0.4778727E+02  0.7816164E-02  0.1312668E+00
        -11   -1    0    0    0    0  0.00000000000E+00  0.00000000000E+00  0.45593999997E+02  0.45594000000E+02  0.51100000000E-03 0. -1.
         11   -1    0    0    0    0 -0.00000000000E+00 -0.00000000000E+00 -0.45593999997E+02  0.45594000000E+02  0.51100000000E-03 0.  1.
    9900012    2    1    2    0    0  0.32414526182E+01  0.38925072129E+02 -0.18919707895E+02  0.47787267263E+02  0.19999982758E+02 0.  0.
         12    1    1    2    0    0 -0.32414526182E+01 -0.38925072129E+02  0.18919707895E+02  0.43400732737E+02  0.00000000000E+00 0. -1.
         11    1    3    3    0    0  0.44623048299E+01  0.50446448459E+01 -0.27537501216E+00  0.67406555820E+01  0.51100000000E-03 0. -1.
        -11    1    3    3    0    0  0.36611103828E+00  0.30221481885E+02 -0.20628093947E+02  0.36592215904E+02  0.51100000000E-03 0.  1.
         12    1    3    3    0    0 -0.15869632500E+01  0.36589453977E+01  0.19837610638E+01  0.44543957770E+01  0.00000000000E+00 0. -1.
</event>
<event>
 7    1  0.2476315E-009  0.4778727E+02  0.7816164E-02  0.1312668E+00
        -11   -1    0    0    0    0  0.00000000000E+00  0.00000000000E+00  0.45593999997E+02  0.45594000000E+02  0.51100000000E-03 0. -1.
         11   -1    0    0    0    0 -0.00000000000E+00 -0.00000000000E+00 -0.45593999997E+02  0.45594000000E+02  0.51100000000E-03 0.  1.
    9900012    2    1    2    0    0  0.27375648963E+02 -0.47588626079E+01 -0.33339922221E+02  0.47787270246E+02  0.19999996361E+02 0.  0.
         12    1    1    2    0    0 -0.27375648963E+02  0.47588626079E+01  0.33339922221E+02  0.43400729754E+02  0.00000000000E+00 0. -1.
         11    1    3    3    0    0  0.64339528340E+01 -0.38018788481E+01 -0.19624112956E+02  0.20998948579E+02  0.51100000000E-03 0.  1.
        -11    1    3    3    0    0  0.97233540091E+01 -0.14682208681E+01 -0.10945984628E+01  0.98943131020E+01  0.51100000000E-03 0. -1.
         12    1    3    3    0    0  0.11218342120E+02  0.51123710835E+00 -0.12621210802E+02  0.16894008565E+02  0.00000000000E+00 0. -1.
</event>
<event>
 7    1  0.2476315E-009  0.4778727E+02  0.7816164E-02  0.1312668E+00
        -11   -1    0    0    0    0  0.00000000000E+00  0.00000000000E+00  0.45593999997E+02  0.45594000000E+02  0.51100000000E-03 0.  1.
         11   -1    0    0    0    0 -0.00000000000E+00 -0.00000000000E+00 -0.45593999997E+02  0.45594000000E+02  0.51100000000E-03 0. -1.
    9900012    2    1    2    0    0 -0.59865192676E+01 -0.44483887832E+01  0.42755079161E+02  0.47787269939E+02  0.19999994962E+02 0.  0.
         12    1    1    2    0    0  0.59865192676E+01  0.44483887832E+01 -0.42755079161E+02  0.43400730061E+02  0.00000000000E+00 0. -1.
         11    1    3    3    0    0  0.10534750709E+00  0.42587051817E+00 -0.14216547160E+01  0.14878058301E+01  0.51100000000E-03 0. -1.
        -11    1    3    3    0    0 -0.24389653425E+01  0.18434827406E+01  0.30312704532E+02  0.30466490393E+02  0.51100000000E-03 0.  1.
        -12    1    3    3    0    0 -0.36529014322E+01 -0.67177420420E+01  0.13864029345E+02  0.15832973716E+02  0.00000000000E+00 0.  1.
</event>
<event>
 7    1  0.2476315E-009  0.4778726E+02  0.7816164E-02  0.1312668E+00
        -11   -1    0    0    0    0  0.00000000000E+00  0.00000000000E+00  0.45593999997E+02  0.45594000000E+02  0.51100000000E-03 0. -1.
         11   -1    0    0    0    0 -0.00000000000E+00 -0.00000000000E+00 -0.45593999997E+02  0.45594000000E+02  0.51100000000E-03 0.  1.
    9900012    2    1    2    0    0 -0.39887544346E+02 -0.10582910683E+02  0.13439113621E+02  0.47787263055E+02  0.19999963572E+02 0.  0.
         12    1    1    2    0    0  0.39887544346E+02  0.10582910683E+02 -0.13439113621E+02  0.43400736945E+02  0.00000000000E+00 0. -1.
         11    1    3    3    0    0 -0.18653548330E+02 -0.11699780736E+02  0.15015384265E+01  0.22070214146E+02  0.51100000000E-03 0. -1.
        -11    1    3    3    0    0 -0.10657013665E+02 -0.28532363419E+01  0.33614084664E+01  0.11533081332E+02  0.51100000000E-03 0.  1.
         12    1    3    3    0    0 -0.10576982352E+02  0.39701063952E+01  0.85761667281E+01  0.14183967576E+02  0.00000000000E+00 0. -1.
</event>
<event>
 7    1  0.2476315E-009  0.4778727E+02  0.7816164E-02  0.1312668E+00
        -11   -1    0    0    0    0  0.00000000000E+00  0.00000000000E+00  0.45593999997E+02  0.45594000000E+02  0.51100000000E-03 0.  1.
         11   -1    0    0    0    0 -0.00000000000E+00 -0.00000000000E+00 -0.45593999997E+02  0.45594000000E+02  0.51100000000E-03 0. -1.
    9900012    2    1    2    0    0 -0.37740619584E+02 -0.20816402081E+02 -0.50937447251E+01  0.47787271924E+02  0.20000004009E+02 0.  0.
         12    1    1    2    0    0  0.37740619584E+02  0.20816402081E+02  0.50937447251E+01  0.43400728076E+02  0.00000000000E+00 0. -1.
         11    1    3    3    0    0 -0.79294465026E+01 -0.13406769007E+02 -0.30049931309E+01  0.15863403198E+02  0.51100000000E-03 0. -1.
        -11    1    3    3    0    0 -0.25853311453E+02 -0.92903192888E+01 -0.19123130202E+01  0.27538349386E+02  0.51100000000E-03 0.  1.
        -12    1    3    3    0    0 -0.39578616285E+01  0.18806862142E+01 -0.17643857395E+00  0.43855193395E+01  0.00000000000E+00 0.  1.
</event>
<event>
 7    1  0.2476315E-009  0.4778728E+02  0.7816164E-02  0.1312668E+00
        -11   -1    0    0    0    0  0.00000000000E+00  0.00000000000E+00  0.45593999997E+02  0.45594000000E+02  0.51100000000E-03 0.  1.
         11   -1    0    0    0    0 -0.00000000000E+00 -0.00000000000E+00 -0.45593999997E+02  0.45594000000E+02  0.51100000000E-03 0. -1.
    9900012    2    1    2    0    0 -0.69635028863E+01 -0.41002453714E+02  0.12406898993E+02  0.47787277361E+02  0.20000028798E+02 0.  0.
         12    1    1    2    0    0  0.69635028863E+01  0.41002453714E+02 -0.12406898993E+02  0.43400722639E+02  0.00000000000E+00 0. -1.
         11    1    3    3    0    0 -0.11973656359E+02 -0.14977154098E+02  0.72941882188E+01  0.20515573926E+02  0.51100000000E-03 0. -1.
        -11    1    3    3    0    0  0.36928773503E+01 -0.14410097592E+02  0.46002214803E+01  0.15570815446E+02  0.51100000000E-03 0.  1.
        -12    1    3    3    0    0  0.13172761225E+01 -0.11615202024E+02  0.51248929421E+00  0.11700887989E+02  0.00000000000E+00 0.  1.
</event>
<event>
 7    1  0.2476315E-009  0.4778727E+02  0.7816164E-02  0.1312668E+00
        -11   -1    0    0    0    0  0.00000000000E+00  0.00000000000E+00  0.45593999997E+02  0.45594000000E+02  0.51100000000E-03 0.  1.
         11   -1    0    0    0    0 -0.00000000000E+00 -0.00000000000E+00 -0.45593999997E+02  0.45594000000E+02  0.51100000000E-03 0. -1.
    9900012    2    1    2    0    0 -0.14091792457E+02 -0.40797673299E+02  0.45381077058E+01  0.47787272093E+02  0.20000004783E+02 0.  0.
         12    1    1    2    0    0  0.14091792457E+02  0.40797673299E+02 -0.45381077058E+01  0.43400727907E+02  0.00000000000E+00 0. -1.
         11    1    3    3    0    0 -0.45784814954E+01 -0.37241378613E+01  0.68469373059E+01  0.90394826370E+01  0.51100000000E-03 0. -1.
        -11    1    3    3    0    0 -0.10027922268E+02 -0.31283684817E+02 -0.15797601450E+01  0.32889569823E+02  0.51100000000E-03 0.  1.
         12    1    3    3    0    0  0.51461130643E+00 -0.57898506203E+01 -0.72906945513E+00  0.58582196333E+01  0.00000000000E+00 0. -1.
</event>
<event>
 7    1  0.2476315E-009  0.4778728E+02  0.7816164E-02  0.1312668E+00
        -11   -1    0    0    0    0  0.00000000000E+00  0.00000000000E+00  0.45593999997E+02  0.45594000000E+02  0.51100000000E-03 0.  1.
         11   -1    0    0    0    0 -0.00000000000E+00 -0.00000000000E+00 -0.45593999997E+02  0.45594000000E+02  0.51100000000E-03 0. -1.
    9900012    2    1    2    0    0  0.29808202186E+02  0.27099428025E+02  0.16146649474E+02  0.47787283346E+02  0.20000056088E+02 0.  0.
         12    1    1    2    0    0 -0.29808202186E+02 -0.27099428025E+02 -0.16146649474E+02  0.43400716654E+02  0.00000000000E+00 0. -1.
         11    1    3    3    0    0  0.13515625507E+02  0.10008520002E+02  0.23406320262E+01  0.16980022497E+02  0.51100000000E-03 0.  1.
        -11    1    3    3    0    0 -0.21580005978E+01 -0.24084497270E+00  0.16405298201E+01  0.27214538821E+01  0.51100000000E-03 0. -1.
        -12    1    3    3    0    0  0.18450577277E+02  0.17331752995E+02  0.12165487627E+02  0.28085806967E+02  0.00000000000E+00 0.  1.
</event>
<event>
 7    1  0.2476315E-009  0.4778727E+02  0.7816164E-02  0.1312668E+00
        -11   -1    0    0    0    0  0.00000000000E+00  0.00000000000E+00  0.45593999997E+02  0.45594000000E+02  0.51100000000E-03 0. -1.
         11   -1    0    0    0    0 -0.00000000000E+00 -0.00000000000E+00 -0.45593999997E+02  0.45594000000E+02  0.51100000000E-03 0.  1.
    9900012    2    1    2    0    0 -0.43184892516E+02  0.41441256670E+01  0.12307642978E+01  0.47787268440E+02  0.19999988124E+02 0.  0.
         12    1    1    2    0    0  0.43184892516E+02 -0.41441256670E+01 -0.12307642978E+01  0.43400731560E+02  0.00000000000E+00 0. -1.
         11    1    3    3    0    0 -0.32614620832E+02 -0.20903007479E+00 -0.22170227596E+01  0.32690554840E+02  0.51100000000E-03 0. -1.
        -11    1    3    3    0    0 -0.83039924213E+00 -0.62484384800E+00 -0.24560564164E+01  0.26668719725E+01  0.51100000000E-03 0.  1.
         12    1    3    3    0    0 -0.97398724424E+01  0.49779995898E+01  0.59038434738E+01  0.12429841627E+02  0.00000000000E+00 0. -1.
</event>
<event>
 7    1  0.2476315E-009  0.4778727E+02  0.7816164E-02  0.1312668E+00
        -11   -1    0    0    0    0  0.00000000000E+00  0.00000000000E+00  0.45593999997E+02  0.45594000000E+02  0.51100000000E-03 0.  1.
         11   -1    0    0    0    0 -0.00000000000E+00 -0.00000000000E+00 -0.45593999997E+02  0.45594000000E+02  0.51100000000E-03 0. -1.
    9900012    2    1    2    0    0  0.92802131411E+01  0.41726061020E+02 -0.75124366417E+01  0.47787271567E+02  0.20000002385E+02 0.  0.
         12    1    1    2    0    0 -0.92802131411E+01 -0.41726061020E+02  0.75124366417E+01  0.43400728433E+02  0.00000000000E+00 0. -1.
         11    1    3    3    0    0  0.48951666378E+01  0.66094733696E+01 -0.71363112003E+01  0.10889202562E+02  0.51100000000E-03 0. -1.
        -11    1    3    3    0    0  0.36769514117E+01  0.27518693226E+02 -0.46529533575E+01  0.28150460454E+02  0.51100000000E-03 0.  1.
         12    1    3    3    0    0  0.70809509161E+00  0.75978944240E+01  0.42768279161E+01  0.87476085510E+01  0.00000000000E+00 0. -1.
</event>
<event>
 7    1  0.2476315E-009  0.4778728E+02  0.7816164E-02  0.1312668E+00
        -11   -1    0    0    0    0  0.00000000000E+00  0.00000000000E+00  0.45593999997E+02  0.45594000000E+02  0.51100000000E-03 0.  1.
         11   -1    0    0    0    0 -0.00000000000E+00 -0.00000000000E+00 -0.45593999997E+02  0.45594000000E+02  0.51100000000E-03 0. -1.
    9900012    2    1    2    0    0  0.24691615101E+02  0.20912820327E+02  0.28924054831E+02  0.47787275833E+02  0.20000021834E+02 0.  0.
         12    1    1    2    0    0 -0.24691615101E+02 -0.20912820327E+02 -0.28924054831E+02  0.43400724167E+02  0.00000000000E+00 0. -1.
         11    1    3    3    0    0  0.11400891901E+02  0.12230706573E+02  0.12777072707E+02  0.21043386291E+02  0.51100000000E-03 0. -1.
        -11    1    3    3    0    0  0.96764702305E+00 -0.35758249630E+01  0.44642797950E+01  0.58010912143E+01  0.51100000000E-03 0.  1.
        -12    1    3    3    0    0  0.12323076178E+02  0.12257938717E+02  0.11682702329E+02  0.20942798328E+02  0.00000000000E+00 0.  1.
</event>
<event>
 7    1  0.2476315E-009  0.4778727E+02  0.7816164E-02  0.1312668E+00
        -11   -1    0    0    0    0  0.00000000000E+00  0.00000000000E+00  0.45593999997E+02  0.45594000000E+02  0.51100000000E-03 0. -1.
         11   -1    0    0    0    0 -0.00000000000E+00 -0.00000000000E+00 -0.45593999997E+02  0.45594000000E+02  0.51100000000E-03 0.  1.
    9900012    2    1    2    0    0  0.16478164368E+02  0.25187742105E+02 -0.31267739500E+02  0.47787265136E+02  0.19999973060E+02 0.  0.
         12    1    1    2    0    0 -0.16478164368E+02 -0.25187742105E+02  0.31267739500E+02  0.43400734864E+02  0.00000000000E+00 0. -1.
         11    1    3    3    0    0  0.78588575761E+01  0.47559497577E+01 -0.12235505677E+02  0.15299944442E+02  0.51100000000E-03 0.  1.
        -11    1    3    3    0    0  0.27168681833E+01  0.94040072110E+01 -0.91227622662E-01  0.97890268714E+01  0.51100000000E-03 0. -1.
        -12    1    3    3    0    0  0.59024386090E+01  0.11027785136E+02 -0.18941006200E+02  0.22698293822E+02  0.00000000000E+00 0.  1.
</event>
<event>
 7    1  0.2476315E-009  0.4778726E+02  0.7816164E-02  0.1312668E+00
        -11   -1    0    0    0    0  0.00000000000E+00  0.00000000000E+00  0.45593999997E+02  0.45594000000E+02  0.51100000000E-03 0.  1.
         11   -1    0    0    0    0 -0.00000000000E+00 -0.00000000000E+00 -0.45593999997E+02  0.45594000000E+02  0.51100000000E-03 0. -1.
    9900012    2    1    2    0    0 -0.41963234327E+02 -0.11042757513E+02  0.87669740295E+00  0.47787261216E+02  0.19999955189E+02 0.  0.
         12    1    1    2    0    0  0.41963234327E+02  0.11042757513E+02 -0.87669740295E+00  0.43400738784E+02  0.00000000000E+00 0. -1.
         11    1    3    3    0    0 -0.16170796552E+02 -0.93356450366E+01  0.32548895925E+01  0.18953712984E+02  0.51100000000E-03 0. -1.
        -11    1    3    3    0    0 -0.29133644543E+01 -0.44473664890E+01 -0.22949258937E+01  0.57908070465E+01  0.51100000000E-03 0.  1.
        -12    1    3    3    0    0 -0.22879073321E+02  0.27402540125E+01 -0.83266295819E-01  0.23042741185E+02  0.00000000000E+00 0.  1.
</event>
<event>
 7    1  0.2476315E-009  0.4778727E+02  0.7816164E-02  0.1312668E+00
        -11   -1    0    0    0    0  0.00000000000E+00  0.00000000000E+00  0.45593999997E+02  0.45594000000E+02  0.51100000000E-03 0.  1.
         11   -1    0    0    0    0 -0.00000000000E+00 -0.00000000000E+00 -0.45593999997E+02  0.45594000000E+02  0.51100000000E-03 0. -1.
    9900012    2    1    2    0    0  0.29883130030E+02  0.21326981708E+02  0.23146962820E+02  0.47787268474E+02  0.19999988281E+02 0.  0.
         12    1    1    2    0    0 -0.29883130030E+02 -0.21326981708E+02 -0.23146962820E+02  0.43400731526E+02  0.00000000000E+00 0. -1.
         11    1    3    3    0    0  0.69863515434E+01 -0.29168056957E+01  0.74664456927E+01  0.10633187429E+02  0.51100000000E-03 0. -1.
        -11    1    3    3    0    0  0.19787434123E+02  0.18799552620E+02  0.13937627064E+02  0.30646748217E+02  0.51100000000E-03 0.  1.
         12    1    3    3    0    0  0.31093443638E+01  0.54442347842E+01  0.17428900641E+01  0.65073328279E+01  0.00000000000E+00 0. -1.
</event>
<event>
 7    1  0.2476315E-009  0.4778727E+02  0.7816164E-02  0.1312668E+00
        -11   -1    0    0    0    0  0.00000000000E+00  0.00000000000E+00  0.45593999997E+02  0.45594000000E+02  0.51100000000E-03 0.  1.
         11   -1    0    0    0    0 -0.00000000000E+00 -0.00000000000E+00 -0.45593999997E+02  0.45594000000E+02  0.51100000000E-03 0. -1.
    9900012    2    1    2    0    0 -0.28033330777E+02 -0.67778086171E+01  0.32431729578E+02  0.47787269505E+02  0.19999992979E+02 0.  0.
         12    1    1    2    0    0  0.28033330777E+02  0.67778086171E+01 -0.32431729578E+02  0.43400730495E+02  0.00000000000E+00 0. -1.
         11    1    3    3    0    0 -0.49901959975E+01 -0.86973002607E+01  0.62163959749E+01  0.11797824676E+02  0.51100000000E-03 0. -1.
        -11    1    3    3    0    0 -0.27411860238E+01  0.22426964496E+01  0.78474377064E+01  0.86096496444E+01  0.51100000000E-03 0.  1.
         12    1    3    3    0    0 -0.20301948756E+02 -0.32320480598E+00  0.18367895897E+02  0.27379795184E+02  0.00000000000E+00 0. -1.
</event>
<event>
 7    1  0.2476315E-009  0.4778728E+02  0.7816164E-02  0.1312668E+00
        -11   -1    0    0    0    0  0.00000000000E+00  0.00000000000E+00  0.45593999997E+02  0.45594000000E+02  0.51100000000E-03 0.  1.
         11   -1    0    0    0    0 -0.00000000000E+00 -0.00000000000E+00 -0.45593999997E+02  0.45594000000E+02  0.51100000000E-03 0. -1.
    9900012    2    1    2    0    0  0.43306645551E+02  0.33343345529E+00  0.28365807716E+01  0.47787275154E+02  0.20000018735E+02 0.  0.
         12    1    1    2    0    0 -0.43306645551E+02 -0.33343345529E+00 -0.28365807716E+01  0.43400724846E+02  0.00000000000E+00 0. -1.
         11    1    3    3    0    0  0.14070969193E+02 -0.41313492099E+01 -0.33292101070E+01  0.15038080347E+02  0.51100000000E-03 0. -1.
        -11    1    3    3    0    0  0.15109948946E+02  0.15080090126E+01  0.95334476731E+01  0.17929619994E+02  0.51100000000E-03 0.  1.
        -12    1    3    3    0    0  0.14125727412E+02  0.29567736526E+01 -0.33676567945E+01  0.14819574813E+02  0.00000000000E+00 0.  1.
</event>
<event>
 7    1  0.2476315E-009  0.4778727E+02  0.7816164E-02  0.1312668E+00
        -11   -1    0    0    0    0  0.00000000000E+00  0.00000000000E+00  0.45593999997E+02  0.45594000000E+02  0.51100000000E-03 0. -1.
         11   -1    0    0    0    0 -0.00000000000E+00 -0.00000000000E+00 -0.45593999997E+02  0.45594000000E+02  0.51100000000E-03 0.  1.
    9900012    2    1    2    0    0 -0.34602474982E+02  0.12931437983E+01  0.26165237421E+02  0.47787272528E+02  0.20000006766E+02 0.  0.
         12    1    1    2    0    0  0.34602474982E+02 -0.12931437983E+01 -0.26165237421E+02  0.43400727472E+02  0.00000000000E+00 0. -1.
         11    1    3    3    0    0 -0.89468574093E+01 -0.31019565826E+01  0.15134603334E+02  0.17852860008E+02  0.51100000000E-03 0. -1.
        -11    1    3    3    0    0 -0.24395751489E+02  0.66138848163E+01  0.10029776010E+02  0.27193612672E+02  0.51100000000E-03 0.  1.
        -12    1    3    3    0    0 -0.12598660841E+01 -0.22187844354E+01  0.10008580771E+01  0.27407998488E+01  0.00000000000E+00 0.  1.
</event>
<event>
 7    1  0.2476315E-009  0.4778727E+02  0.7816164E-02  0.1312668E+00
        -11   -1    0    0    0    0  0.00000000000E+00  0.00000000000E+00  0.45593999997E+02  0.45594000000E+02  0.51100000000E-03 0.  1.
         11   -1    0    0    0    0 -0.00000000000E+00 -0.00000000000E+00 -0.45593999997E+02  0.45594000000E+02  0.51100000000E-03 0. -1.
    9900012    2    1    2    0    0 -0.28488776057E+02 -0.31209752873E+02  0.98976913957E+01  0.47787270392E+02  0.19999997024E+02 0.  0.
         12    1    1    2    0    0  0.28488776057E+02  0.31209752873E+02 -0.98976913957E+01  0.43400729608E+02  0.00000000000E+00 0. -1.
         11    1    3    3    0    0 -0.18543700217E+02 -0.18323246758E+02 -0.10075231798E+01  0.26088796306E+02  0.51100000000E-03 0. -1.
        -11    1    3    3    0    0 -0.11597693283E+01 -0.19252270766E+00  0.50544567619E+01  0.51893798576E+01  0.51100000000E-03 0.  1.
        -12    1    3    3    0    0 -0.87853065110E+01 -0.12693983407E+02  0.58507578136E+01  0.16509094228E+02  0.00000000000E+00 0.  1.
</event>
<event>
 7    1  0.2476315E-009  0.4778730E+02  0.7816164E-02  0.1312668E+00
        -11   -1    0    0    0    0  0.00000000000E+00  0.00000000000E+00  0.45593999997E+02  0.45594000000E+02  0.51100000000E-03 0.  1.
         11   -1    0    0    0    0 -0.00000000000E+00 -0.00000000000E+00 -0.45593999997E+02  0.45594000000E+02  0.51100000000E-03 0. -1.
    9900012    2    1    2    0    0  0.25978435518E+02  0.12395468163E+01  0.34744860832E+02  0.47787297903E+02  0.20000122459E+02 0.  0.
         12    1    1    2    0    0 -0.25978435518E+02 -0.12395468163E+01 -0.34744860832E+02  0.43400702097E+02  0.00000000000E+00 0. -1.
         11    1    3    3    0    0 -0.12704718034E+01  0.28191600994E+01  0.11375106355E+00  0.30943015100E+01  0.51100000000E-03 0. -1.
        -11    1    3    3    0    0  0.19710560430E+02  0.20675470049E+01  0.23000400124E+02  0.30361148680E+02  0.51100000000E-03 0.  1.
        -12    1    3    3    0    0  0.75383468911E+01 -0.36471602879E+01  0.11630709645E+02  0.14331847713E+02  0.00000000000E+00 0.  1.
</event>
<event>
 7    1  0.2476315E-009  0.4778728E+02  0.7816164E-02  0.1312668E+00
        -11   -1    0    0    0    0  0.00000000000E+00  0.00000000000E+00  0.45593999997E+02  0.45594000000E+02  0.51100000000E-03 0. -1.
         11   -1    0    0    0    0 -0.00000000000E+00 -0.00000000000E+00 -0.45593999997E+02  0.45594000000E+02  0.51100000000E-03 0.  1.
    9900012    2    1    2    0    0 -0.13897703735E+02 -0.29765677904E+02 -0.28363374549E+02  0.47787276895E+02  0.20000026675E+02 0.  0.
         12    1    1    2    0    0  0.13897703735E+02  0.29765677904E+02  0.28363374549E+02  0.43400723105E+02  0.00000000000E+00 0. -1.
         11    1    3    3    0    0 -0.12184469394E+02 -0.16374927363E+02 -0.89913411869E+01  0.22303447204E+02  0.51100000000E-03 0. -1.
        -11    1    3    3    0    0  0.38238702507E+01 -0.56514980398E+01 -0.10164204362E+02  0.12242240986E+02  0.51100000000E-03 0.  1.
        -12    1    3    3    0    0 -0.55371045917E+01 -0.77392525012E+01 -0.92078289998E+01  0.13241588705E+02  0.00000000000E+00 0.  1.
</event>
<event>
 7    1  0.2476315E-009  0.4778728E+02  0.7816164E-02  0.1312668E+00
        -11   -1    0    0    0    0  0.00000000000E+00  0.00000000000E+00  0.45593999997E+02  0.45594000000E+02  0.51100000000E-03 0.  1.
         11   -1    0    0    0    0 -0.00000000000E+00 -0.00000000000E+00 -0.45593999997E+02  0.45594000000E+02  0.51100000000E-03 0. -1.
    9900012    2    1    2    0    0  0.32350236132E+01  0.40243315417E+02 -0.15925861232E+02  0.47787275703E+02  0.20000021238E+02 0.  0.
         12    1    1    2    0    0 -0.32350236132E+01 -0.40243315417E+02  0.15925861232E+02  0.43400724297E+02  0.00000000000E+00 0. -1.
         11    1    3    3    0    0  0.41688497094E+01  0.37883923137E+01 -0.68089973932E+01  0.88370622938E+01  0.51100000000E-03 0. -1.
        -11    1    3    3    0    0 -0.51970447749E+00  0.33174520585E+02 -0.11228385849E+02  0.35027068930E+02  0.51100000000E-03 0.  1.
         12    1    3    3    0    0 -0.41412161877E+00  0.32804025189E+01  0.21115220105E+01  0.39231444788E+01  0.00000000000E+00 0. -1.
</event>
<event>
 7    1  0.2476315E-009  0.4778728E+02  0.7816164E-02  0.1312668E+00
        -11   -1    0    0    0    0  0.00000000000E+00  0.00000000000E+00  0.45593999997E+02  0.45594000000E+02  0.51100000000E-03 0. -1.
         11   -1    0    0    0    0 -0.00000000000E+00 -0.00000000000E+00 -0.45593999997E+02  0.45594000000E+02  0.51100000000E-03 0.  1.
    9900012    2    1    2    0    0  0.35884349500E+02  0.24100207238E+02  0.38879384842E+01  0.47787278882E+02  0.20000035734E+02 0.  0.
         12    1    1    2    0    0 -0.35884349500E+02 -0.24100207238E+02 -0.38879384842E+01  0.43400721118E+02  0.00000000000E+00 0. -1.
         11    1    3    3    0    0  0.14922603026E+02  0.14788667993E+01  0.56640568076E+01  0.16029743225E+02  0.51100000000E-03 0. -1.
        -11    1    3    3    0    0  0.16837335685E+02  0.13496047491E+02 -0.24692874865E+01  0.21719497043E+02  0.51100000000E-03 0.  1.
         12    1    3    3    0    0  0.41244107891E+01  0.91252929471E+01  0.69316916316E+00  0.10038038614E+02  0.00000000000E+00 0. -1.
</event>
<event>
 7    1  0.2476315E-009  0.4778728E+02  0.7816164E-02  0.1312668E+00
        -11   -1    0    0    0    0  0.00000000000E+00  0.00000000000E+00  0.45593999997E+02  0.45594000000E+02  0.51100000000E-03 0. -1.
         11   -1    0    0    0    0 -0.00000000000E+00 -0.00000000000E+00 -0.45593999997E+02  0.45594000000E+02  0.51100000000E-03 0.  1.
    9900012    2    1    2    0    0  0.39311392291E+02  0.16758794831E+01 -0.18314711520E+02  0.47787276573E+02  0.20000025209E+02 0.  0.
         12    1    1    2    0    0 -0.39311392291E+02 -0.16758794831E+01  0.18314711520E+02  0.43400723427E+02  0.00000000000E+00 0. -1.
         11    1    3    3    0    0  0.17302138681E+01 -0.15025556074E+01  0.26056745967E+01  0.34699933354E+01  0.51100000000E-03 0. -1.
        -11    1    3    3    0    0  0.26065812244E+02 -0.21947919347E+01 -0.16162340938E+02  0.30748413690E+02  0.51100000000E-03 0.  1.
         12    1    3    3    0    0  0.11515366179E+02  0.53732270252E+01 -0.47580451781E+01  0.13568869548E+02  0.00000000000E+00 0. -1.
</event>
<event>
 7    1  0.2476315E-009  0.4778727E+02  0.7816164E-02  0.1312668E+00
        -11   -1    0    0    0    0  0.00000000000E+00  0.00000000000E+00  0.45593999997E+02  0.45594000000E+02  0.51100000000E-03 0. -1.
         11   -1    0    0    0    0 -0.00000000000E+00 -0.00000000000E+00 -0.45593999997E+02  0.45594000000E+02  0.51100000000E-03 0.  1.
    9900012    2    1    2    0    0 -0.33198701845E+02  0.77275662483E+01 -0.26865480829E+02  0.47787272535E+02  0.20000006797E+02 0.  0.
         12    1    1    2    0    0  0.33198701845E+02 -0.77275662483E+01  0.26865480829E+02  0.43400727465E+02  0.00000000000E+00 0. -1.
         11    1    3    3    0    0 -0.25322101640E+02  0.46045684976E+01 -0.24028358211E+02  0.35210408704E+02  0.51100000000E-03 0. -1.
        -11    1    3    3    0    0 -0.74397320619E+01 -0.14744212512E+01 -0.12092428638E+01  0.76802213342E+01  0.51100000000E-03 0.  1.
         12    1    3    3    0    0 -0.43686814346E+00  0.45974190019E+01 -0.16278797539E+01  0.48966424974E+01  0.00000000000E+00 0. -1.
</event>
<event>
 7    1  0.2476315E-009  0.4778727E+02  0.7816164E-02  0.1312668E+00
        -11   -1    0    0    0    0  0.00000000000E+00  0.00000000000E+00  0.45593999997E+02  0.45594000000E+02  0.51100000000E-03 0.  1.
         11   -1    0    0    0    0 -0.00000000000E+00 -0.00000000000E+00 -0.45593999997E+02  0.45594000000E+02  0.51100000000E-03 0. -1.
    9900012    2    1    2    0    0  0.25212214076E+02 -0.22653265246E+01  0.35253876998E+02  0.47787270902E+02  0.19999999349E+02 0.  0.
         12    1    1    2    0    0 -0.25212214076E+02  0.22653265246E+01 -0.35253876998E+02  0.43400729098E+02  0.00000000000E+00 0. -1.
         11    1    3    3    0    0  0.21412237908E+01  0.45336681005E+01  0.13277949482E+02  0.14193059165E+02  0.51100000000E-03 0. -1.
        -11    1    3    3    0    0 -0.13551013886E+00  0.74386282901E+00  0.17271066275E+01  0.18853626892E+01  0.51100000000E-03 0.  1.
         12    1    3    3    0    0  0.23206500424E+02 -0.75428574542E+01  0.20248820888E+02  0.31708849047E+02  0.00000000000E+00 0. -1.
</event>
<event>
 7    1  0.2476315E-009  0.4778727E+02  0.7816164E-02  0.1312668E+00
        -11   -1    0    0    0    0  0.00000000000E+00  0.00000000000E+00  0.45593999997E+02  0.45594000000E+02  0.51100000000E-03 0.  1.
         11   -1    0    0    0    0 -0.00000000000E+00 -0.00000000000E+00 -0.45593999997E+02  0.45594000000E+02  0.51100000000E-03 0. -1.
    9900012    2    1    2    0    0 -0.11193431752E+02 -0.33358811858E+02  0.25407088890E+02  0.47787269489E+02  0.19999992910E+02 0.  0.
         12    1    1    2    0    0  0.11193431752E+02  0.33358811858E+02 -0.25407088890E+02  0.43400730511E+02  0.00000000000E+00 0. -1.
         11    1    3    3    0    0  0.23030507780E+01 -0.72008454375E+01  0.81405494045E+01  0.11109669787E+02  0.51100000000E-03 0. -1.
        -11    1    3    3    0    0 -0.95996215313E+01 -0.11533258065E+02  0.19278131339E+01  0.15128953661E+02  0.51100000000E-03 0.  1.
        -12    1    3    3    0    0 -0.38968609991E+01 -0.14624708355E+02  0.15338726352E+02  0.21548646041E+02  0.00000000000E+00 0.  1.
</event>
<event>
 7    1  0.2476315E-009  0.4778727E+02  0.7816164E-02  0.1312668E+00
        -11   -1    0    0    0    0  0.00000000000E+00  0.00000000000E+00  0.45593999997E+02  0.45594000000E+02  0.51100000000E-03 0.  1.
         11   -1    0    0    0    0 -0.00000000000E+00 -0.00000000000E+00 -0.45593999997E+02  0.45594000000E+02  0.51100000000E-03 0. -1.
    9900012    2    1    2    0    0  0.13314695214E+02  0.70052646352E+01  0.40709562144E+02  0.47787270844E+02  0.19999999088E+02 0.  0.
         12    1    1    2    0    0 -0.13314695214E+02 -0.70052646352E+01 -0.40709562144E+02  0.43400729156E+02  0.00000000000E+00 0. -1.
         11    1    3    3    0    0  0.73467849860E+01  0.12085484697E+02  0.24656140426E+02  0.28424627543E+02  0.51100000000E-03 0. -1.
        -11    1    3    3    0    0  0.65616780980E+01 -0.48801397288E+01  0.85425176737E+01  0.11825649737E+02  0.51100000000E-03 0.  1.
         12    1    3    3    0    0 -0.59376786992E+00 -0.20008033318E+00  0.75109040444E+01  0.75369935643E+01  0.00000000000E+00 0. -1.
</event>
<event>
 7    1  0.2476315E-009  0.4778727E+02  0.7816164E-02  0.1312668E+00
        -11   -1    0    0    0    0  0.00000000000E+00  0.00000000000E+00  0.45593999997E+02  0.45594000000E+02  0.51100000000E-03 0.  1.
         11   -1    0    0    0    0 -0.00000000000E+00 -0.00000000000E+00 -0.45593999997E+02  0.45594000000E+02  0.51100000000E-03 0. -1.
    9900012    2    1    2    0    0 -0.22069299156E+02 -0.36226851872E+02  0.91752136978E+01  0.47787270649E+02  0.19999998199E+02 0.  0.
         12    1    1    2    0    0  0.22069299156E+02  0.36226851872E+02 -0.91752136978E+01  0.43400729351E+02  0.00000000000E+00 0. -1.
         11    1    3    3    0    0 -0.45305046186E+00 -0.40550779032E+01 -0.18439097211E+01  0.44776014609E+01  0.51100000000E-03 0. -1.
        -11    1    3    3    0    0 -0.41093296121E+00 -0.28537829882E+00  0.44239942425E+01  0.44521940648E+01  0.51100000000E-03 0.  1.
        -12    1    3    3    0    0 -0.21205315733E+02 -0.31886395670E+02  0.65951291764E+01  0.38857475124E+02  0.00000000000E+00 0.  1.
</event>
<event>
 7    1  0.2476315E-009  0.4778727E+02  0.7816164E-02  0.1312668E+00
        -11   -1    0    0    0    0  0.00000000000E+00  0.00000000000E+00  0.45593999997E+02  0.45594000000E+02  0.51100000000E-03 0.  1.
         11   -1    0    0    0    0 -0.00000000000E+00 -0.00000000000E+00 -0.45593999997E+02  0.45594000000E+02  0.51100000000E-03 0. -1.
    9900012    2    1    2    0    0  0.87213623420E+01 -0.17188650306E+02  0.38885876311E+02  0.47787271470E+02  0.20000001940E+02 0.  0.
         12    1    1    2    0    0 -0.87213623420E+01  0.17188650306E+02 -0.38885876311E+02  0.43400728530E+02  0.00000000000E+00 0. -1.
         11    1    3    3    0    0  0.86690574659E+01 -0.42539636063E+01  0.67606992010E+01  0.11787952225E+02  0.51100000000E-03 0. -1.
        -11    1    3    3    0    0  0.65495974467E+00 -0.14454637256E+02  0.27190206920E+02  0.30800533486E+02  0.51100000000E-03 0.  1.
        -12    1    3    3    0    0 -0.60265486856E+00  0.15199505554E+01  0.49349701905E+01  0.51987857585E+01  0.00000000000E+00 0.  1.
</event>
<event>
 7    1  0.2476315E-009  0.4778727E+02  0.7816164E-02  0.1312668E+00
        -11   -1    0    0    0    0  0.00000000000E+00  0.00000000000E+00  0.45593999997E+02  0.45594000000E+02  0.51100000000E-03 0. -1.
         11   -1    0    0    0    0 -0.00000000000E+00 -0.00000000000E+00 -0.45593999997E+02  0.45594000000E+02  0.51100000000E-03 0.  1.
    9900012    2    1    2    0    0  0.34635087868E+02 -0.15848755820E+02  0.20805072027E+02  0.47787269653E+02  0.19999993655E+02 0.  0.
         12    1    1    2    0    0 -0.34635087868E+02  0.15848755820E+02 -0.20805072027E+02  0.43400730347E+02  0.00000000000E+00 0. -1.
         11    1    3    3    0    0  0.24228776154E+01  0.53208316817E+00  0.39659991135E+01  0.46778838877E+01  0.51100000000E-03 0. -1.
        -11    1    3    3    0    0 -0.12437903020E+01 -0.36566440900E+01  0.21320476220E+01  0.44117669522E+01  0.51100000000E-03 0.  1.
        -12    1    3    3    0    0  0.33456000554E+02 -0.12724194898E+02  0.14707025291E+02  0.38697618813E+02  0.00000000000E+00 0.  1.
</event>
<event>
 7    1  0.2476315E-009  0.4778728E+02  0.7816164E-02  0.1312668E+00
        -11   -1    0    0    0    0  0.00000000000E+00  0.00000000000E+00  0.45593999997E+02  0.45594000000E+02  0.51100000000E-03 0.  1.
         11   -1    0    0    0    0 -0.00000000000E+00 -0.00000000000E+00 -0.45593999997E+02  0.45594000000E+02  0.51100000000E-03 0. -1.
    9900012    2    1    2    0    0  0.27985200132E+01 -0.40213743547E+02 -0.16082464980E+02  0.47787279220E+02  0.20000037277E+02 0.  0.
         12    1    1    2    0    0 -0.27985200132E+01  0.40213743547E+02  0.16082464980E+02  0.43400720780E+02  0.00000000000E+00 0. -1.
         11    1    3    3    0    0  0.63001911209E+01 -0.36192570370E+02 -0.85493236867E+01  0.37718503336E+02  0.51100000000E-03 0. -1.
        -11    1    3    3    0    0 -0.45342668629E-01 -0.20857179592E+01 -0.75628368410E+00  0.22190630083E+01  0.51100000000E-03 0.  1.
         12    1    3    3    0    0 -0.34563284391E+01 -0.19354552186E+01 -0.67768576095E+01  0.78497128764E+01  0.00000000000E+00 0. -1.
</event>
<event>
 7    1  0.2476315E-009  0.4778727E+02  0.7816164E-02  0.1312668E+00
        -11   -1    0    0    0    0  0.00000000000E+00  0.00000000000E+00  0.45593999997E+02  0.45594000000E+02  0.51100000000E-03 0.  1.
         11   -1    0    0    0    0 -0.00000000000E+00 -0.00000000000E+00 -0.45593999997E+02  0.45594000000E+02  0.51100000000E-03 0. -1.
    9900012    2    1    2    0    0  0.15789769268E+02  0.32463732427E+02 -0.24091752316E+02  0.47787271132E+02  0.20000000401E+02 0.  0.
         12    1    1    2    0    0 -0.15789769268E+02 -0.32463732427E+02  0.24091752316E+02  0.43400728868E+02  0.00000000000E+00 0. -1.
         11    1    3    3    0    0  0.18841632915E+00  0.94215520475E+00 -0.95888102067E+00  0.13574277940E+01  0.51100000000E-03 0. -1.
        -11    1    3    3    0    0  0.12101373371E+02  0.19270390426E+02 -0.34966761847E+01  0.23022118261E+02  0.51100000000E-03 0.  1.
        -12    1    3    3    0    0  0.34999795679E+01  0.12251186796E+02 -0.19636195110E+02  0.23407725077E+02  0.00000000000E+00 0.  1.
</event>
<event>
 7    1  0.2476315E-009  0.4778728E+02  0.7816164E-02  0.1312668E+00
        -11   -1    0    0    0    0  0.00000000000E+00  0.00000000000E+00  0.45593999997E+02  0.45594000000E+02  0.51100000000E-03 0.  1.
         11   -1    0    0    0    0 -0.00000000000E+00 -0.00000000000E+00 -0.45593999997E+02  0.45594000000E+02  0.51100000000E-03 0. -1.
    9900012    2    1    2    0    0 -0.35565853093E+02 -0.21596485881E+02  0.12340344777E+02  0.47787283210E+02  0.20000055469E+02 0.  0.
         12    1    1    2    0    0  0.35565853093E+02  0.21596485881E+02 -0.12340344777E+02  0.43400716790E+02  0.00000000000E+00 0. -1.
         11    1    3    3    0    0 -0.59686805298E+00 -0.44384791285E+01  0.11774514462E+01  0.46306306931E+01  0.51100000000E-03 0. -1.
        -11    1    3    3    0    0 -0.70811835866E+01 -0.11009727275E+02  0.26337392737E+01  0.13352671586E+02  0.51100000000E-03 0.  1.
        -12    1    3    3    0    0 -0.27887801453E+02 -0.61482794776E+01  0.85291540573E+01  0.29803980932E+02  0.00000000000E+00 0.  1.
</event>
<event>
 7    1  0.2476315E-009  0.4778727E+02  0.7816164E-02  0.1312668E+00
        -11   -1    0    0    0    0  0.00000000000E+00  0.00000000000E+00  0.45593999997E+02  0.45594000000E+02  0.51100000000E-03 0.  1.
         11   -1    0    0    0    0 -0.00000000000E+00 -0.00000000000E+00 -0.45593999997E+02  0.45594000000E+02  0.51100000000E-03 0. -1.
    9900012    2    1    2    0    0 -0.36662082030E+02  0.23191886616E+02 -0.12850118120E+01  0.47787272830E+02  0.20000008141E+02 0.  0.
         12    1    1    2    0    0  0.36662082030E+02 -0.23191886616E+02  0.12850118120E+01  0.43400727170E+02  0.00000000000E+00 0. -1.
         11    1    3    3    0    0  0.12716411286E+01  0.19633477893E+01 -0.18098544802E+01  0.29575968627E+01  0.51100000000E-03 0. -1.
        -11    1    3    3    0    0 -0.29714682702E+02  0.12148432657E+02  0.33012760576E+01  0.32271430213E+02  0.51100000000E-03 0.  1.
        -12    1    3    3    0    0 -0.82190404558E+01  0.90801061696E+01 -0.27764333894E+01  0.12558245754E+02  0.00000000000E+00 0.  1.
</event>
<event>
 7    1  0.2476315E-009  0.4778727E+02  0.7816164E-02  0.1312668E+00
        -11   -1    0    0    0    0  0.00000000000E+00  0.00000000000E+00  0.45593999997E+02  0.45594000000E+02  0.51100000000E-03 0. -1.
         11   -1    0    0    0    0 -0.00000000000E+00 -0.00000000000E+00 -0.45593999997E+02  0.45594000000E+02  0.51100000000E-03 0.  1.
    9900012    2    1    2    0    0  0.37052144567E+02 -0.22413337370E+02 -0.28989810938E+01  0.47787271890E+02  0.20000003857E+02 0.  0.
         12    1    1    2    0    0 -0.37052144567E+02  0.22413337370E+02  0.28989810938E+01  0.43400728110E+02  0.00000000000E+00 0. -1.
         11    1    3    3    0    0  0.37753567266E+01 -0.61657785638E+01 -0.93403422347E+00  0.72898946428E+01  0.51100000000E-03 0. -1.
        -11    1    3    3    0    0  0.27379159116E+02 -0.16113862341E+02  0.41048694902E+01  0.32033183845E+02  0.51100000000E-03 0.  1.
        -12    1    3    3    0    0  0.58976287241E+01 -0.13369646575E+00 -0.60698163606E+01  0.84641934030E+01  0.00000000000E+00 0.  1.
</event>
<event>
 7    1  0.2476315E-009  0.4778727E+02  0.7816164E-02  0.1312668E+00
        -11   -1    0    0    0    0  0.00000000000E+00  0.00000000000E+00  0.45593999997E+02  0.45594000000E+02  0.51100000000E-03 0.  1.
         11   -1    0    0    0    0 -0.00000000000E+00 -0.00000000000E+00 -0.45593999997E+02  0.45594000000E+02  0.51100000000E-03 0. -1.
    9900012    2    1    2    0    0 -0.13813128926E+01 -0.10396419892E+02  0.42114481874E+02  0.47787272410E+02  0.20000006224E+02 0.  0.
         12    1    1    2    0    0  0.13813128926E+01  0.10396419892E+02 -0.42114481874E+02  0.43400727590E+02  0.00000000000E+00 0. -1.
         11    1    3    3    0    0 -0.25623155940E+01 -0.67632745807E+01  0.57043417450E+01  0.92112354905E+01  0.51100000000E-03 0. -1.
        -11    1    3    3    0    0 -0.18480274997E+01 -0.33117495388E+01  0.35025224493E+02  0.35229948080E+02  0.51100000000E-03 0.  1.
        -12    1    3    3    0    0  0.30290302010E+01 -0.32139577281E+00  0.13849156356E+01  0.33460888391E+01  0.00000000000E+00 0.  1.
</event>
<event>
 7    1  0.2476315E-009  0.4778728E+02  0.7816164E-02  0.1312668E+00
        -11   -1    0    0    0    0  0.00000000000E+00  0.00000000000E+00  0.45593999997E+02  0.45594000000E+02  0.51100000000E-03 0.  1.
         11   -1    0    0    0    0 -0.00000000000E+00 -0.00000000000E+00 -0.45593999997E+02  0.45594000000E+02  0.51100000000E-03 0. -1.
    9900012    2    1    2    0    0 -0.15137457360E+02  0.75371395338E+01  0.39970887014E+02  0.47787275393E+02  0.20000019828E+02 0.  0.
         12    1    1    2    0    0  0.15137457360E+02 -0.75371395338E+01 -0.39970887014E+02  0.43400724607E+02  0.00000000000E+00 0. -1.
         11    1    3    3    0    0 -0.65947652194E+00 -0.55719484032E+01  0.56191830634E+01  0.79408272146E+01  0.51100000000E-03 0. -1.
        -11    1    3    3    0    0 -0.73051277691E+01  0.99652738650E+01  0.20638231406E+02  0.24054275519E+02  0.51100000000E-03 0.  1.
         12    1    3    3    0    0 -0.71728530691E+01  0.31438140719E+01  0.13713472545E+02  0.15792172660E+02  0.00000000000E+00 0. -1.
</event>
<event>
 7    1  0.2476315E-009  0.4778727E+02  0.7816164E-02  0.1312668E+00
        -11   -1    0    0    0    0  0.00000000000E+00  0.00000000000E+00  0.45593999997E+02  0.45594000000E+02  0.51100000000E-03 0.  1.
         11   -1    0    0    0    0 -0.00000000000E+00 -0.00000000000E+00 -0.45593999997E+02  0.45594000000E+02  0.51100000000E-03 0. -1.
    9900012    2    1    2    0    0 -0.19604830964E+02 -0.28364373701E+02  0.26357844929E+02  0.47787273256E+02  0.20000010083E+02 0.  0.
         12    1    1    2    0    0  0.19604830964E+02  0.28364373701E+02 -0.26357844929E+02  0.43400726744E+02  0.00000000000E+00 0. -1.
         11    1    3    3    0    0 -0.10619416316E+02 -0.17703919064E+02  0.76136346057E+01  0.22003822061E+02  0.51100000000E-03 0. -1.
        -11    1    3    3    0    0 -0.72928007603E+01 -0.11370288212E+01  0.11637305976E+02  0.13780590267E+02  0.51100000000E-03 0.  1.
         12    1    3    3    0    0 -0.16926138882E+01 -0.95234258159E+01  0.71069043474E+01  0.12002860928E+02  0.00000000000E+00 0. -1.
</event>
<event>
 7    1  0.2476315E-009  0.4778727E+02  0.7816164E-02  0.1312668E+00
        -11   -1    0    0    0    0  0.00000000000E+00  0.00000000000E+00  0.45593999997E+02  0.45594000000E+02  0.51100000000E-03 0.  1.
         11   -1    0    0    0    0 -0.00000000000E+00 -0.00000000000E+00 -0.45593999997E+02  0.45594000000E+02  0.51100000000E-03 0. -1.
    9900012    2    1    2    0    0  0.18859485914E+02 -0.23120479588E+02  0.31518034738E+02  0.47787270754E+02  0.19999998676E+02 0.  0.
         12    1    1    2    0    0 -0.18859485914E+02  0.23120479588E+02 -0.31518034738E+02  0.43400729246E+02  0.00000000000E+00 0. -1.
         11    1    3    3    0    0 -0.19601527007E+01 -0.16618917902E+01  0.31868709427E+01  0.40939259396E+01  0.51100000000E-03 0. -1.
        -11    1    3    3    0    0  0.11589014342E+02 -0.20954301407E+02  0.21714319305E+02  0.32324907796E+02  0.51100000000E-03 0.  1.
        -12    1    3    3    0    0  0.92306242730E+01 -0.50428639083E+00  0.66168444905E+01  0.11368437019E+02  0.00000000000E+00 0.  1.
</event>
<event>
 7    1  0.2476315E-009  0.4778727E+02  0.7816164E-02  0.1312668E+00
        -11   -1    0    0    0    0  0.00000000000E+00  0.00000000000E+00  0.45593999997E+02  0.45594000000E+02  0.51100000000E-03 0.  1.
         11   -1    0    0    0    0 -0.00000000000E+00 -0.00000000000E+00 -0.45593999997E+02  0.45594000000E+02  0.51100000000E-03 0. -1.
    9900012    2    1    2    0    0 -0.30007920978E+02  0.68785451980E+01  0.30591393341E+02  0.47787273601E+02  0.20000011655E+02 0.  0.
         12    1    1    2    0    0  0.30007920978E+02 -0.68785451980E+01 -0.30591393341E+02  0.43400726399E+02  0.00000000000E+00 0. -1.
         11    1    3    3    0    0 -0.24748870306E+02 -0.33316989336E+00  0.16563694629E+02  0.29782101397E+02  0.51100000000E-03 0. -1.
        -11    1    3    3    0    0 -0.62311387638E+01  0.37955404970E+01  0.69025180445E+01  0.10043802745E+02  0.51100000000E-03 0.  1.
         12    1    3    3    0    0  0.97208809209E+00  0.34161745943E+01  0.71251806673E+01  0.79613694588E+01  0.00000000000E+00 0. -1.
</event>
<event>
 7    1  0.2476315E-009  0.4778729E+02  0.7816164E-02  0.1312668E+00
        -11   -1    0    0    0    0  0.00000000000E+00  0.00000000000E+00  0.45593999997E+02  0.45594000000E+02  0.51100000000E-03 0.  1.
         11   -1    0    0    0    0 -0.00000000000E+00 -0.00000000000E+00 -0.45593999997E+02  0.45594000000E+02  0.51100000000E-03 0. -1.
    9900012    2    1    2    0    0 -0.34624552231E+02  0.21173960983E+02  0.15376121466E+02  0.47787293182E+02  0.20000100934E+02 0.  0.
         12    1    1    2    0    0  0.34624552231E+02 -0.21173960983E+02 -0.15376121466E+02  0.43400706818E+02  0.00000000000E+00 0. -1.
         11    1    3    3    0    0 -0.92135504681E+01  0.14224977904E+02  0.27161947800E+01  0.17164417350E+02  0.51100000000E-03 0. -1.
        -11    1    3    3    0    0 -0.16711535459E+01  0.34957011148E+01  0.13739280211E+01  0.41110046128E+01  0.51100000000E-03 0.  1.
         12    1    3    3    0    0 -0.23739848217E+02  0.34532819642E+01  0.11285998665E+02  0.26511871220E+02  0.00000000000E+00 0. -1.
</event>
<event>
 7    1  0.2476315E-009  0.4778727E+02  0.7816164E-02  0.1312668E+00
        -11   -1    0    0    0    0  0.00000000000E+00  0.00000000000E+00  0.45593999997E+02  0.45594000000E+02  0.51100000000E-03 0.  1.
         11   -1    0    0    0    0 -0.00000000000E+00 -0.00000000000E+00 -0.45593999997E+02  0.45594000000E+02  0.51100000000E-03 0. -1.
    9900012    2    1    2    0    0  0.14109770165E+02  0.96870605612E+01  0.39883559667E+02  0.47787273185E+02  0.20000009757E+02 0.  0.
         12    1    1    2    0    0 -0.14109770165E+02 -0.96870605612E+01 -0.39883559667E+02  0.43400726815E+02  0.00000000000E+00 0. -1.
         11    1    3    3    0    0 -0.13231816378E+00  0.15208694324E+01 -0.86527646718E+00  0.17547807705E+01  0.51100000000E-03 0. -1.
        -11    1    3    3    0    0  0.12913123084E+02  0.92346322638E+01  0.41295426376E+02  0.44241828858E+02  0.51100000000E-03 0.  1.
        -12    1    3    3    0    0  0.13289652443E+01 -0.10684411350E+01 -0.54659024198E+00  0.17906635564E+01  0.00000000000E+00 0.  1.
</event>
<event>
 7    1  0.2476315E-009  0.4778726E+02  0.7816164E-02  0.1312668E+00
        -11   -1    0    0    0    0  0.00000000000E+00  0.00000000000E+00  0.45593999997E+02  0.45594000000E+02  0.51100000000E-03 0. -1.
         11   -1    0    0    0    0 -0.00000000000E+00 -0.00000000000E+00 -0.45593999997E+02  0.45594000000E+02  0.51100000000E-03 0.  1.
    9900012    2    1    2    0    0 -0.17864213190E+02 -0.20652851945E+02  0.33733568841E+02  0.47787261837E+02  0.19999958020E+02 0.  0.
         12    1    1    2    0    0  0.17864213190E+02  0.20652851945E+02 -0.33733568841E+02  0.43400738163E+02  0.00000000000E+00 0. -1.
         11    1    3    3    0    0 -0.51377658213E+01 -0.98492020979E+01  0.16483752122E+02  0.19877562825E+02  0.51100000000E-03 0. -1.
        -11    1    3    3    0    0 -0.11496898787E+01  0.34066196793E+01  0.24388622734E+01  0.43445245892E+01  0.51100000000E-03 0.  1.
        -12    1    3    3    0    0 -0.11576757490E+02 -0.14210269526E+02  0.14810954446E+02  0.23565174423E+02  0.00000000000E+00 0.  1.
</event>
<event>
 7    1  0.2476315E-009  0.4778727E+02  0.7816164E-02  0.1312668E+00
        -11   -1    0    0    0    0  0.00000000000E+00  0.00000000000E+00  0.45593999997E+02  0.45594000000E+02  0.51100000000E-03 0.  1.
         11   -1    0    0    0    0 -0.00000000000E+00 -0.00000000000E+00 -0.45593999997E+02  0.45594000000E+02  0.51100000000E-03 0. -1.
    9900012    2    1    2    0    0 -0.21566495537E+02  0.37553675811E+02 -0.28689631620E+01  0.47787271362E+02  0.20000001448E+02 0.  0.
         12    1    1    2    0    0  0.21566495537E+02 -0.37553675811E+02  0.28689631620E+01  0.43400728638E+02  0.00000000000E+00 0. -1.
         11    1    3    3    0    0 -0.89049242638E+01  0.12934292523E+02  0.46513585882E+01  0.16377690197E+02  0.51100000000E-03 0. -1.
        -11    1    3    3    0    0 -0.61245800837E+01  0.19567198572E+02 -0.99609253826E+01  0.22794862928E+02  0.51100000000E-03 0.  1.
        -12    1    3    3    0    0 -0.65369911892E+01  0.50521847162E+01  0.24406036324E+01  0.86147182370E+01  0.00000000000E+00 0.  1.
</event>
<event>
 7    1  0.2476315E-009  0.4778728E+02  0.7816164E-02  0.1312668E+00
        -11   -1    0    0    0    0  0.00000000000E+00  0.00000000000E+00  0.45593999997E+02  0.45594000000E+02  0.51100000000E-03 0. -1.
         11   -1    0    0    0    0 -0.00000000000E+00 -0.00000000000E+00 -0.45593999997E+02  0.45594000000E+02  0.51100000000E-03 0.  1.
    9900012    2    1    2    0    0 -0.11082854540E+02  0.20911043747E+02 -0.36380233101E+02  0.47787276782E+02  0.20000026160E+02 0.  0.
         12    1    1    2    0    0  0.11082854540E+02 -0.20911043747E+02  0.36380233101E+02  0.43400723218E+02  0.00000000000E+00 0. -1.
         11    1    3    3    0    0 -0.10483201400E+01  0.14910014351E+02 -0.23910306813E+02  0.28197699822E+02  0.51100000000E-03 0. -1.
        -11    1    3    3    0    0 -0.75620532139E+01  0.52385912933E+01 -0.28543350108E+01  0.96319632559E+01  0.51100000000E-03 0.  1.
         12    1    3    3    0    0 -0.24724811862E+01  0.76243810251E+00 -0.96155912771E+01  0.99576137043E+01  0.00000000000E+00 0. -1.
</event>
<event>
 7    1  0.2476315E-009  0.4778727E+02  0.7816164E-02  0.1312668E+00
        -11   -1    0    0    0    0  0.00000000000E+00  0.00000000000E+00  0.45593999997E+02  0.45594000000E+02  0.51100000000E-03 0.  1.
         11   -1    0    0    0    0 -0.00000000000E+00 -0.00000000000E+00 -0.45593999997E+02  0.45594000000E+02  0.51100000000E-03 0. -1.
    9900012    2    1    2    0    0 -0.58043900618E+01  0.34791813020E+02  0.25287583761E+02  0.47787273167E+02  0.20000009677E+02 0.  0.
         12    1    1    2    0    0  0.58043900618E+01 -0.34791813020E+02 -0.25287583761E+02  0.43400726833E+02  0.00000000000E+00 0. -1.
         11    1    3    3    0    0 -0.39419913087E+01  0.12803836556E+02  0.46685763280E+01  0.14187076204E+02  0.51100000000E-03 0. -1.
        -11    1    3    3    0    0  0.29721169637E+01  0.32217881954E+01  0.11253107540E+02  0.12076664606E+02  0.51100000000E-03 0.  1.
        -12    1    3    3    0    0 -0.48345157167E+01  0.18766188268E+02  0.93658998922E+01  0.21523532357E+02  0.00000000000E+00 0.  1.
</event>
<event>
 7    1  0.2476315E-009  0.4778729E+02  0.7816164E-02  0.1312668E+00
        -11   -1    0    0    0    0  0.00000000000E+00  0.00000000000E+00  0.45593999997E+02  0.45594000000E+02  0.51100000000E-03 0.  1.
         11   -1    0    0    0    0 -0.00000000000E+00 -0.00000000000E+00 -0.45593999997E+02  0.45594000000E+02  0.51100000000E-03 0. -1.
    9900012    2    1    2    0    0  0.14419634101E+02 -0.81213216670E+01  0.40121562781E+02  0.47787291329E+02  0.20000092484E+02 0.  0.
         12    1    1    2    0    0 -0.14419634101E+02  0.81213216670E+01 -0.40121562781E+02  0.43400708671E+02  0.00000000000E+00 0. -1.
         11    1    3    3    0    0 -0.11852578006E+01 -0.32910023611E+01  0.26234888031E+01  0.43724394056E+01  0.51100000000E-03 0. -1.
        -11    1    3    3    0    0  0.16709238093E+02 -0.46419136564E+00  0.24503901088E+02  0.29662354594E+02  0.51100000000E-03 0.  1.
        -12    1    3    3    0    0 -0.11043461919E+01 -0.43661279403E+01  0.12994172889E+02  0.13752497329E+02  0.00000000000E+00 0.  1.
</event>
<event>
 7    1  0.2476315E-009  0.4778729E+02  0.7816164E-02  0.1312668E+00
        -11   -1    0    0    0    0  0.00000000000E+00  0.00000000000E+00  0.45593999997E+02  0.45594000000E+02  0.51100000000E-03 0.  1.
         11   -1    0    0    0    0 -0.00000000000E+00 -0.00000000000E+00 -0.45593999997E+02  0.45594000000E+02  0.51100000000E-03 0. -1.
    9900012    2    1    2    0    0  0.71753193701E+01 -0.42533755405E+02  0.47975040856E+01  0.47787290302E+02  0.20000087801E+02 0.  0.
         12    1    1    2    0    0 -0.71753193701E+01  0.42533755405E+02 -0.47975040856E+01  0.43400709698E+02  0.00000000000E+00 0. -1.
         11    1    3    3    0    0  0.52868843204E+01 -0.25755106234E+02 -0.21031242361E+01  0.26376121298E+02  0.51100000000E-03 0. -1.
        -11    1    3    3    0    0 -0.19794081390E+01 -0.11380433560E+02  0.87801955722E+01  0.14509450684E+02  0.51100000000E-03 0.  1.
        -12    1    3    3    0    0  0.38678431887E+01 -0.53982156104E+01 -0.18795672505E+01  0.69017183192E+01  0.00000000000E+00 0.  1.
</event>
<event>
 7    1  0.2476315E-009  0.4778727E+02  0.7816164E-02  0.1312668E+00
        -11   -1    0    0    0    0  0.00000000000E+00  0.00000000000E+00  0.45593999997E+02  0.45594000000E+02  0.51100000000E-03 0.  1.
         11   -1    0    0    0    0 -0.00000000000E+00 -0.00000000000E+00 -0.45593999997E+02  0.45594000000E+02  0.51100000000E-03 0. -1.
    9900012    2    1    2    0    0 -0.15189514416E+02  0.61101414002E+01  0.40194133787E+02  0.47787267667E+02  0.19999984601E+02 0.  0.
         12    1    1    2    0    0  0.15189514416E+02 -0.61101414002E+01 -0.40194133787E+02  0.43400732333E+02  0.00000000000E+00 0. -1.
         11    1    3    3    0    0  0.27828229739E+01 -0.10658422213E+01  0.28730366085E+01  0.41393795380E+01  0.51100000000E-03 0. -1.
        -11    1    3    3    0    0 -0.15323497058E+02  0.90666871930E+01  0.35947865111E+02  0.40115625198E+02  0.51100000000E-03 0.  1.
         12    1    3    3    0    0 -0.26488403321E+01 -0.18907035715E+01  0.13732320678E+01  0.35322629308E+01  0.00000000000E+00 0. -1.
</event>
<event>
 7    1  0.2476315E-009  0.4778727E+02  0.7816164E-02  0.1312668E+00
        -11   -1    0    0    0    0  0.00000000000E+00  0.00000000000E+00  0.45593999997E+02  0.45594000000E+02  0.51100000000E-03 0.  1.
         11   -1    0    0    0    0 -0.00000000000E+00 -0.00000000000E+00 -0.45593999997E+02  0.45594000000E+02  0.51100000000E-03 0. -1.
    9900012    2    1    2    0    0  0.40231006192E+02 -0.16374437988E+01  0.16199027561E+02  0.47787267572E+02  0.19999984167E+02 0.  0.
         12    1    1    2    0    0 -0.40231006192E+02  0.16374437988E+01 -0.16199027561E+02  0.43400732428E+02  0.00000000000E+00 0. -1.
         11    1    3    3    0    0  0.16023054294E+02 -0.31452921419E+01  0.12151176281E+02  0.20353923869E+02  0.51100000000E-03 0. -1.
        -11    1    3    3    0    0  0.24879895018E+02  0.12712059607E+01  0.57681231616E+01  0.25571397807E+02  0.51100000000E-03 0.  1.
         12    1    3    3    0    0 -0.67194312137E+00  0.23664238245E+00 -0.17202718814E+01  0.18619458965E+01  0.00000000000E+00 0. -1.
</event>
<event>
 7    1  0.2476315E-009  0.4778727E+02  0.7816164E-02  0.1312668E+00
        -11   -1    0    0    0    0  0.00000000000E+00  0.00000000000E+00  0.45593999997E+02  0.45594000000E+02  0.51100000000E-03 0.  1.
         11   -1    0    0    0    0 -0.00000000000E+00 -0.00000000000E+00 -0.45593999997E+02  0.45594000000E+02  0.51100000000E-03 0. -1.
    9900012    2    1    2    0    0  0.28100923306E+02  0.22543987146E+02  0.24201861694E+02  0.47787270092E+02  0.19999995656E+02 0.  0.
         12    1    1    2    0    0 -0.28100923306E+02 -0.22543987146E+02 -0.24201861694E+02  0.43400729908E+02  0.00000000000E+00 0. -1.
         11    1    3    3    0    0  0.73411740539E+00  0.23748687147E+01  0.90609021218E+01  0.93956839719E+01  0.51100000000E-03 0. -1.
        -11    1    3    3    0    0  0.11642257188E+02  0.60557110185E+01  0.14236207110E+01  0.13200018355E+02  0.51100000000E-03 0.  1.
         12    1    3    3    0    0  0.15724548713E+02  0.14113407413E+02  0.13717338862E+02  0.25191567765E+02  0.00000000000E+00 0. -1.
</event>
<event>
 7    1  0.2476315E-009  0.4778727E+02  0.7816164E-02  0.1312668E+00
        -11   -1    0    0    0    0  0.00000000000E+00  0.00000000000E+00  0.45593999997E+02  0.45594000000E+02  0.51100000000E-03 0.  1.
         11   -1    0    0    0    0 -0.00000000000E+00 -0.00000000000E+00 -0.45593999997E+02  0.45594000000E+02  0.51100000000E-03 0. -1.
    9900012    2    1    2    0    0  0.36709516634E+02 -0.16290975947E+02  0.16451098201E+02  0.47787272578E+02  0.20000006990E+02 0.  0.
         12    1    1    2    0    0 -0.36709516634E+02  0.16290975947E+02 -0.16451098201E+02  0.43400727422E+02  0.00000000000E+00 0. -1.
         11    1    3    3    0    0  0.37328139323E+01  0.44581788190E+01  0.23392910394E+01  0.62674987884E+01  0.51100000000E-03 0. -1.
        -11    1    3    3    0    0  0.81960367540E+00 -0.76697875261E+00  0.20752024533E-01  0.11226920768E+01  0.51100000000E-03 0.  1.
         12    1    3    3    0    0  0.32157099026E+02 -0.19982176013E+02  0.14091055137E+02  0.40397081712E+02  0.00000000000E+00 0. -1.
</event>
<event>
 7    1  0.2476315E-009  0.4778727E+02  0.7816164E-02  0.1312668E+00
        -11   -1    0    0    0    0  0.00000000000E+00  0.00000000000E+00  0.45593999997E+02  0.45594000000E+02  0.51100000000E-03 0.  1.
         11   -1    0    0    0    0 -0.00000000000E+00 -0.00000000000E+00 -0.45593999997E+02  0.45594000000E+02  0.51100000000E-03 0. -1.
    9900012    2    1    2    0    0  0.81818980989E+01  0.39027165120E+02  0.17133598179E+02  0.47787271200E+02  0.20000000711E+02 0.  0.
         12    1    1    2    0    0 -0.81818980989E+01 -0.39027165120E+02 -0.17133598179E+02  0.43400728800E+02  0.00000000000E+00 0. -1.
         11    1    3    3    0    0 -0.14027138947E+01  0.13830648020E+02 -0.52362658546E+00  0.13911456286E+02  0.51100000000E-03 0. -1.
        -11    1    3    3    0    0  0.71972741905E+01  0.24879842137E+02  0.13849199180E+02  0.29370182477E+02  0.51100000000E-03 0.  1.
         12    1    3    3    0    0  0.23873378031E+01  0.31667496305E+00  0.38080255840E+01  0.45056324380E+01  0.00000000000E+00 0. -1.
</event>
<event>
 7    1  0.2476315E-009  0.4778727E+02  0.7816164E-02  0.1312668E+00
        -11   -1    0    0    0    0  0.00000000000E+00  0.00000000000E+00  0.45593999997E+02  0.45594000000E+02  0.51100000000E-03 0.  1.
         11   -1    0    0    0    0 -0.00000000000E+00 -0.00000000000E+00 -0.45593999997E+02  0.45594000000E+02  0.51100000000E-03 0. -1.
    9900012    2    1    2    0    0  0.27276579414E+02 -0.25935510932E+02  0.21609275052E+02  0.47787270973E+02  0.19999999672E+02 0.  0.
         12    1    1    2    0    0 -0.27276579414E+02  0.25935510932E+02 -0.21609275052E+02  0.43400729027E+02  0.00000000000E+00 0. -1.
         11    1    3    3    0    0  0.17655933142E+02 -0.21162634876E+02  0.16110863677E+02  0.31924113436E+02  0.51100000000E-03 0. -1.
        -11    1    3    3    0    0  0.82684950347E+01 -0.75864679297E+01  0.59624573281E+01  0.12707218556E+02  0.51100000000E-03 0.  1.
         12    1    3    3    0    0  0.13521512373E+01  0.28135918736E+01 -0.46404595303E+00  0.31559389801E+01  0.00000000000E+00 0. -1.
</event>
<event>
 7    1  0.2476315E-009  0.4778727E+02  0.7816164E-02  0.1312668E+00
        -11   -1    0    0    0    0  0.00000000000E+00  0.00000000000E+00  0.45593999997E+02  0.45594000000E+02  0.51100000000E-03 0.  1.
         11   -1    0    0    0    0 -0.00000000000E+00 -0.00000000000E+00 -0.45593999997E+02  0.45594000000E+02  0.51100000000E-03 0. -1.
    9900012    2    1    2    0    0 -0.28722691159E+02  0.31693408788E+02  0.73592304795E+01  0.47787269346E+02  0.19999992257E+02 0.  0.
         12    1    1    2    0    0  0.28722691159E+02 -0.31693408788E+02 -0.73592304795E+01  0.43400730654E+02  0.00000000000E+00 0. -1.
         11    1    3    3    0    0 -0.65851594488E+01  0.72068456529E+01 -0.36054410020E+01  0.10406832098E+02  0.51100000000E-03 0. -1.
        -11    1    3    3    0    0 -0.52167028609E+01  0.14778437753E+02  0.81681857454E+01  0.17673015300E+02  0.51100000000E-03 0.  1.
        -12    1    3    3    0    0 -0.16920828850E+02  0.97081253820E+01  0.27964857361E+01  0.19707421949E+02  0.00000000000E+00 0.  1.
</event>
<event>
 7    1  0.2476315E-009  0.4778727E+02  0.7816164E-02  0.1312668E+00
        -11   -1    0    0    0    0  0.00000000000E+00  0.00000000000E+00  0.45593999997E+02  0.45594000000E+02  0.51100000000E-03 0.  1.
         11   -1    0    0    0    0 -0.00000000000E+00 -0.00000000000E+00 -0.45593999997E+02  0.45594000000E+02  0.51100000000E-03 0. -1.
    9900012    2    1    2    0    0  0.31145851189E+02 -0.23278821004E+02  0.19278374542E+02  0.47787270990E+02  0.19999999751E+02 0.  0.
         12    1    1    2    0    0 -0.31145851189E+02  0.23278821004E+02 -0.19278374542E+02  0.43400729010E+02  0.00000000000E+00 0. -1.
         11    1    3    3    0    0 -0.41653075616E+00 -0.62831518846E+00  0.27083651920E+01  0.28113199963E+01  0.51100000000E-03 0. -1.
        -11    1    3    3    0    0  0.95155327943E+01 -0.33588711152E+01 -0.20045501065E+01  0.10288129126E+02  0.51100000000E-03 0.  1.
        -12    1    3    3    0    0  0.22046849151E+02 -0.19291634701E+02  0.18574559456E+02  0.34687821867E+02  0.00000000000E+00 0.  1.
</event>
<event>
 7    1  0.2476315E-009  0.4778731E+02  0.7816164E-02  0.1312668E+00
        -11   -1    0    0    0    0  0.00000000000E+00  0.00000000000E+00  0.45593999997E+02  0.45594000000E+02  0.51100000000E-03 0. -1.
         11   -1    0    0    0    0 -0.00000000000E+00 -0.00000000000E+00 -0.45593999997E+02  0.45594000000E+02  0.51100000000E-03 0.  1.
    9900012    2    1    2    0    0 -0.14594040798E+02 -0.21968623899E+02 -0.34467576129E+02  0.47787305685E+02  0.20000157940E+02 0.  0.
         12    1    1    2    0    0  0.14594040798E+02  0.21968623899E+02  0.34467576129E+02  0.43400694315E+02  0.00000000000E+00 0. -1.
         11    1    3    3    0    0  0.46739763581E+01 -0.32806626639E+01 -0.91658601219E+01  0.10799157122E+02  0.51100000000E-03 0. -1.
        -11    1    3    3    0    0 -0.83121841758E+01 -0.98697019320E+01 -0.12680742021E+02  0.18091562687E+02  0.51100000000E-03 0.  1.
         12    1    3    3    0    0 -0.10955832980E+02 -0.88182593030E+01 -0.12620973986E+02  0.18896585876E+02  0.00000000000E+00 0. -1.
</event>
<event>
 7    1  0.2476315E-009  0.4778727E+02  0.7816164E-02  0.1312668E+00
        -11   -1    0    0    0    0  0.00000000000E+00  0.00000000000E+00  0.45593999997E+02  0.45594000000E+02  0.51100000000E-03 0.  1.
         11   -1    0    0    0    0 -0.00000000000E+00 -0.00000000000E+00 -0.45593999997E+02  0.45594000000E+02  0.51100000000E-03 0. -1.
    9900012    2    1    2    0    0  0.43875657437E+01 -0.11999457111E+02  0.41477529266E+02  0.47787272608E+02  0.20000007130E+02 0.  0.
         12    1    1    2    0    0 -0.43875657437E+01  0.11999457111E+02 -0.41477529266E+02  0.43400727392E+02  0.00000000000E+00 0. -1.
         11    1    3    3    0    0 -0.90056939145E+00  0.36295527964E+01  0.33715824291E+01  0.50351014953E+01  0.51100000000E-03 0. -1.
        -11    1    3    3    0    0  0.10970468466E-01 -0.13166020931E+02  0.30087375321E+02  0.32841960682E+02  0.51100000000E-03 0.  1.
        -12    1    3    3    0    0  0.52771646667E+01 -0.24629889765E+01  0.80185715160E+01  0.99102104304E+01  0.00000000000E+00 0.  1.
</event>
<event>
 7    1  0.2476315E-009  0.4778726E+02  0.7816164E-02  0.1312668E+00
        -11   -1    0    0    0    0  0.00000000000E+00  0.00000000000E+00  0.45593999997E+02  0.45594000000E+02  0.51100000000E-03 0. -1.
         11   -1    0    0    0    0 -0.00000000000E+00 -0.00000000000E+00 -0.45593999997E+02  0.45594000000E+02  0.51100000000E-03 0.  1.
    9900012    2    1    2    0    0 -0.17256015943E+02  0.23488032097E+02 -0.32158454090E+02  0.47787263745E+02  0.19999966717E+02 0.  0.
         12    1    1    2    0    0  0.17256015943E+02 -0.23488032097E+02  0.32158454090E+02  0.43400736255E+02  0.00000000000E+00 0. -1.
         11    1    3    3    0    0 -0.81473346269E+01  0.23448355247E+00 -0.16193218308E+02  0.18128826865E+02  0.51100000000E-03 0. -1.
        -11    1    3    3    0    0 -0.31513861312E+01  0.84680072982E+01 -0.52274331723E+01  0.10438603354E+02  0.51100000000E-03 0.  1.
         12    1    3    3    0    0 -0.59572951847E+01  0.14785541247E+02 -0.10737802610E+02  0.19219833526E+02  0.00000000000E+00 0. -1.
</event>
<event>
 7    1  0.2476315E-009  0.4778728E+02  0.7816164E-02  0.1312668E+00
        -11   -1    0    0    0    0  0.00000000000E+00  0.00000000000E+00  0.45593999997E+02  0.45594000000E+02  0.51100000000E-03 0. -1.
         11   -1    0    0    0    0 -0.00000000000E+00 -0.00000000000E+00 -0.45593999997E+02  0.45594000000E+02  0.51100000000E-03 0.  1.
    9900012    2    1    2    0    0 -0.15937915786E+02 -0.21718250894E+02 -0.34028270676E+02  0.47787276657E+02  0.20000025589E+02 0.  0.
         12    1    1    2    0    0  0.15937915786E+02  0.21718250894E+02  0.34028270676E+02  0.43400723343E+02  0.00000000000E+00 0. -1.
         11    1    3    3    0    0 -0.15509648945E+00 -0.31176075398E+01  0.27358242543E+00  0.31334293191E+01  0.51100000000E-03 0. -1.
        -11    1    3    3    0    0  0.13102557374E+01  0.81354124734E+00 -0.64973162019E+01  0.66778542622E+01  0.51100000000E-03 0.  1.
        -12    1    3    3    0    0 -0.17093075034E+02 -0.19414184601E+02 -0.27804536900E+02  0.37975993075E+02  0.00000000000E+00 0.  1.
</event>
<event>
 7    1  0.2476315E-009  0.4778727E+02  0.7816164E-02  0.1312668E+00
        -11   -1    0    0    0    0  0.00000000000E+00  0.00000000000E+00  0.45593999997E+02  0.45594000000E+02  0.51100000000E-03 0. -1.
         11   -1    0    0    0    0 -0.00000000000E+00 -0.00000000000E+00 -0.45593999997E+02  0.45594000000E+02  0.51100000000E-03 0.  1.
    9900012    2    1    2    0    0  0.37545983669E+02  0.18592484997E+02 -0.11324402276E+02  0.47787268728E+02  0.19999989440E+02 0.  0.
         12    1    1    2    0    0 -0.37545983669E+02 -0.18592484997E+02  0.11324402276E+02  0.43400731272E+02  0.00000000000E+00 0. -1.
         11    1    3    3    0    0  0.18719255755E+01 -0.24571588617E+01 -0.32519436664E+01  0.44851837089E+01  0.51100000000E-03 0. -1.
        -11    1    3    3    0    0  0.15006184871E+02  0.11566714098E+02  0.62257763832E+00  0.18956847380E+02  0.51100000000E-03 0.  1.
        -12    1    3    3    0    0  0.20667873222E+02  0.94829297603E+01 -0.86950362480E+01  0.24345237639E+02  0.00000000000E+00 0.  1.
</event>
<event>
 7    1  0.2476315E-009  0.4778727E+02  0.7816164E-02  0.1312668E+00
        -11   -1    0    0    0    0  0.00000000000E+00  0.00000000000E+00  0.45593999997E+02  0.45594000000E+02  0.51100000000E-03 0. -1.
         11   -1    0    0    0    0 -0.00000000000E+00 -0.00000000000E+00 -0.45593999997E+02  0.45594000000E+02  0.51100000000E-03 0.  1.
    9900012    2    1    2    0    0  0.26259383609E+02 -0.98893754882E+01 -0.33109946556E+02  0.47787268025E+02  0.19999986232E+02 0.  0.
         12    1    1    2    0    0 -0.26259383609E+02  0.98893754882E+01  0.33109946556E+02  0.43400731975E+02  0.00000000000E+00 0. -1.
         11    1    3    3    0    0  0.96086474437E+01 -0.97144199385E+01 -0.79942619578E+01  0.15830485935E+02  0.51100000000E-03 0. -1.
        -11    1    3    3    0    0  0.17414378244E+02  0.14805603146E+01 -0.24365085213E+02  0.29985163100E+02  0.51100000000E-03 0.  1.
        -12    1    3    3    0    0 -0.76364207874E+00 -0.16555158643E+01 -0.75059938560E+00  0.19716189893E+01  0.00000000000E+00 0.  1.
</event>
<event>
 7    1  0.2476315E-009  0.4778727E+02  0.7816164E-02  0.1312668E+00
        -11   -1    0    0    0    0  0.00000000000E+00  0.00000000000E+00  0.45593999997E+02  0.45594000000E+02  0.51100000000E-03 0.  1.
         11   -1    0    0    0    0 -0.00000000000E+00 -0.00000000000E+00 -0.45593999997E+02  0.45594000000E+02  0.51100000000E-03 0. -1.
    9900012    2    1    2    0    0  0.39390708196E+02 -0.78048156151E+01  0.16464510298E+02  0.47787272606E+02  0.20000007119E+02 0.  0.
         12    1    1    2    0    0 -0.39390708196E+02  0.78048156151E+01 -0.16464510298E+02  0.43400727394E+02  0.00000000000E+00 0. -1.
         11    1    3    3    0    0  0.23102222440E+01 -0.71426163220E+00  0.75745697746E+01  0.79511888436E+01  0.51100000000E-03 0. -1.
        -11    1    3    3    0    0  0.23987615817E+02 -0.85919573149E+01  0.40662644764E+01  0.25802363267E+02  0.51100000000E-03 0.  1.
        -12    1    3    3    0    0  0.13092870135E+02  0.15014033320E+01  0.48236760470E+01  0.14033720495E+02  0.00000000000E+00 0.  1.
</event>
<event>
 7    1  0.2476315E-009  0.4778727E+02  0.7816164E-02  0.1312668E+00
        -11   -1    0    0    0    0  0.00000000000E+00  0.00000000000E+00  0.45593999997E+02  0.45594000000E+02  0.51100000000E-03 0. -1.
         11   -1    0    0    0    0 -0.00000000000E+00 -0.00000000000E+00 -0.45593999997E+02  0.45594000000E+02  0.51100000000E-03 0.  1.
    9900012    2    1    2    0    0  0.43281413821E+02  0.13852810631E+01 -0.29022717641E+01  0.47787274575E+02  0.20000016098E+02 0.  0.
         12    1    1    2    0    0 -0.43281413821E+02 -0.13852810631E+01  0.29022717641E+01  0.43400725425E+02  0.00000000000E+00 0. -1.
         11    1    3    3    0    0  0.28450359701E+02  0.96190513609E+01 -0.30082370671E+01  0.30182753465E+02  0.51100000000E-03 0. -1.
        -11    1    3    3    0    0  0.77143989330E+01 -0.43460475441E+01 -0.22954781017E+01  0.91470924413E+01  0.51100000000E-03 0.  1.
         12    1    3    3    0    0  0.71166551876E+01 -0.38877227537E+01  0.24014434047E+01  0.84574286692E+01  0.00000000000E+00 0. -1.
</event>
<event>
 7    1  0.2476315E-009  0.4778727E+02  0.7816164E-02  0.1312668E+00
        -11   -1    0    0    0    0  0.00000000000E+00  0.00000000000E+00  0.45593999997E+02  0.45594000000E+02  0.51100000000E-03 0. -1.
         11   -1    0    0    0    0 -0.00000000000E+00 -0.00000000000E+00 -0.45593999997E+02  0.45594000000E+02  0.51100000000E-03 0.  1.
    9900012    2    1    2    0    0  0.32198318009E+01  0.41071064287E+01 -0.43085816038E+02  0.47787272083E+02  0.20000004737E+02 0.  0.
         12    1    1    2    0    0 -0.32198318009E+01 -0.41071064287E+01  0.43085816038E+02  0.43400727917E+02  0.00000000000E+00 0. -1.
         11    1    3    3    0    0  0.17238514780E+01  0.23356366370E+01 -0.34579304069E+02  0.34700938497E+02  0.51100000000E-03 0. -1.
        -11    1    3    3    0    0  0.40981286688E+01  0.40272428243E+01 -0.75958089892E+01  0.95241617906E+01  0.51100000000E-03 0.  1.
         12    1    3    3    0    0 -0.26021483458E+01 -0.22557730326E+01 -0.91070297998E+00  0.35621717962E+01  0.00000000000E+00 0. -1.
</event>
<event>
 7    1  0.2476315E-009  0.4778727E+02  0.7816164E-02  0.1312668E+00
        -11   -1    0    0    0    0  0.00000000000E+00  0.00000000000E+00  0.45593999997E+02  0.45594000000E+02  0.51100000000E-03 0. -1.
         11   -1    0    0    0    0 -0.00000000000E+00 -0.00000000000E+00 -0.45593999997E+02  0.45594000000E+02  0.51100000000E-03 0.  1.
    9900012    2    1    2    0    0  0.33464349350E+02 -0.88381190197E+00 -0.27622087692E+02  0.47787268101E+02  0.19999986581E+02 0.  0.
         12    1    1    2    0    0 -0.33464349350E+02  0.88381190197E+00  0.27622087692E+02  0.43400731899E+02  0.00000000000E+00 0. -1.
         11    1    3    3    0    0  0.63965418769E+01  0.54200172161E+01 -0.88825051988E+00  0.84309740750E+01  0.51100000000E-03 0. -1.
        -11    1    3    3    0    0  0.18025637195E+02 -0.41947491595E+01 -0.22550074946E+02  0.29172339590E+02  0.51100000000E-03 0.  1.
        -12    1    3    3    0    0  0.90421702781E+01 -0.21090799586E+01 -0.41837622257E+01  0.10183954437E+02  0.00000000000E+00 0.  1.
</event>
<event>
 7    1  0.2476315E-009  0.4778727E+02  0.7816164E-02  0.1312668E+00
        -11   -1    0    0    0    0  0.00000000000E+00  0.00000000000E+00  0.45593999997E+02  0.45594000000E+02  0.51100000000E-03 0. -1.
         11   -1    0    0    0    0 -0.00000000000E+00 -0.00000000000E+00 -0.45593999997E+02  0.45594000000E+02  0.51100000000E-03 0.  1.
    9900012    2    1    2    0    0  0.12516508882E+02  0.73318285229E+01 -0.40904824035E+02  0.47787270359E+02  0.19999996874E+02 0.  0.
         12    1    1    2    0    0 -0.12516508882E+02 -0.73318285229E+01  0.40904824035E+02  0.43400729641E+02  0.00000000000E+00 0. -1.
         11    1    3    3    0    0 -0.17278128615E+01  0.80896536039E+00  0.35403058623E+00  0.19403865995E+01  0.51100000000E-03 0. -1.
        -11    1    3    3    0    0  0.12808739709E+02  0.88796848253E+01 -0.39761911574E+02  0.42707402495E+02  0.51100000000E-03 0.  1.
        -12    1    3    3    0    0  0.14355820341E+01 -0.23568216628E+01 -0.14969430464E+01  0.31394812646E+01  0.00000000000E+00 0.  1.
</event>
<event>
 7    1  0.2476315E-009  0.4778727E+02  0.7816164E-02  0.1312668E+00
        -11   -1    0    0    0    0  0.00000000000E+00  0.00000000000E+00  0.45593999997E+02  0.45594000000E+02  0.51100000000E-03 0. -1.
         11   -1    0    0    0    0 -0.00000000000E+00 -0.00000000000E+00 -0.45593999997E+02  0.45594000000E+02  0.51100000000E-03 0.  1.
    9900012    2    1    2    0    0 -0.21794281146E+02  0.32044805972E+02 -0.19538754708E+02  0.47787271711E+02  0.20000003038E+02 0.  0.
         12    1    1    2    0    0  0.21794281146E+02 -0.32044805972E+02  0.19538754708E+02  0.43400728289E+02  0.00000000000E+00 0. -1.
         11    1    3    3    0    0 -0.49350151113E+01  0.58969831983E+01  0.35392235085E+01  0.84649210448E+01  0.51100000000E-03 0. -1.
        -11    1    3    3    0    0 -0.52852118114E+01  0.46922392450E+01 -0.27606836118E+01  0.75876180247E+01  0.51100000000E-03 0.  1.
         12    1    3    3    0    0 -0.11574054224E+02  0.21455583529E+02 -0.20317294605E+02  0.31734732641E+02  0.00000000000E+00 0. -1.
</event>
<event>
 7    1  0.2476315E-009  0.4778727E+02  0.7816164E-02  0.1312668E+00
        -11   -1    0    0    0    0  0.00000000000E+00  0.00000000000E+00  0.45593999997E+02  0.45594000000E+02  0.51100000000E-03 0.  1.
         11   -1    0    0    0    0 -0.00000000000E+00 -0.00000000000E+00 -0.45593999997E+02  0.45594000000E+02  0.51100000000E-03 0. -1.
    9900012    2    1    2    0    0  0.11819264789E+02  0.41605422753E+02 -0.35940152164E+01  0.47787272264E+02  0.20000005561E+02 0.  0.
         12    1    1    2    0    0 -0.11819264789E+02 -0.41605422753E+02  0.35940152164E+01  0.43400727736E+02  0.00000000000E+00 0. -1.
         11    1    3    3    0    0  0.98930658917E+01  0.20409618411E+02  0.36793001916E+01  0.22977435161E+02  0.51100000000E-03 0. -1.
        -11    1    3    3    0    0  0.55741455698E+01  0.14125926622E+02 -0.21253229351E+01  0.15333945989E+02  0.51100000000E-03 0.  1.
         12    1    3    3    0    0 -0.36479466722E+01  0.70698777196E+01 -0.51479924729E+01  0.94758911135E+01  0.00000000000E+00 0. -1.
</event>
<event>
 7    1  0.2476315E-009  0.4778727E+02  0.7816164E-02  0.1312668E+00
        -11   -1    0    0    0    0  0.00000000000E+00  0.00000000000E+00  0.45593999997E+02  0.45594000000E+02  0.51100000000E-03 0.  1.
         11   -1    0    0    0    0 -0.00000000000E+00 -0.00000000000E+00 -0.45593999997E+02  0.45594000000E+02  0.51100000000E-03 0. -1.
    9900012    2    1    2    0    0 -0.20815591891E+02 -0.15785408441E+02  0.34657686868E+02  0.47787271383E+02  0.20000001545E+02 0.  0.
         12    1    1    2    0    0  0.20815591891E+02  0.15785408441E+02 -0.34657686868E+02  0.43400728617E+02  0.00000000000E+00 0. -1.
         11    1    3    3    0    0  0.32153546226E+01 -0.10130589437E+01  0.24337894517E+01  0.41578991244E+01  0.51100000000E-03 0. -1.
        -11    1    3    3    0    0 -0.12128218114E+02 -0.48368874093E+01  0.20003663757E+02  0.23887982720E+02  0.51100000000E-03 0.  1.
         12    1    3    3    0    0 -0.11902728400E+02 -0.99354620885E+01  0.12220233659E+02  0.19741389539E+02  0.00000000000E+00 0. -1.
</event>
<event>
 7    1  0.2476315E-009  0.4778727E+02  0.7816164E-02  0.1312668E+00
        -11   -1    0    0    0    0  0.00000000000E+00  0.00000000000E+00  0.45593999997E+02  0.45594000000E+02  0.51100000000E-03 0. -1.
         11   -1    0    0    0    0 -0.00000000000E+00 -0.00000000000E+00 -0.45593999997E+02  0.45594000000E+02  0.51100000000E-03 0.  1.
    9900012    2    1    2    0    0 -0.15875569280E+01 -0.37461981831E+02 -0.21856410932E+02  0.47787272834E+02  0.20000008160E+02 0.  0.
         12    1    1    2    0    0  0.15875569280E+01  0.37461981831E+02  0.21856410932E+02  0.43400727166E+02  0.00000000000E+00 0. -1.
         11    1    3    3    0    0 -0.93797655213E+01 -0.16611468255E+02 -0.90329620719E+01  0.21107232952E+02  0.51100000000E-03 0. -1.
        -11    1    3    3    0    0  0.50524513513E+01 -0.19650169537E+02 -0.12021157806E+02  0.23583143615E+02  0.51100000000E-03 0.  1.
         12    1    3    3    0    0  0.27397572421E+01 -0.12003440384E+01 -0.80229105427E+00  0.30968962675E+01  0.00000000000E+00 0. -1.
</event>
<event>
 7    1  0.2476315E-009  0.4778727E+02  0.7816164E-02  0.1312668E+00
        -11   -1    0    0    0    0  0.00000000000E+00  0.00000000000E+00  0.45593999997E+02  0.45594000000E+02  0.51100000000E-03 0.  1.
         11   -1    0    0    0    0 -0.00000000000E+00 -0.00000000000E+00 -0.45593999997E+02  0.45594000000E+02  0.51100000000E-03 0. -1.
    9900012    2    1    2    0    0 -0.49563652918E+01 -0.20649234647E+02  0.37850585952E+02  0.47787270682E+02  0.19999998349E+02 0.  0.
         12    1    1    2    0    0  0.49563652918E+01  0.20649234647E+02 -0.37850585952E+02  0.43400729318E+02  0.00000000000E+00 0. -1.
         11    1    3    3    0    0  0.66704065236E+01 -0.98313846888E+01  0.22242347222E+02  0.25216511621E+02  0.51100000000E-03 0. -1.
        -11    1    3    3    0    0 -0.50455764752E+01 -0.29594480759E+01  0.74392888606E+01  0.94635719416E+01  0.51100000000E-03 0.  1.
         12    1    3    3    0    0 -0.65811953402E+01 -0.78584018818E+01  0.81689498689E+01  0.13107187120E+02  0.00000000000E+00 0. -1.
</event>
<event>
 7    1  0.2476315E-009  0.4778727E+02  0.7816164E-02  0.1312668E+00
        -11   -1    0    0    0    0  0.00000000000E+00  0.00000000000E+00  0.45593999997E+02  0.45594000000E+02  0.51100000000E-03 0. -1.
         11   -1    0    0    0    0 -0.00000000000E+00 -0.00000000000E+00 -0.45593999997E+02  0.45594000000E+02  0.51100000000E-03 0.  1.
    9900012    2    1    2    0    0 -0.19146521938E+02 -0.35590935964E+02  0.15821482571E+02  0.47787270331E+02  0.19999996745E+02 0.  0.
         12    1    1    2    0    0  0.19146521938E+02  0.35590935964E+02 -0.15821482571E+02  0.43400729669E+02  0.00000000000E+00 0. -1.
         11    1    3    3    0    0 -0.72095711253E+01 -0.13354869283E+01  0.11494271678E+01  0.74217669204E+01  0.51100000000E-03 0. -1.
        -11    1    3    3    0    0 -0.10175797535E+02 -0.34126298147E+02  0.12932408163E+02  0.37886650180E+02  0.51100000000E-03 0.  1.
        -12    1    3    3    0    0 -0.17611532772E+01 -0.12915088875E+00  0.17396472402E+01  0.24788532305E+01  0.00000000000E+00 0.  1.
</event>
<event>
 7    1  0.2476315E-009  0.4778727E+02  0.7816164E-02  0.1312668E+00
        -11   -1    0    0    0    0  0.00000000000E+00  0.00000000000E+00  0.45593999997E+02  0.45594000000E+02  0.51100000000E-03 0. -1.
         11   -1    0    0    0    0 -0.00000000000E+00 -0.00000000000E+00 -0.45593999997E+02  0.45594000000E+02  0.51100000000E-03 0.  1.
    9900012    2    1    2    0    0  0.29378331988E+02  0.74648930505E+01 -0.31061430999E+02  0.47787268274E+02  0.19999987370E+02 0.  0.
         12    1    1    2    0    0 -0.29378331988E+02 -0.74648930505E+01  0.31061430999E+02  0.43400731726E+02  0.00000000000E+00 0. -1.
         11    1    3    3    0    0  0.18653643395E+02  0.39810068651E+01 -0.26562926328E+02  0.32701618965E+02  0.51100000000E-03 0. -1.
        -11    1    3    3    0    0  0.49779058393E+01  0.24062876488E+01 -0.68331234041E+01  0.87898431448E+01  0.51100000000E-03 0.  1.
         12    1    3    3    0    0  0.57467827536E+01  0.10775985366E+01  0.23346187340E+01  0.62958061641E+01  0.00000000000E+00 0. -1.
</event>
<event>
 7    1  0.2476315E-009  0.4778727E+02  0.7816164E-02  0.1312668E+00
        -11   -1    0    0    0    0  0.00000000000E+00  0.00000000000E+00  0.45593999997E+02  0.45594000000E+02  0.51100000000E-03 0.  1.
         11   -1    0    0    0    0 -0.00000000000E+00 -0.00000000000E+00 -0.45593999997E+02  0.45594000000E+02  0.51100000000E-03 0. -1.
    9900012    2    1    2    0    0  0.11169012530E+01 -0.37654269335E+02  0.21553004515E+02  0.47787268771E+02  0.19999989634E+02 0.  0.
         12    1    1    2    0    0 -0.11169012530E+01  0.37654269335E+02 -0.21553004515E+02  0.43400731229E+02  0.00000000000E+00 0. -1.
         11    1    3    3    0    0  0.12296051045E+00 -0.39020403734E+00  0.53927586033E+01  0.54082551800E+01  0.51100000000E-03 0. -1.
        -11    1    3    3    0    0  0.37061934012E+01 -0.34832688667E+02  0.16499743171E+02  0.38720712729E+02  0.51100000000E-03 0.  1.
        -12    1    3    3    0    0 -0.27122526587E+01 -0.24313766309E+01 -0.33949725888E+00  0.36583008617E+01  0.00000000000E+00 0.  1.
</event>
<event>
 7    1  0.2476315E-009  0.4778727E+02  0.7816164E-02  0.1312668E+00
        -11   -1    0    0    0    0  0.00000000000E+00  0.00000000000E+00  0.45593999997E+02  0.45594000000E+02  0.51100000000E-03 0.  1.
         11   -1    0    0    0    0 -0.00000000000E+00 -0.00000000000E+00 -0.45593999997E+02  0.45594000000E+02  0.51100000000E-03 0. -1.
    9900012    2    1    2    0    0  0.14857694349E+02  0.36316216283E+02  0.18547362069E+02  0.47787270903E+02  0.19999999354E+02 0.  0.
         12    1    1    2    0    0 -0.14857694349E+02 -0.36316216283E+02 -0.18547362069E+02  0.43400729097E+02  0.00000000000E+00 0. -1.
         11    1    3    3    0    0  0.35151388596E+01  0.54948460924E+01  0.57314878741E+01  0.86832878735E+01  0.51100000000E-03 0. -1.
        -11    1    3    3    0    0  0.60094876726E+01  0.26604393250E+02  0.15973205286E+02  0.31607767553E+02  0.51100000000E-03 0.  1.
         12    1    3    3    0    0  0.53330678166E+01  0.42169769402E+01 -0.31573310912E+01  0.74962154765E+01  0.00000000000E+00 0. -1.
</event>
<event>
 7    1  0.2476315E-009  0.4778727E+02  0.7816164E-02  0.1312668E+00
        -11   -1    0    0    0    0  0.00000000000E+00  0.00000000000E+00  0.45593999997E+02  0.45594000000E+02  0.51100000000E-03 0.  1.
         11   -1    0    0    0    0 -0.00000000000E+00 -0.00000000000E+00 -0.45593999997E+02  0.45594000000E+02  0.51100000000E-03 0. -1.
    9900012    2    1    2    0    0 -0.25505085127E+02 -0.21680378043E+02  0.27623817376E+02  0.47787269063E+02  0.19999990968E+02 0.  0.
         12    1    1    2    0    0  0.25505085127E+02  0.21680378043E+02 -0.27623817376E+02  0.43400730937E+02  0.00000000000E+00 0. -1.
         11    1    3    3    0    0  0.15091512199E+00 -0.35301359467E+01  0.71820109084E+00  0.36056134353E+01  0.51100000000E-03 0. -1.
        -11    1    3    3    0    0 -0.73461621798E+01 -0.85757941216E+01  0.14329314800E+01  0.11382602360E+02  0.51100000000E-03 0.  1.
        -12    1    3    3    0    0 -0.18309838069E+02 -0.95744479748E+01  0.25472684805E+02  0.32799053269E+02  0.00000000000E+00 0.  1.
</event>
<event>
 7    1  0.2476315E-009  0.4778727E+02  0.7816164E-02  0.1312668E+00
        -11   -1    0    0    0    0  0.00000000000E+00  0.00000000000E+00  0.45593999997E+02  0.45594000000E+02  0.51100000000E-03 0.  1.
         11   -1    0    0    0    0 -0.00000000000E+00 -0.00000000000E+00 -0.45593999997E+02  0.45594000000E+02  0.51100000000E-03 0. -1.
    9900012    2    1    2    0    0 -0.42434209739E+02 -0.90984551313E+01  0.42369400381E+00  0.47787267765E+02  0.19999985046E+02 0.  0.
         12    1    1    2    0    0  0.42434209739E+02  0.90984551313E+01 -0.42369400381E+00  0.43400732235E+02  0.00000000000E+00 0. -1.
         11    1    3    3    0    0 -0.20171533556E+02  0.17845346812E+01 -0.38267617747E+01  0.20608722328E+02  0.51100000000E-03 0. -1.
        -11    1    3    3    0    0 -0.21151308678E+02 -0.76125557151E+01  0.11047060226E+01  0.22506648772E+02  0.51100000000E-03 0.  1.
         12    1    3    3    0    0 -0.11113675050E+01 -0.32704340974E+01  0.31457497559E+01  0.46718966645E+01  0.00000000000E+00 0. -1.
</event>
<event>
 7    1  0.2476315E-009  0.4778727E+02  0.7816164E-02  0.1312668E+00
        -11   -1    0    0    0    0  0.00000000000E+00  0.00000000000E+00  0.45593999997E+02  0.45594000000E+02  0.51100000000E-03 0.  1.
         11   -1    0    0    0    0 -0.00000000000E+00 -0.00000000000E+00 -0.45593999997E+02  0.45594000000E+02  0.51100000000E-03 0. -1.
    9900012    2    1    2    0    0 -0.22643985976E+02  0.34995192873E+02  0.12091729446E+02  0.47787267908E+02  0.19999985701E+02 0.  0.
         12    1    1    2    0    0  0.22643985976E+02 -0.34995192873E+02 -0.12091729446E+02  0.43400732092E+02  0.00000000000E+00 0. -1.
         11    1    3    3    0    0 -0.17032628270E+01  0.70016266070E+01 -0.43510891594E+01  0.84175920866E+01  0.51100000000E-03 0. -1.
        -11    1    3    3    0    0 -0.13158272364E+02  0.21076790187E+02  0.84530823057E+01  0.26245491364E+02  0.51100000000E-03 0.  1.
         12    1    3    3    0    0 -0.77824507851E+01  0.69167760787E+01  0.79897363000E+01  0.13124184458E+02  0.00000000000E+00 0. -1.
</event>
<event>
 7    1  0.2476315E-009  0.4778727E+02  0.7816164E-02  0.1312668E+00
        -11   -1    0    0    0    0  0.00000000000E+00  0.00000000000E+00  0.45593999997E+02  0.45594000000E+02  0.51100000000E-03 0.  1.
         11   -1    0    0    0    0 -0.00000000000E+00 -0.00000000000E+00 -0.45593999997E+02  0.45594000000E+02  0.51100000000E-03 0. -1.
    9900012    2    1    2    0    0  0.31567910208E+02  0.29770942645E+02  0.88413733007E+00  0.47787266369E+02  0.19999978685E+02 0.  0.
         12    1    1    2    0    0 -0.31567910208E+02 -0.29770942645E+02 -0.88413733007E+00  0.43400733631E+02  0.00000000000E+00 0. -1.
         11    1    3    3    0    0  0.10635614180E+01  0.10310425645E+02 -0.12598226639E+01  0.10441417207E+02  0.51100000000E-03 0. -1.
        -11    1    3    3    0    0  0.71032238848E+01  0.83724363003E+01  0.31770946228E+01  0.11430109784E+02  0.51100000000E-03 0.  1.
         12    1    3    3    0    0  0.23401124905E+02  0.11088080699E+02 -0.10331346289E+01  0.25915739379E+02  0.00000000000E+00 0. -1.
</event>
<event>
 7    1  0.2476315E-009  0.4778727E+02  0.7816164E-02  0.1312668E+00
        -11   -1    0    0    0    0  0.00000000000E+00  0.00000000000E+00  0.45593999997E+02  0.45594000000E+02  0.51100000000E-03 0. -1.
         11   -1    0    0    0    0 -0.00000000000E+00 -0.00000000000E+00 -0.45593999997E+02  0.45594000000E+02  0.51100000000E-03 0.  1.
    9900012    2    1    2    0    0  0.36093664152E+02 -0.21691047951E+01 -0.24003458937E+02  0.47787266729E+02  0.19999980325E+02 0.  0.
         12    1    1    2    0    0 -0.36093664152E+02  0.21691047951E+01  0.24003458937E+02  0.43400733271E+02  0.00000000000E+00 0. -1.
         11    1    3    3    0    0 -0.44842826597E+00 -0.50816717966E+00  0.22453641388E+01  0.23454172698E+01  0.51100000000E-03 0. -1.
        -11    1    3    3    0    0  0.66769905809E+01 -0.20595719978E+01 -0.30552531665E+01  0.76261793976E+01  0.51100000000E-03 0.  1.
         12    1    3    3    0    0  0.29865101837E+02  0.39863438227E+00 -0.23193569909E+02  0.37815670062E+02  0.00000000000E+00 0. -1.
</event>
<event>
 7    1  0.2476315E-009  0.4778727E+02  0.7816164E-02  0.1312668E+00
        -11   -1    0    0    0    0  0.00000000000E+00  0.00000000000E+00  0.45593999997E+02  0.45594000000E+02  0.51100000000E-03 0. -1.
         11   -1    0    0    0    0 -0.00000000000E+00 -0.00000000000E+00 -0.45593999997E+02  0.45594000000E+02  0.51100000000E-03 0.  1.
    9900012    2    1    2    0    0 -0.28389238923E+02  0.32555915855E+02 -0.42173972257E+01  0.47787274393E+02  0.20000015268E+02 0.  0.
         12    1    1    2    0    0  0.28389238923E+02 -0.32555915855E+02  0.42173972257E+01  0.43400725607E+02  0.00000000000E+00 0. -1.
         11    1    3    3    0    0  0.21590767402E+01  0.20082511186E+01  0.12320850660E+01  0.31957344691E+01  0.51100000000E-03 0. -1.
        -11    1    3    3    0    0 -0.18139711612E+02  0.13670949276E+02  0.80997323848E+00  0.22728837374E+02  0.51100000000E-03 0.  1.
         12    1    3    3    0    0 -0.12408604052E+02  0.16876715461E+02 -0.62594555303E+01  0.21862702551E+02  0.00000000000E+00 0. -1.
</event>
<event>
 7    1  0.2476315E-009  0.4778726E+02  0.7816164E-02  0.1312668E+00
        -11   -1    0    0    0    0  0.00000000000E+00  0.00000000000E+00  0.45593999997E+02  0.45594000000E+02  0.51100000000E-03 0. -1.
         11   -1    0    0    0    0 -0.00000000000E+00 -0.00000000000E+00 -0.45593999997E+02  0.45594000000E+02  0.51100000000E-03 0.  1.
    9900012    2    1    2    0    0 -0.21337798575E+02  0.19410235003E+02 -0.32427843476E+02  0.47787263792E+02  0.19999966932E+02 0.  0.
         12    1    1    2    0    0  0.21337798575E+02 -0.19410235003E+02  0.32427843476E+02  0.43400736208E+02  0.00000000000E+00 0. -1.
         11    1    3    3    0    0 -0.14577233951E+02  0.88765680032E+01 -0.29343754263E+02  0.33946209268E+02  0.51100000000E-03 0. -1.
        -11    1    3    3    0    0 -0.50298281426E+01  0.96080863421E+01 -0.41448027128E+01  0.11610076834E+02  0.51100000000E-03 0.  1.
         12    1    3    3    0    0 -0.17307364815E+01  0.92558065771E+00  0.10607134997E+01  0.22309776895E+01  0.00000000000E+00 0. -1.
</event>
<event>
 7    1  0.2476315E-009  0.4778732E+02  0.7816164E-02  0.1312668E+00
        -11   -1    0    0    0    0  0.00000000000E+00  0.00000000000E+00  0.45593999997E+02  0.45594000000E+02  0.51100000000E-03 0.  1.
         11   -1    0    0    0    0 -0.00000000000E+00 -0.00000000000E+00 -0.45593999997E+02  0.45594000000E+02  0.51100000000E-03 0. -1.
    9900012    2    1    2    0    0 -0.59226341766E+01  0.66647751276E+01  0.42474955455E+02  0.47787324153E+02  0.20000242140E+02 0.  0.
         12    1    1    2    0    0  0.59226341766E+01 -0.66647751276E+01 -0.42474955455E+02  0.43400675847E+02  0.00000000000E+00 0. -1.
         11    1    3    3    0    0 -0.22914801191E+00  0.62342206486E+00 -0.19649889389E+01  0.20742096503E+01  0.51100000000E-03 0. -1.
        -11    1    3    3    0    0 -0.37387106218E+01  0.60373528647E+01  0.41953614411E+02  0.42550362503E+02  0.51100000000E-03 0.  1.
         12    1    3    3    0    0 -0.19547755429E+01  0.40001979762E-02  0.24863299830E+01  0.31627519993E+01  0.00000000000E+00 0. -1.
</event>
<event>
 7    1  0.2476315E-009  0.4778727E+02  0.7816164E-02  0.1312668E+00
        -11   -1    0    0    0    0  0.00000000000E+00  0.00000000000E+00  0.45593999997E+02  0.45594000000E+02  0.51100000000E-03 0.  1.
         11   -1    0    0    0    0 -0.00000000000E+00 -0.00000000000E+00 -0.45593999997E+02  0.45594000000E+02  0.51100000000E-03 0. -1.
    9900012    2    1    2    0    0  0.17523458225E+02 -0.24569718749E+02  0.31191032780E+02  0.47787271971E+02  0.20000004223E+02 0.  0.
         12    1    1    2    0    0 -0.17523458225E+02  0.24569718749E+02 -0.31191032780E+02  0.43400728029E+02  0.00000000000E+00 0. -1.
         11    1    3    3    0    0  0.58941918439E+01 -0.17506665005E+01  0.11946462152E+02  0.13435932751E+02  0.51100000000E-03 0. -1.
        -11    1    3    3    0    0  0.65353085278E+01 -0.90622526873E+01  0.14144200412E+01  0.11262116392E+02  0.51100000000E-03 0.  1.
        -12    1    3    3    0    0  0.50939578531E+01 -0.13756799561E+02  0.17830150588E+02  0.23089222827E+02  0.00000000000E+00 0.  1.
</event>
<event>
 7    1  0.2476315E-009  0.4778727E+02  0.7816164E-02  0.1312668E+00
        -11   -1    0    0    0    0  0.00000000000E+00  0.00000000000E+00  0.45593999997E+02  0.45594000000E+02  0.51100000000E-03 0.  1.
         11   -1    0    0    0    0 -0.00000000000E+00 -0.00000000000E+00 -0.45593999997E+02  0.45594000000E+02  0.51100000000E-03 0. -1.
    9900012    2    1    2    0    0  0.18636286774E+02 -0.14320288847E+02  0.36486180381E+02  0.47787271709E+02  0.20000003032E+02 0.  0.
         12    1    1    2    0    0 -0.18636286774E+02  0.14320288847E+02 -0.36486180381E+02  0.43400728291E+02  0.00000000000E+00 0. -1.
         11    1    3    3    0    0  0.34106398166E+01 -0.26485846536E+01  0.22175352602E+00  0.43239610907E+01  0.51100000000E-03 0. -1.
        -11    1    3    3    0    0  0.16654843126E+02 -0.13215295765E+02  0.35157492469E+02  0.41086215677E+02  0.51100000000E-03 0.  1.
        -12    1    3    3    0    0 -0.14291961681E+01  0.15435915719E+01  0.11069343859E+01  0.23770949419E+01  0.00000000000E+00 0.  1.
</event>
<event>
 7    1  0.2476315E-009  0.4778727E+02  0.7816164E-02  0.1312668E+00
        -11   -1    0    0    0    0  0.00000000000E+00  0.00000000000E+00  0.45593999997E+02  0.45594000000E+02  0.51100000000E-03 0. -1.
         11   -1    0    0    0    0 -0.00000000000E+00 -0.00000000000E+00 -0.45593999997E+02  0.45594000000E+02  0.51100000000E-03 0.  1.
    9900012    2    1    2    0    0  0.29665531526E+02  0.31571870653E+02 -0.26070143930E+01  0.47787270728E+02  0.19999998558E+02 0.  0.
         12    1    1    2    0    0 -0.29665531526E+02 -0.31571870653E+02  0.26070143930E+01  0.43400729272E+02  0.00000000000E+00 0. -1.
         11    1    3    3    0    0  0.11113976061E+02  0.95844604130E+01 -0.79506201029E+01  0.16691156508E+02  0.51100000000E-03 0. -1.
        -11    1    3    3    0    0  0.38888786178E+01  0.83925219552E+01 -0.25566883568E+01  0.95965857099E+01  0.51100000000E-03 0.  1.
         12    1    3    3    0    0  0.14662676848E+02  0.13594888285E+02  0.79002940668E+01  0.21499528510E+02  0.00000000000E+00 0. -1.
</event>
<event>
 7    1  0.2476315E-009  0.4778727E+02  0.7816164E-02  0.1312668E+00
        -11   -1    0    0    0    0  0.00000000000E+00  0.00000000000E+00  0.45593999997E+02  0.45594000000E+02  0.51100000000E-03 0. -1.
         11   -1    0    0    0    0 -0.00000000000E+00 -0.00000000000E+00 -0.45593999997E+02  0.45594000000E+02  0.51100000000E-03 0.  1.
    9900012    2    1    2    0    0  0.47970353580E+01  0.42657407009E+02 -0.63997820144E+01  0.47787272693E+02  0.20000007515E+02 0.  0.
         12    1    1    2    0    0 -0.47970353580E+01 -0.42657407009E+02  0.63997820144E+01  0.43400727307E+02  0.00000000000E+00 0. -1.
         11    1    3    3    0    0  0.84378648811E+01  0.35371180441E+02 -0.63293731916E+01  0.36910417700E+02  0.51100000000E-03 0.  1.
        -11    1    3    3    0    0 -0.30588522280E+01  0.29596813503E-01 -0.15786600217E+01  0.34423277952E+01  0.51100000000E-03 0. -1.
        -12    1    3    3    0    0 -0.58197729512E+00  0.72566297552E+01  0.15082511989E+01  0.74345271978E+01  0.00000000000E+00 0.  1.
</event>
<event>
 7    1  0.2476315E-009  0.4778727E+02  0.7816164E-02  0.1312668E+00
        -11   -1    0    0    0    0  0.00000000000E+00  0.00000000000E+00  0.45593999997E+02  0.45594000000E+02  0.51100000000E-03 0. -1.
         11   -1    0    0    0    0 -0.00000000000E+00 -0.00000000000E+00 -0.45593999997E+02  0.45594000000E+02  0.51100000000E-03 0.  1.
    9900012    2    1    2    0    0  0.36988518036E+02 -0.19751851231E+02 -0.11195393835E+02  0.47787274929E+02  0.20000017711E+02 0.  0.
         12    1    1    2    0    0 -0.36988518036E+02  0.19751851231E+02  0.11195393835E+02  0.43400725071E+02  0.00000000000E+00 0. -1.
         11    1    3    3    0    0  0.35020891738E+02 -0.11116342866E+02 -0.92957780067E+01  0.37900493741E+02  0.51100000000E-03 0. -1.
        -11    1    3    3    0    0  0.51680083081E+00 -0.63557242368E+01 -0.29001464642E+01  0.70052240113E+01  0.51100000000E-03 0.  1.
         12    1    3    3    0    0  0.14508254680E+01 -0.22797841279E+01  0.10005306358E+01  0.28815571765E+01  0.00000000000E+00 0. -1.
</event>
<event>
 7    1  0.2476315E-009  0.4778727E+02  0.7816164E-02  0.1312668E+00
        -11   -1    0    0    0    0  0.00000000000E+00  0.00000000000E+00  0.45593999997E+02  0.45594000000E+02  0.51100000000E-03 0. -1.
         11   -1    0    0    0    0 -0.00000000000E+00 -0.00000000000E+00 -0.45593999997E+02  0.45594000000E+02  0.51100000000E-03 0.  1.
    9900012    2    1    2    0    0 -0.11010900140E+02  0.41929528467E+02 -0.20731323610E+01  0.47787272389E+02  0.20000006130E+02 0.  0.
         12    1    1    2    0    0  0.11010900140E+02 -0.41929528467E+02  0.20731323610E+01  0.43400727611E+02  0.00000000000E+00 0. -1.
         11    1    3    3    0    0  0.12667365092E+01  0.64817804745E+01 -0.15053334378E+01  0.67737824384E+01  0.51100000000E-03 0. -1.
        -11    1    3    3    0    0 -0.83784138132E+01  0.35669202191E+02 -0.23609834090E+01  0.36715991691E+02  0.51100000000E-03 0.  1.
        -12    1    3    3    0    0 -0.38992228365E+01 -0.22145419787E+00  0.17931844857E+01  0.42974982595E+01  0.00000000000E+00 0.  1.
</event>
<event>
 7    1  0.2476315E-009  0.4778727E+02  0.7816164E-02  0.1312668E+00
        -11   -1    0    0    0    0  0.00000000000E+00  0.00000000000E+00  0.45593999997E+02  0.45594000000E+02  0.51100000000E-03 0.  1.
         11   -1    0    0    0    0 -0.00000000000E+00 -0.00000000000E+00 -0.45593999997E+02  0.45594000000E+02  0.51100000000E-03 0. -1.
    9900012    2    1    2    0    0 -0.12920505017E+02  0.18245089036E+01  0.41392690622E+02  0.47787272822E+02  0.20000008106E+02 0.  0.
         12    1    1    2    0    0  0.12920505017E+02 -0.18245089036E+01 -0.41392690622E+02  0.43400727178E+02  0.00000000000E+00 0. -1.
         11    1    3    3    0    0 -0.49291073846E+01  0.65710377271E+01  0.64309866065E+01  0.10432268469E+02  0.51100000000E-03 0. -1.
        -11    1    3    3    0    0 -0.73526498319E+01 -0.68230269316E+01  0.21570142232E+02  0.23788362537E+02  0.51100000000E-03 0.  1.
        -12    1    3    3    0    0 -0.63874780022E+00  0.20764981080E+01  0.13391561784E+02  0.13566641816E+02  0.00000000000E+00 0.  1.
</event>
<event>
 7    1  0.2476315E-009  0.4778727E+02  0.7816164E-02  0.1312668E+00
        -11   -1    0    0    0    0  0.00000000000E+00  0.00000000000E+00  0.45593999997E+02  0.45594000000E+02  0.51100000000E-03 0.  1.
         11   -1    0    0    0    0 -0.00000000000E+00 -0.00000000000E+00 -0.45593999997E+02  0.45594000000E+02  0.51100000000E-03 0. -1.
    9900012    2    1    2    0    0 -0.20456337042E+01 -0.14478582837E+02  0.40863297041E+02  0.47787273932E+02  0.20000013164E+02 0.  0.
         12    1    1    2    0    0  0.20456337042E+01  0.14478582837E+02 -0.40863297041E+02  0.43400726068E+02  0.00000000000E+00 0. -1.
         11    1    3    3    0    0 -0.36665466467E+01 -0.54048720726E+01  0.30677078216E+02  0.31364619153E+02  0.51100000000E-03 0. -1.
        -11    1    3    3    0    0  0.20560510276E+01 -0.21208733891E+01  0.88490448483E+01  0.93290430779E+01  0.51100000000E-03 0.  1.
         12    1    3    3    0    0 -0.43513808511E+00 -0.69528373757E+01  0.13371739759E+01  0.70936117012E+01  0.00000000000E+00 0. -1.
</event>
<event>
 7    1  0.2476315E-009  0.4778727E+02  0.7816164E-02  0.1312668E+00
        -11   -1    0    0    0    0  0.00000000000E+00  0.00000000000E+00  0.45593999997E+02  0.45594000000E+02  0.51100000000E-03 0.  1.
         11   -1    0    0    0    0 -0.00000000000E+00 -0.00000000000E+00 -0.45593999997E+02  0.45594000000E+02  0.51100000000E-03 0. -1.
    9900012    2    1    2    0    0  0.34507143845E+02  0.23874712072E+02  0.11085053836E+02  0.47787271073E+02  0.20000000129E+02 0.  0.
         12    1    1    2    0    0 -0.34507143845E+02 -0.23874712072E+02 -0.11085053836E+02  0.43400728927E+02  0.00000000000E+00 0. -1.
         11    1    3    3    0    0  0.37391118415E+01  0.37485265151E+01 -0.27576637859E+01  0.59696832592E+01  0.51100000000E-03 0. -1.
        -11    1    3    3    0    0  0.22717629122E+02  0.10006546024E+02  0.31202330996E+01  0.25019142493E+02  0.51100000000E-03 0.  1.
        -12    1    3    3    0    0  0.80504028821E+01  0.10119639534E+02  0.10722484522E+02  0.16798445321E+02  0.00000000000E+00 0.  1.
</event>
<event>
 7    1  0.2476315E-009  0.4778726E+02  0.7816164E-02  0.1312668E+00
        -11   -1    0    0    0    0  0.00000000000E+00  0.00000000000E+00  0.45593999997E+02  0.45594000000E+02  0.51100000000E-03 0. -1.
         11   -1    0    0    0    0 -0.00000000000E+00 -0.00000000000E+00 -0.45593999997E+02  0.45594000000E+02  0.51100000000E-03 0.  1.
    9900012    2    1    2    0    0  0.25615125850E+01  0.27331945821E+02 -0.33615878994E+02  0.47787263489E+02  0.19999965553E+02 0.  0.
         12    1    1    2    0    0 -0.25615125850E+01 -0.27331945821E+02  0.33615878994E+02  0.43400736511E+02  0.00000000000E+00 0. -1.
         11    1    3    3    0    0  0.62520620762E+01  0.62993921243E+01 -0.12509650249E+01  0.89630092656E+01  0.51100000000E-03 0. -1.
        -11    1    3    3    0    0 -0.33990563073E+01  0.14084532147E+02 -0.22020540728E+02  0.26359663196E+02  0.51100000000E-03 0.  1.
         12    1    3    3    0    0 -0.29149318381E+00  0.69480215504E+01 -0.10344373242E+02  0.12464591028E+02  0.00000000000E+00 0. -1.
</event>
<event>
 7    1  0.2476315E-009  0.4778728E+02  0.7816164E-02  0.1312668E+00
        -11   -1    0    0    0    0  0.00000000000E+00  0.00000000000E+00  0.45593999997E+02  0.45594000000E+02  0.51100000000E-03 0.  1.
         11   -1    0    0    0    0 -0.00000000000E+00 -0.00000000000E+00 -0.45593999997E+02  0.45594000000E+02  0.51100000000E-03 0. -1.
    9900012    2    1    2    0    0  0.17329726556E+02  0.22760676032E+02  0.32638241931E+02  0.47787278435E+02  0.20000033699E+02 0.  0.
         12    1    1    2    0    0 -0.17329726556E+02 -0.22760676032E+02 -0.32638241931E+02  0.43400721565E+02  0.00000000000E+00 0. -1.
         11    1    3    3    0    0  0.86223088029E+00  0.19815957403E+01 -0.24382906013E+01  0.32581321468E+01  0.51100000000E-03 0. -1.
        -11    1    3    3    0    0  0.14272933092E+02  0.20744899670E+02  0.31429176520E+02  0.40272330679E+02  0.51100000000E-03 0.  1.
         12    1    3    3    0    0  0.21945625834E+01  0.34180622250E-01  0.36473560131E+01  0.42568156096E+01  0.00000000000E+00 0. -1.
</event>
<event>
 7    1  0.2476315E-009  0.4778727E+02  0.7816164E-02  0.1312668E+00
        -11   -1    0    0    0    0  0.00000000000E+00  0.00000000000E+00  0.45593999997E+02  0.45594000000E+02  0.51100000000E-03 0.  1.
         11   -1    0    0    0    0 -0.00000000000E+00 -0.00000000000E+00 -0.45593999997E+02  0.45594000000E+02  0.51100000000E-03 0. -1.
    9900012    2    1    2    0    0  0.10518314863E+01  0.41298961910E+02  0.13300850718E+02  0.47787271502E+02  0.20000002086E+02 0.  0.
         12    1    1    2    0    0 -0.10518314863E+01 -0.41298961910E+02 -0.13300850718E+02  0.43400728498E+02  0.00000000000E+00 0. -1.
         11    1    3    3    0    0  0.20092696445E+01  0.13050019823E+02 -0.39814137026E+01  0.13791005664E+02  0.51100000000E-03 0. -1.
        -11    1    3    3    0    0  0.14344938794E+01  0.11942757139E+02  0.11180581485E+02  0.16422320889E+02  0.51100000000E-03 0.  1.
         12    1    3    3    0    0 -0.23919320376E+01  0.16306184948E+02  0.61016829354E+01  0.17573944949E+02  0.00000000000E+00 0. -1.
</event>
<event>
 7    1  0.2476315E-009  0.4778727E+02  0.7816164E-02  0.1312668E+00
        -11   -1    0    0    0    0  0.00000000000E+00  0.00000000000E+00  0.45593999997E+02  0.45594000000E+02  0.51100000000E-03 0.  1.
         11   -1    0    0    0    0 -0.00000000000E+00 -0.00000000000E+00 -0.45593999997E+02  0.45594000000E+02  0.51100000000E-03 0. -1.
    9900012    2    1    2    0    0  0.19855532825E+02 -0.11352555182E+02  0.36884966300E+02  0.47787269224E+02  0.19999991700E+02 0.  0.
         12    1    1    2    0    0 -0.19855532825E+02  0.11352555182E+02 -0.36884966300E+02  0.43400730776E+02  0.00000000000E+00 0. -1.
         11    1    3    3    0    0  0.25245083702E+01 -0.10389898245E+02  0.14039098845E+02  0.17647079778E+02  0.51100000000E-03 0. -1.
        -11    1    3    3    0    0  0.10906469680E+02 -0.13790774717E+00  0.20555089517E+02  0.23269761596E+02  0.51100000000E-03 0.  1.
         12    1    3    3    0    0  0.64245547747E+01 -0.82474918994E+00  0.22907779384E+01  0.68704278500E+01  0.00000000000E+00 0. -1.
</event>
<event>
 7    1  0.2476315E-009  0.4778727E+02  0.7816164E-02  0.1312668E+00
        -11   -1    0    0    0    0  0.00000000000E+00  0.00000000000E+00  0.45593999997E+02  0.45594000000E+02  0.51100000000E-03 0.  1.
         11   -1    0    0    0    0 -0.00000000000E+00 -0.00000000000E+00 -0.45593999997E+02  0.45594000000E+02  0.51100000000E-03 0. -1.
    9900012    2    1    2    0    0 -0.20786288373E+02 -0.34383760962E+02  0.16410677664E+02  0.47787272545E+02  0.20000006842E+02 0.  0.
         12    1    1    2    0    0  0.20786288373E+02  0.34383760962E+02 -0.16410677664E+02  0.43400727455E+02  0.00000000000E+00 0. -1.
         11    1    3    3    0    0 -0.47703383693E+01 -0.16074996343E+02  0.14027961967E+02  0.21861961321E+02  0.51100000000E-03 0. -1.
        -11    1    3    3    0    0 -0.85044071810E+01 -0.40657558812E+01  0.27483084070E+01  0.98187836185E+01  0.51100000000E-03 0.  1.
         12    1    3    3    0    0 -0.75115428229E+01 -0.14243008738E+02 -0.36559271003E+00  0.16106527606E+02  0.00000000000E+00 0. -1.
</event>
<event>
 7    1  0.2476315E-009  0.4778727E+02  0.7816164E-02  0.1312668E+00
        -11   -1    0    0    0    0  0.00000000000E+00  0.00000000000E+00  0.45593999997E+02  0.45594000000E+02  0.51100000000E-03 0.  1.
         11   -1    0    0    0    0 -0.00000000000E+00 -0.00000000000E+00 -0.45593999997E+02  0.45594000000E+02  0.51100000000E-03 0. -1.
    9900012    2    1    2    0    0 -0.65740815284E+01  0.41362016640E+02  0.11383675810E+02  0.47787273700E+02  0.20000012106E+02 0.  0.
         12    1    1    2    0    0  0.65740815284E+01 -0.41362016640E+02 -0.11383675810E+02  0.43400726300E+02  0.00000000000E+00 0. -1.
         11    1    3    3    0    0  0.40423598288E+01  0.24691819901E+02  0.22139887644E+01  0.25118287950E+02  0.51100000000E-03 0. -1.
        -11    1    3    3    0    0 -0.48232814550E+01  0.26913542515E+01  0.16054926838E+01  0.57519595549E+01  0.51100000000E-03 0.  1.
         12    1    3    3    0    0 -0.57931599021E+01  0.13978842487E+02  0.75641943620E+01  0.16917026195E+02  0.00000000000E+00 0. -1.
</event>
<event>
 7    1  0.2476315E-009  0.4778727E+02  0.7816164E-02  0.1312668E+00
        -11   -1    0    0    0    0  0.00000000000E+00  0.00000000000E+00  0.45593999997E+02  0.45594000000E+02  0.51100000000E-03 0.  1.
         11   -1    0    0    0    0 -0.00000000000E+00 -0.00000000000E+00 -0.45593999997E+02  0.45594000000E+02  0.51100000000E-03 0. -1.
    9900012    2    1    2    0    0  0.14959562633E+02  0.39220400944E+02  0.11027000568E+02  0.47787272979E+02  0.20000008822E+02 0.  0.
         12    1    1    2    0    0 -0.14959562633E+02 -0.39220400944E+02 -0.11027000568E+02  0.43400727021E+02  0.00000000000E+00 0. -1.
         11    1    3    3    0    0 -0.23773090046E+00  0.16419275851E+01  0.62149027707E+01  0.64325312970E+01  0.51100000000E-03 0. -1.
        -11    1    3    3    0    0  0.99428813723E+01  0.28326841386E+02  0.61088185524E+01  0.30636391714E+02  0.51100000000E-03 0.  1.
         12    1    3    3    0    0  0.52544121615E+01  0.92516319726E+01 -0.12967207552E+01  0.10718349968E+02  0.00000000000E+00 0. -1.
</event>
<event>
 7    1  0.2476315E-009  0.4778727E+02  0.7816164E-02  0.1312668E+00
        -11   -1    0    0    0    0  0.00000000000E+00  0.00000000000E+00  0.45593999997E+02  0.45594000000E+02  0.51100000000E-03 0.  1.
         11   -1    0    0    0    0 -0.00000000000E+00 -0.00000000000E+00 -0.45593999997E+02  0.45594000000E+02  0.51100000000E-03 0. -1.
    9900012    2    1    2    0    0  0.30778637778E+02 -0.27100482096E+02  0.14207831220E+02  0.47787272573E+02  0.20000006968E+02 0.  0.
         12    1    1    2    0    0 -0.30778637778E+02  0.27100482096E+02 -0.14207831220E+02  0.43400727427E+02  0.00000000000E+00 0. -1.
         11    1    3    3    0    0 -0.77630937480E+00  0.61631255209E+00  0.33074377588E+01  0.34527731169E+01  0.51100000000E-03 0. -1.
        -11    1    3    3    0    0  0.17210117678E+02 -0.19529804531E+02  0.96815659984E+01  0.27772902908E+02  0.51100000000E-03 0.  1.
         12    1    3    3    0    0  0.14344829474E+02 -0.81869901167E+01  0.12188274626E+01  0.16561596547E+02  0.00000000000E+00 0. -1.
</event>
<event>
 7    1  0.2476315E-009  0.4778727E+02  0.7816164E-02  0.1312668E+00
        -11   -1    0    0    0    0  0.00000000000E+00  0.00000000000E+00  0.45593999997E+02  0.45594000000E+02  0.51100000000E-03 0.  1.
         11   -1    0    0    0    0 -0.00000000000E+00 -0.00000000000E+00 -0.45593999997E+02  0.45594000000E+02  0.51100000000E-03 0. -1.
    9900012    2    1    2    0    0  0.41416288737E+02 -0.12896681774E+02  0.14106631747E+01  0.47787270235E+02  0.19999996310E+02 0.  0.
         12    1    1    2    0    0 -0.41416288737E+02  0.12896681774E+02 -0.14106631747E+01  0.43400729765E+02  0.00000000000E+00 0. -1.
         11    1    3    3    0    0  0.80801949884E+00 -0.25029221770E+01 -0.41328497318E+01  0.48987714890E+01  0.51100000000E-03 0. -1.
        -11    1    3    3    0    0  0.15614123820E+02 -0.71120917045E+01  0.40878963925E+01  0.17637845908E+02  0.51100000000E-03 0.  1.
         12    1    3    3    0    0  0.24994145418E+02 -0.32816678930E+01  0.14556165140E+01  0.25250652838E+02  0.00000000000E+00 0. -1.
</event>
<event>
 7    1  0.2476315E-009  0.4778727E+02  0.7816164E-02  0.1312668E+00
        -11   -1    0    0    0    0  0.00000000000E+00  0.00000000000E+00  0.45593999997E+02  0.45594000000E+02  0.51100000000E-03 0. -1.
         11   -1    0    0    0    0 -0.00000000000E+00 -0.00000000000E+00 -0.45593999997E+02  0.45594000000E+02  0.51100000000E-03 0.  1.
    9900012    2    1    2    0    0  0.24630763363E+02  0.14375910622E+02 -0.32715162025E+02  0.47787272628E+02  0.20000007221E+02 0.  0.
         12    1    1    2    0    0 -0.24630763363E+02 -0.14375910622E+02  0.32715162025E+02  0.43400727372E+02  0.00000000000E+00 0. -1.
         11    1    3    3    0    0  0.83878308030E+01 -0.28448702651E+00 -0.17538079457E+02  0.19442758800E+02  0.51100000000E-03 0. -1.
        -11    1    3    3    0    0  0.83220540412E+01  0.13861512524E+01 -0.45435408056E+01  0.95823672479E+01  0.51100000000E-03 0.  1.
         12    1    3    3    0    0  0.79208785186E+01  0.13274246396E+02 -0.10633541763E+02  0.18762146581E+02  0.00000000000E+00 0. -1.
</event>
<event>
 7    1  0.2476315E-009  0.4778728E+02  0.7816164E-02  0.1312668E+00
        -11   -1    0    0    0    0  0.00000000000E+00  0.00000000000E+00  0.45593999997E+02  0.45594000000E+02  0.51100000000E-03 0.  1.
         11   -1    0    0    0    0 -0.00000000000E+00 -0.00000000000E+00 -0.45593999997E+02  0.45594000000E+02  0.51100000000E-03 0. -1.
    9900012    2    1    2    0    0 -0.93719770753E+01 -0.39303953751E+02  0.15842605912E+02  0.47787275388E+02  0.20000019805E+02 0.  0.
         12    1    1    2    0    0  0.93719770753E+01  0.39303953751E+02 -0.15842605912E+02  0.43400724612E+02  0.00000000000E+00 0. -1.
         11    1    3    3    0    0 -0.21498365669E+01 -0.98742596456E+01 -0.28442803859E+01  0.10498225183E+02  0.51100000000E-03 0. -1.
        -11    1    3    3    0    0 -0.41602341712E+01 -0.28839936158E+02  0.16572466864E+02  0.33521576994E+02  0.51100000000E-03 0.  1.
        -12    1    3    3    0    0 -0.30619063371E+01 -0.58975794694E+00  0.21144194340E+01  0.37674732111E+01  0.00000000000E+00 0.  1.
</event>
<event>
 7    1  0.2476315E-009  0.4778727E+02  0.7816164E-02  0.1312668E+00
        -11   -1    0    0    0    0  0.00000000000E+00  0.00000000000E+00  0.45593999997E+02  0.45594000000E+02  0.51100000000E-03 0.  1.
         11   -1    0    0    0    0 -0.00000000000E+00 -0.00000000000E+00 -0.45593999997E+02  0.45594000000E+02  0.51100000000E-03 0. -1.
    9900012    2    1    2    0    0 -0.21434136178E+02  0.27182556823E+02  0.26178420566E+02  0.47787270830E+02  0.19999999025E+02 0.  0.
         12    1    1    2    0    0  0.21434136178E+02 -0.27182556823E+02 -0.26178420566E+02  0.43400729170E+02  0.00000000000E+00 0. -1.
         11    1    3    3    0    0 -0.66150367359E+01  0.40214580580E+01  0.12898354435E+02  0.15043217186E+02  0.51100000000E-03 0. -1.
        -11    1    3    3    0    0 -0.14022386288E+02  0.20087616685E+02  0.66364860230E+01  0.25380752713E+02  0.51100000000E-03 0.  1.
        -12    1    3    3    0    0 -0.79671315382E+00  0.30734820799E+01  0.66435801084E+01  0.73633009311E+01  0.00000000000E+00 0.  1.
</event>
<event>
 7    1  0.2476315E-009  0.4778727E+02  0.7816164E-02  0.1312668E+00
        -11   -1    0    0    0    0  0.00000000000E+00  0.00000000000E+00  0.45593999997E+02  0.45594000000E+02  0.51100000000E-03 0. -1.
         11   -1    0    0    0    0 -0.00000000000E+00 -0.00000000000E+00 -0.45593999997E+02  0.45594000000E+02  0.51100000000E-03 0.  1.
    9900012    2    1    2    0    0 -0.26727982538E+02  0.32779174785E+02 -0.97346812224E+01  0.47787269953E+02  0.19999995023E+02 0.  0.
         12    1    1    2    0    0  0.26727982538E+02 -0.32779174785E+02  0.97346812224E+01  0.43400730047E+02  0.00000000000E+00 0. -1.
         11    1    3    3    0    0 -0.10887444939E+02  0.25247535750E+01 -0.71483322582E+00  0.11199188574E+02  0.51100000000E-03 0. -1.
        -11    1    3    3    0    0 -0.80766861535E+01  0.23719548448E+02 -0.83754035167E+01  0.26419637055E+02  0.51100000000E-03 0.  1.
        -12    1    3    3    0    0 -0.77638514449E+01  0.65348727624E+01 -0.64444447985E+00  0.10168444324E+02  0.00000000000E+00 0.  1.
</event>
<event>
 7    1  0.2476315E-009  0.4778728E+02  0.7816164E-02  0.1312668E+00
        -11   -1    0    0    0    0  0.00000000000E+00  0.00000000000E+00  0.45593999997E+02  0.45594000000E+02  0.51100000000E-03 0.  1.
         11   -1    0    0    0    0 -0.00000000000E+00 -0.00000000000E+00 -0.45593999997E+02  0.45594000000E+02  0.51100000000E-03 0. -1.
    9900012    2    1    2    0    0 -0.28062106504E+02  0.58880057849E+01  0.32580245396E+02  0.47787276232E+02  0.20000023650E+02 0.  0.
         12    1    1    2    0    0  0.28062106504E+02 -0.58880057849E+01 -0.32580245396E+02  0.43400723768E+02  0.00000000000E+00 0. -1.
         11    1    3    3    0    0 -0.15683321932E+02 -0.25528470244E+01  0.14845383047E+02  0.21745551564E+02  0.51100000000E-03 0. -1.
        -11    1    3    3    0    0 -0.10524727729E+02  0.19477994248E+01  0.54210975712E+01  0.11998004646E+02  0.51100000000E-03 0.  1.
         12    1    3    3    0    0 -0.18540568435E+01  0.64930533844E+01  0.12313764777E+02  0.14043720021E+02  0.00000000000E+00 0. -1.
</event>
<event>
 7    1  0.2476315E-009  0.4778727E+02  0.7816164E-02  0.1312668E+00
        -11   -1    0    0    0    0  0.00000000000E+00  0.00000000000E+00  0.45593999997E+02  0.45594000000E+02  0.51100000000E-03 0. -1.
         11   -1    0    0    0    0 -0.00000000000E+00 -0.00000000000E+00 -0.45593999997E+02  0.45594000000E+02  0.51100000000E-03 0.  1.
    9900012    2    1    2    0    0  0.13879622741E+02  0.33324020466E+02 -0.24093346716E+02  0.47787267017E+02  0.19999981639E+02 0.  0.
         12    1    1    2    0    0 -0.13879622741E+02 -0.33324020466E+02  0.24093346716E+02  0.43400732983E+02  0.00000000000E+00 0. -1.
         11    1    3    3    0    0  0.21920913290E+01  0.14578970023E+02 -0.15682821304E+02  0.21524463191E+02  0.51100000000E-03 0. -1.
        -11    1    3    3    0    0  0.64697929472E+01  0.51406678777E+01  0.18171016711E+01  0.84608832726E+01  0.51100000000E-03 0.  1.
        -12    1    3    3    0    0  0.52177384650E+01  0.13604382565E+02 -0.10227627083E+02  0.17801920554E+02  0.00000000000E+00 0.  1.
</event>
<event>
 7    1  0.2476315E-009  0.4778727E+02  0.7816164E-02  0.1312668E+00
        -11   -1    0    0    0    0  0.00000000000E+00  0.00000000000E+00  0.45593999997E+02  0.45594000000E+02  0.51100000000E-03 0.  1.
         11   -1    0    0    0    0 -0.00000000000E+00 -0.00000000000E+00 -0.45593999997E+02  0.45594000000E+02  0.51100000000E-03 0. -1.
    9900012    2    1    2    0    0  0.36963322475E+02  0.19746523879E+02 -0.11287638412E+02  0.47787271958E+02  0.20000004163E+02 0.  0.
         12    1    1    2    0    0 -0.36963322475E+02 -0.19746523879E+02  0.11287638412E+02  0.43400728042E+02  0.00000000000E+00 0. -1.
         11    1    3    3    0    0 -0.57744271514E+00  0.10483336921E+01 -0.18962481258E+00  0.12117761550E+01  0.51100000000E-03 0. -1.
        -11    1    3    3    0    0  0.15152480343E+02 -0.75001126226E+00 -0.67412843703E+01  0.16601358157E+02  0.51100000000E-03 0.  1.
        -12    1    3    3    0    0  0.22388284847E+02  0.19448201449E+02 -0.43567292287E+01  0.29974137645E+02  0.00000000000E+00 0.  1.
</event>
<event>
 7    1  0.2476315E-009  0.4778727E+02  0.7816164E-02  0.1312668E+00
        -11   -1    0    0    0    0  0.00000000000E+00  0.00000000000E+00  0.45593999997E+02  0.45594000000E+02  0.51100000000E-03 0. -1.
         11   -1    0    0    0    0 -0.00000000000E+00 -0.00000000000E+00 -0.45593999997E+02  0.45594000000E+02  0.51100000000E-03 0.  1.
    9900012    2    1    2    0    0 -0.23534278890E+01 -0.23975411339E+01 -0.43270502126E+02  0.47787272119E+02  0.20000004900E+02 0.  0.
         12    1    1    2    0    0  0.23534278890E+01  0.23975411339E+01  0.43270502126E+02  0.43400727881E+02  0.00000000000E+00 0. -1.
         11    1    3    3    0    0 -0.14462120673E+01 -0.79614991653E+00 -0.35400856983E+00  0.16884034950E+01  0.51100000000E-03 0. -1.
        -11    1    3    3    0    0 -0.70193999756E+01 -0.57672425894E+01 -0.18917451071E+02  0.20985781338E+02  0.51100000000E-03 0.  1.
        -12    1    3    3    0    0  0.61121841540E+01  0.41658513719E+01 -0.23999042486E+02  0.25113087286E+02  0.00000000000E+00 0.  1.
</event>
<event>
 7    1  0.2476315E-009  0.4778727E+02  0.7816164E-02  0.1312668E+00
        -11   -1    0    0    0    0  0.00000000000E+00  0.00000000000E+00  0.45593999997E+02  0.45594000000E+02  0.51100000000E-03 0.  1.
         11   -1    0    0    0    0 -0.00000000000E+00 -0.00000000000E+00 -0.45593999997E+02  0.45594000000E+02  0.51100000000E-03 0. -1.
    9900012    2    1    2    0    0  0.13003708434E+02 -0.37064653241E+02 -0.18459096995E+02  0.47787271725E+02  0.20000003103E+02 0.  0.
         12    1    1    2    0    0 -0.13003708434E+02  0.37064653241E+02  0.18459096995E+02  0.43400728275E+02  0.00000000000E+00 0. -1.
         11    1    3    3    0    0  0.50890628621E+01 -0.17473904364E+02 -0.56559887356E+00  0.18208673672E+02  0.51100000000E-03 0.  1.
        -11    1    3    3    0    0 -0.17993986464E+01 -0.21642344436E+01 -0.52550222830E+01  0.59612922820E+01  0.51100000000E-03 0. -1.
         12    1    3    3    0    0  0.97140442183E+01 -0.17426514434E+02 -0.12638475839E+02  0.23617305771E+02  0.00000000000E+00 0. -1.
</event>
<event>
 7    1  0.2476315E-009  0.4778727E+02  0.7816164E-02  0.1312668E+00
        -11   -1    0    0    0    0  0.00000000000E+00  0.00000000000E+00  0.45593999997E+02  0.45594000000E+02  0.51100000000E-03 0.  1.
         11   -1    0    0    0    0 -0.00000000000E+00 -0.00000000000E+00 -0.45593999997E+02  0.45594000000E+02  0.51100000000E-03 0. -1.
    9900012    2    1    2    0    0  0.41338216433E+02 -0.36620595886E+01  0.12702924579E+02  0.47787272919E+02  0.20000008546E+02 0.  0.
         12    1    1    2    0    0 -0.41338216433E+02  0.36620595886E+01 -0.12702924579E+02  0.43400727081E+02  0.00000000000E+00 0. -1.
         11    1    3    3    0    0 -0.11212435596E+01  0.21326204348E+01  0.23668717679E+01  0.33774752799E+01  0.51100000000E-03 0. -1.
        -11    1    3    3    0    0  0.35954503991E+02 -0.67679767241E+01  0.81928505884E+01  0.37492061390E+02  0.51100000000E-03 0.  1.
        -12    1    3    3    0    0  0.65049560016E+01  0.97329670067E+00  0.21432022223E+01  0.69177362494E+01  0.00000000000E+00 0.  1.
</event>
<event>
 7    1  0.2476315E-009  0.4778727E+02  0.7816164E-02  0.1312668E+00
        -11   -1    0    0    0    0  0.00000000000E+00  0.00000000000E+00  0.45593999997E+02  0.45594000000E+02  0.51100000000E-03 0.  1.
         11   -1    0    0    0    0 -0.00000000000E+00 -0.00000000000E+00 -0.45593999997E+02  0.45594000000E+02  0.51100000000E-03 0. -1.
    9900012    2    1    2    0    0  0.36265888100E+02  0.14107613330E+02  0.19219363537E+02  0.47787270417E+02  0.19999997141E+02 0.  0.
         12    1    1    2    0    0 -0.36265888100E+02 -0.14107613330E+02 -0.19219363537E+02  0.43400729583E+02  0.00000000000E+00 0. -1.
         11    1    3    3    0    0  0.28330403520E+02  0.76686128497E+01  0.19532009218E+02  0.35255053127E+02  0.51100000000E-03 0.  1.
        -11    1    3    3    0    0 -0.11524084406E+00 -0.71070487813E+00 -0.15353873557E+01  0.16958173454E+01  0.51100000000E-03 0. -1.
        -12    1    3    3    0    0  0.80507254234E+01  0.71497053586E+01  0.12227416752E+01  0.10836399945E+02  0.00000000000E+00 0.  1.
</event>
<event>
 7    1  0.2476315E-009  0.4778727E+02  0.7816164E-02  0.1312668E+00
        -11   -1    0    0    0    0  0.00000000000E+00  0.00000000000E+00  0.45593999997E+02  0.45594000000E+02  0.51100000000E-03 0. -1.
         11   -1    0    0    0    0 -0.00000000000E+00 -0.00000000000E+00 -0.45593999997E+02  0.45594000000E+02  0.51100000000E-03 0.  1.
    9900012    2    1    2    0    0  0.39777581439E+02  0.17217748238E+02  0.22174053635E+01  0.47787265835E+02  0.19999976247E+02 0.  0.
         12    1    1    2    0    0 -0.39777581439E+02 -0.17217748238E+02 -0.22174053635E+01  0.43400734165E+02  0.00000000000E+00 0. -1.
         11    1    3    3    0    0  0.74907031289E+01 -0.11000482462E-01  0.38860451742E+01  0.84387263099E+01  0.51100000000E-03 0. -1.
        -11    1    3    3    0    0  0.30044560449E+02  0.17351295930E+02 -0.52814368246E+01  0.35094681338E+02  0.51100000000E-03 0.  1.
        -12    1    3    3    0    0  0.22423178613E+01 -0.12254720972E+00  0.36127970139E+01  0.42538581868E+01  0.00000000000E+00 0.  1.
</event>
<event>
 7    1  0.2476315E-009  0.4778727E+02  0.7816164E-02  0.1312668E+00
        -11   -1    0    0    0    0  0.00000000000E+00  0.00000000000E+00  0.45593999997E+02  0.45594000000E+02  0.51100000000E-03 0. -1.
         11   -1    0    0    0    0 -0.00000000000E+00 -0.00000000000E+00 -0.45593999997E+02  0.45594000000E+02  0.51100000000E-03 0.  1.
    9900012    2    1    2    0    0  0.29530412604E+02  0.25637254343E+02 -0.18823097973E+02  0.47787273093E+02  0.20000009339E+02 0.  0.
         12    1    1    2    0    0 -0.29530412604E+02 -0.25637254343E+02  0.18823097973E+02  0.43400726907E+02  0.00000000000E+00 0. -1.
         11    1    3    3    0    0  0.59365371041E+01  0.16469895225E+02 -0.10813287171E+02  0.20577344368E+02  0.51100000000E-03 0. -1.
        -11    1    3    3    0    0  0.20611553200E+02  0.59285296092E+01 -0.77320296733E+01  0.22798418186E+02  0.51100000000E-03 0.  1.
         12    1    3    3    0    0  0.29823222992E+01  0.32388295087E+01 -0.27778112840E+00  0.44115105393E+01  0.00000000000E+00 0. -1.
</event>
<event>
 7    1  0.2476315E-009  0.4778727E+02  0.7816164E-02  0.1312668E+00
        -11   -1    0    0    0    0  0.00000000000E+00  0.00000000000E+00  0.45593999997E+02  0.45594000000E+02  0.51100000000E-03 0.  1.
         11   -1    0    0    0    0 -0.00000000000E+00 -0.00000000000E+00 -0.45593999997E+02  0.45594000000E+02  0.51100000000E-03 0. -1.
    9900012    2    1    2    0    0 -0.59458415004E+01  0.23723581035E+02  0.35853342623E+02  0.47787268376E+02  0.19999987834E+02 0.  0.
         12    1    1    2    0    0  0.59458415004E+01 -0.23723581035E+02 -0.35853342623E+02  0.43400731624E+02  0.00000000000E+00 0. -1.
         11    1    3    3    0    0 -0.58855876568E+01  0.36352224096E+01  0.30758646210E+01  0.75707283310E+01  0.51100000000E-03 0. -1.
        -11    1    3    3    0    0  0.28268844779E+01  0.15646542543E+02  0.15734501510E+02  0.22369177621E+02  0.51100000000E-03 0.  1.
         12    1    3    3    0    0 -0.28871383215E+01  0.44418160817E+01  0.17042976492E+02  0.17847362424E+02  0.00000000000E+00 0. -1.
</event>
<event>
 7    1  0.2476315E-009  0.4778727E+02  0.7816164E-02  0.1312668E+00
        -11   -1    0    0    0    0  0.00000000000E+00  0.00000000000E+00  0.45593999997E+02  0.45594000000E+02  0.51100000000E-03 0.  1.
         11   -1    0    0    0    0 -0.00000000000E+00 -0.00000000000E+00 -0.45593999997E+02  0.45594000000E+02  0.51100000000E-03 0. -1.
    9900012    2    1    2    0    0 -0.20245629897E+01  0.15785987868E+02  0.40377309012E+02  0.47787270152E+02  0.19999995931E+02 0.  0.
         12    1    1    2    0    0  0.20245629897E+01 -0.15785987868E+02 -0.40377309012E+02  0.43400729848E+02  0.00000000000E+00 0. -1.
         11    1    3    3    0    0 -0.96348477301E+00  0.42653754956E-01  0.64122705382E+01  0.64843917191E+01  0.51100000000E-03 0. -1.
        -11    1    3    3    0    0 -0.53761036729E+01  0.16430697352E+02  0.32283679862E+02  0.36621118113E+02  0.51100000000E-03 0.  1.
        -12    1    3    3    0    0  0.43150254562E+01 -0.68736323856E+00  0.16813586119E+01  0.46817603197E+01  0.00000000000E+00 0.  1.
</event>
<event>
 7    1  0.2476315E-009  0.4778727E+02  0.7816164E-02  0.1312668E+00
        -11   -1    0    0    0    0  0.00000000000E+00  0.00000000000E+00  0.45593999997E+02  0.45594000000E+02  0.51100000000E-03 0. -1.
         11   -1    0    0    0    0 -0.00000000000E+00 -0.00000000000E+00 -0.45593999997E+02  0.45594000000E+02  0.51100000000E-03 0.  1.
    9900012    2    1    2    0    0  0.33002325968E+02  0.24986155300E+02  0.13044609686E+02  0.47787270538E+02  0.19999997690E+02 0.  0.
         12    1    1    2    0    0 -0.33002325968E+02 -0.24986155300E+02 -0.13044609686E+02  0.43400729462E+02  0.00000000000E+00 0. -1.
         11    1    3    3    0    0  0.25494715116E+02  0.24886297791E+02  0.14646311383E+02  0.38520419961E+02  0.51100000000E-03 0. -1.
        -11    1    3    3    0    0  0.35973287200E+01 -0.17510890979E+01  0.11212397818E+01  0.41550289840E+01  0.51100000000E-03 0.  1.
         12    1    3    3    0    0  0.39102821329E+01  0.18509466067E+01 -0.27229414789E+01  0.51118215928E+01  0.00000000000E+00 0. -1.
</event>
<event>
 7    1  0.2476315E-009  0.4778727E+02  0.7816164E-02  0.1312668E+00
        -11   -1    0    0    0    0  0.00000000000E+00  0.00000000000E+00  0.45593999997E+02  0.45594000000E+02  0.51100000000E-03 0.  1.
         11   -1    0    0    0    0 -0.00000000000E+00 -0.00000000000E+00 -0.45593999997E+02  0.45594000000E+02  0.51100000000E-03 0. -1.
    9900012    2    1    2    0    0  0.15184495028E+02  0.14955800914E+02  0.37807122201E+02  0.47787270060E+02  0.19999995511E+02 0.  0.
         12    1    1    2    0    0 -0.15184495028E+02 -0.14955800914E+02 -0.37807122201E+02  0.43400729940E+02  0.00000000000E+00 0. -1.
         11    1    3    3    0    0  0.35129188585E+01  0.82716470208E+00  0.99204576126E+00  0.37428539117E+01  0.51100000000E-03 0. -1.
        -11    1    3    3    0    0  0.12833760536E+02  0.32843742991E+01  0.21163887668E+02  0.24968032872E+02  0.51100000000E-03 0.  1.
        -12    1    3    3    0    0 -0.11621843662E+01  0.10844261913E+02  0.15651188772E+02  0.19076383276E+02  0.00000000000E+00 0.  1.
</event>
<event>
 7    1  0.2476315E-009  0.4778727E+02  0.7816164E-02  0.1312668E+00
        -11   -1    0    0    0    0  0.00000000000E+00  0.00000000000E+00  0.45593999997E+02  0.45594000000E+02  0.51100000000E-03 0. -1.
         11   -1    0    0    0    0 -0.00000000000E+00 -0.00000000000E+00 -0.45593999997E+02  0.45594000000E+02  0.51100000000E-03 0.  1.
    9900012    2    1    2    0    0  0.27870156095E+02  0.31679288506E+02  0.10163676903E+02  0.47787271329E+02  0.20000001296E+02 0.  0.
         12    1    1    2    0    0 -0.27870156095E+02 -0.31679288506E+02 -0.10163676903E+02  0.43400728671E+02  0.00000000000E+00 0. -1.
         11    1    3    3    0    0 -0.48566480868E+00  0.95357083794E+01  0.37873829590E+01  0.10271799966E+02  0.51100000000E-03 0. -1.
        -11    1    3    3    0    0  0.14132268065E+02  0.12846054769E+02 -0.69325012071E+00  0.19110801129E+02  0.51100000000E-03 0.  1.
         12    1    3    3    0    0  0.14223552839E+02  0.92975253571E+01  0.70695440650E+01  0.18404670234E+02  0.00000000000E+00 0. -1.
</event>
<event>
 7    1  0.2476315E-009  0.4778730E+02  0.7816164E-02  0.1312668E+00
        -11   -1    0    0    0    0  0.00000000000E+00  0.00000000000E+00  0.45593999997E+02  0.45594000000E+02  0.51100000000E-03 0. -1.
         11   -1    0    0    0    0 -0.00000000000E+00 -0.00000000000E+00 -0.45593999997E+02  0.45594000000E+02  0.51100000000E-03 0.  1.
    9900012    2    1    2    0    0  0.42505754273E+02  0.18716309116E+01 -0.85661192387E+01  0.47787302454E+02  0.20000143210E+02 0.  0.
         12    1    1    2    0    0 -0.42505754273E+02 -0.18716309116E+01  0.85661192387E+01  0.43400697546E+02  0.00000000000E+00 0. -1.
         11    1    3    3    0    0  0.40300743938E+01 -0.10262332025E+01  0.16840130152E+01  0.44867086269E+01  0.51100000000E-03 0. -1.
        -11    1    3    3    0    0  0.23466881179E+02  0.35435723399E+01  0.21378291696E+01  0.23829010281E+02  0.51100000000E-03 0.  1.
        -12    1    3    3    0    0  0.15008798701E+02 -0.64570822585E+00 -0.12387961424E+02  0.19471583546E+02  0.00000000000E+00 0.  1.
</event>
<event>
 7    1  0.2476315E-009  0.4778727E+02  0.7816164E-02  0.1312668E+00
        -11   -1    0    0    0    0  0.00000000000E+00  0.00000000000E+00  0.45593999997E+02  0.45594000000E+02  0.51100000000E-03 0.  1.
         11   -1    0    0    0    0 -0.00000000000E+00 -0.00000000000E+00 -0.45593999997E+02  0.45594000000E+02  0.51100000000E-03 0. -1.
    9900012    2    1    2    0    0  0.10887288141E+02 -0.40931564620E+02  0.94708599532E+01  0.47787271739E+02  0.20000003166E+02 0.  0.
         12    1    1    2    0    0 -0.10887288141E+02  0.40931564620E+02 -0.94708599532E+01  0.43400728261E+02  0.00000000000E+00 0. -1.
         11    1    3    3    0    0 -0.15283373734E+01 -0.17786837856E+02  0.10570144885E+02  0.20746936622E+02  0.51100000000E-03 0. -1.
        -11    1    3    3    0    0  0.16000965109E+01 -0.39553850271E+01  0.21444831639E+01  0.47753730596E+01  0.51100000000E-03 0.  1.
         12    1    3    3    0    0  0.10815529004E+02 -0.19189341738E+02 -0.32437680958E+01  0.22264962057E+02  0.00000000000E+00 0. -1.
</event>
<event>
 7    1  0.2476315E-009  0.4778727E+02  0.7816164E-02  0.1312668E+00
        -11   -1    0    0    0    0  0.00000000000E+00  0.00000000000E+00  0.45593999997E+02  0.45594000000E+02  0.51100000000E-03 0.  1.
         11   -1    0    0    0    0 -0.00000000000E+00 -0.00000000000E+00 -0.45593999997E+02  0.45594000000E+02  0.51100000000E-03 0. -1.
    9900012    2    1    2    0    0 -0.14866913615E+02 -0.23401692025E+02  0.33391001028E+02  0.47787271207E+02  0.20000000742E+02 0.  0.
         12    1    1    2    0    0  0.14866913615E+02  0.23401692025E+02 -0.33391001028E+02  0.43400728793E+02  0.00000000000E+00 0. -1.
         11    1    3    3    0    0 -0.88763616411E+01 -0.50676977116E+01  0.79348321698E+01  0.12939587239E+02  0.51100000000E-03 0. -1.
        -11    1    3    3    0    0 -0.85895490710E+01 -0.12246938661E+02  0.98895426114E+01  0.17932398421E+02  0.51100000000E-03 0.  1.
         12    1    3    3    0    0  0.25989970970E+01 -0.60870556523E+01  0.15566626247E+02  0.16915285547E+02  0.00000000000E+00 0. -1.
</event>
<event>
 7    1  0.2476315E-009  0.4778727E+02  0.7816164E-02  0.1312668E+00
        -11   -1    0    0    0    0  0.00000000000E+00  0.00000000000E+00  0.45593999997E+02  0.45594000000E+02  0.51100000000E-03 0. -1.
         11   -1    0    0    0    0 -0.00000000000E+00 -0.00000000000E+00 -0.45593999997E+02  0.45594000000E+02  0.51100000000E-03 0.  1.
    9900012    2    1    2    0    0  0.39253237173E+02 -0.30312837622E+01  0.18265216803E+02  0.47787268961E+02  0.19999990502E+02 0.  0.
         12    1    1    2    0    0 -0.39253237173E+02  0.30312837622E+01 -0.18265216803E+02  0.43400731039E+02  0.00000000000E+00 0. -1.
         11    1    3    3    0    0 -0.14259724040E+00  0.20456421980E+00  0.61724933799E+00  0.66571577971E+00  0.51100000000E-03 0. -1.
        -11    1    3    3    0    0  0.34840412892E+02 -0.90845565112E+01  0.12573036142E+02  0.38137445846E+02  0.51100000000E-03 0.  1.
        -12    1    3    3    0    0  0.45554215213E+01  0.58487085293E+01  0.50749313226E+01  0.89841073361E+01  0.00000000000E+00 0.  1.
</event>
<event>
 7    1  0.2476315E-009  0.4778727E+02  0.7816164E-02  0.1312668E+00
        -11   -1    0    0    0    0  0.00000000000E+00  0.00000000000E+00  0.45593999997E+02  0.45594000000E+02  0.51100000000E-03 0.  1.
         11   -1    0    0    0    0 -0.00000000000E+00 -0.00000000000E+00 -0.45593999997E+02  0.45594000000E+02  0.51100000000E-03 0. -1.
    9900012    2    1    2    0    0  0.55649262850E+01 -0.28447744975E+02  0.32301404852E+02  0.47787270120E+02  0.19999995786E+02 0.  0.
         12    1    1    2    0    0 -0.55649262850E+01  0.28447744975E+02 -0.32301404852E+02  0.43400729880E+02  0.00000000000E+00 0. -1.
         11    1    3    3    0    0 -0.12715915193E+01 -0.53767153720E+01  0.84877142558E+01  0.10127551863E+02  0.51100000000E-03 0. -1.
        -11    1    3    3    0    0  0.42875369493E+01 -0.10353204453E+02  0.21830009966E+02  0.24538157040E+02  0.51100000000E-03 0.  1.
        -12    1    3    3    0    0  0.25489808550E+01 -0.12717825150E+02  0.19836806301E+01  0.13121561218E+02  0.00000000000E+00 0.  1.
</event>
<event>
 7    1  0.2476315E-009  0.4778727E+02  0.7816164E-02  0.1312668E+00
        -11   -1    0    0    0    0  0.00000000000E+00  0.00000000000E+00  0.45593999997E+02  0.45594000000E+02  0.51100000000E-03 0. -1.
         11   -1    0    0    0    0 -0.00000000000E+00 -0.00000000000E+00 -0.45593999997E+02  0.45594000000E+02  0.51100000000E-03 0.  1.
    9900012    2    1    2    0    0 -0.41476420640E+02 -0.84762755418E+01 -0.95646479546E+01  0.47787271819E+02  0.20000003532E+02 0.  0.
         12    1    1    2    0    0  0.41476420640E+02  0.84762755418E+01  0.95646479546E+01  0.43400728181E+02  0.00000000000E+00 0. -1.
         11    1    3    3    0    0 -0.87025594968E+00  0.11085376487E+01  0.50489706198E+00  0.14970378889E+01  0.51100000000E-03 0. -1.
        -11    1    3    3    0    0 -0.98257942207E+00  0.29371339470E+01 -0.26538544433E+01  0.40786225384E+01  0.51100000000E-03 0.  1.
        -12    1    3    3    0    0 -0.39623585268E+02 -0.12521947138E+02 -0.74156905732E+01  0.42211611392E+02  0.00000000000E+00 0.  1.
</event>
<event>
 7    1  0.2476315E-009  0.4778725E+02  0.7816164E-02  0.1312668E+00
        -11   -1    0    0    0    0  0.00000000000E+00  0.00000000000E+00  0.45593999997E+02  0.45594000000E+02  0.51100000000E-03 0.  1.
         11   -1    0    0    0    0 -0.00000000000E+00 -0.00000000000E+00 -0.45593999997E+02  0.45594000000E+02  0.51100000000E-03 0. -1.
    9900012    2    1    2    0    0  0.11976081134E+01 -0.42989649417E+02  0.58379088807E+01  0.47787246524E+02  0.19999888199E+02 0.  0.
         12    1    1    2    0    0 -0.11976081134E+01  0.42989649417E+02 -0.58379088807E+01  0.43400753476E+02  0.00000000000E+00 0. -1.
         11    1    3    3    0    0 -0.65744252854E+01 -0.24311314231E+02  0.71809506229E+01  0.26188339382E+02  0.51100000000E-03 0. -1.
        -11    1    3    3    0    0  0.90545998389E+01 -0.14425955671E+02 -0.29196779160E+00  0.17034647655E+02  0.51100000000E-03 0.  1.
        -12    1    3    3    0    0 -0.12825664401E+01 -0.42523795154E+01 -0.10510739507E+01  0.45642594871E+01  0.00000000000E+00 0.  1.
</event>
<event>
 7    1  0.2476315E-009  0.4778727E+02  0.7816164E-02  0.1312668E+00
        -11   -1    0    0    0    0  0.00000000000E+00  0.00000000000E+00  0.45593999997E+02  0.45594000000E+02  0.51100000000E-03 0.  1.
         11   -1    0    0    0    0 -0.00000000000E+00 -0.00000000000E+00 -0.45593999997E+02  0.45594000000E+02  0.51100000000E-03 0. -1.
    9900012    2    1    2    0    0  0.11897664844E+02 -0.15827987825E+02  0.38620508875E+02  0.47787270362E+02  0.19999996890E+02 0.  0.
         12    1    1    2    0    0 -0.11897664844E+02  0.15827987825E+02 -0.38620508875E+02  0.43400729638E+02  0.00000000000E+00 0. -1.
         11    1    3    3    0    0  0.61463118048E+01 -0.67278683709E-01  0.79486285563E+00  0.61978611184E+01  0.51100000000E-03 0. -1.
        -11    1    3    3    0    0  0.50520632384E+01 -0.15650830082E+02  0.37067978984E+02  0.40552520161E+02  0.51100000000E-03 0.  1.
        -12    1    3    3    0    0  0.69928980057E+00 -0.10987905898E+00  0.75766703546E+00  0.10368890825E+01  0.00000000000E+00 0.  1.
</event>
<event>
 7    1  0.2476315E-009  0.4778728E+02  0.7816164E-02  0.1312668E+00
        -11   -1    0    0    0    0  0.00000000000E+00  0.00000000000E+00  0.45593999997E+02  0.45594000000E+02  0.51100000000E-03 0.  1.
         11   -1    0    0    0    0 -0.00000000000E+00 -0.00000000000E+00 -0.45593999997E+02  0.45594000000E+02  0.51100000000E-03 0. -1.
    9900012    2    1    2    0    0  0.34487666756E+02  0.64035399827E+01  0.25558136824E+02  0.47787276037E+02  0.20000022763E+02 0.  0.
         12    1    1    2    0    0 -0.34487666756E+02 -0.64035399827E+01 -0.25558136824E+02  0.43400723963E+02  0.00000000000E+00 0. -1.
         11    1    3    3    0    0  0.46326595973E+00  0.58484212733E+01  0.37083887162E+01  0.69405182711E+01  0.51100000000E-03 0. -1.
        -11    1    3    3    0    0  0.27333236993E+02  0.26566531948E+01  0.16639247315E+02  0.32109627874E+02  0.51100000000E-03 0.  1.
         12    1    3    3    0    0  0.66911638035E+01 -0.21015344855E+01  0.52105007931E+01  0.87371298923E+01  0.00000000000E+00 0. -1.
</event>
<event>
 7    1  0.2476315E-009  0.4778727E+02  0.7816164E-02  0.1312668E+00
        -11   -1    0    0    0    0  0.00000000000E+00  0.00000000000E+00  0.45593999997E+02  0.45594000000E+02  0.51100000000E-03 0.  1.
         11   -1    0    0    0    0 -0.00000000000E+00 -0.00000000000E+00 -0.45593999997E+02  0.45594000000E+02  0.51100000000E-03 0. -1.
    9900012    2    1    2    0    0  0.11990843378E+02 -0.36201269183E+02  0.20719824077E+02  0.47787270453E+02  0.19999997305E+02 0.  0.
         12    1    1    2    0    0 -0.11990843378E+02  0.36201269183E+02 -0.20719824077E+02  0.43400729547E+02  0.00000000000E+00 0. -1.
         11    1    3    3    0    0  0.13438800467E+01 -0.13811258138E+02  0.42359977249E+01  0.14508636805E+02  0.51100000000E-03 0. -1.
        -11    1    3    3    0    0  0.85283719556E+01 -0.22394000303E+02  0.18561753656E+02  0.30311104843E+02  0.51100000000E-03 0.  1.
        -12    1    3    3    0    0  0.21185913754E+01  0.39892579087E-02 -0.20779273038E+01  0.29675288053E+01  0.00000000000E+00 0.  1.
</event>
<event>
 7    1  0.2476315E-009  0.4778727E+02  0.7816164E-02  0.1312668E+00
        -11   -1    0    0    0    0  0.00000000000E+00  0.00000000000E+00  0.45593999997E+02  0.45594000000E+02  0.51100000000E-03 0.  1.
         11   -1    0    0    0    0 -0.00000000000E+00 -0.00000000000E+00 -0.45593999997E+02  0.45594000000E+02  0.51100000000E-03 0. -1.
    9900012    2    1    2    0    0  0.73731346115E+01  0.85294403668E+00  0.42761347262E+02  0.47787269048E+02  0.19999990898E+02 0.  0.
         12    1    1    2    0    0 -0.73731346115E+01 -0.85294403668E+00 -0.42761347262E+02  0.43400730952E+02  0.00000000000E+00 0. -1.
         11    1    3    3    0    0 -0.21373704167E+01  0.27320314515E+00  0.53553910455E+01  0.57726255524E+01  0.51100000000E-03 0.  1.
        -11    1    3    3    0    0 -0.12265549901E+01 -0.19851086819E+01 -0.62352832376E+00  0.24153429268E+01  0.51100000000E-03 0. -1.
        -12    1    3    3    0    0  0.10737060018E+02  0.25648495734E+01  0.38029484540E+02  0.39599300569E+02  0.00000000000E+00 0.  1.
</event>
<event>
 7    1  0.2476315E-009  0.4778727E+02  0.7816164E-02  0.1312668E+00
        -11   -1    0    0    0    0  0.00000000000E+00  0.00000000000E+00  0.45593999997E+02  0.45594000000E+02  0.51100000000E-03 0. -1.
         11   -1    0    0    0    0 -0.00000000000E+00 -0.00000000000E+00 -0.45593999997E+02  0.45594000000E+02  0.51100000000E-03 0.  1.
    9900012    2    1    2    0    0  0.38692812972E+02  0.71310457515E+01 -0.18320413565E+02  0.47787272559E+02  0.20000006908E+02 0.  0.
         12    1    1    2    0    0 -0.38692812972E+02 -0.71310457515E+01  0.18320413565E+02  0.43400727441E+02  0.00000000000E+00 0. -1.
         11    1    3    3    0    0  0.40633185862E+01 -0.95292819448E+00  0.16612186371E+01  0.44920237865E+01  0.51100000000E-03 0. -1.
        -11    1    3    3    0    0  0.19347637211E+02 -0.29218234818E+01 -0.10650181762E+02  0.22277667965E+02  0.51100000000E-03 0.  1.
        -12    1    3    3    0    0  0.15281857174E+02  0.11005797428E+02 -0.93314504401E+01  0.21017580808E+02  0.00000000000E+00 0.  1.
</event>
<event>
 7    1  0.2476315E-009  0.4778727E+02  0.7816164E-02  0.1312668E+00
        -11   -1    0    0    0    0  0.00000000000E+00  0.00000000000E+00  0.45593999997E+02  0.45594000000E+02  0.51100000000E-03 0.  1.
         11   -1    0    0    0    0 -0.00000000000E+00 -0.00000000000E+00 -0.45593999997E+02  0.45594000000E+02  0.51100000000E-03 0. -1.
    9900012    2    1    2    0    0  0.66677923140E+01  0.41430068539E+02  0.11077603882E+02  0.47787270268E+02  0.19999996460E+02 0.  0.
         12    1    1    2    0    0 -0.66677923140E+01 -0.41430068539E+02 -0.11077603882E+02  0.43400729732E+02  0.00000000000E+00 0. -1.
         11    1    3    3    0    0 -0.19308492932E+00  0.36885805927E+01 -0.17211893477E+01  0.40749725902E+01  0.51100000000E-03 0. -1.
        -11    1    3    3    0    0  0.40802511752E+01  0.52506917562E+01 -0.32113465246E+01  0.73845081308E+01  0.51100000000E-03 0.  1.
        -12    1    3    3    0    0  0.27806260680E+01  0.32490796190E+02  0.16010139754E+02  0.36327789547E+02  0.00000000000E+00 0.  1.
</event>
<event>
 7    1  0.2476315E-009  0.4778726E+02  0.7816164E-02  0.1312668E+00
        -11   -1    0    0    0    0  0.00000000000E+00  0.00000000000E+00  0.45593999997E+02  0.45594000000E+02  0.51100000000E-03 0.  1.
         11   -1    0    0    0    0 -0.00000000000E+00 -0.00000000000E+00 -0.45593999997E+02  0.45594000000E+02  0.51100000000E-03 0. -1.
    9900012    2    1    2    0    0 -0.30934180733E+02 -0.66705034262E+01  0.29701933353E+02  0.47787262696E+02  0.19999961938E+02 0.  0.
         12    1    1    2    0    0  0.30934180733E+02  0.66705034262E+01 -0.29701933353E+02  0.43400737304E+02  0.00000000000E+00 0. -1.
         11    1    3    3    0    0 -0.13850551074E+02  0.15061106293E+01  0.66560294943E+01  0.15440494266E+02  0.51100000000E-03 0. -1.
        -11    1    3    3    0    0 -0.23238750469E+00 -0.56457049662E+01  0.60970266504E+01  0.83127445982E+01  0.51100000000E-03 0.  1.
        -12    1    3    3    0    0 -0.16851242155E+02 -0.25309090892E+01  0.16948877208E+02  0.24034023833E+02  0.00000000000E+00 0.  1.
</event>
<event>
 7    1  0.2476315E-009  0.4778727E+02  0.7816164E-02  0.1312668E+00
        -11   -1    0    0    0    0  0.00000000000E+00  0.00000000000E+00  0.45593999997E+02  0.45594000000E+02  0.51100000000E-03 0. -1.
         11   -1    0    0    0    0 -0.00000000000E+00 -0.00000000000E+00 -0.45593999997E+02  0.45594000000E+02  0.51100000000E-03 0.  1.
    9900012    2    1    2    0    0  0.13288534203E+02 -0.75872139266E-01 -0.41316245874E+02  0.47787273382E+02  0.20000010657E+02 0.  0.
         12    1    1    2    0    0 -0.13288534203E+02  0.75872139266E-01  0.41316245874E+02  0.43400726618E+02  0.00000000000E+00 0. -1.
         11    1    3    3    0    0 -0.31435465631E+01 -0.30249553278E+00 -0.12337001216E+02  0.12734794376E+02  0.51100000000E-03 0. -1.
        -11    1    3    3    0    0  0.69177729281E+01 -0.16165813585E+01 -0.21975836020E+02  0.23095590198E+02  0.51100000000E-03 0.  1.
         12    1    3    3    0    0  0.95143078379E+01  0.18432047520E+01 -0.70034086385E+01  0.11956888807E+02  0.00000000000E+00 0. -1.
</event>
<event>
 7    1  0.2476315E-009  0.4778729E+02  0.7816164E-02  0.1312668E+00
        -11   -1    0    0    0    0  0.00000000000E+00  0.00000000000E+00  0.45593999997E+02  0.45594000000E+02  0.51100000000E-03 0.  1.
         11   -1    0    0    0    0 -0.00000000000E+00 -0.00000000000E+00 -0.45593999997E+02  0.45594000000E+02  0.51100000000E-03 0. -1.
    9900012    2    1    2    0    0  0.13783673121E+01  0.14505240539E+02  0.40881776732E+02  0.47787290693E+02  0.20000089588E+02 0.  0.
         12    1    1    2    0    0 -0.13783673121E+01 -0.14505240539E+02 -0.40881776732E+02  0.43400709307E+02  0.00000000000E+00 0. -1.
         11    1    3    3    0    0  0.64026260639E+01 -0.13115582926E+01  0.73380944183E+01  0.98265678455E+01  0.51100000000E-03 0. -1.
        -11    1    3    3    0    0 -0.54672214942E+01  0.69166262104E+01  0.18019921422E+02  0.20061101598E+02  0.51100000000E-03 0.  1.
         12    1    3    3    0    0  0.44296274243E+00  0.89001726211E+01  0.15523760891E+02  0.17899621250E+02  0.00000000000E+00 0. -1.
</event>
<event>
 7    1  0.2476315E-009  0.4778728E+02  0.7816164E-02  0.1312668E+00
        -11   -1    0    0    0    0  0.00000000000E+00  0.00000000000E+00  0.45593999997E+02  0.45594000000E+02  0.51100000000E-03 0.  1.
         11   -1    0    0    0    0 -0.00000000000E+00 -0.00000000000E+00 -0.45593999997E+02  0.45594000000E+02  0.51100000000E-03 0. -1.
    9900012    2    1    2    0    0 -0.36003098806E+02 -0.17816581177E+02  0.16430737044E+02  0.47787276408E+02  0.20000024454E+02 0.  0.
         12    1    1    2    0    0  0.36003098806E+02  0.17816581177E+02 -0.16430737044E+02  0.43400723592E+02  0.00000000000E+00 0. -1.
         11    1    3    3    0    0 -0.23382607626E+02 -0.62178519447E+01  0.16106985792E+01  0.24248760223E+02  0.51100000000E-03 0. -1.
        -11    1    3    3    0    0 -0.53203769422E+01 -0.66645631256E+01  0.11041571937E+02  0.13951312611E+02  0.51100000000E-03 0.  1.
        -12    1    3    3    0    0 -0.73001142384E+01 -0.49341661071E+01  0.37784665277E+01  0.95872035739E+01  0.00000000000E+00 0.  1.
</event>
<event>
 7    1  0.2476315E-009  0.4778726E+02  0.7816164E-02  0.1312668E+00
        -11   -1    0    0    0    0  0.00000000000E+00  0.00000000000E+00  0.45593999997E+02  0.45594000000E+02  0.51100000000E-03 0.  1.
         11   -1    0    0    0    0 -0.00000000000E+00 -0.00000000000E+00 -0.45593999997E+02  0.45594000000E+02  0.51100000000E-03 0. -1.
    9900012    2    1    2    0    0 -0.14422793141E+02  0.77416310926E+01  0.40195449019E+02  0.47787263419E+02  0.19999965233E+02 0.  0.
         12    1    1    2    0    0  0.14422793141E+02 -0.77416310926E+01 -0.40195449019E+02  0.43400736581E+02  0.00000000000E+00 0. -1.
         11    1    3    3    0    0 -0.15413854762E+02 -0.53872085135E+00  0.23549410068E+02  0.28150521374E+02  0.51100000000E-03 0. -1.
        -11    1    3    3    0    0 -0.15908497169E+01  0.29266432283E+00  0.51767570137E+01  0.54235844852E+01  0.51100000000E-03 0.  1.
         12    1    3    3    0    0  0.25819113385E+01  0.79876876211E+01  0.11469281937E+02  0.14213157560E+02  0.00000000000E+00 0. -1.
</event>
<event>
 7    1  0.2476315E-009  0.4778727E+02  0.7816164E-02  0.1312668E+00
        -11   -1    0    0    0    0  0.00000000000E+00  0.00000000000E+00  0.45593999997E+02  0.45594000000E+02  0.51100000000E-03 0. -1.
         11   -1    0    0    0    0 -0.00000000000E+00 -0.00000000000E+00 -0.45593999997E+02  0.45594000000E+02  0.51100000000E-03 0.  1.
    9900012    2    1    2    0    0  0.40937001590E+02 -0.12604143280E+02 -0.69943650681E+01  0.47787266484E+02  0.19999979209E+02 0.  0.
         12    1    1    2    0    0 -0.40937001590E+02  0.12604143280E+02  0.69943650681E+01  0.43400733516E+02  0.00000000000E+00 0. -1.
         11    1    3    3    0    0  0.25208972834E+02 -0.11522268300E+02  0.33316982084E+01  0.27916933774E+02  0.51100000000E-03 0. -1.
        -11    1    3    3    0    0  0.78402161712E+01 -0.21566413475E+01 -0.83769906064E+01  0.11674504846E+02  0.51100000000E-03 0.  1.
        -12    1    3    3    0    0  0.78878125846E+01  0.10747663672E+01 -0.19490726701E+01  0.81958278646E+01  0.00000000000E+00 0.  1.
</event>
<event>
 7    1  0.2476315E-009  0.4778727E+02  0.7816164E-02  0.1312668E+00
        -11   -1    0    0    0    0  0.00000000000E+00  0.00000000000E+00  0.45593999997E+02  0.45594000000E+02  0.51100000000E-03 0. -1.
         11   -1    0    0    0    0 -0.00000000000E+00 -0.00000000000E+00 -0.45593999997E+02  0.45594000000E+02  0.51100000000E-03 0.  1.
    9900012    2    1    2    0    0 -0.16086158475E+02 -0.33913799833E+02  0.21787915771E+02  0.47787267434E+02  0.19999983540E+02 0.  0.
         12    1    1    2    0    0  0.16086158475E+02  0.33913799833E+02 -0.21787915771E+02  0.43400732566E+02  0.00000000000E+00 0. -1.
         11    1    3    3    0    0 -0.16446088384E+02 -0.30157316475E+02  0.24385863680E+02  0.42126095330E+02  0.51100000000E-03 0. -1.
        -11    1    3    3    0    0 -0.13899159748E+01 -0.25500401402E+01 -0.14752815384E+01  0.32574571390E+01  0.51100000000E-03 0.  1.
         12    1    3    3    0    0  0.17498458835E+01 -0.12064432176E+01 -0.11226663703E+01  0.24037149649E+01  0.00000000000E+00 0. -1.
</event>
<event>
 7    1  0.2476315E-009  0.4778728E+02  0.7816164E-02  0.1312668E+00
        -11   -1    0    0    0    0  0.00000000000E+00  0.00000000000E+00  0.45593999997E+02  0.45594000000E+02  0.51100000000E-03 0.  1.
         11   -1    0    0    0    0 -0.00000000000E+00 -0.00000000000E+00 -0.45593999997E+02  0.45594000000E+02  0.51100000000E-03 0. -1.
    9900012    2    1    2    0    0 -0.82751596809E+01  0.12331298629E+01  0.42586664700E+02  0.47787275499E+02  0.20000020308E+02 0.  0.
         12    1    1    2    0    0  0.82751596809E+01 -0.12331298629E+01 -0.42586664700E+02  0.43400724501E+02  0.00000000000E+00 0. -1.
         11    1    3    3    0    0 -0.72389398140E+00 -0.36968930292E+00  0.21821424845E+02  0.21836558227E+02  0.51100000000E-03 0. -1.
        -11    1    3    3    0    0 -0.44464243807E+01  0.39452854695E+01  0.12794247414E+01  0.60805341162E+01  0.51100000000E-03 0.  1.
        -12    1    3    3    0    0 -0.31048413188E+01 -0.23424663036E+01  0.19485815113E+02  0.19870183155E+02  0.00000000000E+00 0.  1.
</event>
<event>
 7    1  0.2476315E-009  0.4778727E+02  0.7816164E-02  0.1312668E+00
        -11   -1    0    0    0    0  0.00000000000E+00  0.00000000000E+00  0.45593999997E+02  0.45594000000E+02  0.51100000000E-03 0.  1.
         11   -1    0    0    0    0 -0.00000000000E+00 -0.00000000000E+00 -0.45593999997E+02  0.45594000000E+02  0.51100000000E-03 0. -1.
    9900012    2    1    2    0    0  0.30155162337E+02 -0.12802421900E+02  0.28467312150E+02  0.47787266329E+02  0.19999978502E+02 0.  0.
         12    1    1    2    0    0 -0.30155162337E+02  0.12802421900E+02 -0.28467312150E+02  0.43400733671E+02  0.00000000000E+00 0. -1.
         11    1    3    3    0    0 -0.18029373550E+01 -0.22626847563E+01 -0.90186009404E-01  0.28945568210E+01  0.51100000000E-03 0. -1.
        -11    1    3    3    0    0  0.27198546567E+02 -0.56671464611E+01  0.23816529795E+02  0.36593777833E+02  0.51100000000E-03 0.  1.
        -12    1    3    3    0    0  0.47595531256E+01 -0.48725906827E+01  0.47409683651E+01  0.82989316755E+01  0.00000000000E+00 0.  1.
</event>
<event>
 7    1  0.2476315E-009  0.4778727E+02  0.7816164E-02  0.1312668E+00
        -11   -1    0    0    0    0  0.00000000000E+00  0.00000000000E+00  0.45593999997E+02  0.45594000000E+02  0.51100000000E-03 0.  1.
         11   -1    0    0    0    0 -0.00000000000E+00 -0.00000000000E+00 -0.45593999997E+02  0.45594000000E+02  0.51100000000E-03 0. -1.
    9900012    2    1    2    0    0  0.37716986165E+02 -0.10859054479E+02  0.18523848450E+02  0.47787273383E+02  0.20000010661E+02 0.  0.
         12    1    1    2    0    0 -0.37716986165E+02  0.10859054479E+02 -0.18523848450E+02  0.43400726617E+02  0.00000000000E+00 0. -1.
         11    1    3    3    0    0  0.24045732777E+01 -0.12371475843E+01  0.36298559624E+01  0.45264071141E+01  0.51100000000E-03 0.  1.
        -11    1    3    3    0    0  0.18723029647E+02 -0.14092867796E+02  0.87159950012E+01  0.25002586486E+02  0.51100000000E-03 0. -1.
        -12    1    3    3    0    0  0.16589383240E+02  0.44709609015E+01  0.61779974860E+01  0.18258279782E+02  0.00000000000E+00 0.  1.
</event>
<event>
 7    1  0.2476315E-009  0.4778727E+02  0.7816164E-02  0.1312668E+00
        -11   -1    0    0    0    0  0.00000000000E+00  0.00000000000E+00  0.45593999997E+02  0.45594000000E+02  0.51100000000E-03 0. -1.
         11   -1    0    0    0    0 -0.00000000000E+00 -0.00000000000E+00 -0.45593999997E+02  0.45594000000E+02  0.51100000000E-03 0.  1.
    9900012    2    1    2    0    0  0.16058764538E+02  0.38814166285E+02 -0.10917872184E+02  0.47787270099E+02  0.19999995688E+02 0.  0.
         12    1    1    2    0    0 -0.16058764538E+02 -0.38814166285E+02  0.10917872184E+02  0.43400729901E+02  0.00000000000E+00 0. -1.
         11    1    3    3    0    0  0.20861257494E+01  0.97937441201E+01 -0.11824776354E+02  0.15494988887E+02  0.51100000000E-03 0.  1.
        -11    1    3    3    0    0  0.97907155361E+01  0.18262534552E+02  0.95397587266E-01  0.20721664507E+02  0.51100000000E-03 0. -1.
        -12    1    3    3    0    0  0.41819232529E+01  0.10757887613E+02  0.81150658290E+00  0.11570616705E+02  0.00000000000E+00 0.  1.
</event>
<event>
 7    1  0.2476315E-009  0.4778727E+02  0.7816164E-02  0.1312668E+00
        -11   -1    0    0    0    0  0.00000000000E+00  0.00000000000E+00  0.45593999997E+02  0.45594000000E+02  0.51100000000E-03 0. -1.
         11   -1    0    0    0    0 -0.00000000000E+00 -0.00000000000E+00 -0.45593999997E+02  0.45594000000E+02  0.51100000000E-03 0.  1.
    9900012    2    1    2    0    0 -0.22113926348E+02 -0.30687471804E+02 -0.21280903656E+02  0.47787268155E+02  0.19999986827E+02 0.  0.
         12    1    1    2    0    0  0.22113926348E+02  0.30687471804E+02  0.21280903656E+02  0.43400731845E+02  0.00000000000E+00 0. -1.
         11    1    3    3    0    0 -0.67513092674E+01 -0.17139519243E+02 -0.58393461145E+01  0.19324628328E+02  0.51100000000E-03 0. -1.
        -11    1    3    3    0    0 -0.12868366420E+02 -0.11925964716E+02 -0.17550157606E+02  0.24815952953E+02  0.51100000000E-03 0.  1.
        -12    1    3    3    0    0 -0.24942506604E+01 -0.16219878450E+01  0.21086000644E+01  0.36466868741E+01  0.00000000000E+00 0.  1.
</event>
<event>
 7    1  0.2476315E-009  0.4778727E+02  0.7816164E-02  0.1312668E+00
        -11   -1    0    0    0    0  0.00000000000E+00  0.00000000000E+00  0.45593999997E+02  0.45594000000E+02  0.51100000000E-03 0.  1.
         11   -1    0    0    0    0 -0.00000000000E+00 -0.00000000000E+00 -0.45593999997E+02  0.45594000000E+02  0.51100000000E-03 0. -1.
    9900012    2    1    2    0    0 -0.29641703984E+02  0.14659145987E+02  0.28108754696E+02  0.47787271128E+02  0.20000000379E+02 0.  0.
         12    1    1    2    0    0  0.29641703984E+02 -0.14659145987E+02 -0.28108754696E+02  0.43400728872E+02  0.00000000000E+00 0. -1.
         11    1    3    3    0    0 -0.10203868981E+02  0.24677185003E+01  0.89725451714E+01  0.13809965383E+02  0.51100000000E-03 0. -1.
        -11    1    3    3    0    0 -0.11747383988E+02  0.15446987220E+02  0.10947725579E+02  0.22281452833E+02  0.51100000000E-03 0.  1.
        -12    1    3    3    0    0 -0.76904510155E+01 -0.32555597338E+01  0.81884839455E+01  0.11695852911E+02  0.00000000000E+00 0.  1.
</event>
<event>
 7    1  0.2476315E-009  0.4778727E+02  0.7816164E-02  0.1312668E+00
        -11   -1    0    0    0    0  0.00000000000E+00  0.00000000000E+00  0.45593999997E+02  0.45594000000E+02  0.51100000000E-03 0.  1.
         11   -1    0    0    0    0 -0.00000000000E+00 -0.00000000000E+00 -0.45593999997E+02  0.45594000000E+02  0.51100000000E-03 0. -1.
    9900012    2    1    2    0    0  0.20874171526E+02  0.34450095669E+02  0.16158075241E+02  0.47787268163E+02  0.19999986863E+02 0.  0.
         12    1    1    2    0    0 -0.20874171526E+02 -0.34450095669E+02 -0.16158075241E+02  0.43400731837E+02  0.00000000000E+00 0. -1.
         11    1    3    3    0    0  0.17044181998E+01  0.15800676545E+02  0.72630264532E+01  0.17473350400E+02  0.51100000000E-03 0. -1.
        -11    1    3    3    0    0  0.13025746031E+02  0.68428222013E+01  0.79907227847E+00  0.14735426432E+02  0.51100000000E-03 0.  1.
        -12    1    3    3    0    0  0.61440072949E+01  0.11806596923E+02  0.80959765095E+01  0.15578491332E+02  0.00000000000E+00 0.  1.
</event>
<event>
 7    1  0.2476315E-009  0.4778727E+02  0.7816164E-02  0.1312668E+00
        -11   -1    0    0    0    0  0.00000000000E+00  0.00000000000E+00  0.45593999997E+02  0.45594000000E+02  0.51100000000E-03 0. -1.
         11   -1    0    0    0    0 -0.00000000000E+00 -0.00000000000E+00 -0.45593999997E+02  0.45594000000E+02  0.51100000000E-03 0.  1.
    9900012    2    1    2    0    0  0.52327828199E+01  0.41098225923E+02 -0.12929696121E+02  0.47787271529E+02  0.20000002208E+02 0.  0.
         12    1    1    2    0    0 -0.52327828199E+01 -0.41098225923E+02  0.12929696121E+02  0.43400728471E+02  0.00000000000E+00 0. -1.
         11    1    3    3    0    0 -0.63402432551E+00  0.35859351493E+00 -0.39734989296E+00  0.82973691785E+00  0.51100000000E-03 0. -1.
        -11    1    3    3    0    0 -0.17931748281E+00 -0.10550982129E+01  0.20238888360E+01  0.22894351443E+01  0.51100000000E-03 0.  1.
        -12    1    3    3    0    0  0.60461246283E+01  0.41794730621E+02 -0.14556235064E+02  0.44668099466E+02  0.00000000000E+00 0.  1.
</event>
<event>
 7    1  0.2476315E-009  0.4778727E+02  0.7816164E-02  0.1312668E+00
        -11   -1    0    0    0    0  0.00000000000E+00  0.00000000000E+00  0.45593999997E+02  0.45594000000E+02  0.51100000000E-03 0.  1.
         11   -1    0    0    0    0 -0.00000000000E+00 -0.00000000000E+00 -0.45593999997E+02  0.45594000000E+02  0.51100000000E-03 0. -1.
    9900012    2    1    2    0    0  0.42658634690E+02 -0.11378567366E+01  0.79100755517E+01  0.47787272739E+02  0.20000007725E+02 0.  0.
         12    1    1    2    0    0 -0.42658634690E+02  0.11378567366E+01 -0.79100755517E+01  0.43400727261E+02  0.00000000000E+00 0. -1.
         11    1    3    3    0    0  0.13318661753E+01 -0.46575610917E+00 -0.33902845650E+01  0.36721691076E+01  0.51100000000E-03 0. -1.
        -11    1    3    3    0    0  0.37954750105E+01 -0.98984386873E+00  0.45031895765E+01  0.59719459193E+01  0.51100000000E-03 0.  1.
         12    1    3    3    0    0  0.37531293504E+02  0.31774324130E+00  0.67971705401E+01  0.38143157712E+02  0.00000000000E+00 0. -1.
</event>
<event>
 7    1  0.2476315E-009  0.4778727E+02  0.7816164E-02  0.1312668E+00
        -11   -1    0    0    0    0  0.00000000000E+00  0.00000000000E+00  0.45593999997E+02  0.45594000000E+02  0.51100000000E-03 0.  1.
         11   -1    0    0    0    0 -0.00000000000E+00 -0.00000000000E+00 -0.45593999997E+02  0.45594000000E+02  0.51100000000E-03 0. -1.
    9900012    2    1    2    0    0  0.24824268476E+02 -0.31332142476E+02  0.16901946246E+02  0.47787271384E+02  0.20000001548E+02 0.  0.
         12    1    1    2    0    0 -0.24824268476E+02  0.31332142476E+02 -0.16901946246E+02  0.43400728616E+02  0.00000000000E+00 0. -1.
         11    1    3    3    0    0  0.18108524051E+00  0.14778819650E+01  0.16912565372E+01  0.22532811414E+01  0.51100000000E-03 0. -1.
        -11    1    3    3    0    0  0.15100934609E+02 -0.24642471652E+02  0.49648706468E+01  0.29324726358E+02  0.51100000000E-03 0.  1.
        -12    1    3    3    0    0  0.95422486270E+01 -0.81675527885E+01  0.10245819062E+02  0.16209263884E+02  0.00000000000E+00 0.  1.
</event>
<event>
 7    1  0.2476315E-009  0.4778727E+02  0.7816164E-02  0.1312668E+00
        -11   -1    0    0    0    0  0.00000000000E+00  0.00000000000E+00  0.45593999997E+02  0.45594000000E+02  0.51100000000E-03 0.  1.
         11   -1    0    0    0    0 -0.00000000000E+00 -0.00000000000E+00 -0.45593999997E+02  0.45594000000E+02  0.51100000000E-03 0. -1.
    9900012    2    1    2    0    0 -0.16919612454E+02 -0.53755970396E+00  0.39963249251E+02  0.47787267901E+02  0.19999985669E+02 0.  0.
         12    1    1    2    0    0  0.16919612454E+02  0.53755970396E+00 -0.39963249251E+02  0.43400732099E+02  0.00000000000E+00 0. -1.
         11    1    3    3    0    0 -0.16354297705E+00 -0.61385099103E+01  0.17433421832E+02  0.18483296439E+02  0.51100000000E-03 0. -1.
        -11    1    3    3    0    0 -0.79250410162E+01  0.58828892222E+01  0.11017276613E+02  0.14791722176E+02  0.51100000000E-03 0.  1.
         12    1    3    3    0    0 -0.88310284606E+01 -0.28193901585E+00  0.11512550806E+02  0.14512249286E+02  0.00000000000E+00 0. -1.
</event>
<event>
 7    1  0.2476315E-009  0.4778727E+02  0.7816164E-02  0.1312668E+00
        -11   -1    0    0    0    0  0.00000000000E+00  0.00000000000E+00  0.45593999997E+02  0.45594000000E+02  0.51100000000E-03 0.  1.
         11   -1    0    0    0    0 -0.00000000000E+00 -0.00000000000E+00 -0.45593999997E+02  0.45594000000E+02  0.51100000000E-03 0. -1.
    9900012    2    1    2    0    0 -0.42013637724E+02 -0.96377795010E+01  0.50587149951E+01  0.47787272519E+02  0.20000006723E+02 0.  0.
         12    1    1    2    0    0  0.42013637724E+02  0.96377795010E+01 -0.50587149951E+01  0.43400727481E+02  0.00000000000E+00 0. -1.
         11    1    3    3    0    0 -0.30134536785E+02 -0.29223730205E+01 -0.48209619204E+00  0.30279745513E+02  0.51100000000E-03 0. -1.
        -11    1    3    3    0    0 -0.82183466431E+01 -0.90814529444E+01  0.40118677599E+01  0.12888331634E+02  0.51100000000E-03 0.  1.
        -12    1    3    3    0    0 -0.36607542952E+01  0.23660464639E+01  0.15289434272E+01  0.46191953718E+01  0.00000000000E+00 0.  1.
</event>
<event>
 7    1  0.2476315E-009  0.4778727E+02  0.7816164E-02  0.1312668E+00
        -11   -1    0    0    0    0  0.00000000000E+00  0.00000000000E+00  0.45593999997E+02  0.45594000000E+02  0.51100000000E-03 0.  1.
         11   -1    0    0    0    0 -0.00000000000E+00 -0.00000000000E+00 -0.45593999997E+02  0.45594000000E+02  0.51100000000E-03 0. -1.
    9900012    2    1    2    0    0  0.12538224635E+02 -0.21672016541E+02  0.35450525339E+02  0.47787272763E+02  0.20000007834E+02 0.  0.
         12    1    1    2    0    0 -0.12538224635E+02  0.21672016541E+02 -0.35450525339E+02  0.43400727237E+02  0.00000000000E+00 0. -1.
         11    1    3    3    0    0 -0.15699538504E+01 -0.46377390074E+01  0.17969177555E+02  0.18624304563E+02  0.51100000000E-03 0. -1.
        -11    1    3    3    0    0 -0.73527169889E+00  0.90874080092E-02  0.67467399421E+00  0.99794404240E+00  0.51100000000E-03 0.  1.
         12    1    3    3    0    0  0.14843450184E+02 -0.17043364942E+02  0.16806673789E+02  0.28165024157E+02  0.00000000000E+00 0. -1.
</event>
<event>
 7    1  0.2476315E-009  0.4778727E+02  0.7816164E-02  0.1312668E+00
        -11   -1    0    0    0    0  0.00000000000E+00  0.00000000000E+00  0.45593999997E+02  0.45594000000E+02  0.51100000000E-03 0. -1.
         11   -1    0    0    0    0 -0.00000000000E+00 -0.00000000000E+00 -0.45593999997E+02  0.45594000000E+02  0.51100000000E-03 0.  1.
    9900012    2    1    2    0    0 -0.32360484410E+01 -0.23328981754E+02 -0.36454218368E+02  0.47787269177E+02  0.19999991484E+02 0.  0.
         12    1    1    2    0    0  0.32360484410E+01  0.23328981754E+02  0.36454218368E+02  0.43400730823E+02  0.00000000000E+00 0. -1.
         11    1    3    3    0    0 -0.40063635126E+01 -0.13591939948E+01 -0.85133822160E+01  0.95066310503E+01  0.51100000000E-03 0. -1.
        -11    1    3    3    0    0  0.70040086624E+01 -0.13258879514E+02 -0.12690902276E+02  0.19644669103E+02  0.51100000000E-03 0.  1.
        -12    1    3    3    0    0 -0.62336935908E+01 -0.87109082452E+01 -0.15249933876E+02  0.18635969024E+02  0.00000000000E+00 0.  1.
</event>
<event>
 7    1  0.2476315E-009  0.4778727E+02  0.7816164E-02  0.1312668E+00
        -11   -1    0    0    0    0  0.00000000000E+00  0.00000000000E+00  0.45593999997E+02  0.45594000000E+02  0.51100000000E-03 0. -1.
         11   -1    0    0    0    0 -0.00000000000E+00 -0.00000000000E+00 -0.45593999997E+02  0.45594000000E+02  0.51100000000E-03 0.  1.
    9900012    2    1    2    0    0 -0.18201737749E+02  0.21560813967E+02 -0.32976524302E+02  0.47787272920E+02  0.20000008552E+02 0.  0.
         12    1    1    2    0    0  0.18201737749E+02 -0.21560813967E+02  0.32976524302E+02  0.43400727080E+02  0.00000000000E+00 0. -1.
         11    1    3    3    0    0 -0.12640826433E+01  0.21633742535E+00  0.34774025126E+00  0.13287702413E+01  0.51100000000E-03 0. -1.
        -11    1    3    3    0    0  0.11723585419E+01 -0.22774952462E+01 -0.20205174863E+01  0.32624990913E+01  0.51100000000E-03 0.  1.
        -12    1    3    3    0    0 -0.18110013648E+02  0.23621971788E+02 -0.31303747067E+02  0.43196003587E+02  0.00000000000E+00 0.  1.
</event>
<event>
 7    1  0.2476315E-009  0.4778727E+02  0.7816164E-02  0.1312668E+00
        -11   -1    0    0    0    0  0.00000000000E+00  0.00000000000E+00  0.45593999997E+02  0.45594000000E+02  0.51100000000E-03 0.  1.
         11   -1    0    0    0    0 -0.00000000000E+00 -0.00000000000E+00 -0.45593999997E+02  0.45594000000E+02  0.51100000000E-03 0. -1.
    9900012    2    1    2    0    0 -0.24922113021E+02 -0.27948764290E+02  0.21940329407E+02  0.47787271927E+02  0.20000004025E+02 0.  0.
         12    1    1    2    0    0  0.24922113021E+02  0.27948764290E+02 -0.21940329407E+02  0.43400728073E+02  0.00000000000E+00 0. -1.
         11    1    3    3    0    0 -0.44672804994E+01  0.95656442763E+00  0.20904017461E+01  0.50240810389E+01  0.51100000000E-03 0. -1.
        -11    1    3    3    0    0 -0.80966806413E+01 -0.22591175667E+02  0.12426987022E+02  0.27024941482E+02  0.51100000000E-03 0.  1.
        -12    1    3    3    0    0 -0.12358151880E+02 -0.63141530512E+01  0.74229406390E+01  0.15738249406E+02  0.00000000000E+00 0.  1.
</event>
<event>
 7    1  0.2476315E-009  0.4778727E+02  0.7816164E-02  0.1312668E+00
        -11   -1    0    0    0    0  0.00000000000E+00  0.00000000000E+00  0.45593999997E+02  0.45594000000E+02  0.51100000000E-03 0. -1.
         11   -1    0    0    0    0 -0.00000000000E+00 -0.00000000000E+00 -0.45593999997E+02  0.45594000000E+02  0.51100000000E-03 0.  1.
    9900012    2    1    2    0    0  0.39807186661E+02 -0.16653740510E+02  0.46545099109E+01  0.47787266765E+02  0.19999980489E+02 0.  0.
         12    1    1    2    0    0 -0.39807186661E+02  0.16653740510E+02 -0.46545099109E+01  0.43400733235E+02  0.00000000000E+00 0. -1.
         11    1    3    3    0    0  0.37484475457E+01 -0.75902237470E+01  0.16936757535E+01  0.86331276691E+01  0.51100000000E-03 0. -1.
        -11    1    3    3    0    0  0.30729040533E+02 -0.28746849234E+01  0.19564460256E+01  0.30925158476E+02  0.51100000000E-03 0.  1.
        -12    1    3    3    0    0  0.53296985819E+01 -0.61888318399E+01  0.10043881318E+01  0.82289806195E+01  0.00000000000E+00 0.  1.
</event>
<event>
 7    1  0.2476315E-009  0.4778728E+02  0.7816164E-02  0.1312668E+00
        -11   -1    0    0    0    0  0.00000000000E+00  0.00000000000E+00  0.45593999997E+02  0.45594000000E+02  0.51100000000E-03 0.  1.
         11   -1    0    0    0    0 -0.00000000000E+00 -0.00000000000E+00 -0.45593999997E+02  0.45594000000E+02  0.51100000000E-03 0. -1.
    9900012    2    1    2    0    0  0.23909997583E+02 -0.35622210926E+02 -0.65569056202E+01  0.47787275272E+02  0.20000019274E+02 0.  0.
         12    1    1    2    0    0 -0.23909997583E+02  0.35622210926E+02  0.65569056202E+01  0.43400724728E+02  0.00000000000E+00 0. -1.
         11    1    3    3    0    0 -0.15715816033E+01 -0.54016422986E+00  0.28424479513E+01  0.32925911905E+01  0.51100000000E-03 0. -1.
        -11    1    3    3    0    0  0.19208876131E+02 -0.26474564858E+02 -0.55898379456E+01  0.33183275836E+02  0.51100000000E-03 0.  1.
        -12    1    3    3    0    0  0.62727030549E+01 -0.86074818373E+01 -0.38095156258E+01  0.11311408246E+02  0.00000000000E+00 0.  1.
</event>
<event>
 7    1  0.2476315E-009  0.4778727E+02  0.7816164E-02  0.1312668E+00
        -11   -1    0    0    0    0  0.00000000000E+00  0.00000000000E+00  0.45593999997E+02  0.45594000000E+02  0.51100000000E-03 0.  1.
         11   -1    0    0    0    0 -0.00000000000E+00 -0.00000000000E+00 -0.45593999997E+02  0.45594000000E+02  0.51100000000E-03 0. -1.
    9900012    2    1    2    0    0  0.21834148043E+02  0.35819715919E+02  0.11128406282E+02  0.47787268489E+02  0.19999988350E+02 0.  0.
         12    1    1    2    0    0 -0.21834148043E+02 -0.35819715919E+02 -0.11128406282E+02  0.43400731511E+02  0.00000000000E+00 0. -1.
         11    1    3    3    0    0  0.20451386326E+01 -0.74016792332E+00 -0.22873900072E+01  0.31563576932E+01  0.51100000000E-03 0. -1.
        -11    1    3    3    0    0  0.14510764012E+02  0.27118535136E+02  0.55421675764E+01  0.31252085400E+02  0.51100000000E-03 0.  1.
        -12    1    3    3    0    0  0.52782453984E+01  0.94413487070E+01  0.78736287123E+01  0.13378825397E+02  0.00000000000E+00 0.  1.
</event>
<event>
 7    1  0.2476315E-009  0.4778727E+02  0.7816164E-02  0.1312668E+00
        -11   -1    0    0    0    0  0.00000000000E+00  0.00000000000E+00  0.45593999997E+02  0.45594000000E+02  0.51100000000E-03 0.  1.
         11   -1    0    0    0    0 -0.00000000000E+00 -0.00000000000E+00 -0.45593999997E+02  0.45594000000E+02  0.51100000000E-03 0. -1.
    9900012    2    1    2    0    0  0.14731873651E+02 -0.30277750633E+02  0.27383443111E+02  0.47787271420E+02  0.20000001711E+02 0.  0.
         12    1    1    2    0    0 -0.14731873651E+02  0.30277750633E+02 -0.27383443111E+02  0.43400728580E+02  0.00000000000E+00 0. -1.
         11    1    3    3    0    0  0.53035669321E+01 -0.40709342769E+00  0.54984375633E+01  0.76502524900E+01  0.51100000000E-03 0. -1.
        -11    1    3    3    0    0  0.43574488181E+01 -0.25275571710E+02  0.12527668530E+02  0.28544427906E+02  0.51100000000E-03 0.  1.
        -12    1    3    3    0    0  0.50708579010E+01 -0.45950854962E+01  0.93573370178E+01  0.11592591023E+02  0.00000000000E+00 0.  1.
</event>
<event>
 7    1  0.2476315E-009  0.4778728E+02  0.7816164E-02  0.1312668E+00
        -11   -1    0    0    0    0  0.00000000000E+00  0.00000000000E+00  0.45593999997E+02  0.45594000000E+02  0.51100000000E-03 0. -1.
         11   -1    0    0    0    0 -0.00000000000E+00 -0.00000000000E+00 -0.45593999997E+02  0.45594000000E+02  0.51100000000E-03 0.  1.
    9900012    2    1    2    0    0 -0.34692382770E+02  0.17526661806E+02 -0.19310032785E+02  0.47787278088E+02  0.20000032115E+02 0.  0.
         12    1    1    2    0    0  0.34692382770E+02 -0.17526661806E+02  0.19310032785E+02  0.43400721912E+02  0.00000000000E+00 0. -1.
         11    1    3    3    0    0  0.38308061741E+00  0.32204474062E+01 -0.19009588517E+01  0.37592122942E+01  0.51100000000E-03 0. -1.
        -11    1    3    3    0    0 -0.34786324582E+02  0.10802446151E+02 -0.13696371418E+02  0.38914930439E+02  0.51100000000E-03 0.  1.
        -12    1    3    3    0    0 -0.28913880496E+00  0.35037682490E+01 -0.37127025153E+01  0.51131353549E+01  0.00000000000E+00 0.  1.
</event>
<event>
 7    1  0.2476315E-009  0.4778727E+02  0.7816164E-02  0.1312668E+00
        -11   -1    0    0    0    0  0.00000000000E+00  0.00000000000E+00  0.45593999997E+02  0.45594000000E+02  0.51100000000E-03 0.  1.
         11   -1    0    0    0    0 -0.00000000000E+00 -0.00000000000E+00 -0.45593999997E+02  0.45594000000E+02  0.51100000000E-03 0. -1.
    9900012    2    1    2    0    0 -0.15859393269E+02  0.25712334142E+02  0.31160532756E+02  0.47787270933E+02  0.19999999492E+02 0.  0.
         12    1    1    2    0    0  0.15859393269E+02 -0.25712334142E+02 -0.31160532756E+02  0.43400729067E+02  0.00000000000E+00 0. -1.
         11    1    3    3    0    0  0.34855503977E+01  0.44508379383E+01  0.12617054569E+01  0.57923156724E+01  0.51100000000E-03 0. -1.
        -11    1    3    3    0    0 -0.12538739018E+02  0.88936397590E+01  0.15623913495E+02  0.21918564677E+02  0.51100000000E-03 0.  1.
         12    1    3    3    0    0 -0.68062046486E+01  0.12367856444E+02  0.14274913805E+02  0.20076390584E+02  0.00000000000E+00 0. -1.
</event>
<event>
 7    1  0.2476315E-009  0.4778727E+02  0.7816164E-02  0.1312668E+00
        -11   -1    0    0    0    0  0.00000000000E+00  0.00000000000E+00  0.45593999997E+02  0.45594000000E+02  0.51100000000E-03 0. -1.
         11   -1    0    0    0    0 -0.00000000000E+00 -0.00000000000E+00 -0.45593999997E+02  0.45594000000E+02  0.51100000000E-03 0.  1.
    9900012    2    1    2    0    0 -0.95636977389E+01  0.16253725306E+02 -0.39089325054E+02  0.47787271505E+02  0.20000002098E+02 0.  0.
         12    1    1    2    0    0  0.95636977389E+01 -0.16253725306E+02  0.39089325054E+02  0.43400728495E+02  0.00000000000E+00 0. -1.
         11    1    3    3    0    0  0.25677035983E+01  0.54159609119E+01 -0.12083227226E+02  0.13488147198E+02  0.51100000000E-03 0. -1.
        -11    1    3    3    0    0 -0.11066969703E+02  0.17604361874E+01 -0.19420673131E+02  0.22421853160E+02  0.51100000000E-03 0.  1.
        -12    1    3    3    0    0 -0.10644316338E+01  0.90773282066E+01 -0.75854246964E+01  0.11877271147E+02  0.00000000000E+00 0.  1.
</event>
<event>
 7    1  0.2476315E-009  0.4778728E+02  0.7816164E-02  0.1312668E+00
        -11   -1    0    0    0    0  0.00000000000E+00  0.00000000000E+00  0.45593999997E+02  0.45594000000E+02  0.51100000000E-03 0.  1.
         11   -1    0    0    0    0 -0.00000000000E+00 -0.00000000000E+00 -0.45593999997E+02  0.45594000000E+02  0.51100000000E-03 0. -1.
    9900012    2    1    2    0    0 -0.36401366350E+02 -0.12899959594E+02 -0.19802889541E+02  0.47787275768E+02  0.20000021536E+02 0.  0.
         12    1    1    2    0    0  0.36401366350E+02  0.12899959594E+02  0.19802889541E+02  0.43400724232E+02  0.00000000000E+00 0. -1.
         11    1    3    3    0    0 -0.21597480954E+01  0.41457527885E+01 -0.32948319099E+01  0.57190642237E+01  0.51100000000E-03 0. -1.
        -11    1    3    3    0    0 -0.20859478964E+02 -0.98792553192E+01 -0.68486674901E+01  0.24075335822E+02  0.51100000000E-03 0.  1.
         12    1    3    3    0    0 -0.13382139291E+02 -0.71664570635E+01 -0.96593901407E+01  0.17992875722E+02  0.00000000000E+00 0. -1.
</event>
<event>
 7    1  0.2476315E-009  0.4778727E+02  0.7816164E-02  0.1312668E+00
        -11   -1    0    0    0    0  0.00000000000E+00  0.00000000000E+00  0.45593999997E+02  0.45594000000E+02  0.51100000000E-03 0.  1.
         11   -1    0    0    0    0 -0.00000000000E+00 -0.00000000000E+00 -0.45593999997E+02  0.45594000000E+02  0.51100000000E-03 0. -1.
    9900012    2    1    2    0    0 -0.15900843236E+02 -0.26502211684E+02  0.30469977720E+02  0.47787267494E+02  0.19999983813E+02 0.  0.
         12    1    1    2    0    0  0.15900843236E+02  0.26502211684E+02 -0.30469977720E+02  0.43400732506E+02  0.00000000000E+00 0. -1.
         11    1    3    3    0    0 -0.60123525253E+01 -0.17492670192E+02  0.22768085366E+02  0.29334750806E+02  0.51100000000E-03 0. -1.
        -11    1    3    3    0    0 -0.27115342870E+01 -0.88605572304E+01  0.61110348538E+01  0.11099848642E+02  0.51100000000E-03 0.  1.
         12    1    3    3    0    0 -0.71769564238E+01 -0.14898426199E+00  0.15908574999E+01  0.73526680467E+01  0.00000000000E+00 0. -1.
</event>
<event>
 7    1  0.2476315E-009  0.4778727E+02  0.7816164E-02  0.1312668E+00
        -11   -1    0    0    0    0  0.00000000000E+00  0.00000000000E+00  0.45593999997E+02  0.45594000000E+02  0.51100000000E-03 0.  1.
         11   -1    0    0    0    0 -0.00000000000E+00 -0.00000000000E+00 -0.45593999997E+02  0.45594000000E+02  0.51100000000E-03 0. -1.
    9900012    2    1    2    0    0  0.23337717906E+02  0.13068969014E+02  0.34178589530E+02  0.47787274080E+02  0.20000013839E+02 0.  0.
         12    1    1    2    0    0 -0.23337717906E+02 -0.13068969014E+02 -0.34178589530E+02  0.43400725920E+02  0.00000000000E+00 0. -1.
         11    1    3    3    0    0  0.58117419615E+01  0.26935528173E+01  0.12123993362E+01  0.65193162079E+01  0.51100000000E-03 0. -1.
        -11    1    3    3    0    0 -0.15950916456E+00  0.19779918855E+01  0.13550754762E+02  0.13695285683E+02  0.51100000000E-03 0.  1.
        -12    1    3    3    0    0  0.17685485109E+02  0.83974243114E+01  0.19415435432E+02  0.27572672189E+02  0.00000000000E+00 0.  1.
</event>
<event>
 7    1  0.2476315E-009  0.4778727E+02  0.7816164E-02  0.1312668E+00
        -11   -1    0    0    0    0  0.00000000000E+00  0.00000000000E+00  0.45593999997E+02  0.45594000000E+02  0.51100000000E-03 0.  1.
         11   -1    0    0    0    0 -0.00000000000E+00 -0.00000000000E+00 -0.45593999997E+02  0.45594000000E+02  0.51100000000E-03 0. -1.
    9900012    2    1    2    0    0 -0.33391020869E+02  0.86920624080E+01  0.26327011610E+02  0.47787265399E+02  0.19999974262E+02 0.  0.
         12    1    1    2    0    0  0.33391020869E+02 -0.86920624080E+01 -0.26327011610E+02  0.43400734601E+02  0.00000000000E+00 0. -1.
         11    1    3    3    0    0 -0.50326101182E+01  0.34346248623E+01  0.13530554840E+02  0.14839128245E+02  0.51100000000E-03 0. -1.
        -11    1    3    3    0    0 -0.17291998200E+02 -0.15424533556E+01  0.77849613477E+01  0.19026244704E+02  0.51100000000E-03 0.  1.
        -12    1    3    3    0    0 -0.11066412551E+02  0.67998909013E+01  0.50114954220E+01  0.13921892450E+02  0.00000000000E+00 0.  1.
</event>
<event>
 7    1  0.2476315E-009  0.4778727E+02  0.7816164E-02  0.1312668E+00
        -11   -1    0    0    0    0  0.00000000000E+00  0.00000000000E+00  0.45593999997E+02  0.45594000000E+02  0.51100000000E-03 0. -1.
         11   -1    0    0    0    0 -0.00000000000E+00 -0.00000000000E+00 -0.45593999997E+02  0.45594000000E+02  0.51100000000E-03 0.  1.
    9900012    2    1    2    0    0  0.22897393554E+02 -0.30863106494E+02 -0.20169314130E+02  0.47787271820E+02  0.20000003537E+02 0.  0.
         12    1    1    2    0    0 -0.22897393554E+02  0.30863106494E+02  0.20169314130E+02  0.43400728180E+02  0.00000000000E+00 0. -1.
         11    1    3    3    0    0  0.63029152784E+01 -0.18404824370E+01 -0.32836245064E+01  0.73414104073E+01  0.51100000000E-03 0. -1.
        -11    1    3    3    0    0  0.39204127832E+00 -0.15058396773E+02 -0.44644494695E+01  0.15711152697E+02  0.51100000000E-03 0.  1.
        -12    1    3    3    0    0  0.16202436997E+02 -0.13964227284E+02 -0.12421240154E+02  0.24734708716E+02  0.00000000000E+00 0.  1.
</event>
<event>
 7    1  0.2476315E-009  0.4778727E+02  0.7816164E-02  0.1312668E+00
        -11   -1    0    0    0    0  0.00000000000E+00  0.00000000000E+00  0.45593999997E+02  0.45594000000E+02  0.51100000000E-03 0. -1.
         11   -1    0    0    0    0 -0.00000000000E+00 -0.00000000000E+00 -0.45593999997E+02  0.45594000000E+02  0.51100000000E-03 0.  1.
    9900012    2    1    2    0    0  0.19628013854E+02  0.19964189767E+02 -0.33163162909E+02  0.47787272183E+02  0.20000005193E+02 0.  0.
         12    1    1    2    0    0 -0.19628013854E+02 -0.19964189767E+02  0.33163162909E+02  0.43400727817E+02  0.00000000000E+00 0. -1.
         11    1    3    3    0    0 -0.35465684688E+00  0.36595835412E+00 -0.10074637490E+02  0.10087518417E+02  0.51100000000E-03 0. -1.
        -11    1    3    3    0    0  0.17503336657E+02  0.10835456503E+02 -0.17467532018E+02  0.26997936714E+02  0.51100000000E-03 0.  1.
        -12    1    3    3    0    0  0.24793340443E+01  0.87627749096E+01 -0.56209934013E+01  0.10701817053E+02  0.00000000000E+00 0.  1.
</event>
<event>
 7    1  0.2476315E-009  0.4778725E+02  0.7816164E-02  0.1312668E+00
        -11   -1    0    0    0    0  0.00000000000E+00  0.00000000000E+00  0.45593999997E+02  0.45594000000E+02  0.51100000000E-03 0.  1.
         11   -1    0    0    0    0 -0.00000000000E+00 -0.00000000000E+00 -0.45593999997E+02  0.45594000000E+02  0.51100000000E-03 0. -1.
    9900012    2    1    2    0    0  0.11548322259E+02  0.14128245335E+02  0.39378347996E+02  0.47787247079E+02  0.19999890732E+02 0.  0.
         12    1    1    2    0    0 -0.11548322259E+02 -0.14128245335E+02 -0.39378347996E+02  0.43400752921E+02  0.00000000000E+00 0. -1.
         11    1    3    3    0    0  0.68315167119E+01  0.13204525212E+02  0.13974844059E+02  0.20404052866E+02  0.51100000000E-03 0. -1.
        -11    1    3    3    0    0 -0.22774983861E+01  0.11408693520E+01  0.11951654647E+02  0.12220091278E+02  0.51100000000E-03 0.  1.
         12    1    3    3    0    0  0.69943039330E+01 -0.21714922811E+00  0.13451849290E+02  0.15163102935E+02  0.00000000000E+00 0. -1.
</event>
<event>
 7    1  0.2476315E-009  0.4778726E+02  0.7816164E-02  0.1312668E+00
        -11   -1    0    0    0    0  0.00000000000E+00  0.00000000000E+00  0.45593999997E+02  0.45594000000E+02  0.51100000000E-03 0.  1.
         11   -1    0    0    0    0 -0.00000000000E+00 -0.00000000000E+00 -0.45593999997E+02  0.45594000000E+02  0.51100000000E-03 0. -1.
    9900012    2    1    2    0    0  0.54424361243E+01 -0.41338600667E+02  0.12046742162E+02  0.47787262532E+02  0.19999961187E+02 0.  0.
         12    1    1    2    0    0 -0.54424361243E+01  0.41338600667E+02 -0.12046742162E+02  0.43400737468E+02  0.00000000000E+00 0. -1.
         11    1    3    3    0    0  0.36566062579E+01 -0.30220836991E+02  0.13361858331E+02  0.33244684028E+02  0.51100000000E-03 0. -1.
        -11    1    3    3    0    0 -0.31896688736E+01 -0.15931504398E+01  0.63408364854E+00  0.36213503258E+01  0.51100000000E-03 0.  1.
         12    1    3    3    0    0  0.49754987400E+01 -0.95246132357E+01 -0.19491998168E+01  0.10921228179E+02  0.00000000000E+00 0. -1.
</event>
<event>
 7    1  0.2476315E-009  0.4778728E+02  0.7816164E-02  0.1312668E+00
        -11   -1    0    0    0    0  0.00000000000E+00  0.00000000000E+00  0.45593999997E+02  0.45594000000E+02  0.51100000000E-03 0.  1.
         11   -1    0    0    0    0 -0.00000000000E+00 -0.00000000000E+00 -0.45593999997E+02  0.45594000000E+02  0.51100000000E-03 0. -1.
    9900012    2    1    2    0    0 -0.48132118266E+01  0.16609526343E+02  0.39806768828E+02  0.47787283209E+02  0.20000055464E+02 0.  0.
         12    1    1    2    0    0  0.48132118266E+01 -0.16609526343E+02 -0.39806768828E+02  0.43400716791E+02  0.00000000000E+00 0. -1.
         11    1    3    3    0    0 -0.10199599055E+02  0.90605943653E+01  0.18110143951E+02  0.22673850694E+02  0.51100000000E-03 0. -1.
        -11    1    3    3    0    0  0.92462696748E+00  0.43114392219E+01  0.17862199540E+02  0.18398413406E+02  0.51100000000E-03 0.  1.
         12    1    3    3    0    0  0.44617602608E+01  0.32374927555E+01  0.38344253378E+01  0.67150191093E+01  0.00000000000E+00 0. -1.
</event>
<event>
 7    1  0.2476315E-009  0.4778727E+02  0.7816164E-02  0.1312668E+00
        -11   -1    0    0    0    0  0.00000000000E+00  0.00000000000E+00  0.45593999997E+02  0.45594000000E+02  0.51100000000E-03 0.  1.
         11   -1    0    0    0    0 -0.00000000000E+00 -0.00000000000E+00 -0.45593999997E+02  0.45594000000E+02  0.51100000000E-03 0. -1.
    9900012    2    1    2    0    0 -0.88253313733E+00 -0.72129309769E+01  0.42788059728E+02  0.47787270821E+02  0.19999998980E+02 0.  0.
         12    1    1    2    0    0  0.88253313733E+00  0.72129309769E+01 -0.42788059728E+02  0.43400729179E+02  0.00000000000E+00 0. -1.
         11    1    3    3    0    0  0.53489824674E+01 -0.20629331829E+01  0.26286460587E+01  0.63069078887E+01  0.51100000000E-03 0. -1.
        -11    1    3    3    0    0 -0.53698844006E+01 -0.37327474846E+00  0.24573116367E+02  0.25155775495E+02  0.51100000000E-03 0.  1.
         12    1    3    3    0    0 -0.86163120417E+00 -0.47767230455E+01  0.15586297302E+02  0.16324587437E+02  0.00000000000E+00 0. -1.
</event>
<event>
 7    1  0.2476315E-009  0.4778727E+02  0.7816164E-02  0.1312668E+00
        -11   -1    0    0    0    0  0.00000000000E+00  0.00000000000E+00  0.45593999997E+02  0.45594000000E+02  0.51100000000E-03 0.  1.
         11   -1    0    0    0    0 -0.00000000000E+00 -0.00000000000E+00 -0.45593999997E+02  0.45594000000E+02  0.51100000000E-03 0. -1.
    9900012    2    1    2    0    0 -0.23347832466E+02 -0.31374178774E+02  0.18819215213E+02  0.47787271483E+02  0.20000001998E+02 0.  0.
         12    1    1    2    0    0  0.23347832466E+02  0.31374178774E+02 -0.18819215213E+02  0.43400728517E+02  0.00000000000E+00 0. -1.
         11    1    3    3    0    0 -0.50394818030E+01 -0.17970351062E+01  0.62255076395E+01  0.82086940281E+01  0.51100000000E-03 0. -1.
        -11    1    3    3    0    0 -0.30483947785E+01 -0.30495728450E-01  0.43594989173E+01  0.53196683906E+01  0.51100000000E-03 0.  1.
        -12    1    3    3    0    0 -0.15259955885E+02 -0.29546647939E+02  0.82342086561E+01  0.34258909064E+02  0.00000000000E+00 0.  1.
</event>
<event>
 7    1  0.2480723E-009  0.4778727E+02  0.7816164E-02  0.1312668E+00
        -11   -1    0    0    0    0  0.00000000000E+00  0.00000000000E+00  0.45593999997E+02  0.45594000000E+02  0.51100000000E-03 0. -1.
         11   -1    0    0    0    0 -0.00000000000E+00 -0.00000000000E+00 -0.45593999997E+02  0.45594000000E+02  0.51100000000E-03 0.  1.
    9900012    2    1    2    0    0  0.24414814589E+02 -0.19070260325E+02 -0.30395152013E+02  0.47787271133E+02  0.20000000404E+02 0.  0.
         12    1    1    2    0    0 -0.24414814589E+02  0.19070260325E+02  0.30395152013E+02  0.43400728867E+02  0.00000000000E+00 0. -1.
         11    1    3    3    0    0 -0.11478433923E+01 -0.94131504779E+00  0.12758118068E+01  0.19573743893E+01  0.51100000000E-03 0. -1.
        -11    1    3    3    0    0  0.19262159752E+02 -0.18245983446E+02 -0.27826565684E+02  0.38448205007E+02  0.51100000000E-03 0.  1.
        -12    1    3    3    0    0  0.63004982295E+01  0.11703816843E+00 -0.38443981360E+01  0.73816917371E+01  0.00000000000E+00 0.  1.
</event>
<event>
 7    1  0.2476315E-009  0.4778727E+02  0.7816164E-02  0.1312668E+00
        -11   -1    0    0    0    0  0.00000000000E+00  0.00000000000E+00  0.45593999997E+02  0.45594000000E+02  0.51100000000E-03 0.  1.
         11   -1    0    0    0    0 -0.00000000000E+00 -0.00000000000E+00 -0.45593999997E+02  0.45594000000E+02  0.51100000000E-03 0. -1.
    9900012    2    1    2    0    0  0.40478519484E+02  0.38933238268E+01  0.15164255296E+02  0.47787272486E+02  0.20000006574E+02 0.  0.
         12    1    1    2    0    0 -0.40478519484E+02 -0.38933238268E+01 -0.15164255296E+02  0.43400727514E+02  0.00000000000E+00 0. -1.
         11    1    3    3    0    0  0.24740984843E+02  0.11612210433E+02  0.59237102245E+01  0.27965158773E+02  0.51100000000E-03 0. -1.
        -11    1    3    3    0    0  0.87923059798E+01 -0.42323923193E+01  0.48591611853E+01  0.10900882390E+02  0.51100000000E-03 0.  1.
         12    1    3    3    0    0  0.69452286613E+01 -0.34864942867E+01  0.43813838866E+01  0.89212313237E+01  0.00000000000E+00 0. -1.
</event>
<event>
 7    1  0.2476315E-009  0.4778727E+02  0.7816164E-02  0.1312668E+00
        -11   -1    0    0    0    0  0.00000000000E+00  0.00000000000E+00  0.45593999997E+02  0.45594000000E+02  0.51100000000E-03 0.  1.
         11   -1    0    0    0    0 -0.00000000000E+00 -0.00000000000E+00 -0.45593999997E+02  0.45594000000E+02  0.51100000000E-03 0. -1.
    9900012    2    1    2    0    0 -0.17522389475E+02 -0.37165341063E+02  0.13975920453E+02  0.47787273488E+02  0.20000011143E+02 0.  0.
         12    1    1    2    0    0  0.17522389475E+02  0.37165341063E+02 -0.13975920453E+02  0.43400726512E+02  0.00000000000E+00 0. -1.
         11    1    3    3    0    0 -0.54642673545E+01 -0.25687905141E+02  0.37454077141E+01  0.26528376645E+02  0.51100000000E-03 0. -1.
        -11    1    3    3    0    0 -0.30829956200E+01 -0.12669991099E-01  0.48289968058E+01  0.57292436616E+01  0.51100000000E-03 0.  1.
        -12    1    3    3    0    0 -0.89751265006E+01 -0.11464765931E+02  0.54015159335E+01  0.15529653181E+02  0.00000000000E+00 0.  1.
</event>
<event>
 7    1  0.2476315E-009  0.4778727E+02  0.7816164E-02  0.1312668E+00
        -11   -1    0    0    0    0  0.00000000000E+00  0.00000000000E+00  0.45593999997E+02  0.45594000000E+02  0.51100000000E-03 0. -1.
         11   -1    0    0    0    0 -0.00000000000E+00 -0.00000000000E+00 -0.45593999997E+02  0.45594000000E+02  0.51100000000E-03 0.  1.
    9900012    2    1    2    0    0  0.19548222841E+02 -0.36496921578E+02 -0.13017864649E+02  0.47787273036E+02  0.20000009083E+02 0.  0.
         12    1    1    2    0    0 -0.19548222841E+02  0.36496921578E+02  0.13017864649E+02  0.43400726964E+02  0.00000000000E+00 0. -1.
         11    1    3    3    0    0  0.16242646304E+02 -0.16324876865E+02 -0.10852955504E+02  0.25458040126E+02  0.51100000000E-03 0. -1.
        -11    1    3    3    0    0  0.20184069710E+01 -0.18826077746E+02 -0.43812952852E+01  0.19434271755E+02  0.51100000000E-03 0.  1.
         12    1    3    3    0    0  0.12871695661E+01 -0.13459669672E+01  0.22163861407E+01  0.28949611557E+01  0.00000000000E+00 0. -1.
</event>
<event>
 7    1  0.2476315E-009  0.4778727E+02  0.7816164E-02  0.1312668E+00
        -11   -1    0    0    0    0  0.00000000000E+00  0.00000000000E+00  0.45593999997E+02  0.45594000000E+02  0.51100000000E-03 0.  1.
         11   -1    0    0    0    0 -0.00000000000E+00 -0.00000000000E+00 -0.45593999997E+02  0.45594000000E+02  0.51100000000E-03 0. -1.
    9900012    2    1    2    0    0  0.20981903782E+02 -0.18531693108E+02  0.33165635826E+02  0.47787270335E+02  0.19999996764E+02 0.  0.
         12    1    1    2    0    0 -0.20981903782E+02  0.18531693108E+02 -0.33165635826E+02  0.43400729665E+02  0.00000000000E+00 0. -1.
         11    1    3    3    0    0  0.77103031976E+01 -0.16785643648E+02  0.21735434127E+02  0.28524300255E+02  0.51100000000E-03 0. -1.
        -11    1    3    3    0    0  0.56626078122E+01 -0.25771917713E+01  0.95221851437E+01  0.11374491410E+02  0.51100000000E-03 0.  1.
         12    1    3    3    0    0  0.76089927727E+01  0.83114231107E+00  0.19080165547E+01  0.78884786701E+01  0.00000000000E+00 0. -1.
</event>
<event>
 7    1  0.2476315E-009  0.4778727E+02  0.7816164E-02  0.1312668E+00
        -11   -1    0    0    0    0  0.00000000000E+00  0.00000000000E+00  0.45593999997E+02  0.45594000000E+02  0.51100000000E-03 0.  1.
         11   -1    0    0    0    0 -0.00000000000E+00 -0.00000000000E+00 -0.45593999997E+02  0.45594000000E+02  0.51100000000E-03 0. -1.
    9900012    2    1    2    0    0  0.57152174594E+01  0.28361378057E+02  0.32351070511E+02  0.47787271445E+02  0.20000001828E+02 0.  0.
         12    1    1    2    0    0 -0.57152174594E+01 -0.28361378057E+02 -0.32351070511E+02  0.43400728555E+02  0.00000000000E+00 0. -1.
         11    1    3    3    0    0  0.75087618018E+01  0.95170610958E+01  0.15273390550E+02  0.19499549093E+02  0.51100000000E-03 0. -1.
        -11    1    3    3    0    0 -0.18767030829E+00  0.78294061256E+01 -0.84054923691E-01  0.78321060971E+01  0.51100000000E-03 0.  1.
        -12    1    3    3    0    0 -0.16058740341E+01  0.11014910835E+02  0.17161734885E+02  0.20455616255E+02  0.00000000000E+00 0.  1.
</event>
<event>
 7    1  0.2476315E-009  0.4778727E+02  0.7816164E-02  0.1312668E+00
        -11   -1    0    0    0    0  0.00000000000E+00  0.00000000000E+00  0.45593999997E+02  0.45594000000E+02  0.51100000000E-03 0.  1.
         11   -1    0    0    0    0 -0.00000000000E+00 -0.00000000000E+00 -0.45593999997E+02  0.45594000000E+02  0.51100000000E-03 0. -1.
    9900012    2    1    2    0    0  0.41901225649E+02 -0.86098052702E+01  0.73336271323E+01  0.47787267926E+02  0.19999985780E+02 0.  0.
         12    1    1    2    0    0 -0.41901225649E+02  0.86098052702E+01 -0.73336271323E+01  0.43400732074E+02  0.00000000000E+00 0. -1.
         11    1    3    3    0    0  0.18220587389E+01 -0.43445821790E+00 -0.38928305250E+01  0.43200441837E+01  0.51100000000E-03 0. -1.
        -11    1    3    3    0    0  0.35730279701E+02 -0.10122638804E+02  0.10841860384E+02  0.38686776044E+02  0.51100000000E-03 0.  1.
        -12    1    3    3    0    0  0.43488872095E+01  0.19472917517E+01  0.38459727312E+00  0.47804476976E+01  0.00000000000E+00 0.  1.
</event>
<event>
 7    1  0.2476315E-009  0.4778729E+02  0.7816164E-02  0.1312668E+00
        -11   -1    0    0    0    0  0.00000000000E+00  0.00000000000E+00  0.45593999997E+02  0.45594000000E+02  0.51100000000E-03 0.  1.
         11   -1    0    0    0    0 -0.00000000000E+00 -0.00000000000E+00 -0.45593999997E+02  0.45594000000E+02  0.51100000000E-03 0. -1.
    9900012    2    1    2    0    0 -0.16256311934E+02  0.39708298796E+02  0.65272522355E+01  0.47787289260E+02  0.20000083051E+02 0.  0.
         12    1    1    2    0    0  0.16256311934E+02 -0.39708298796E+02 -0.65272522355E+01  0.43400710740E+02  0.00000000000E+00 0. -1.
         11    1    3    3    0    0 -0.24909959318E+01  0.28440108907E+01  0.70104736548E+01  0.79649356434E+01  0.51100000000E-03 0.  1.
        -11    1    3    3    0    0 -0.12186628804E+02  0.27113969143E+02  0.14313348182E+01  0.29761215767E+02  0.51100000000E-03 0. -1.
        -12    1    3    3    0    0 -0.15786871983E+01  0.97503187629E+01 -0.19145562374E+01  0.10061137850E+02  0.00000000000E+00 0.  1.
</event>
<event>
 7    1  0.2476315E-009  0.4778727E+02  0.7816164E-02  0.1312668E+00
        -11   -1    0    0    0    0  0.00000000000E+00  0.00000000000E+00  0.45593999997E+02  0.45594000000E+02  0.51100000000E-03 0. -1.
         11   -1    0    0    0    0 -0.00000000000E+00 -0.00000000000E+00 -0.45593999997E+02  0.45594000000E+02  0.51100000000E-03 0.  1.
    9900012    2    1    2    0    0 -0.67355973741E+01 -0.40273451306E+02  0.14707277465E+02  0.47787272327E+02  0.20000005849E+02 0.  0.
         12    1    1    2    0    0  0.67355973741E+01  0.40273451306E+02 -0.14707277465E+02  0.43400727673E+02  0.00000000000E+00 0. -1.
         11    1    3    3    0    0 -0.40773116912E+00 -0.18580116678E+02  0.93527699345E+01  0.20805318699E+02  0.51100000000E-03 0. -1.
        -11    1    3    3    0    0 -0.99190911678E+01 -0.13178548309E+02  0.40604931380E+00  0.16499314575E+02  0.51100000000E-03 0.  1.
        -12    1    3    3    0    0  0.35912249628E+01 -0.85147863190E+01  0.49484582169E+01  0.10482639053E+02  0.00000000000E+00 0.  1.
</event>
<event>
 7    1  0.2476315E-009  0.4778727E+02  0.7816164E-02  0.1312668E+00
        -11   -1    0    0    0    0  0.00000000000E+00  0.00000000000E+00  0.45593999997E+02  0.45594000000E+02  0.51100000000E-03 0.  1.
         11   -1    0    0    0    0 -0.00000000000E+00 -0.00000000000E+00 -0.45593999997E+02  0.45594000000E+02  0.51100000000E-03 0. -1.
    9900012    2    1    2    0    0  0.31348418958E+02  0.20772613544E+01  0.29943031585E+02  0.47787268135E+02  0.19999986736E+02 0.  0.
         12    1    1    2    0    0 -0.31348418958E+02 -0.20772613544E+01 -0.29943031585E+02  0.43400731865E+02  0.00000000000E+00 0. -1.
         11    1    3    3    0    0  0.22693009355E+00  0.16757535675E+01  0.52181721703E+01  0.54853412242E+01  0.51100000000E-03 0. -1.
        -11    1    3    3    0    0  0.24901341394E+02 -0.33133303602E+01  0.12421983332E+02  0.28024286457E+02  0.51100000000E-03 0.  1.
        -12    1    3    3    0    0  0.62201474708E+01  0.37148381472E+01  0.12302876083E+02  0.14277640454E+02  0.00000000000E+00 0.  1.
</event>
<event>
 7    1  0.2476315E-009  0.4778727E+02  0.7816164E-02  0.1312668E+00
        -11   -1    0    0    0    0  0.00000000000E+00  0.00000000000E+00  0.45593999997E+02  0.45594000000E+02  0.51100000000E-03 0. -1.
         11   -1    0    0    0    0 -0.00000000000E+00 -0.00000000000E+00 -0.45593999997E+02  0.45594000000E+02  0.51100000000E-03 0.  1.
    9900012    2    1    2    0    0  0.66059230808E+01  0.30392021219E+02 -0.30270618053E+02  0.47787268545E+02  0.19999988604E+02 0.  0.
         12    1    1    2    0    0 -0.66059230808E+01 -0.30392021219E+02  0.30270618053E+02  0.43400731455E+02  0.00000000000E+00 0. -1.
         11    1    3    3    0    0  0.51327411621E+01  0.15581397277E+02 -0.26913729493E+02  0.31519419544E+02  0.51100000000E-03 0. -1.
        -11    1    3    3    0    0 -0.20292703743E+01  0.80458555361E+01 -0.16143180917E+01  0.84533870562E+01  0.51100000000E-03 0.  1.
         12    1    3    3    0    0  0.35024522929E+01  0.67647684056E+01 -0.17425704685E+01  0.78144619446E+01  0.00000000000E+00 0. -1.
</event>
<event>
 7    1  0.2476315E-009  0.4778727E+02  0.7816164E-02  0.1312668E+00
        -11   -1    0    0    0    0  0.00000000000E+00  0.00000000000E+00  0.45593999997E+02  0.45594000000E+02  0.51100000000E-03 0.  1.
         11   -1    0    0    0    0 -0.00000000000E+00 -0.00000000000E+00 -0.45593999997E+02  0.45594000000E+02  0.51100000000E-03 0. -1.
    9900012    2    1    2    0    0  0.18560929835E+02 -0.17344584859E+02  0.35189216692E+02  0.47787266001E+02  0.19999977004E+02 0.  0.
         12    1    1    2    0    0 -0.18560929835E+02  0.17344584859E+02 -0.35189216692E+02  0.43400733999E+02  0.00000000000E+00 0. -1.
         11    1    3    3    0    0  0.14336962820E+02 -0.91117428988E+01  0.13218625288E+02  0.21524507342E+02  0.51100000000E-03 0. -1.
        -11    1    3    3    0    0 -0.32906991975E+01 -0.11310530578E+00  0.58055037611E+01  0.66742316562E+01  0.51100000000E-03 0.  1.
        -12    1    3    3    0    0  0.75146662117E+01 -0.81197366544E+01  0.16165087643E+02  0.19588527003E+02  0.00000000000E+00 0.  1.
</event>
<event>
 7    1  0.2476315E-009  0.4778727E+02  0.7816164E-02  0.1312668E+00
        -11   -1    0    0    0    0  0.00000000000E+00  0.00000000000E+00  0.45593999997E+02  0.45594000000E+02  0.51100000000E-03 0. -1.
         11   -1    0    0    0    0 -0.00000000000E+00 -0.00000000000E+00 -0.45593999997E+02  0.45594000000E+02  0.51100000000E-03 0.  1.
    9900012    2    1    2    0    0  0.26830434801E+02 -0.15733870858E+02 -0.30268733186E+02  0.47787272673E+02  0.20000007427E+02 0.  0.
         12    1    1    2    0    0 -0.26830434801E+02  0.15733870858E+02  0.30268733186E+02  0.43400727327E+02  0.00000000000E+00 0. -1.
         11    1    3    3    0    0  0.37193737124E+01 -0.98161121773E+00  0.25205640660E+01  0.45989721533E+01  0.51100000000E-03 0. -1.
        -11    1    3    3    0    0  0.16208868360E+02 -0.12042354243E+02 -0.27328908124E+02  0.33979625200E+02  0.51100000000E-03 0.  1.
        -12    1    3    3    0    0  0.69021927280E+01 -0.27099053971E+01 -0.54603891281E+01  0.92086753198E+01  0.00000000000E+00 0.  1.
</event>
<event>
 7    1  0.2476315E-009  0.4778727E+02  0.7816164E-02  0.1312668E+00
        -11   -1    0    0    0    0  0.00000000000E+00  0.00000000000E+00  0.45593999997E+02  0.45594000000E+02  0.51100000000E-03 0. -1.
         11   -1    0    0    0    0 -0.00000000000E+00 -0.00000000000E+00 -0.45593999997E+02  0.45594000000E+02  0.51100000000E-03 0.  1.
    9900012    2    1    2    0    0  0.34021140746E+02 -0.13813628124E+02 -0.23138050050E+02  0.47787266138E+02  0.19999977631E+02 0.  0.
         12    1    1    2    0    0 -0.34021140746E+02  0.13813628124E+02  0.23138050050E+02  0.43400733862E+02  0.00000000000E+00 0. -1.
         11    1    3    3    0    0  0.20094175278E+02 -0.56524746188E+01 -0.19102416161E+02  0.28295382183E+02  0.51100000000E-03 0. -1.
        -11    1    3    3    0    0  0.63301024175E+01 -0.83934334505E+01  0.70122987278E+00  0.10536206400E+02  0.51100000000E-03 0.  1.
        -12    1    3    3    0    0  0.75968630507E+01  0.23227994512E+00 -0.47368637619E+01  0.89556775557E+01  0.00000000000E+00 0.  1.
</event>
<event>
 7    1  0.2476315E-009  0.4778727E+02  0.7816164E-02  0.1312668E+00
        -11   -1    0    0    0    0  0.00000000000E+00  0.00000000000E+00  0.45593999997E+02  0.45594000000E+02  0.51100000000E-03 0.  1.
         11   -1    0    0    0    0 -0.00000000000E+00 -0.00000000000E+00 -0.45593999997E+02  0.45594000000E+02  0.51100000000E-03 0. -1.
    9900012    2    1    2    0    0 -0.21273612431E+02  0.33700310875E+02  0.17185634324E+02  0.47787267678E+02  0.19999984653E+02 0.  0.
         12    1    1    2    0    0  0.21273612431E+02 -0.33700310875E+02 -0.17185634324E+02  0.43400732322E+02  0.00000000000E+00 0. -1.
         11    1    3    3    0    0 -0.14243658385E+02  0.82718953313E+01  0.31995935520E+01  0.16779256709E+02  0.51100000000E-03 0. -1.
        -11    1    3    3    0    0 -0.27734390407E+01  0.12228906608E+01  0.88680752093E+00  0.31581408330E+01  0.51100000000E-03 0.  1.
         12    1    3    3    0    0 -0.42565150056E+01  0.24205524883E+02  0.13099233251E+02  0.27849870136E+02  0.00000000000E+00 0. -1.
</event>
<event>
 7    1  0.2476315E-009  0.4778727E+02  0.7816164E-02  0.1312668E+00
        -11   -1    0    0    0    0  0.00000000000E+00  0.00000000000E+00  0.45593999997E+02  0.45594000000E+02  0.51100000000E-03 0. -1.
         11   -1    0    0    0    0 -0.00000000000E+00 -0.00000000000E+00 -0.45593999997E+02  0.45594000000E+02  0.51100000000E-03 0.  1.
    9900012    2    1    2    0    0 -0.60786429457E+01 -0.42740112979E+02  0.44672160757E+01  0.47787272160E+02  0.20000005088E+02 0.  0.
         12    1    1    2    0    0  0.60786429457E+01  0.42740112979E+02 -0.44672160757E+01  0.43400727840E+02  0.00000000000E+00 0. -1.
         11    1    3    3    0    0  0.20314319840E+01 -0.31577647125E+02  0.34647160954E+01  0.31832040019E+02  0.51100000000E-03 0. -1.
        -11    1    3    3    0    0 -0.85929399858E+01 -0.88365270558E+01  0.31836750220E+01  0.12730224464E+02  0.51100000000E-03 0.  1.
        -12    1    3    3    0    0  0.48286505604E+00 -0.23259387983E+01 -0.21811750417E+01  0.32250076773E+01  0.00000000000E+00 0.  1.
</event>
<event>
 7    1  0.2476315E-009  0.4778726E+02  0.7816164E-02  0.1312668E+00
        -11   -1    0    0    0    0  0.00000000000E+00  0.00000000000E+00  0.45593999997E+02  0.45594000000E+02  0.51100000000E-03 0. -1.
         11   -1    0    0    0    0 -0.00000000000E+00 -0.00000000000E+00 -0.45593999997E+02  0.45594000000E+02  0.51100000000E-03 0.  1.
    9900012    2    1    2    0    0 -0.15127667632E+02  0.27190236622E+02 -0.30256714179E+02  0.47787262121E+02  0.19999959316E+02 0.  0.
         12    1    1    2    0    0  0.15127667632E+02 -0.27190236622E+02  0.30256714179E+02  0.43400737879E+02  0.00000000000E+00 0. -1.
         11    1    3    3    0    0 -0.81159301199E+01  0.20766606405E+02 -0.27071231950E+02  0.35070954690E+02  0.51100000000E-03 0. -1.
        -11    1    3    3    0    0 -0.10987381045E+01  0.23536296873E+00 -0.39656041641E+01  0.41217275258E+01  0.51100000000E-03 0.  1.
         12    1    3    3    0    0 -0.59129994071E+01  0.61882672482E+01  0.78012193541E+00  0.85945799058E+01  0.00000000000E+00 0. -1.
</event>
<event>
 7    1  0.2476315E-009  0.4778727E+02  0.7816164E-02  0.1312668E+00
        -11   -1    0    0    0    0  0.00000000000E+00  0.00000000000E+00  0.45593999997E+02  0.45594000000E+02  0.51100000000E-03 0.  1.
         11   -1    0    0    0    0 -0.00000000000E+00 -0.00000000000E+00 -0.45593999997E+02  0.45594000000E+02  0.51100000000E-03 0. -1.
    9900012    2    1    2    0    0 -0.18530191711E+01  0.21409152468E+02  0.37707262967E+02  0.47787272242E+02  0.20000005461E+02 0.  0.
         12    1    1    2    0    0  0.18530191711E+01 -0.21409152468E+02 -0.37707262967E+02  0.43400727758E+02  0.00000000000E+00 0. -1.
         11    1    3    3    0    0 -0.62683526176E+01  0.72895289560E+00  0.76101148296E+01  0.98862260163E+01  0.51100000000E-03 0. -1.
        -11    1    3    3    0    0  0.52479063989E+01  0.19914785828E+02  0.30410140325E+02  0.36727589779E+02  0.51100000000E-03 0.  1.
        -12    1    3    3    0    0 -0.83257295237E+00  0.76541374487E+00 -0.31299218816E+00  0.11734564464E+01  0.00000000000E+00 0.  1.
</event>
<event>
 7    1  0.2476315E-009  0.4778728E+02  0.7816164E-02  0.1312668E+00
        -11   -1    0    0    0    0  0.00000000000E+00  0.00000000000E+00  0.45593999997E+02  0.45594000000E+02  0.51100000000E-03 0. -1.
         11   -1    0    0    0    0 -0.00000000000E+00 -0.00000000000E+00 -0.45593999997E+02  0.45594000000E+02  0.51100000000E-03 0.  1.
    9900012    2    1    2    0    0  0.20136628078E+02  0.37101376697E+02  0.10081002884E+02  0.47787279242E+02  0.20000037374E+02 0.  0.
         12    1    1    2    0    0 -0.20136628078E+02 -0.37101376697E+02 -0.10081002884E+02  0.43400720758E+02  0.00000000000E+00 0. -1.
         11    1    3    3    0    0  0.11532443869E+01  0.82561415317E+01  0.53270146597E+01  0.98929738225E+01  0.51100000000E-03 0. -1.
        -11    1    3    3    0    0  0.15813795957E+02  0.14043258766E+02 -0.21470652459E+01  0.21257919672E+02  0.51100000000E-03 0.  1.
        -12    1    3    3    0    0  0.31695877343E+01  0.14801976399E+02  0.69010534706E+01  0.16636385747E+02  0.00000000000E+00 0.  1.
</event>
<event>
 7    1  0.2476315E-009  0.4778727E+02  0.7816164E-02  0.1312668E+00
        -11   -1    0    0    0    0  0.00000000000E+00  0.00000000000E+00  0.45593999997E+02  0.45594000000E+02  0.51100000000E-03 0.  1.
         11   -1    0    0    0    0 -0.00000000000E+00 -0.00000000000E+00 -0.45593999997E+02  0.45594000000E+02  0.51100000000E-03 0. -1.
    9900012    2    1    2    0    0  0.83384071653E+01 -0.30815162561E+02  0.29402726277E+02  0.47787267400E+02  0.19999983383E+02 0.  0.
         12    1    1    2    0    0 -0.83384071653E+01  0.30815162561E+02 -0.29402726277E+02  0.43400732600E+02  0.00000000000E+00 0. -1.
         11    1    3    3    0    0  0.29703106509E+01 -0.38039658030E+01 -0.97581280698E+00  0.49239325837E+01  0.51100000000E-03 0. -1.
        -11    1    3    3    0    0  0.50168412381E+01 -0.16075132012E+02  0.26211920505E+02  0.31155149527E+02  0.51100000000E-03 0.  1.
        -12    1    3    3    0    0  0.35125527631E+00 -0.10936064745E+02  0.41666185790E+01  0.11708185289E+02  0.00000000000E+00 0.  1.
</event>
<event>
 7    1  0.2476315E-009  0.4778727E+02  0.7816164E-02  0.1312668E+00
        -11   -1    0    0    0    0  0.00000000000E+00  0.00000000000E+00  0.45593999997E+02  0.45594000000E+02  0.51100000000E-03 0.  1.
         11   -1    0    0    0    0 -0.00000000000E+00 -0.00000000000E+00 -0.45593999997E+02  0.45594000000E+02  0.51100000000E-03 0. -1.
    9900012    2    1    2    0    0  0.38109421870E+02  0.19605093658E+02  0.68509726839E+01  0.47787267756E+02  0.19999985005E+02 0.  0.
         12    1    1    2    0    0 -0.38109421870E+02 -0.19605093658E+02 -0.68509726839E+01  0.43400732244E+02  0.00000000000E+00 0. -1.
         11    1    3    3    0    0  0.18586523355E+02  0.80685693380E+01 -0.60897519516E+01  0.21157640244E+02  0.51100000000E-03 0. -1.
        -11    1    3    3    0    0  0.18992106634E+02  0.11128866405E+02  0.11062986294E+02  0.24636181682E+02  0.51100000000E-03 0.  1.
        -12    1    3    3    0    0  0.53079188044E+00  0.40765791533E+00  0.18777383417E+01  0.19934458298E+01  0.00000000000E+00 0.  1.
</event>
<event>
 7    1  0.2476315E-009  0.4778727E+02  0.7816164E-02  0.1312668E+00
        -11   -1    0    0    0    0  0.00000000000E+00  0.00000000000E+00  0.45593999997E+02  0.45594000000E+02  0.51100000000E-03 0.  1.
         11   -1    0    0    0    0 -0.00000000000E+00 -0.00000000000E+00 -0.45593999997E+02  0.45594000000E+02  0.51100000000E-03 0. -1.
    9900012    2    1    2    0    0 -0.84936110368E+01 -0.33955952627E+02  0.25660773858E+02  0.47787268875E+02  0.19999990108E+02 0.  0.
         12    1    1    2    0    0  0.84936110368E+01  0.33955952627E+02 -0.25660773858E+02  0.43400731125E+02  0.00000000000E+00 0. -1.
         11    1    3    3    0    0 -0.64007935329E+01 -0.42539396331E+01  0.75664657727E+01  0.10785062114E+02  0.51100000000E-03 0. -1.
        -11    1    3    3    0    0  0.33829590084E+01 -0.24327854867E+02  0.12971570671E+02  0.27776799312E+02  0.51100000000E-03 0.  1.
        -12    1    3    3    0    0 -0.54757765123E+01 -0.53741581266E+01  0.51227374136E+01  0.92254074485E+01  0.00000000000E+00 0.  1.
</event>
<event>
 7    1  0.2476315E-009  0.4778727E+02  0.7816164E-02  0.1312668E+00
        -11   -1    0    0    0    0  0.00000000000E+00  0.00000000000E+00  0.45593999997E+02  0.45594000000E+02  0.51100000000E-03 0.  1.
         11   -1    0    0    0    0 -0.00000000000E+00 -0.00000000000E+00 -0.45593999997E+02  0.45594000000E+02  0.51100000000E-03 0. -1.
    9900012    2    1    2    0    0  0.43879756357E+00  0.31101348590E+02  0.30267759518E+02  0.47787266208E+02  0.19999977949E+02 0.  0.
         12    1    1    2    0    0 -0.43879756357E+00 -0.31101348590E+02 -0.30267759518E+02  0.43400733792E+02  0.00000000000E+00 0. -1.
         11    1    3    3    0    0  0.34202080876E+00  0.13728709733E+02  0.22987571326E+02  0.26777283001E+02  0.51100000000E-03 0. -1.
        -11    1    3    3    0    0  0.27073925286E+01  0.11082696513E+02  0.83209757058E+01  0.14120721414E+02  0.51100000000E-03 0.  1.
         12    1    3    3    0    0 -0.26106157738E+01  0.62899423439E+01 -0.10407875134E+01  0.68892617933E+01  0.00000000000E+00 0. -1.
</event>
<event>
 7    1  0.2476315E-009  0.4778727E+02  0.7816164E-02  0.1312668E+00
        -11   -1    0    0    0    0  0.00000000000E+00  0.00000000000E+00  0.45593999997E+02  0.45594000000E+02  0.51100000000E-03 0.  1.
         11   -1    0    0    0    0 -0.00000000000E+00 -0.00000000000E+00 -0.45593999997E+02  0.45594000000E+02  0.51100000000E-03 0. -1.
    9900012    2    1    2    0    0  0.29777292455E+01  0.42790994926E+02  0.66096578986E+01  0.47787266184E+02  0.19999977841E+02 0.  0.
         12    1    1    2    0    0 -0.29777292455E+01 -0.42790994926E+02 -0.66096578986E+01  0.43400733816E+02  0.00000000000E+00 0. -1.
         11    1    3    3    0    0  0.56642733563E+01  0.10147330026E+02  0.59495282535E+01  0.13055618944E+02  0.51100000000E-03 0. -1.
        -11    1    3    3    0    0 -0.46706701552E+01  0.12124733405E+02 -0.40035505883E+01  0.13596055951E+02  0.51100000000E-03 0.  1.
        -12    1    3    3    0    0  0.19841260444E+01  0.20518931494E+02  0.46636802334E+01  0.21135591289E+02  0.00000000000E+00 0.  1.
</event>
<event>
 7    1  0.2476315E-009  0.4778727E+02  0.7816164E-02  0.1312668E+00
        -11   -1    0    0    0    0  0.00000000000E+00  0.00000000000E+00  0.45593999997E+02  0.45594000000E+02  0.51100000000E-03 0.  1.
         11   -1    0    0    0    0 -0.00000000000E+00 -0.00000000000E+00 -0.45593999997E+02  0.45594000000E+02  0.51100000000E-03 0. -1.
    9900012    2    1    2    0    0  0.30349906199E+02  0.30020019280E+02  0.78297454705E+01  0.47787270997E+02  0.19999999784E+02 0.  0.
         12    1    1    2    0    0 -0.30349906199E+02 -0.30020019280E+02 -0.78297454705E+01  0.43400729003E+02  0.00000000000E+00 0. -1.
         11    1    3    3    0    0  0.11963357370E+02  0.86304984918E+01 -0.63622582352E+01  0.16065047584E+02  0.51100000000E-03 0. -1.
        -11    1    3    3    0    0  0.99788752315E+01  0.99630160144E+01  0.58618462373E+01  0.15270916166E+02  0.51100000000E-03 0.  1.
         12    1    3    3    0    0  0.84076735977E+01  0.11426504774E+02  0.83301574685E+01  0.16451307246E+02  0.00000000000E+00 0. -1.
</event>
<event>
 7    1  0.2476315E-009  0.4778727E+02  0.7816164E-02  0.1312668E+00
        -11   -1    0    0    0    0  0.00000000000E+00  0.00000000000E+00  0.45593999997E+02  0.45594000000E+02  0.51100000000E-03 0.  1.
         11   -1    0    0    0    0 -0.00000000000E+00 -0.00000000000E+00 -0.45593999997E+02  0.45594000000E+02  0.51100000000E-03 0. -1.
    9900012    2    1    2    0    0 -0.42052997625E+02 -0.48533166524E+01  0.95715160168E+01  0.47787271773E+02  0.20000003322E+02 0.  0.
         12    1    1    2    0    0  0.42052997625E+02  0.48533166524E+01 -0.95715160168E+01  0.43400728227E+02  0.00000000000E+00 0. -1.
         11    1    3    3    0    0 -0.26262071453E+01  0.60490590855E+00 -0.41861679679E+01  0.49786421487E+01  0.51100000000E-03 0. -1.
        -11    1    3    3    0    0 -0.19571422375E+02 -0.54333022652E+01  0.98434342029E+01  0.22571099762E+02  0.51100000000E-03 0.  1.
         12    1    3    3    0    0 -0.19855368105E+02 -0.24920295806E-01  0.39142497819E+01  0.20237529863E+02  0.00000000000E+00 0. -1.
</event>
<event>
 7    1  0.2476315E-009  0.4778727E+02  0.7816164E-02  0.1312668E+00
        -11   -1    0    0    0    0  0.00000000000E+00  0.00000000000E+00  0.45593999997E+02  0.45594000000E+02  0.51100000000E-03 0. -1.
         11   -1    0    0    0    0 -0.00000000000E+00 -0.00000000000E+00 -0.45593999997E+02  0.45594000000E+02  0.51100000000E-03 0.  1.
    9900012    2    1    2    0    0  0.41701273782E+02  0.61495731057E+01 -0.10334891921E+02  0.47787268723E+02  0.19999989414E+02 0.  0.
         12    1    1    2    0    0 -0.41701273782E+02 -0.61495731057E+01  0.10334891921E+02  0.43400731277E+02  0.00000000000E+00 0. -1.
         11    1    3    3    0    0  0.30063770336E+02  0.60056535834E+00 -0.24415734860E+01  0.30168729621E+02  0.51100000000E-03 0. -1.
        -11    1    3    3    0    0  0.74119424017E+01  0.13156295176E+01 -0.87871692409E+01  0.11570743914E+02  0.51100000000E-03 0.  1.
        -12    1    3    3    0    0  0.42255610439E+01  0.42333782297E+01  0.89385080624E+00  0.60477951880E+01  0.00000000000E+00 0.  1.
</event>
<event>
 7    1  0.2476315E-009  0.4778727E+02  0.7816164E-02  0.1312668E+00
        -11   -1    0    0    0    0  0.00000000000E+00  0.00000000000E+00  0.45593999997E+02  0.45594000000E+02  0.51100000000E-03 0. -1.
         11   -1    0    0    0    0 -0.00000000000E+00 -0.00000000000E+00 -0.45593999997E+02  0.45594000000E+02  0.51100000000E-03 0.  1.
    9900012    2    1    2    0    0  0.40568293958E+02  0.10352823538E+02  0.11430466741E+02  0.47787274202E+02  0.20000014396E+02 0.  0.
         12    1    1    2    0    0 -0.40568293958E+02 -0.10352823538E+02 -0.11430466741E+02  0.43400725798E+02  0.00000000000E+00 0. -1.
         11    1    3    3    0    0  0.90254763395E+01  0.72994449120E+01 -0.24616449183E+01  0.11865951927E+02  0.51100000000E-03 0. -1.
        -11    1    3    3    0    0  0.76490821413E+01  0.13087016850E+01 -0.82608027232E+00  0.78040737171E+01  0.51100000000E-03 0.  1.
         12    1    3    3    0    0  0.23893735477E+02  0.17446769407E+01  0.14718191932E+02  0.28117248557E+02  0.00000000000E+00 0. -1.
</event>
<event>
 7    1  0.2476315E-009  0.4778727E+02  0.7816164E-02  0.1312668E+00
        -11   -1    0    0    0    0  0.00000000000E+00  0.00000000000E+00  0.45593999997E+02  0.45594000000E+02  0.51100000000E-03 0.  1.
         11   -1    0    0    0    0 -0.00000000000E+00 -0.00000000000E+00 -0.45593999997E+02  0.45594000000E+02  0.51100000000E-03 0. -1.
    9900012    2    1    2    0    0 -0.37989035816E+02 -0.37252826130E+01  0.20653778675E+02  0.47787272513E+02  0.20000006698E+02 0.  0.
         12    1    1    2    0    0  0.37989035816E+02  0.37252826130E+01 -0.20653778675E+02  0.43400727487E+02  0.00000000000E+00 0. -1.
         11    1    3    3    0    0 -0.31185308755E+02 -0.71788047491E+01  0.15410409719E+02  0.35518156592E+02  0.51100000000E-03 0. -1.
        -11    1    3    3    0    0  0.84838378882E+00 -0.16591265527E+01  0.12050257246E+01  0.22191311878E+01  0.51100000000E-03 0.  1.
         12    1    3    3    0    0 -0.76521108502E+01  0.51126486888E+01  0.40383432317E+01  0.10049984733E+02  0.00000000000E+00 0. -1.
</event>
<event>
 7    1  0.2476315E-009  0.4778728E+02  0.7816164E-02  0.1312668E+00
        -11   -1    0    0    0    0  0.00000000000E+00  0.00000000000E+00  0.45593999997E+02  0.45594000000E+02  0.51100000000E-03 0. -1.
         11   -1    0    0    0    0 -0.00000000000E+00 -0.00000000000E+00 -0.45593999997E+02  0.45594000000E+02  0.51100000000E-03 0.  1.
    9900012    2    1    2    0    0 -0.25976881833E+02 -0.19579379666E+02 -0.28731035664E+02  0.47787275257E+02  0.20000019205E+02 0.  0.
         12    1    1    2    0    0  0.25976881833E+02  0.19579379666E+02  0.28731035664E+02  0.43400724743E+02  0.00000000000E+00 0. -1.
         11    1    3    3    0    0 -0.21212309074E+02 -0.60112786827E+01 -0.19268412982E+02  0.29280868614E+02  0.51100000000E-03 0. -1.
        -11    1    3    3    0    0  0.69279387989E+00 -0.46385042536E+01 -0.47934869988E+00  0.47143886674E+01  0.51100000000E-03 0.  1.
        -12    1    3    3    0    0 -0.54573666390E+01 -0.89295967301E+01 -0.89832739823E+01  0.13792017975E+02  0.00000000000E+00 0.  1.
</event>
<event>
 7    1  0.2476315E-009  0.4778727E+02  0.7816164E-02  0.1312668E+00
        -11   -1    0    0    0    0  0.00000000000E+00  0.00000000000E+00  0.45593999997E+02  0.45594000000E+02  0.51100000000E-03 0.  1.
         11   -1    0    0    0    0 -0.00000000000E+00 -0.00000000000E+00 -0.45593999997E+02  0.45594000000E+02  0.51100000000E-03 0. -1.
    9900012    2    1    2    0    0 -0.17109995679E+02  0.21427796283E+02  0.33641063821E+02  0.47787267510E+02  0.19999983884E+02 0.  0.
         12    1    1    2    0    0  0.17109995679E+02 -0.21427796283E+02 -0.33641063821E+02  0.43400732490E+02  0.00000000000E+00 0. -1.
         11    1    3    3    0    0 -0.37521386765E+01  0.91005269315E+01  0.76756622297E+00  0.98735653766E+01  0.51100000000E-03 0. -1.
        -11    1    3    3    0    0 -0.19081548506E+01  0.45409984674E+01  0.68674496035E+01  0.84512476199E+01  0.51100000000E-03 0.  1.
         12    1    3    3    0    0 -0.11449702152E+02  0.77862708838E+01  0.26006047995E+02  0.29462454513E+02  0.00000000000E+00 0. -1.
</event>
<event>
 7    1  0.2476315E-009  0.4778727E+02  0.7816164E-02  0.1312668E+00
        -11   -1    0    0    0    0  0.00000000000E+00  0.00000000000E+00  0.45593999997E+02  0.45594000000E+02  0.51100000000E-03 0.  1.
         11   -1    0    0    0    0 -0.00000000000E+00 -0.00000000000E+00 -0.45593999997E+02  0.45594000000E+02  0.51100000000E-03 0. -1.
    9900012    2    1    2    0    0 -0.45253477489E+01 -0.24472875379E+01  0.43094726351E+02  0.47787269271E+02  0.19999991914E+02 0.  0.
         12    1    1    2    0    0  0.45253477489E+01  0.24472875379E+01 -0.43094726351E+02  0.43400730729E+02  0.00000000000E+00 0. -1.
         11    1    3    3    0    0 -0.23868602400E+01 -0.91368855988E+01  0.16532384587E+02  0.19039420176E+02  0.51100000000E-03 0. -1.
        -11    1    3    3    0    0 -0.22436467623E+01 -0.15494917039E+01  0.57496189629E+01  0.63634105489E+01  0.51100000000E-03 0.  1.
         12    1    3    3    0    0  0.10515925341E+00  0.82390897647E+01  0.20812722801E+02  0.22384438546E+02  0.00000000000E+00 0. -1.
</event>
<event>
 7    1  0.2476315E-009  0.4778727E+02  0.7816164E-02  0.1312668E+00
        -11   -1    0    0    0    0  0.00000000000E+00  0.00000000000E+00  0.45593999997E+02  0.45594000000E+02  0.51100000000E-03 0.  1.
         11   -1    0    0    0    0 -0.00000000000E+00 -0.00000000000E+00 -0.45593999997E+02  0.45594000000E+02  0.51100000000E-03 0. -1.
    9900012    2    1    2    0    0 -0.10994497082E+02  0.26871454586E+02  0.32259403926E+02  0.47787272134E+02  0.20000004967E+02 0.  0.
         12    1    1    2    0    0  0.10994497082E+02 -0.26871454586E+02 -0.32259403926E+02  0.43400727866E+02  0.00000000000E+00 0. -1.
         11    1    3    3    0    0  0.19748749101E+01  0.16314648434E+02  0.11864871069E+02  0.20269263682E+02  0.51100000000E-03 0. -1.
        -11    1    3    3    0    0 -0.32226875452E+01  0.39204940675E+00  0.84495190767E+01  0.90517285995E+01  0.51100000000E-03 0.  1.
         12    1    3    3    0    0 -0.97466844471E+01  0.10164756745E+02  0.11945013780E+02  0.18466279853E+02  0.00000000000E+00 0. -1.
</event>
<event>
 7    1  0.2476315E-009  0.4778723E+02  0.7816164E-02  0.1312668E+00
        -11   -1    0    0    0    0  0.00000000000E+00  0.00000000000E+00  0.45593999997E+02  0.45594000000E+02  0.51100000000E-03 0. -1.
         11   -1    0    0    0    0 -0.00000000000E+00 -0.00000000000E+00 -0.45593999997E+02  0.45594000000E+02  0.51100000000E-03 0.  1.
    9900012    2    1    2    0    0 -0.35036953671E+02  0.16543186222E+02 -0.19554064304E+02  0.47787233144E+02  0.19999827195E+02 0.  0.
         12    1    1    2    0    0  0.35036953671E+02 -0.16543186222E+02  0.19554064304E+02  0.43400766856E+02  0.00000000000E+00 0. -1.
         11    1    3    3    0    0 -0.68001702870E+01  0.10897139667E+02 -0.82595619485E+01  0.15271225645E+02  0.51100000000E-03 0. -1.
        -11    1    3    3    0    0 -0.17986295442E+02  0.24172325893E+01 -0.11982602904E+02  0.21747013812E+02  0.51100000000E-03 0.  1.
         12    1    3    3    0    0 -0.10250487941E+02  0.32288139659E+01  0.68810054855E+00  0.10768993687E+02  0.00000000000E+00 0. -1.
</event>
<event>
 7    1  0.2476315E-009  0.4778727E+02  0.7816164E-02  0.1312668E+00
        -11   -1    0    0    0    0  0.00000000000E+00  0.00000000000E+00  0.45593999997E+02  0.45594000000E+02  0.51100000000E-03 0.  1.
         11   -1    0    0    0    0 -0.00000000000E+00 -0.00000000000E+00 -0.45593999997E+02  0.45594000000E+02  0.51100000000E-03 0. -1.
    9900012    2    1    2    0    0 -0.35409692612E+01 -0.45428064128E+01  0.43016830853E+02  0.47787270858E+02  0.19999999150E+02 0.  0.
         12    1    1    2    0    0  0.35409692612E+01  0.45428064128E+01 -0.43016830853E+02  0.43400729142E+02  0.00000000000E+00 0. -1.
         11    1    3    3    0    0  0.19023276393E+00 -0.93389803829E+01  0.21393573007E+02  0.23343900903E+02  0.51100000000E-03 0. -1.
        -11    1    3    3    0    0 -0.34400365340E+01 -0.23136445546E+01  0.98484814822E+01  0.10685475668E+02  0.51100000000E-03 0.  1.
         12    1    3    3    0    0 -0.29116549123E+00  0.71098185247E+01  0.11774776364E+02  0.13757894288E+02  0.00000000000E+00 0. -1.
</event>
<event>
 7    1  0.2476315E-009  0.4778727E+02  0.7816164E-02  0.1312668E+00
        -11   -1    0    0    0    0  0.00000000000E+00  0.00000000000E+00  0.45593999997E+02  0.45594000000E+02  0.51100000000E-03 0.  1.
         11   -1    0    0    0    0 -0.00000000000E+00 -0.00000000000E+00 -0.45593999997E+02  0.45594000000E+02  0.51100000000E-03 0. -1.
    9900012    2    1    2    0    0  0.11432354635E+02 -0.13853829460E+02  0.39509447575E+02  0.47787265319E+02  0.19999973894E+02 0.  0.
         12    1    1    2    0    0 -0.11432354635E+02  0.13853829460E+02 -0.39509447575E+02  0.43400734681E+02  0.00000000000E+00 0. -1.
         11    1    3    3    0    0  0.32839736898E+00 -0.24977718801E+01 -0.79601414767E+00  0.26420348183E+01  0.51100000000E-03 0. -1.
        -11    1    3    3    0    0  0.82051108914E+01 -0.15957976533E+00  0.22122560812E+02  0.23595698921E+02  0.51100000000E-03 0.  1.
        -12    1    3    3    0    0  0.28988463749E+01 -0.11196477815E+02  0.18182900911E+02  0.21549531579E+02  0.00000000000E+00 0.  1.
</event>
<event>
 7    1  0.2476315E-009  0.4778727E+02  0.7816164E-02  0.1312668E+00
        -11   -1    0    0    0    0  0.00000000000E+00  0.00000000000E+00  0.45593999997E+02  0.45594000000E+02  0.51100000000E-03 0. -1.
         11   -1    0    0    0    0 -0.00000000000E+00 -0.00000000000E+00 -0.45593999997E+02  0.45594000000E+02  0.51100000000E-03 0.  1.
    9900012    2    1    2    0    0 -0.52088215627E+01  0.35954709454E+02 -0.23743429647E+02  0.47787269529E+02  0.19999993092E+02 0.  0.
         12    1    1    2    0    0  0.52088215627E+01 -0.35954709454E+02  0.23743429647E+02  0.43400730471E+02  0.00000000000E+00 0. -1.
         11    1    3    3    0    0 -0.22837207196E+01  0.26286245149E+00 -0.25647617814E+01  0.34441951528E+01  0.51100000000E-03 0. -1.
        -11    1    3    3    0    0 -0.57867584804E+01  0.40879942101E+01 -0.53701482098E+01  0.88902622249E+01  0.51100000000E-03 0.  1.
         12    1    3    3    0    0  0.28616576373E+01  0.31603852792E+02 -0.15808519656E+02  0.35452812152E+02  0.00000000000E+00 0. -1.
</event>
<event>
 7    1  0.2476315E-009  0.4778727E+02  0.7816164E-02  0.1312668E+00
        -11   -1    0    0    0    0  0.00000000000E+00  0.00000000000E+00  0.45593999997E+02  0.45594000000E+02  0.51100000000E-03 0. -1.
         11   -1    0    0    0    0 -0.00000000000E+00 -0.00000000000E+00 -0.45593999997E+02  0.45594000000E+02  0.51100000000E-03 0.  1.
    9900012    2    1    2    0    0  0.35286151333E+01 -0.39663862051E+02 -0.17261236650E+02  0.47787269958E+02  0.19999995045E+02 0.  0.
         12    1    1    2    0    0 -0.35286151333E+01  0.39663862051E+02  0.17261236650E+02  0.43400730042E+02  0.00000000000E+00 0. -1.
         11    1    3    3    0    0 -0.47494658565E+01 -0.13208224495E+02 -0.36882929058E+01  0.14512688416E+02  0.51100000000E-03 0. -1.
        -11    1    3    3    0    0  0.71040530040E+01 -0.46597460788E+01 -0.28982408073E+01  0.89766699082E+01  0.51100000000E-03 0.  1.
        -12    1    3    3    0    0  0.11740279857E+01 -0.21795891476E+02 -0.10674702937E+02  0.24297911633E+02  0.00000000000E+00 0.  1.
</event>
<event>
 7    1  0.2476315E-009  0.4778728E+02  0.7816164E-02  0.1312668E+00
        -11   -1    0    0    0    0  0.00000000000E+00  0.00000000000E+00  0.45593999997E+02  0.45594000000E+02  0.51100000000E-03 0.  1.
         11   -1    0    0    0    0 -0.00000000000E+00 -0.00000000000E+00 -0.45593999997E+02  0.45594000000E+02  0.51100000000E-03 0. -1.
    9900012    2    1    2    0    0  0.19363521942E+02  0.25241546089E+02  0.29521864124E+02  0.47787284656E+02  0.20000062063E+02 0.  0.
         12    1    1    2    0    0 -0.19363521942E+02 -0.25241546089E+02 -0.29521864124E+02  0.43400715344E+02  0.00000000000E+00 0. -1.
         11    1    3    3    0    0 -0.14228760363E+01  0.31466207422E+01  0.42178853654E+01  0.54512710011E+01  0.51100000000E-03 0. -1.
        -11    1    3    3    0    0  0.13430477115E+02  0.14081142554E+02  0.24695821454E+02  0.31441054192E+02  0.51100000000E-03 0.  1.
        -12    1    3    3    0    0  0.73559208640E+01  0.80137827930E+01  0.60815730495E+00  0.10894959464E+02  0.00000000000E+00 0.  1.
</event>
<event>
 7    1  0.2476315E-009  0.4778726E+02  0.7816164E-02  0.1312668E+00
        -11   -1    0    0    0    0  0.00000000000E+00  0.00000000000E+00  0.45593999997E+02  0.45594000000E+02  0.51100000000E-03 0.  1.
         11   -1    0    0    0    0 -0.00000000000E+00 -0.00000000000E+00 -0.45593999997E+02  0.45594000000E+02  0.51100000000E-03 0. -1.
    9900012    2    1    2    0    0 -0.10534741661E+02  0.23572322042E+02  0.34885365253E+02  0.47787264324E+02  0.19999969360E+02 0.  0.
         12    1    1    2    0    0  0.10534741661E+02 -0.23572322042E+02 -0.34885365253E+02  0.43400735676E+02  0.00000000000E+00 0. -1.
         11    1    3    3    0    0 -0.21199267733E+01  0.32447371697E+01  0.12998982285E+01  0.40880489834E+01  0.51100000000E-03 0. -1.
        -11    1    3    3    0    0 -0.12471347917E+02  0.14445301916E+02  0.30359246035E+02  0.35859239903E+02  0.51100000000E-03 0.  1.
        -12    1    3    3    0    0  0.40565330292E+01  0.58822829564E+01  0.32262209898E+01  0.78399754382E+01  0.00000000000E+00 0.  1.
</event>
<event>
 7    1  0.2476315E-009  0.4778727E+02  0.7816164E-02  0.1312668E+00
        -11   -1    0    0    0    0  0.00000000000E+00  0.00000000000E+00  0.45593999997E+02  0.45594000000E+02  0.51100000000E-03 0. -1.
         11   -1    0    0    0    0 -0.00000000000E+00 -0.00000000000E+00 -0.45593999997E+02  0.45594000000E+02  0.51100000000E-03 0.  1.
    9900012    2    1    2    0    0 -0.58285849960E+01 -0.34413576195E+02 -0.25794514493E+02  0.47787267201E+02  0.19999982476E+02 0.  0.
         12    1    1    2    0    0  0.58285849960E+01  0.34413576195E+02  0.25794514493E+02  0.43400732799E+02  0.00000000000E+00 0. -1.
         11    1    3    3    0    0 -0.11624590233E+01 -0.65059898670E+01  0.19532634835E+01  0.68916219882E+01  0.51100000000E-03 0. -1.
        -11    1    3    3    0    0 -0.61289493034E+01 -0.25023338844E+02 -0.27452820796E+02  0.37648225409E+02  0.51100000000E-03 0.  1.
        -12    1    3    3    0    0  0.14628233308E+01 -0.28842474839E+01 -0.29495717955E+00  0.32474198040E+01  0.00000000000E+00 0.  1.
</event>
<event>
 7    1  0.2476315E-009  0.4778727E+02  0.7816164E-02  0.1312668E+00
        -11   -1    0    0    0    0  0.00000000000E+00  0.00000000000E+00  0.45593999997E+02  0.45594000000E+02  0.51100000000E-03 0.  1.
         11   -1    0    0    0    0 -0.00000000000E+00 -0.00000000000E+00 -0.45593999997E+02  0.45594000000E+02  0.51100000000E-03 0. -1.
    9900012    2    1    2    0    0 -0.17350682444E+02 -0.11617712749E+02  0.38047415681E+02  0.47787271080E+02  0.20000000161E+02 0.  0.
         12    1    1    2    0    0  0.17350682444E+02  0.11617712749E+02 -0.38047415681E+02  0.43400728920E+02  0.00000000000E+00 0. -1.
         11    1    3    3    0    0  0.26302335936E+00  0.24988715582E+01  0.21283791727E+00  0.25216741646E+01  0.51100000000E-03 0. -1.
        -11    1    3    3    0    0 -0.17140818205E+02 -0.10672882078E+02  0.25934091800E+02  0.32867844139E+02  0.51100000000E-03 0.  1.
         12    1    3    3    0    0 -0.47288759817E+00 -0.34437022294E+01  0.11900485964E+02  0.12397752776E+02  0.00000000000E+00 0. -1.
</event>
<event>
 7    1  0.2476315E-009  0.4778727E+02  0.7816164E-02  0.1312668E+00
        -11   -1    0    0    0    0  0.00000000000E+00  0.00000000000E+00  0.45593999997E+02  0.45594000000E+02  0.51100000000E-03 0.  1.
         11   -1    0    0    0    0 -0.00000000000E+00 -0.00000000000E+00 -0.45593999997E+02  0.45594000000E+02  0.51100000000E-03 0. -1.
    9900012    2    1    2    0    0  0.22279542228E+02  0.11179901876E+02  0.35528231293E+02  0.47787269285E+02  0.19999991977E+02 0.  0.
         12    1    1    2    0    0 -0.22279542228E+02 -0.11179901876E+02 -0.35528231293E+02  0.43400730715E+02  0.00000000000E+00 0. -1.
         11    1    3    3    0    0  0.14835874677E+02 -0.13921325282E+01  0.12347798147E+02  0.19352243532E+02  0.51100000000E-03 0. -1.
        -11    1    3    3    0    0  0.83273404300E+01  0.12122227301E+02  0.18412526464E+02  0.23565103955E+02  0.51100000000E-03 0.  1.
        -12    1    3    3    0    0 -0.88367287874E+00  0.44980710289E+00  0.47679066818E+01  0.48699217974E+01  0.00000000000E+00 0.  1.
</event>
<event>
 7    1  0.2476315E-009  0.4778727E+02  0.7816164E-02  0.1312668E+00
        -11   -1    0    0    0    0  0.00000000000E+00  0.00000000000E+00  0.45593999997E+02  0.45594000000E+02  0.51100000000E-03 0. -1.
         11   -1    0    0    0    0 -0.00000000000E+00 -0.00000000000E+00 -0.45593999997E+02  0.45594000000E+02  0.51100000000E-03 0.  1.
    9900012    2    1    2    0    0 -0.18745206079E+02 -0.36381674050E+02 -0.14443478732E+02  0.47787273790E+02  0.20000012520E+02 0.  0.
         12    1    1    2    0    0  0.18745206079E+02  0.36381674050E+02  0.14443478732E+02  0.43400726210E+02  0.00000000000E+00 0. -1.
         11    1    3    3    0    0  0.15665975187E+01 -0.50983112786E+01  0.29629653189E+01  0.61013252185E+01  0.51100000000E-03 0.  1.
        -11    1    3    3    0    0 -0.14875509872E+02 -0.17039562922E+02 -0.98665115816E+01  0.24677429963E+02  0.51100000000E-03 0. -1.
        -12    1    3    3    0    0 -0.54362937252E+01 -0.14243799850E+02 -0.75399324696E+01  0.17008518609E+02  0.00000000000E+00 0.  1.
</event>
<event>
 7    1  0.2476315E-009  0.4778729E+02  0.7816164E-02  0.1312668E+00
        -11   -1    0    0    0    0  0.00000000000E+00  0.00000000000E+00  0.45593999997E+02  0.45594000000E+02  0.51100000000E-03 0.  1.
         11   -1    0    0    0    0 -0.00000000000E+00 -0.00000000000E+00 -0.45593999997E+02  0.45594000000E+02  0.51100000000E-03 0. -1.
    9900012    2    1    2    0    0 -0.49615711233E+01 -0.43105222660E+02  0.97173221724E+00  0.47787289498E+02  0.20000084135E+02 0.  0.
         12    1    1    2    0    0  0.49615711233E+01  0.43105222660E+02 -0.97173221724E+00  0.43400710502E+02  0.00000000000E+00 0. -1.
         11    1    3    3    0    0  0.22832724990E+01 -0.10138416008E+01  0.73577971965E+00  0.26043387170E+01  0.51100000000E-03 0. -1.
        -11    1    3    3    0    0 -0.57656366489E+01 -0.25288636538E+02  0.72243216272E+01  0.26924868192E+02  0.51100000000E-03 0.  1.
        -12    1    3    3    0    0 -0.14792069734E+01 -0.16802744521E+02 -0.69883691296E+01  0.18258082589E+02  0.00000000000E+00 0.  1.
</event>
<event>
 7    1  0.2476315E-009  0.4778727E+02  0.7816164E-02  0.1312668E+00
        -11   -1    0    0    0    0  0.00000000000E+00  0.00000000000E+00  0.45593999997E+02  0.45594000000E+02  0.51100000000E-03 0.  1.
         11   -1    0    0    0    0 -0.00000000000E+00 -0.00000000000E+00 -0.45593999997E+02  0.45594000000E+02  0.51100000000E-03 0. -1.
    9900012    2    1    2    0    0  0.15723231262E+02  0.24972169337E+02  0.31824423895E+02  0.47787271908E+02  0.20000003937E+02 0.  0.
         12    1    1    2    0    0 -0.15723231262E+02 -0.24972169337E+02 -0.31824423895E+02  0.43400728092E+02  0.00000000000E+00 0. -1.
         11    1    3    3    0    0  0.12887160864E+01  0.17413941282E+02  0.98494583970E+01  0.20047891936E+02  0.51100000000E-03 0. -1.
        -11    1    3    3    0    0  0.79950426978E+01  0.23761775266E+01  0.83421536580E+01  0.11796544210E+02  0.51100000000E-03 0.  1.
        -12    1    3    3    0    0  0.64394724779E+01  0.51820505284E+01  0.13632811840E+02  0.15942835762E+02  0.00000000000E+00 0.  1.
</event>
<event>
 7    1  0.2476315E-009  0.4778727E+02  0.7816164E-02  0.1312668E+00
        -11   -1    0    0    0    0  0.00000000000E+00  0.00000000000E+00  0.45593999997E+02  0.45594000000E+02  0.51100000000E-03 0.  1.
         11   -1    0    0    0    0 -0.00000000000E+00 -0.00000000000E+00 -0.45593999997E+02  0.45594000000E+02  0.51100000000E-03 0. -1.
    9900012    2    1    2    0    0  0.37022234983E+02  0.45173323539E+01  0.22193941040E+02  0.47787271969E+02  0.20000004217E+02 0.  0.
         12    1    1    2    0    0 -0.37022234983E+02 -0.45173323539E+01 -0.22193941040E+02  0.43400728031E+02  0.00000000000E+00 0. -1.
         11    1    3    3    0    0  0.85690278074E+01 -0.11643461278E+01  0.22818383785E+01  0.89437534691E+01  0.51100000000E-03 0. -1.
        -11    1    3    3    0    0  0.10613963000E+02 -0.58138782251E+01  0.79914021378E+01  0.14502410109E+02  0.51100000000E-03 0.  1.
        -12    1    3    3    0    0  0.17839244176E+02  0.11495556707E+02  0.11920700523E+02  0.24341108392E+02  0.00000000000E+00 0.  1.
</event>
<event>
 7    1  0.2476315E-009  0.4778727E+02  0.7816164E-02  0.1312668E+00
        -11   -1    0    0    0    0  0.00000000000E+00  0.00000000000E+00  0.45593999997E+02  0.45594000000E+02  0.51100000000E-03 0.  1.
         11   -1    0    0    0    0 -0.00000000000E+00 -0.00000000000E+00 -0.45593999997E+02  0.45594000000E+02  0.51100000000E-03 0. -1.
    9900012    2    1    2    0    0 -0.27167404470E+02 -0.59724664178E+01  0.33314938003E+02  0.47787270571E+02  0.19999997843E+02 0.  0.
         12    1    1    2    0    0  0.27167404470E+02  0.59724664178E+01 -0.33314938003E+02  0.43400729429E+02  0.00000000000E+00 0. -1.
         11    1    3    3    0    0  0.13779599835E+01 -0.89731450619E+00  0.87751629016E+01  0.89279018392E+01  0.51100000000E-03 0. -1.
        -11    1    3    3    0    0 -0.23230810449E+02 -0.60761066482E+01  0.16368482556E+02  0.29060572044E+02  0.51100000000E-03 0.  1.
         12    1    3    3    0    0 -0.53145540049E+01  0.10009547366E+01  0.81712925461E+01  0.97987966879E+01  0.00000000000E+00 0. -1.
</event>
<event>
 7    1  0.2476315E-009  0.4778727E+02  0.7816164E-02  0.1312668E+00
        -11   -1    0    0    0    0  0.00000000000E+00  0.00000000000E+00  0.45593999997E+02  0.45594000000E+02  0.51100000000E-03 0.  1.
         11   -1    0    0    0    0 -0.00000000000E+00 -0.00000000000E+00 -0.45593999997E+02  0.45594000000E+02  0.51100000000E-03 0. -1.
    9900012    2    1    2    0    0  0.10798386659E+02 -0.15348093018E+02  0.39133800078E+02  0.47787269334E+02  0.19999992203E+02 0.  0.
         12    1    1    2    0    0 -0.10798386659E+02  0.15348093018E+02 -0.39133800078E+02  0.43400730666E+02  0.00000000000E+00 0. -1.
         11    1    3    3    0    0  0.20486305084E+01  0.17396768091E+01  0.86690401506E+01  0.90761015725E+01  0.51100000000E-03 0. -1.
        -11    1    3    3    0    0 -0.25565989594E+00 -0.14491737098E+02  0.19230870692E+02  0.24081158484E+02  0.51100000000E-03 0.  1.
        -12    1    3    3    0    0  0.90054160468E+01 -0.25960327297E+01  0.11233889236E+02  0.14630009278E+02  0.00000000000E+00 0.  1.
</event>
<event>
 7    1  0.2476315E-009  0.4778728E+02  0.7816164E-02  0.1312668E+00
        -11   -1    0    0    0    0  0.00000000000E+00  0.00000000000E+00  0.45593999997E+02  0.45594000000E+02  0.51100000000E-03 0. -1.
         11   -1    0    0    0    0 -0.00000000000E+00 -0.00000000000E+00 -0.45593999997E+02  0.45594000000E+02  0.51100000000E-03 0.  1.
    9900012    2    1    2    0    0 -0.78002989029E+01  0.27274491466E+02 -0.32846307939E+02  0.47787280042E+02  0.20000041024E+02 0.  0.
         12    1    1    2    0    0  0.78002989029E+01 -0.27274491466E+02  0.32846307939E+02  0.43400719958E+02  0.00000000000E+00 0. -1.
         11    1    3    3    0    0  0.17044629532E+01  0.16696010383E+01  0.16163200389E+01  0.28818834666E+01  0.51100000000E-03 0. -1.
        -11    1    3    3    0    0 -0.93332951205E+01  0.25075386994E+02 -0.29165791926E+02  0.39579399309E+02  0.51100000000E-03 0.  1.
        -12    1    3    3    0    0 -0.17146673550E+00  0.52950343280E+00 -0.52968360514E+01  0.53259972664E+01  0.00000000000E+00 0.  1.
</event>
<event>
 7    1  0.2476315E-009  0.4778731E+02  0.7816164E-02  0.1312668E+00
        -11   -1    0    0    0    0  0.00000000000E+00  0.00000000000E+00  0.45593999997E+02  0.45594000000E+02  0.51100000000E-03 0.  1.
         11   -1    0    0    0    0 -0.00000000000E+00 -0.00000000000E+00 -0.45593999997E+02  0.45594000000E+02  0.51100000000E-03 0. -1.
    9900012    2    1    2    0    0 -0.38525086622E+02  0.88114810002E+01  0.17938652404E+02  0.47787311679E+02  0.20000185268E+02 0.  0.
         12    1    1    2    0    0  0.38525086622E+02 -0.88114810002E+01 -0.17938652404E+02  0.43400688321E+02  0.00000000000E+00 0. -1.
         11    1    3    3    0    0 -0.38043885879E+01  0.28620928222E+01  0.41737417894E+01  0.63312770146E+01  0.51100000000E-03 0. -1.
        -11    1    3    3    0    0  0.12966574972E+01  0.23591019068E+01 -0.10434388811E+00  0.26939878211E+01  0.51100000000E-03 0.  1.
        -12    1    3    3    0    0 -0.36017355532E+02  0.35902862712E+01  0.13869254503E+02  0.38762046843E+02  0.00000000000E+00 0.  1.
</event>
<event>
 7    1  0.2476315E-009  0.4778728E+02  0.7816164E-02  0.1312668E+00
        -11   -1    0    0    0    0  0.00000000000E+00  0.00000000000E+00  0.45593999997E+02  0.45594000000E+02  0.51100000000E-03 0.  1.
         11   -1    0    0    0    0 -0.00000000000E+00 -0.00000000000E+00 -0.45593999997E+02  0.45594000000E+02  0.51100000000E-03 0. -1.
    9900012    2    1    2    0    0 -0.28618071926E+02  0.97048398671E+01  0.31151955590E+02  0.47787282325E+02  0.20000051434E+02 0.  0.
         12    1    1    2    0    0  0.28618071926E+02 -0.97048398671E+01 -0.31151955590E+02  0.43400717675E+02  0.00000000000E+00 0. -1.
         11    1    3    3    0    0  0.14701247249E+01  0.51053795069E+01  0.69310223145E+01  0.87329970343E+01  0.51100000000E-03 0. -1.
        -11    1    3    3    0    0 -0.23103510363E+02  0.20711748430E+01  0.18808746496E+02  0.29863537991E+02  0.51100000000E-03 0.  1.
         12    1    3    3    0    0 -0.69846862881E+01  0.25282855172E+01  0.54121867795E+01  0.91907473002E+01  0.00000000000E+00 0. -1.
</event>
<event>
 7    1  0.2476315E-009  0.4778727E+02  0.7816164E-02  0.1312668E+00
        -11   -1    0    0    0    0  0.00000000000E+00  0.00000000000E+00  0.45593999997E+02  0.45594000000E+02  0.51100000000E-03 0.  1.
         11   -1    0    0    0    0 -0.00000000000E+00 -0.00000000000E+00 -0.45593999997E+02  0.45594000000E+02  0.51100000000E-03 0. -1.
    9900012    2    1    2    0    0  0.24533134452E+02 -0.40176674694E+01  0.35575371049E+02  0.47787270015E+02  0.19999995306E+02 0.  0.
         12    1    1    2    0    0 -0.24533134452E+02  0.40176674694E+01 -0.35575371049E+02  0.43400729985E+02  0.00000000000E+00 0. -1.
         11    1    3    3    0    0  0.59492637882E+01 -0.87438626588E+01  0.98745482929E+01  0.14469124993E+02  0.51100000000E-03 0. -1.
        -11    1    3    3    0    0  0.11174648825E+02 -0.14830495500E+01  0.11201571846E+02  0.15891740761E+02  0.51100000000E-03 0.  1.
         12    1    3    3    0    0  0.74092218388E+01  0.62092447394E+01  0.14499250910E+02  0.17426404260E+02  0.00000000000E+00 0. -1.
</event>
<event>
 7    1  0.2476315E-009  0.4778727E+02  0.7816164E-02  0.1312668E+00
        -11   -1    0    0    0    0  0.00000000000E+00  0.00000000000E+00  0.45593999997E+02  0.45594000000E+02  0.51100000000E-03 0.  1.
         11   -1    0    0    0    0 -0.00000000000E+00 -0.00000000000E+00 -0.45593999997E+02  0.45594000000E+02  0.51100000000E-03 0. -1.
    9900012    2    1    2    0    0  0.27390349881E+02  0.16419107607E+02  0.29390555699E+02  0.47787272753E+02  0.20000007791E+02 0.  0.
         12    1    1    2    0    0 -0.27390349881E+02 -0.16419107607E+02 -0.29390555699E+02  0.43400727247E+02  0.00000000000E+00 0. -1.
         11    1    3    3    0    0  0.26770629913E+01 -0.36056540683E+01  0.71548355453E+01  0.84474303466E+01  0.51100000000E-03 0. -1.
        -11    1    3    3    0    0  0.21697135725E+02  0.19211057332E+02  0.21619453311E+02  0.36155652175E+02  0.51100000000E-03 0.  1.
        -12    1    3    3    0    0  0.30161511647E+01  0.81370434293E+00  0.61626684324E+00  0.31841902311E+01  0.00000000000E+00 0.  1.
</event>
<event>
 7    1  0.2476315E-009  0.4778727E+02  0.7816164E-02  0.1312668E+00
        -11   -1    0    0    0    0  0.00000000000E+00  0.00000000000E+00  0.45593999997E+02  0.45594000000E+02  0.51100000000E-03 0.  1.
         11   -1    0    0    0    0 -0.00000000000E+00 -0.00000000000E+00 -0.45593999997E+02  0.45594000000E+02  0.51100000000E-03 0. -1.
    9900012    2    1    2    0    0 -0.22183764424E+02 -0.29119931007E+02  0.23313801169E+02  0.47787272923E+02  0.20000008566E+02 0.  0.
         12    1    1    2    0    0  0.22183764424E+02  0.29119931007E+02 -0.23313801169E+02  0.43400727077E+02  0.00000000000E+00 0. -1.
         11    1    3    3    0    0 -0.54724882723E+01 -0.65021690131E+01  0.79651470687E+01  0.11647742178E+02  0.51100000000E-03 0. -1.
        -11    1    3    3    0    0 -0.16648506532E+02 -0.25133704242E+02  0.14700252329E+02  0.33540621304E+02  0.51100000000E-03 0.  1.
        -12    1    3    3    0    0 -0.62769619855E-01  0.25159422487E+01  0.64840177178E+00  0.25989094408E+01  0.00000000000E+00 0.  1.
</event>
<event>
 7    1  0.2476315E-009  0.4778727E+02  0.7816164E-02  0.1312668E+00
        -11   -1    0    0    0    0  0.00000000000E+00  0.00000000000E+00  0.45593999997E+02  0.45594000000E+02  0.51100000000E-03 0. -1.
         11   -1    0    0    0    0 -0.00000000000E+00 -0.00000000000E+00 -0.45593999997E+02  0.45594000000E+02  0.51100000000E-03 0.  1.
    9900012    2    1    2    0    0  0.14095219263E+02 -0.35848411716E+02 -0.19995988177E+02  0.47787269916E+02  0.19999994856E+02 0.  0.
         12    1    1    2    0    0 -0.14095219263E+02  0.35848411716E+02  0.19995988177E+02  0.43400730084E+02  0.00000000000E+00 0. -1.
         11    1    3    3    0    0 -0.34450948941E+01 -0.37051593066E+01 -0.14173221825E+01  0.52541114137E+01  0.51100000000E-03 0. -1.
        -11    1    3    3    0    0  0.16869111418E+02 -0.21294651077E+02 -0.11139536304E+02  0.29361852017E+02  0.51100000000E-03 0.  1.
        -12    1    3    3    0    0  0.67120273894E+00 -0.10848601332E+02 -0.74391296902E+01  0.13171306485E+02  0.00000000000E+00 0.  1.
</event>
<event>
 7    1  0.2476315E-009  0.4778727E+02  0.7816164E-02  0.1312668E+00
        -11   -1    0    0    0    0  0.00000000000E+00  0.00000000000E+00  0.45593999997E+02  0.45594000000E+02  0.51100000000E-03 0. -1.
         11   -1    0    0    0    0 -0.00000000000E+00 -0.00000000000E+00 -0.45593999997E+02  0.45594000000E+02  0.51100000000E-03 0.  1.
    9900012    2    1    2    0    0  0.12772080582E+02 -0.31813435797E+02  0.26615827290E+02  0.47787274178E+02  0.20000014285E+02 0.  0.
         12    1    1    2    0    0 -0.12772080582E+02  0.31813435797E+02 -0.26615827290E+02  0.43400725822E+02  0.00000000000E+00 0. -1.
         11    1    3    3    0    0  0.23085770128E+01 -0.22692201013E+02  0.13000517054E+02  0.26254122697E+02  0.51100000000E-03 0. -1.
        -11    1    3    3    0    0 -0.15173945471E+01 -0.35089083756E+00  0.29333350014E+00  0.15848203037E+01  0.51100000000E-03 0.  1.
         12    1    3    3    0    0  0.11980898116E+02 -0.87703439460E+01  0.13321976736E+02  0.19948331177E+02  0.00000000000E+00 0. -1.
</event>
<event>
 7    1  0.2476315E-009  0.4778728E+02  0.7816164E-02  0.1312668E+00
        -11   -1    0    0    0    0  0.00000000000E+00  0.00000000000E+00  0.45593999997E+02  0.45594000000E+02  0.51100000000E-03 0.  1.
         11   -1    0    0    0    0 -0.00000000000E+00 -0.00000000000E+00 -0.45593999997E+02  0.45594000000E+02  0.51100000000E-03 0. -1.
    9900012    2    1    2    0    0 -0.17906842397E+02 -0.18115011373E+02  0.35139916124E+02  0.47787281724E+02  0.20000048693E+02 0.  0.
         12    1    1    2    0    0  0.17906842397E+02  0.18115011373E+02 -0.35139916124E+02  0.43400718276E+02  0.00000000000E+00 0. -1.
         11    1    3    3    0    0 -0.66398756375E+01 -0.27154536802E+01  0.11608122013E+01  0.72669885371E+01  0.51100000000E-03 0. -1.
        -11    1    3    3    0    0 -0.12293244906E+02 -0.10763070462E+02  0.30609975602E+02  0.34697812074E+02  0.51100000000E-03 0.  1.
         12    1    3    3    0    0  0.10262781464E+01 -0.46364872306E+01  0.33691283206E+01  0.58224811132E+01  0.00000000000E+00 0. -1.
</event>
<event>
 7    1  0.2476315E-009  0.4778727E+02  0.7816164E-02  0.1312668E+00
        -11   -1    0    0    0    0  0.00000000000E+00  0.00000000000E+00  0.45593999997E+02  0.45594000000E+02  0.51100000000E-03 0.  1.
         11   -1    0    0    0    0 -0.00000000000E+00 -0.00000000000E+00 -0.45593999997E+02  0.45594000000E+02  0.51100000000E-03 0. -1.
    9900012    2    1    2    0    0  0.24822742324E+02  0.32858051922E+02  0.13704117685E+02  0.47787274728E+02  0.20000016797E+02 0.  0.
         12    1    1    2    0    0 -0.24822742324E+02 -0.32858051922E+02 -0.13704117685E+02  0.43400725272E+02  0.00000000000E+00 0. -1.
         11    1    3    3    0    0  0.90673795075E+01  0.64958012251E+01 -0.16385470849E+01  0.11273758978E+02  0.51100000000E-03 0. -1.
        -11    1    3    3    0    0  0.76851407825E+01  0.12240120496E+02  0.14114994798E+02  0.20201856771E+02  0.51100000000E-03 0.  1.
        -12    1    3    3    0    0  0.80702220338E+01  0.14122130201E+02  0.12276699718E+01  0.16311658979E+02  0.00000000000E+00 0.  1.
</event>
<event>
 7    1  0.2476315E-009  0.4778727E+02  0.7816164E-02  0.1312668E+00
        -11   -1    0    0    0    0  0.00000000000E+00  0.00000000000E+00  0.45593999997E+02  0.45594000000E+02  0.51100000000E-03 0.  1.
         11   -1    0    0    0    0 -0.00000000000E+00 -0.00000000000E+00 -0.45593999997E+02  0.45594000000E+02  0.51100000000E-03 0. -1.
    9900012    2    1    2    0    0  0.23839102641E+02 -0.35791996072E+02 -0.58526205080E+01  0.47787274610E+02  0.20000016257E+02 0.  0.
         12    1    1    2    0    0 -0.23839102641E+02  0.35791996072E+02  0.58526205080E+01  0.43400725390E+02  0.00000000000E+00 0. -1.
         11    1    3    3    0    0  0.82226125042E+01 -0.77094163893E+01  0.38682867282E+01  0.11916799064E+02  0.51100000000E-03 0. -1.
        -11    1    3    3    0    0 -0.70092232530E+00 -0.35935211590E+01  0.20268196473E+01  0.41848159542E+01  0.51100000000E-03 0.  1.
         12    1    3    3    0    0  0.16317412462E+02 -0.24489058524E+02 -0.11747726884E+02  0.31685659592E+02  0.00000000000E+00 0. -1.
</event>
<event>
 7    1  0.2476315E-009  0.4778727E+02  0.7816164E-02  0.1312668E+00
        -11   -1    0    0    0    0  0.00000000000E+00  0.00000000000E+00  0.45593999997E+02  0.45594000000E+02  0.51100000000E-03 0.  1.
         11   -1    0    0    0    0 -0.00000000000E+00 -0.00000000000E+00 -0.45593999997E+02  0.45594000000E+02  0.51100000000E-03 0. -1.
    9900012    2    1    2    0    0 -0.15260527399E+02  0.30493612949E+02  0.26849188657E+02  0.47787273523E+02  0.20000011303E+02 0.  0.
         12    1    1    2    0    0  0.15260527399E+02 -0.30493612949E+02 -0.26849188657E+02  0.43400726477E+02  0.00000000000E+00 0. -1.
         11    1    3    3    0    0 -0.41070769550E+01  0.27082894144E+02  0.18762820657E+02  0.33202329370E+02  0.51100000000E-03 0.  1.
        -11    1    3    3    0    0 -0.11063975653E+02  0.35975384410E+01  0.82969037709E+01  0.14289592455E+02  0.51100000000E-03 0. -1.
        -12    1    3    3    0    0 -0.89474791015E-01 -0.18681963616E+00 -0.21053577136E+00  0.29535169832E+00  0.00000000000E+00 0.  1.
</event>
<event>
 7    1  0.2476315E-009  0.4778727E+02  0.7816164E-02  0.1312668E+00
        -11   -1    0    0    0    0  0.00000000000E+00  0.00000000000E+00  0.45593999997E+02  0.45594000000E+02  0.51100000000E-03 0.  1.
         11   -1    0    0    0    0 -0.00000000000E+00 -0.00000000000E+00 -0.45593999997E+02  0.45594000000E+02  0.51100000000E-03 0. -1.
    9900012    2    1    2    0    0 -0.12250489378E+02 -0.15466484134E+02  0.38656652400E+02  0.47787269634E+02  0.19999993572E+02 0.  0.
         12    1    1    2    0    0  0.12250489378E+02  0.15466484134E+02 -0.38656652400E+02  0.43400730366E+02  0.00000000000E+00 0. -1.
         11    1    3    3    0    0  0.37259634450E+01 -0.31032418813E+01  0.31812309906E+01  0.57994089909E+01  0.51100000000E-03 0. -1.
        -11    1    3    3    0    0 -0.13281575785E+02 -0.57082298555E+01  0.28604562831E+02  0.32050041473E+02  0.51100000000E-03 0.  1.
        -12    1    3    3    0    0 -0.26948770389E+01 -0.66550123972E+01  0.68708585783E+01  0.99378191705E+01  0.00000000000E+00 0.  1.
</event>
<event>
 7    1  0.2476315E-009  0.4778728E+02  0.7816164E-02  0.1312668E+00
        -11   -1    0    0    0    0  0.00000000000E+00  0.00000000000E+00  0.45593999997E+02  0.45594000000E+02  0.51100000000E-03 0.  1.
         11   -1    0    0    0    0 -0.00000000000E+00 -0.00000000000E+00 -0.45593999997E+02  0.45594000000E+02  0.51100000000E-03 0. -1.
    9900012    2    1    2    0    0  0.32461003223E+02 -0.40708429351E+01  0.28519006373E+02  0.47787283221E+02  0.20000055516E+02 0.  0.
         12    1    1    2    0    0 -0.32461003223E+02  0.40708429351E+01 -0.28519006373E+02  0.43400716779E+02  0.00000000000E+00 0. -1.
         11    1    3    3    0    0  0.33128827991E+01 -0.29922869354E+01 -0.20377571665E+00  0.44688363528E+01  0.51100000000E-03 0. -1.
        -11    1    3    3    0    0  0.18416583252E+02  0.44483307931E+01  0.23446387203E+02  0.30144506277E+02  0.51100000000E-03 0.  1.
        -12    1    3    3    0    0  0.10731537172E+02 -0.55268867928E+01  0.52763948861E+01  0.13173940591E+02  0.00000000000E+00 0.  1.
</event>
<event>
 7    1  0.2476315E-009  0.4778727E+02  0.7816164E-02  0.1312668E+00
        -11   -1    0    0    0    0  0.00000000000E+00  0.00000000000E+00  0.45593999997E+02  0.45594000000E+02  0.51100000000E-03 0.  1.
         11   -1    0    0    0    0 -0.00000000000E+00 -0.00000000000E+00 -0.45593999997E+02  0.45594000000E+02  0.51100000000E-03 0. -1.
    9900012    2    1    2    0    0  0.20242517715E+02  0.28848378416E+02  0.25330514322E+02  0.47787269402E+02  0.19999992509E+02 0.  0.
         12    1    1    2    0    0 -0.20242517715E+02 -0.28848378416E+02 -0.25330514322E+02  0.43400730598E+02  0.00000000000E+00 0. -1.
         11    1    3    3    0    0 -0.25830667447E+01  0.74099552971E+01  0.91707991708E+01  0.12069930779E+02  0.51100000000E-03 0. -1.
        -11    1    3    3    0    0  0.15877518364E+02  0.15891136623E+02  0.86234783683E+01  0.24062173469E+02  0.51100000000E-03 0.  1.
         12    1    3    3    0    0  0.69480660949E+01  0.55472864951E+01  0.75362367833E+01  0.11655165154E+02  0.00000000000E+00 0. -1.
</event>
<event>
 7    1  0.2476315E-009  0.4778727E+02  0.7816164E-02  0.1312668E+00
        -11   -1    0    0    0    0  0.00000000000E+00  0.00000000000E+00  0.45593999997E+02  0.45594000000E+02  0.51100000000E-03 0.  1.
         11   -1    0    0    0    0 -0.00000000000E+00 -0.00000000000E+00 -0.45593999997E+02  0.45594000000E+02  0.51100000000E-03 0. -1.
    9900012    2    1    2    0    0 -0.13568452513E+02 -0.35414471776E+01  0.41072844534E+02  0.47787270631E+02  0.19999998113E+02 0.  0.
         12    1    1    2    0    0  0.13568452513E+02  0.35414471776E+01 -0.41072844534E+02  0.43400729369E+02  0.00000000000E+00 0. -1.
         11    1    3    3    0    0 -0.97712291035E+01 -0.82390690444E+00  0.32780718081E+02  0.34215949774E+02  0.51100000000E-03 0.  1.
        -11    1    3    3    0    0  0.16075321014E+01  0.86100293089E+00  0.66346283792E+01  0.68806816156E+01  0.51100000000E-03 0. -1.
         12    1    3    3    0    0 -0.54047555105E+01 -0.35785432040E+01  0.16574980739E+01  0.66906392412E+01  0.00000000000E+00 0. -1.
</event>
<event>
 7    1  0.2476315E-009  0.4778727E+02  0.7816164E-02  0.1312668E+00
        -11   -1    0    0    0    0  0.00000000000E+00  0.00000000000E+00  0.45593999997E+02  0.45594000000E+02  0.51100000000E-03 0.  1.
         11   -1    0    0    0    0 -0.00000000000E+00 -0.00000000000E+00 -0.45593999997E+02  0.45594000000E+02  0.51100000000E-03 0. -1.
    9900012    2    1    2    0    0 -0.86706443098E+01 -0.13185338877E+02  0.40430060626E+02  0.47787273782E+02  0.20000012481E+02 0.  0.
         12    1    1    2    0    0  0.86706443098E+01  0.13185338877E+02 -0.40430060626E+02  0.43400726218E+02  0.00000000000E+00 0. -1.
         11    1    3    3    0    0 -0.12536612623E+02 -0.38956793723E+01  0.25099602863E+02  0.28325483897E+02  0.51100000000E-03 0.  1.
        -11    1    3    3    0    0  0.12938302476E+01 -0.87644362042E+01  0.90976660988E+01  0.12698695500E+02  0.51100000000E-03 0. -1.
        -12    1    3    3    0    0  0.25721380656E+01 -0.52522330087E+00  0.62327916636E+01  0.67630943855E+01  0.00000000000E+00 0.  1.
</event>
<event>
 7    1  0.2476315E-009  0.4778727E+02  0.7816164E-02  0.1312668E+00
        -11   -1    0    0    0    0  0.00000000000E+00  0.00000000000E+00  0.45593999997E+02  0.45594000000E+02  0.51100000000E-03 0. -1.
         11   -1    0    0    0    0 -0.00000000000E+00 -0.00000000000E+00 -0.45593999997E+02  0.45594000000E+02  0.51100000000E-03 0.  1.
    9900012    2    1    2    0    0  0.38196022991E+02  0.77034365290E+01 -0.19113977053E+02  0.47787271602E+02  0.20000002542E+02 0.  0.
         12    1    1    2    0    0 -0.38196022991E+02 -0.77034365290E+01  0.19113977053E+02  0.43400728398E+02  0.00000000000E+00 0. -1.
         11    1    3    3    0    0 -0.16927646514E+01  0.17076658890E+01  0.67127083641E+00  0.24964334060E+01  0.51100000000E-03 0. -1.
        -11    1    3    3    0    0  0.26438822847E+02  0.25837225254E+01 -0.15557302517E+02  0.30785006699E+02  0.51100000000E-03 0.  1.
        -12    1    3    3    0    0  0.13449964795E+02  0.34120481146E+01 -0.42279453729E+01  0.14505831497E+02  0.00000000000E+00 0.  1.
</event>
<event>
 7    1  0.2476315E-009  0.4778727E+02  0.7816164E-02  0.1312668E+00
        -11   -1    0    0    0    0  0.00000000000E+00  0.00000000000E+00  0.45593999997E+02  0.45594000000E+02  0.51100000000E-03 0.  1.
         11   -1    0    0    0    0 -0.00000000000E+00 -0.00000000000E+00 -0.45593999997E+02  0.45594000000E+02  0.51100000000E-03 0. -1.
    9900012    2    1    2    0    0 -0.65734705315E+01  0.12645074570E+02  0.40994083000E+02  0.47787271127E+02  0.20000000377E+02 0.  0.
         12    1    1    2    0    0  0.65734705315E+01 -0.12645074570E+02 -0.40994083000E+02  0.43400728873E+02  0.00000000000E+00 0. -1.
         11    1    3    3    0    0 -0.40543888895E+01 -0.21984064014E-01  0.18539885265E+01  0.44582312955E+01  0.51100000000E-03 0. -1.
        -11    1    3    3    0    0  0.49993290471E+01  0.67311777871E+01  0.23903608857E+02  0.25331493481E+02  0.51100000000E-03 0.  1.
        -12    1    3    3    0    0 -0.75184106891E+01  0.59358808473E+01  0.15236485616E+02  0.17997546351E+02  0.00000000000E+00 0.  1.
</event>
<event>
 7    1  0.2476315E-009  0.4778727E+02  0.7816164E-02  0.1312668E+00
        -11   -1    0    0    0    0  0.00000000000E+00  0.00000000000E+00  0.45593999997E+02  0.45594000000E+02  0.51100000000E-03 0.  1.
         11   -1    0    0    0    0 -0.00000000000E+00 -0.00000000000E+00 -0.45593999997E+02  0.45594000000E+02  0.51100000000E-03 0. -1.
    9900012    2    1    2    0    0  0.10376389653E+02  0.31595712334E+02  0.27886642163E+02  0.47787270614E+02  0.19999998038E+02 0.  0.
         12    1    1    2    0    0 -0.10376389653E+02 -0.31595712334E+02 -0.27886642163E+02  0.43400729386E+02  0.00000000000E+00 0. -1.
         11    1    3    3    0    0 -0.67270979945E-01  0.44298846149E+01  0.10254445425E+02  0.11170588809E+02  0.51100000000E-03 0. -1.
        -11    1    3    3    0    0  0.22319250804E+01  0.22403065534E+02  0.11167214980E+02  0.25131365373E+02  0.51100000000E-03 0.  1.
        -12    1    3    3    0    0  0.82117355526E+01  0.47627621854E+01  0.64649817575E+01  0.11485316432E+02  0.00000000000E+00 0.  1.
</event>
<event>
 7    1  0.2476315E-009  0.4778727E+02  0.7816164E-02  0.1312668E+00
        -11   -1    0    0    0    0  0.00000000000E+00  0.00000000000E+00  0.45593999997E+02  0.45594000000E+02  0.51100000000E-03 0.  1.
         11   -1    0    0    0    0 -0.00000000000E+00 -0.00000000000E+00 -0.45593999997E+02  0.45594000000E+02  0.51100000000E-03 0. -1.
    9900012    2    1    2    0    0 -0.13924445902E+02 -0.26605498214E+02  0.31334970307E+02  0.47787273128E+02  0.20000009500E+02 0.  0.
         12    1    1    2    0    0  0.13924445902E+02  0.26605498214E+02 -0.31334970307E+02  0.43400726872E+02  0.00000000000E+00 0. -1.
         11    1    3    3    0    0 -0.49389540134E+01  0.26317974329E+00  0.11713362279E+01  0.50827708136E+01  0.51100000000E-03 0. -1.
        -11    1    3    3    0    0 -0.10761696849E+02 -0.24373303658E+02  0.29117712999E+02  0.39467876315E+02  0.51100000000E-03 0.  1.
         12    1    3    3    0    0  0.17762049608E+01 -0.24953742990E+01  0.10459210803E+01  0.32366259995E+01  0.00000000000E+00 0. -1.
</event>
<event>
 7    1  0.2476315E-009  0.4778727E+02  0.7816164E-02  0.1312668E+00
        -11   -1    0    0    0    0  0.00000000000E+00  0.00000000000E+00  0.45593999997E+02  0.45594000000E+02  0.51100000000E-03 0. -1.
         11   -1    0    0    0    0 -0.00000000000E+00 -0.00000000000E+00 -0.45593999997E+02  0.45594000000E+02  0.51100000000E-03 0.  1.
    9900012    2    1    2    0    0  0.20136930211E+02 -0.25074032662E+02 -0.29144813072E+02  0.47787271881E+02  0.20000003813E+02 0.  0.
         12    1    1    2    0    0 -0.20136930211E+02  0.25074032662E+02  0.29144813072E+02  0.43400728119E+02  0.00000000000E+00 0. -1.
         11    1    3    3    0    0  0.14694913501E+02 -0.22014983912E+02 -0.28489403795E+02  0.38887608930E+02  0.51100000000E-03 0. -1.
        -11    1    3    3    0    0  0.20161329625E+01 -0.41205429061E+01 -0.20846732558E+01  0.50388023188E+01  0.51100000000E-03 0.  1.
         12    1    3    3    0    0  0.34258837481E+01  0.10614941558E+01  0.14292639786E+01  0.38608606319E+01  0.00000000000E+00 0. -1.
</event>
<event>
 7    1  0.2476315E-009  0.4778728E+02  0.7816164E-02  0.1312668E+00
        -11   -1    0    0    0    0  0.00000000000E+00  0.00000000000E+00  0.45593999997E+02  0.45594000000E+02  0.51100000000E-03 0.  1.
         11   -1    0    0    0    0 -0.00000000000E+00 -0.00000000000E+00 -0.45593999997E+02  0.45594000000E+02  0.51100000000E-03 0. -1.
    9900012    2    1    2    0    0  0.11459448401E+02 -0.80668067512E+01  0.41075910071E+02  0.47787277460E+02  0.20000029252E+02 0.  0.
         12    1    1    2    0    0 -0.11459448401E+02  0.80668067512E+01 -0.41075910071E+02  0.43400722540E+02  0.00000000000E+00 0. -1.
         11    1    3    3    0    0  0.19004002933E+01 -0.70130049304E+01  0.95955779802E+01  0.12036148739E+02  0.51100000000E-03 0. -1.
        -11    1    3    3    0    0  0.11210139670E+02  0.16931616528E+01  0.30273001853E+02  0.32326284495E+02  0.51100000000E-03 0.  1.
        -12    1    3    3    0    0 -0.16510915623E+01 -0.27469634735E+01  0.12073302384E+01  0.34248442266E+01  0.00000000000E+00 0.  1.
</event>
<event>
 7    1  0.2476315E-009  0.4778727E+02  0.7816164E-02  0.1312668E+00
        -11   -1    0    0    0    0  0.00000000000E+00  0.00000000000E+00  0.45593999997E+02  0.45594000000E+02  0.51100000000E-03 0.  1.
         11   -1    0    0    0    0 -0.00000000000E+00 -0.00000000000E+00 -0.45593999997E+02  0.45594000000E+02  0.51100000000E-03 0. -1.
    9900012    2    1    2    0    0 -0.41147583568E+02  0.13654682109E+02 -0.20123711752E+01  0.47787267117E+02  0.19999982095E+02 0.  0.
         12    1    1    2    0    0  0.41147583568E+02 -0.13654682109E+02  0.20123711752E+01  0.43400732883E+02  0.00000000000E+00 0. -1.
         11    1    3    3    0    0 -0.11192718646E+02 -0.97728958710E-01 -0.71367603397E+01  0.13274782486E+02  0.51100000000E-03 0. -1.
        -11    1    3    3    0    0 -0.23906924614E+02  0.13471932061E+02  0.15578549712E+01  0.27485649171E+02  0.51100000000E-03 0.  1.
         12    1    3    3    0    0 -0.60479403085E+01  0.28047900661E+00  0.35665341933E+01  0.70268354614E+01  0.00000000000E+00 0. -1.
</event>
<event>
 7    1  0.2476315E-009  0.4778727E+02  0.7816164E-02  0.1312668E+00
        -11   -1    0    0    0    0  0.00000000000E+00  0.00000000000E+00  0.45593999997E+02  0.45594000000E+02  0.51100000000E-03 0.  1.
         11   -1    0    0    0    0 -0.00000000000E+00 -0.00000000000E+00 -0.45593999997E+02  0.45594000000E+02  0.51100000000E-03 0. -1.
    9900012    2    1    2    0    0 -0.37944701457E+02  0.15720796223E+02  0.14024261558E+02  0.47787265964E+02  0.19999976838E+02 0.  0.
         12    1    1    2    0    0  0.37944701457E+02 -0.15720796223E+02 -0.14024261558E+02  0.43400734036E+02  0.00000000000E+00 0. -1.
         11    1    3    3    0    0 -0.24396407713E+02  0.17510439501E+02  0.46613986722E+01  0.30389617284E+02  0.51100000000E-03 0. -1.
        -11    1    3    3    0    0 -0.10628607927E+02  0.48317736446E+00  0.84494412393E+01  0.13586530990E+02  0.51100000000E-03 0.  1.
         12    1    3    3    0    0 -0.29196858177E+01 -0.22728206423E+01  0.91342164658E+00  0.38111176904E+01  0.00000000000E+00 0. -1.
</event>
<event>
 7    1  0.2476315E-009  0.4778727E+02  0.7816164E-02  0.1312668E+00
        -11   -1    0    0    0    0  0.00000000000E+00  0.00000000000E+00  0.45593999997E+02  0.45594000000E+02  0.51100000000E-03 0. -1.
         11   -1    0    0    0    0 -0.00000000000E+00 -0.00000000000E+00 -0.45593999997E+02  0.45594000000E+02  0.51100000000E-03 0.  1.
    9900012    2    1    2    0    0 -0.13656704253E+01  0.25714524857E+02 -0.34935958981E+02  0.47787273344E+02  0.20000010486E+02 0.  0.
         12    1    1    2    0    0  0.13656704253E+01 -0.25714524857E+02  0.34935958981E+02  0.43400726656E+02  0.00000000000E+00 0. -1.
         11    1    3    3    0    0  0.15460782272E+01 -0.89467413942E+00 -0.84370970292E+01  0.86241177080E+01  0.51100000000E-03 0. -1.
        -11    1    3    3    0    0  0.28874955922E+01  0.16871705511E+02 -0.12741813099E+02  0.21338834995E+02  0.51100000000E-03 0.  1.
         12    1    3    3    0    0 -0.57992442447E+01  0.97374934856E+01 -0.13757048853E+02  0.17824320641E+02  0.00000000000E+00 0. -1.
</event>
<event>
 7    1  0.2476315E-009  0.4778723E+02  0.7816164E-02  0.1312668E+00
        -11   -1    0    0    0    0  0.00000000000E+00  0.00000000000E+00  0.45593999997E+02  0.45594000000E+02  0.51100000000E-03 0. -1.
         11   -1    0    0    0    0 -0.00000000000E+00 -0.00000000000E+00 -0.45593999997E+02  0.45594000000E+02  0.51100000000E-03 0.  1.
    9900012    2    1    2    0    0 -0.32019679817E+02  0.28923576138E+02 -0.46683690935E+01  0.47787230166E+02  0.19999813618E+02 0.  0.
         12    1    1    2    0    0  0.32019679817E+02 -0.28923576138E+02  0.46683690935E+01  0.43400769834E+02  0.00000000000E+00 0. -1.
         11    1    3    3    0    0 -0.31450459893E+01 -0.26769940292E+00  0.18474712712E+01  0.36573388692E+01  0.51100000000E-03 0. -1.
        -11    1    3    3    0    0 -0.58906810213E+01  0.15765718057E+02 -0.48412444290E+00  0.16837231527E+02  0.51100000000E-03 0.  1.
        -12    1    3    3    0    0 -0.22983952806E+02  0.13425557484E+02 -0.60317159219E+01  0.27292659770E+02  0.00000000000E+00 0.  1.
</event>
<event>
 7    1  0.2476315E-009  0.4778728E+02  0.7816164E-02  0.1312668E+00
        -11   -1    0    0    0    0  0.00000000000E+00  0.00000000000E+00  0.45593999997E+02  0.45594000000E+02  0.51100000000E-03 0.  1.
         11   -1    0    0    0    0 -0.00000000000E+00 -0.00000000000E+00 -0.45593999997E+02  0.45594000000E+02  0.51100000000E-03 0. -1.
    9900012    2    1    2    0    0  0.90267491574E+01 -0.42434918490E+02 -0.11909111482E+01  0.47787276769E+02  0.20000026100E+02 0.  0.
         12    1    1    2    0    0 -0.90267491574E+01  0.42434918490E+02  0.11909111482E+01  0.43400723231E+02  0.00000000000E+00 0. -1.
         11    1    3    3    0    0 -0.42458495291E+01 -0.43774778090E+01 -0.38228565452E+01  0.71974844646E+01  0.51100000000E-03 0. -1.
        -11    1    3    3    0    0  0.12112180481E+02 -0.31989902544E+02  0.10934806502E+01  0.34223595383E+02  0.51100000000E-03 0.  1.
         12    1    3    3    0    0  0.11604182055E+01 -0.60675381375E+01  0.15384647468E+01  0.63661969211E+01  0.00000000000E+00 0. -1.
</event>
<event>
 7    1  0.2476315E-009  0.4778727E+02  0.7816164E-02  0.1312668E+00
        -11   -1    0    0    0    0  0.00000000000E+00  0.00000000000E+00  0.45593999997E+02  0.45594000000E+02  0.51100000000E-03 0.  1.
         11   -1    0    0    0    0 -0.00000000000E+00 -0.00000000000E+00 -0.45593999997E+02  0.45594000000E+02  0.51100000000E-03 0. -1.
    9900012    2    1    2    0    0  0.16021463709E+02  0.19393114952E+02  0.35367266003E+02  0.47787266003E+02  0.19999977014E+02 0.  0.
         12    1    1    2    0    0 -0.16021463709E+02 -0.19393114952E+02 -0.35367266003E+02  0.43400733997E+02  0.00000000000E+00 0. -1.
         11    1    3    3    0    0  0.32248834737E+01  0.86206466822E+00  0.43527228006E+00  0.33663765580E+01  0.51100000000E-03 0. -1.
        -11    1    3    3    0    0  0.69908737956E+01  0.18051380961E+01  0.19988608300E+02  0.21252653999E+02  0.51100000000E-03 0.  1.
        -12    1    3    3    0    0  0.58057064397E+01  0.16725912188E+02  0.14943385423E+02  0.23168235446E+02  0.00000000000E+00 0.  1.
</event>
<event>
 7    1  0.2476315E-009  0.4778727E+02  0.7816164E-02  0.1312668E+00
        -11   -1    0    0    0    0  0.00000000000E+00  0.00000000000E+00  0.45593999997E+02  0.45594000000E+02  0.51100000000E-03 0.  1.
         11   -1    0    0    0    0 -0.00000000000E+00 -0.00000000000E+00 -0.45593999997E+02  0.45594000000E+02  0.51100000000E-03 0. -1.
    9900012    2    1    2    0    0  0.96087658615E+01 -0.41780460912E+02 -0.67592725648E+01  0.47787273497E+02  0.20000011183E+02 0.  0.
         12    1    1    2    0    0 -0.96087658615E+01  0.41780460912E+02  0.67592725648E+01  0.43400726503E+02  0.00000000000E+00 0. -1.
         11    1    3    3    0    0  0.18012211345E+01 -0.16591619411E+02  0.51812818801E+01  0.17474893832E+02  0.51100000000E-03 0. -1.
        -11    1    3    3    0    0  0.74998204869E+01 -0.15045727843E+02 -0.36368940578E+01  0.17200239310E+02  0.51100000000E-03 0.  1.
         12    1    3    3    0    0  0.30772424016E+00 -0.10143113657E+02 -0.83036603871E+01  0.13112140355E+02  0.00000000000E+00 0. -1.
</event>
<event>
 7    1  0.2476315E-009  0.4778728E+02  0.7816164E-02  0.1312668E+00
        -11   -1    0    0    0    0  0.00000000000E+00  0.00000000000E+00  0.45593999997E+02  0.45594000000E+02  0.51100000000E-03 0.  1.
         11   -1    0    0    0    0 -0.00000000000E+00 -0.00000000000E+00 -0.45593999997E+02  0.45594000000E+02  0.51100000000E-03 0. -1.
    9900012    2    1    2    0    0 -0.29274365645E+02 -0.31991244260E+02  0.17872020310E+01  0.47787282444E+02  0.20000051977E+02 0.  0.
         12    1    1    2    0    0  0.29274365645E+02  0.31991244260E+02 -0.17872020310E+01  0.43400717556E+02  0.00000000000E+00 0. -1.
         11    1    3    3    0    0 -0.22650419527E+02 -0.10100371151E+02  0.92530929556E+00  0.24817638882E+02  0.51100000000E-03 0. -1.
        -11    1    3    3    0    0 -0.18979445145E+01 -0.38245790180E+01  0.41981088997E+00  0.42902027329E+01  0.51100000000E-03 0.  1.
         12    1    3    3    0    0 -0.47260016043E+01 -0.18066294091E+02  0.44208184542E+00  0.18679440830E+02  0.00000000000E+00 0. -1.
</event>
<event>
 7    1  0.2476315E-009  0.4778727E+02  0.7816164E-02  0.1312668E+00
        -11   -1    0    0    0    0  0.00000000000E+00  0.00000000000E+00  0.45593999997E+02  0.45594000000E+02  0.51100000000E-03 0.  1.
         11   -1    0    0    0    0 -0.00000000000E+00 -0.00000000000E+00 -0.45593999997E+02  0.45594000000E+02  0.51100000000E-03 0. -1.
    9900012    2    1    2    0    0  0.39829581187E+02  0.55912725676E+01  0.16308444834E+02  0.47787271442E+02  0.20000001812E+02 0.  0.
         12    1    1    2    0    0 -0.39829581187E+02 -0.55912725676E+01 -0.16308444834E+02  0.43400728558E+02  0.00000000000E+00 0. -1.
         11    1    3    3    0    0  0.46109937064E+01  0.71703002070E+01  0.57106268997E+01  0.10260883386E+02  0.51100000000E-03 0. -1.
        -11    1    3    3    0    0  0.16446856466E+02 -0.13005018874E+00  0.86912702948E+01  0.18602531555E+02  0.51100000000E-03 0.  1.
         12    1    3    3    0    0  0.18771731015E+02 -0.14489774507E+01  0.19065476394E+01  0.18923856500E+02  0.00000000000E+00 0. -1.
</event>
<event>
 7    1  0.2476315E-009  0.4778727E+02  0.7816164E-02  0.1312668E+00
        -11   -1    0    0    0    0  0.00000000000E+00  0.00000000000E+00  0.45593999997E+02  0.45594000000E+02  0.51100000000E-03 0.  1.
         11   -1    0    0    0    0 -0.00000000000E+00 -0.00000000000E+00 -0.45593999997E+02  0.45594000000E+02  0.51100000000E-03 0. -1.
    9900012    2    1    2    0    0  0.10894305970E+02 -0.19914416147E+02  0.36991261305E+02  0.47787270905E+02  0.19999999366E+02 0.  0.
         12    1    1    2    0    0 -0.10894305970E+02  0.19914416147E+02 -0.36991261305E+02  0.43400729095E+02  0.00000000000E+00 0. -1.
         11    1    3    3    0    0  0.93120090827E+01 -0.68918428335E+01  0.11840680932E+02  0.16565407812E+02  0.51100000000E-03 0. -1.
        -11    1    3    3    0    0 -0.32343134914E+01 -0.90668331511E+01  0.22454446214E+02  0.24430931259E+02  0.51100000000E-03 0.  1.
        -12    1    3    3    0    0  0.48166103786E+01 -0.39557401624E+01  0.26961341587E+01  0.67909318339E+01  0.00000000000E+00 0.  1.
</event>
<event>
 7    1  0.2476315E-009  0.4778727E+02  0.7816164E-02  0.1312668E+00
        -11   -1    0    0    0    0  0.00000000000E+00  0.00000000000E+00  0.45593999997E+02  0.45594000000E+02  0.51100000000E-03 0.  1.
         11   -1    0    0    0    0 -0.00000000000E+00 -0.00000000000E+00 -0.45593999997E+02  0.45594000000E+02  0.51100000000E-03 0. -1.
    9900012    2    1    2    0    0  0.74890033625E+01  0.33085483789E+02  0.27071916157E+02  0.47787273585E+02  0.20000011584E+02 0.  0.
         12    1    1    2    0    0 -0.74890033625E+01 -0.33085483789E+02 -0.27071916157E+02  0.43400726415E+02  0.00000000000E+00 0. -1.
         11    1    3    3    0    0  0.15851825562E+01  0.15035867167E+02  0.10060365344E+02  0.18160425554E+02  0.51100000000E-03 0. -1.
        -11    1    3    3    0    0  0.11018095659E+02  0.11355516958E+02  0.10702854095E+02  0.19102284768E+02  0.51100000000E-03 0.  1.
        -12    1    3    3    0    0 -0.51142748527E+01  0.66940996637E+01  0.63086967188E+01  0.10524563263E+02  0.00000000000E+00 0.  1.
</event>
<event>
 7    1  0.2476315E-009  0.4778727E+02  0.7816164E-02  0.1312668E+00
        -11   -1    0    0    0    0  0.00000000000E+00  0.00000000000E+00  0.45593999997E+02  0.45594000000E+02  0.51100000000E-03 0. -1.
         11   -1    0    0    0    0 -0.00000000000E+00 -0.00000000000E+00 -0.45593999997E+02  0.45594000000E+02  0.51100000000E-03 0.  1.
    9900012    2    1    2    0    0  0.40680770797E+02 -0.13656606993E+02 -0.64957604252E+01  0.47787274998E+02  0.20000018028E+02 0.  0.
         12    1    1    2    0    0 -0.40680770797E+02  0.13656606993E+02  0.64957604252E+01  0.43400725002E+02  0.00000000000E+00 0. -1.
         11    1    3    3    0    0  0.52971130672E+01  0.28946503023E+01 -0.17503729045E+01  0.62850785822E+01  0.51100000000E-03 0. -1.
        -11    1    3    3    0    0  0.33018393992E+02 -0.12833055281E+02 -0.76277505901E+01  0.36236504094E+02  0.51100000000E-03 0.  1.
        -12    1    3    3    0    0  0.23652637376E+01 -0.37182020139E+01  0.28823630694E+01  0.52656923218E+01  0.00000000000E+00 0.  1.
</event>
<event>
 7    1  0.2476315E-009  0.4778727E+02  0.7816164E-02  0.1312668E+00
        -11   -1    0    0    0    0  0.00000000000E+00  0.00000000000E+00  0.45593999997E+02  0.45594000000E+02  0.51100000000E-03 0.  1.
         11   -1    0    0    0    0 -0.00000000000E+00 -0.00000000000E+00 -0.45593999997E+02  0.45594000000E+02  0.51100000000E-03 0. -1.
    9900012    2    1    2    0    0  0.22369303577E+02  0.11290277268E+02  0.35436807133E+02  0.47787269555E+02  0.19999993211E+02 0.  0.
         12    1    1    2    0    0 -0.22369303577E+02 -0.11290277268E+02 -0.35436807133E+02  0.43400730445E+02  0.00000000000E+00 0. -1.
         11    1    3    3    0    0  0.58777681931E+01  0.95644122896E+01  0.85256107975E+01  0.14096530818E+02  0.51100000000E-03 0. -1.
        -11    1    3    3    0    0  0.24739988566E+01 -0.43322848654E+01  0.61787163757E+01  0.79414040830E+01  0.51100000000E-03 0.  1.
        -12    1    3    3    0    0  0.14017536527E+02  0.60581498437E+01  0.20732479960E+02  0.25749334654E+02  0.00000000000E+00 0.  1.
</event>
<event>
 7    1  0.2476315E-009  0.4778726E+02  0.7816164E-02  0.1312668E+00
        -11   -1    0    0    0    0  0.00000000000E+00  0.00000000000E+00  0.45593999997E+02  0.45594000000E+02  0.51100000000E-03 0.  1.
         11   -1    0    0    0    0 -0.00000000000E+00 -0.00000000000E+00 -0.45593999997E+02  0.45594000000E+02  0.51100000000E-03 0. -1.
    9900012    2    1    2    0    0  0.12240964743E+02  0.22781358498E+02  0.34853875183E+02  0.47787261203E+02  0.19999955128E+02 0.  0.
         12    1    1    2    0    0 -0.12240964743E+02 -0.22781358498E+02 -0.34853875183E+02  0.43400738797E+02  0.00000000000E+00 0. -1.
         11    1    3    3    0    0  0.18190999936E+01  0.19621021248E+02  0.21126653477E+02  0.28889947854E+02  0.51100000000E-03 0. -1.
        -11    1    3    3    0    0  0.10868969031E+02  0.41000434578E+01  0.11082060426E+02  0.16054809488E+02  0.51100000000E-03 0.  1.
        -12    1    3    3    0    0 -0.44710428196E+00 -0.93970620836E+00  0.26451612804E+01  0.28425038604E+01  0.00000000000E+00 0.  1.
</event>
<event>
 7    1  0.2476315E-009  0.4778728E+02  0.7816164E-02  0.1312668E+00
        -11   -1    0    0    0    0  0.00000000000E+00  0.00000000000E+00  0.45593999997E+02  0.45594000000E+02  0.51100000000E-03 0. -1.
         11   -1    0    0    0    0 -0.00000000000E+00 -0.00000000000E+00 -0.45593999997E+02  0.45594000000E+02  0.51100000000E-03 0.  1.
    9900012    2    1    2    0    0  0.29486212802E+02  0.31104915784E+02 -0.68315156050E+01  0.47787284144E+02  0.20000059728E+02 0.  0.
         12    1    1    2    0    0 -0.29486212802E+02 -0.31104915784E+02  0.68315156050E+01  0.43400715856E+02  0.00000000000E+00 0. -1.
         11    1    3    3    0    0  0.13953637434E+02  0.16732365946E+02 -0.32193897514E+01  0.22023635904E+02  0.51100000000E-03 0. -1.
        -11    1    3    3    0    0  0.18006780656E+02  0.10437884813E+02 -0.23377755990E+01  0.20944182581E+02  0.51100000000E-03 0.  1.
         12    1    3    3    0    0 -0.24742052889E+01  0.39346650251E+01 -0.12743502546E+01  0.48194656595E+01  0.00000000000E+00 0. -1.
</event>
<event>
 7    1  0.2476315E-009  0.4778727E+02  0.7816164E-02  0.1312668E+00
        -11   -1    0    0    0    0  0.00000000000E+00  0.00000000000E+00  0.45593999997E+02  0.45594000000E+02  0.51100000000E-03 0.  1.
         11   -1    0    0    0    0 -0.00000000000E+00 -0.00000000000E+00 -0.45593999997E+02  0.45594000000E+02  0.51100000000E-03 0. -1.
    9900012    2    1    2    0    0  0.10571940704E+02  0.28989796039E+02  0.30519647997E+02  0.47787272834E+02  0.20000008161E+02 0.  0.
         12    1    1    2    0    0 -0.10571940704E+02 -0.28989796039E+02 -0.30519647997E+02  0.43400727166E+02  0.00000000000E+00 0. -1.
         11    1    3    3    0    0  0.45505193334E+01 -0.57338051249E+00  0.25942275792E+01  0.52693461084E+01  0.51100000000E-03 0. -1.
        -11    1    3    3    0    0  0.15456864396E+01  0.20374160103E+01 -0.59868008571E+00  0.26265240670E+01  0.51100000000E-03 0.  1.
         12    1    3    3    0    0  0.44757349308E+01  0.27525760541E+02  0.28524100504E+02  0.39891402659E+02  0.00000000000E+00 0. -1.
</event>
<event>
 7    1  0.2476315E-009  0.4778727E+02  0.7816164E-02  0.1312668E+00
        -11   -1    0    0    0    0  0.00000000000E+00  0.00000000000E+00  0.45593999997E+02  0.45594000000E+02  0.51100000000E-03 0. -1.
         11   -1    0    0    0    0 -0.00000000000E+00 -0.00000000000E+00 -0.45593999997E+02  0.45594000000E+02  0.51100000000E-03 0.  1.
    9900012    2    1    2    0    0 -0.86781807616E+01  0.29259405312E+02 -0.30857734952E+02  0.47787269281E+02  0.19999991961E+02 0.  0.
         12    1    1    2    0    0  0.86781807616E+01 -0.29259405312E+02  0.30857734952E+02  0.43400730719E+02  0.00000000000E+00 0. -1.
         11    1    3    3    0    0  0.98203171976E+00  0.10318699799E+02 -0.96750284723E+00  0.10410380102E+02  0.51100000000E-03 0. -1.
        -11    1    3    3    0    0 -0.54183778942E+01  0.54038617001E+01 -0.14827010625E+02  0.16685346404E+02  0.51100000000E-03 0.  1.
         12    1    3    3    0    0 -0.42418345871E+01  0.13536843813E+02 -0.15063221480E+02  0.20691542775E+02  0.00000000000E+00 0. -1.
</event>
<event>
 7    1  0.2476315E-009  0.4778727E+02  0.7816164E-02  0.1312668E+00
        -11   -1    0    0    0    0  0.00000000000E+00  0.00000000000E+00  0.45593999997E+02  0.45594000000E+02  0.51100000000E-03 0.  1.
         11   -1    0    0    0    0 -0.00000000000E+00 -0.00000000000E+00 -0.45593999997E+02  0.45594000000E+02  0.51100000000E-03 0. -1.
    9900012    2    1    2    0    0 -0.47404370608E+00 -0.12586076318E+02  0.41532991549E+02  0.47787269344E+02  0.19999992245E+02 0.  0.
         12    1    1    2    0    0  0.47404370608E+00  0.12586076318E+02 -0.41532991549E+02  0.43400730656E+02  0.00000000000E+00 0. -1.
         11    1    3    3    0    0  0.15107631310E+01 -0.14077413312E+02  0.18168418067E+02  0.23033614265E+02  0.51100000000E-03 0. -1.
        -11    1    3    3    0    0  0.97096611998E+00  0.41009834461E+01  0.12895806422E+02  0.13566969594E+02  0.51100000000E-03 0.  1.
        -12    1    3    3    0    0 -0.29557729571E+01 -0.26096464523E+01  0.10468767060E+02  0.11186685484E+02  0.00000000000E+00 0.  1.
</event>
<event>
 7    1  0.2476315E-009  0.4778727E+02  0.7816164E-02  0.1312668E+00
        -11   -1    0    0    0    0  0.00000000000E+00  0.00000000000E+00  0.45593999997E+02  0.45594000000E+02  0.51100000000E-03 0.  1.
         11   -1    0    0    0    0 -0.00000000000E+00 -0.00000000000E+00 -0.45593999997E+02  0.45594000000E+02  0.51100000000E-03 0. -1.
    9900012    2    1    2    0    0  0.42568864212E+02  0.78333341897E+01 -0.31865052281E+01  0.47787272583E+02  0.20000007013E+02 0.  0.
         12    1    1    2    0    0 -0.42568864212E+02 -0.78333341897E+01  0.31865052281E+01  0.43400727417E+02  0.00000000000E+00 0. -1.
         11    1    3    3    0    0  0.16239148337E+02  0.59100225183E+01 -0.59546704724E+01  0.18278304231E+02  0.51100000000E-03 0. -1.
        -11    1    3    3    0    0  0.15078335033E+02 -0.30863262721E+01  0.63997241617E+01  0.16668475241E+02  0.51100000000E-03 0.  1.
        -12    1    3    3    0    0  0.11251380841E+02  0.50096379436E+01 -0.36315589174E+01  0.12840493111E+02  0.00000000000E+00 0.  1.
</event>
<event>
 7    1  0.2476315E-009  0.4778727E+02  0.7816164E-02  0.1312668E+00
        -11   -1    0    0    0    0  0.00000000000E+00  0.00000000000E+00  0.45593999997E+02  0.45594000000E+02  0.51100000000E-03 0.  1.
         11   -1    0    0    0    0 -0.00000000000E+00 -0.00000000000E+00 -0.45593999997E+02  0.45594000000E+02  0.51100000000E-03 0. -1.
    9900012    2    1    2    0    0 -0.22652583721E-01 -0.19400449187E+02  0.38823255249E+02  0.47787273163E+02  0.20000009661E+02 0.  0.
         12    1    1    2    0    0  0.22652583721E-01  0.19400449187E+02 -0.38823255249E+02  0.43400726837E+02  0.00000000000E+00 0. -1.
         11    1    3    3    0    0  0.10337177039E+01 -0.43956448242E+01  0.13357232302E+02  0.14099855345E+02  0.51100000000E-03 0. -1.
        -11    1    3    3    0    0  0.36295278536E+01  0.19051867536E+01  0.76621585704E+01  0.86897573743E+01  0.51100000000E-03 0.  1.
        -12    1    3    3    0    0 -0.46858981412E+01 -0.16909991116E+02  0.17803864377E+02  0.24997660444E+02  0.00000000000E+00 0.  1.
</event>
<event>
 7    1  0.2476315E-009  0.4778727E+02  0.7816164E-02  0.1312668E+00
        -11   -1    0    0    0    0  0.00000000000E+00  0.00000000000E+00  0.45593999997E+02  0.45594000000E+02  0.51100000000E-03 0.  1.
         11   -1    0    0    0    0 -0.00000000000E+00 -0.00000000000E+00 -0.45593999997E+02  0.45594000000E+02  0.51100000000E-03 0. -1.
    9900012    2    1    2    0    0 -0.23855043735E+02  0.23971247316E+02  0.27201830544E+02  0.47787269656E+02  0.19999993670E+02 0.  0.
         12    1    1    2    0    0  0.23855043735E+02 -0.23971247316E+02 -0.27201830544E+02  0.43400730344E+02  0.00000000000E+00 0. -1.
         11    1    3    3    0    0 -0.19087052150E+01  0.17929144837E+01  0.83177892548E+01  0.87202818929E+01  0.51100000000E-03 0. -1.
        -11    1    3    3    0    0 -0.17648908023E+02  0.22149798584E+02  0.11590004703E+02  0.30601074181E+02  0.51100000000E-03 0.  1.
        -12    1    3    3    0    0 -0.42974304966E+01  0.28534247912E-01  0.72940365855E+01  0.84659135825E+01  0.00000000000E+00 0.  1.
</event>
<event>
 7    1  0.2476315E-009  0.4778727E+02  0.7816164E-02  0.1312668E+00
        -11   -1    0    0    0    0  0.00000000000E+00  0.00000000000E+00  0.45593999997E+02  0.45594000000E+02  0.51100000000E-03 0.  1.
         11   -1    0    0    0    0 -0.00000000000E+00 -0.00000000000E+00 -0.45593999997E+02  0.45594000000E+02  0.51100000000E-03 0. -1.
    9900012    2    1    2    0    0 -0.21857200042E+02 -0.12385008500E+01  0.37474689710E+02  0.47787269051E+02  0.19999990909E+02 0.  0.
         12    1    1    2    0    0  0.21857200042E+02  0.12385008500E+01 -0.37474689710E+02  0.43400730949E+02  0.00000000000E+00 0. -1.
         11    1    3    3    0    0 -0.12288944014E+02 -0.85768221037E+01  0.11027620973E+02  0.18606140034E+02  0.51100000000E-03 0. -1.
        -11    1    3    3    0    0 -0.69581487179E+01  0.53418820094E+01  0.16234938530E+02  0.18453313153E+02  0.51100000000E-03 0.  1.
         12    1    3    3    0    0 -0.26101073103E+01  0.19964392443E+01  0.10212130208E+02  0.10727815864E+02  0.00000000000E+00 0. -1.
</event>
<event>
 7    1  0.2476315E-009  0.4778727E+02  0.7816164E-02  0.1312668E+00
        -11   -1    0    0    0    0  0.00000000000E+00  0.00000000000E+00  0.45593999997E+02  0.45594000000E+02  0.51100000000E-03 0. -1.
         11   -1    0    0    0    0 -0.00000000000E+00 -0.00000000000E+00 -0.45593999997E+02  0.45594000000E+02  0.51100000000E-03 0.  1.
    9900012    2    1    2    0    0  0.73071750776E+00 -0.38077859881E+02 -0.20812641394E+02  0.47787269557E+02  0.19999993216E+02 0.  0.
         12    1    1    2    0    0 -0.73071750776E+00  0.38077859881E+02  0.20812641394E+02  0.43400730443E+02  0.00000000000E+00 0. -1.
         11    1    3    3    0    0  0.22165356562E+01 -0.38535835071E+01 -0.10559151233E+01  0.45692552095E+01  0.51100000000E-03 0. -1.
        -11    1    3    3    0    0  0.35423976270E+01 -0.18796509468E+02 -0.21075039069E+01  0.19243152603E+02  0.51100000000E-03 0.  1.
        -12    1    3    3    0    0 -0.50282157754E+01 -0.15427766907E+02 -0.17649222364E+02  0.23974861744E+02  0.00000000000E+00 0.  1.
</event>
<event>
 7    1  0.2476315E-009  0.4778727E+02  0.7816164E-02  0.1312668E+00
        -11   -1    0    0    0    0  0.00000000000E+00  0.00000000000E+00  0.45593999997E+02  0.45594000000E+02  0.51100000000E-03 0. -1.
         11   -1    0    0    0    0 -0.00000000000E+00 -0.00000000000E+00 -0.45593999997E+02  0.45594000000E+02  0.51100000000E-03 0.  1.
    9900012    2    1    2    0    0  0.32106611360E+02 -0.18008497315E+02 -0.22988758696E+02  0.47787268498E+02  0.19999988389E+02 0.  0.
         12    1    1    2    0    0 -0.32106611360E+02  0.18008497315E+02  0.22988758696E+02  0.43400731502E+02  0.00000000000E+00 0. -1.
         11    1    3    3    0    0 -0.86655995413E+00 -0.32349016825E+00  0.76617764749E+00  0.12010830495E+01  0.51100000000E-03 0. -1.
        -11    1    3    3    0    0  0.30463991780E+02 -0.14353281549E+02 -0.25318435346E+02  0.42131872200E+02  0.51100000000E-03 0.  1.
        -12    1    3    3    0    0  0.25091795336E+01 -0.33317255972E+01  0.15634990024E+01  0.44543132486E+01  0.00000000000E+00 0.  1.
</event>
<event>
 7    1  0.2476315E-009  0.4778731E+02  0.7816164E-02  0.1312668E+00
        -11   -1    0    0    0    0  0.00000000000E+00  0.00000000000E+00  0.45593999997E+02  0.45594000000E+02  0.51100000000E-03 0.  1.
         11   -1    0    0    0    0 -0.00000000000E+00 -0.00000000000E+00 -0.45593999997E+02  0.45594000000E+02  0.51100000000E-03 0. -1.
    9900012    2    1    2    0    0  0.22836334166E+02  0.36658149417E+02  0.42780964447E+01  0.47787306618E+02  0.20000162193E+02 0.  0.
         12    1    1    2    0    0 -0.22836334166E+02 -0.36658149417E+02 -0.42780964447E+01  0.43400693382E+02  0.00000000000E+00 0. -1.
         11    1    3    3    0    0  0.14407570238E+02  0.24717488012E+02 -0.22619098600E+01  0.28699277521E+02  0.51100000000E-03 0. -1.
        -11    1    3    3    0    0  0.35305126987E+01 -0.12682352943E+01  0.59989424164E+00  0.37990543613E+01  0.51100000000E-03 0.  1.
         12    1    3    3    0    0  0.48982512297E+01  0.13208896700E+02  0.59401120631E+01  0.15288974736E+02  0.00000000000E+00 0. -1.
</event>
<event>
 7    1  0.2476315E-009  0.4778727E+02  0.7816164E-02  0.1312668E+00
        -11   -1    0    0    0    0  0.00000000000E+00  0.00000000000E+00  0.45593999997E+02  0.45594000000E+02  0.51100000000E-03 0.  1.
         11   -1    0    0    0    0 -0.00000000000E+00 -0.00000000000E+00 -0.45593999997E+02  0.45594000000E+02  0.51100000000E-03 0. -1.
    9900012    2    1    2    0    0 -0.74131223126E+01  0.47107086169E+01  0.42502688431E+02  0.47787266343E+02  0.19999978566E+02 0.  0.
         12    1    1    2    0    0  0.74131223126E+01 -0.47107086169E+01 -0.42502688431E+02  0.43400733657E+02  0.00000000000E+00 0. -1.
         11    1    3    3    0    0 -0.46387111037E+01  0.64338465914E+01  0.72421179019E+01  0.10740590981E+02  0.51100000000E-03 0. -1.
        -11    1    3    3    0    0  0.30651569107E+00  0.19268146596E+01  0.29495688064E+02  0.29560145149E+02  0.51100000000E-03 0.  1.
        -12    1    3    3    0    0 -0.30809269000E+01 -0.36499526341E+01  0.57648824648E+01  0.74865302128E+01  0.00000000000E+00 0.  1.
</event>
<event>
 7    1  0.2476315E-009  0.4778727E+02  0.7816164E-02  0.1312668E+00
        -11   -1    0    0    0    0  0.00000000000E+00  0.00000000000E+00  0.45593999997E+02  0.45594000000E+02  0.51100000000E-03 0.  1.
         11   -1    0    0    0    0 -0.00000000000E+00 -0.00000000000E+00 -0.45593999997E+02  0.45594000000E+02  0.51100000000E-03 0. -1.
    9900012    2    1    2    0    0  0.22190130412E+02  0.29570740195E+02  0.22733068701E+02  0.47787274477E+02  0.20000015649E+02 0.  0.
         12    1    1    2    0    0 -0.22190130412E+02 -0.29570740195E+02 -0.22733068701E+02  0.43400725523E+02  0.00000000000E+00 0. -1.
         11    1    3    3    0    0  0.54563598898E+00 -0.58137842971E-01 -0.69672218443E+00  0.88686002540E+00  0.51100000000E-03 0. -1.
        -11    1    3    3    0    0 -0.75910663064E+00  0.69646071510E+01  0.10247132594E+02  0.12413127016E+02  0.51100000000E-03 0.  1.
        -12    1    3    3    0    0  0.22403601054E+02  0.22664270887E+02  0.13182658291E+02  0.34487287435E+02  0.00000000000E+00 0.  1.
</event>
<event>
 7    1  0.2476315E-009  0.4778727E+02  0.7816164E-02  0.1312668E+00
        -11   -1    0    0    0    0  0.00000000000E+00  0.00000000000E+00  0.45593999997E+02  0.45594000000E+02  0.51100000000E-03 0.  1.
         11   -1    0    0    0    0 -0.00000000000E+00 -0.00000000000E+00 -0.45593999997E+02  0.45594000000E+02  0.51100000000E-03 0. -1.
    9900012    2    1    2    0    0 -0.18072095353E+02  0.32429618068E+02  0.22479823772E+02  0.47787271489E+02  0.20000002029E+02 0.  0.
         12    1    1    2    0    0  0.18072095353E+02 -0.32429618068E+02 -0.22479823772E+02  0.43400728511E+02  0.00000000000E+00 0. -1.
         11    1    3    3    0    0 -0.21212779881E+01  0.87567169330E+01 -0.13308588614E+01  0.91077493004E+01  0.51100000000E-03 0. -1.
        -11    1    3    3    0    0 -0.12028384152E+02  0.21865581614E+02  0.23612778094E+02  0.34356207215E+02  0.51100000000E-03 0.  1.
        -12    1    3    3    0    0 -0.39224332125E+01  0.18073195202E+01  0.19790453871E+00  0.43233149737E+01  0.00000000000E+00 0.  1.
</event>
<event>
 7    1  0.2476315E-009  0.4778727E+02  0.7816164E-02  0.1312668E+00
        -11   -1    0    0    0    0  0.00000000000E+00  0.00000000000E+00  0.45593999997E+02  0.45594000000E+02  0.51100000000E-03 0.  1.
         11   -1    0    0    0    0 -0.00000000000E+00 -0.00000000000E+00 -0.45593999997E+02  0.45594000000E+02  0.51100000000E-03 0. -1.
    9900012    2    1    2    0    0 -0.11593892707E+02 -0.41329191119E+02 -0.64111686528E+01  0.47787268784E+02  0.19999989692E+02 0.  0.
         12    1    1    2    0    0  0.11593892707E+02  0.41329191119E+02  0.64111686528E+01  0.43400731216E+02  0.00000000000E+00 0. -1.
         11    1    3    3    0    0 -0.39437637417E+01 -0.53031256389E+01  0.51059363089E+01  0.83514669277E+01  0.51100000000E-03 0. -1.
        -11    1    3    3    0    0 -0.12027525063E+01 -0.23149845982E+02 -0.87171620991E+01  0.24765922109E+02  0.51100000000E-03 0.  1.
        -12    1    3    3    0    0 -0.64473764593E+01 -0.12876219498E+02 -0.27999428625E+01  0.14669879747E+02  0.00000000000E+00 0.  1.
</event>
<event>
 7    1  0.2476315E-009  0.4778727E+02  0.7816164E-02  0.1312668E+00
        -11   -1    0    0    0    0  0.00000000000E+00  0.00000000000E+00  0.45593999997E+02  0.45594000000E+02  0.51100000000E-03 0. -1.
         11   -1    0    0    0    0 -0.00000000000E+00 -0.00000000000E+00 -0.45593999997E+02  0.45594000000E+02  0.51100000000E-03 0.  1.
    9900012    2    1    2    0    0  0.42925422392E+02  0.30642991640E+01 -0.56250796251E+01  0.47787270309E+02  0.19999996647E+02 0.  0.
         12    1    1    2    0    0 -0.42925422392E+02 -0.30642991640E+01  0.56250796251E+01  0.43400729691E+02  0.00000000000E+00 0. -1.
         11    1    3    3    0    0  0.49037626191E+01  0.45046413080E+01 -0.15062329954E+01  0.68269626654E+01  0.51100000000E-03 0. -1.
        -11    1    3    3    0    0  0.52726955067E+01 -0.52151746051E+01  0.13672385473E+01  0.75411342366E+01  0.51100000000E-03 0.  1.
        -12    1    3    3    0    0  0.32748964267E+02  0.37748324611E+01 -0.54860851770E+01  0.33419173407E+02  0.00000000000E+00 0.  1.
</event>
<event>
 7    1  0.2476315E-009  0.4778728E+02  0.7816164E-02  0.1312668E+00
        -11   -1    0    0    0    0  0.00000000000E+00  0.00000000000E+00  0.45593999997E+02  0.45594000000E+02  0.51100000000E-03 0.  1.
         11   -1    0    0    0    0 -0.00000000000E+00 -0.00000000000E+00 -0.45593999997E+02  0.45594000000E+02  0.51100000000E-03 0. -1.
    9900012    2    1    2    0    0  0.31866584027E+02  0.21657881219E+02  0.19976983353E+02  0.47787275808E+02  0.20000021721E+02 0.  0.
         12    1    1    2    0    0 -0.31866584027E+02 -0.21657881219E+02 -0.19976983353E+02  0.43400724192E+02  0.00000000000E+00 0. -1.
         11    1    3    3    0    0  0.98157349295E+01 -0.10991813570E+01  0.62780007542E+01  0.11703424524E+02  0.51100000000E-03 0. -1.
        -11    1    3    3    0    0  0.12994890154E+02  0.13630026744E+02  0.13594212560E+02  0.23226007288E+02  0.51100000000E-03 0.  1.
         12    1    3    3    0    0  0.90559589433E+01  0.91270358323E+01  0.10477003907E+00  0.12857843996E+02  0.00000000000E+00 0. -1.
</event>
<event>
 7    1  0.2476315E-009  0.4778727E+02  0.7816164E-02  0.1312668E+00
        -11   -1    0    0    0    0  0.00000000000E+00  0.00000000000E+00  0.45593999997E+02  0.45594000000E+02  0.51100000000E-03 0. -1.
         11   -1    0    0    0    0 -0.00000000000E+00 -0.00000000000E+00 -0.45593999997E+02  0.45594000000E+02  0.51100000000E-03 0.  1.
    9900012    2    1    2    0    0 -0.13910077941E+02 -0.22075608536E+02 -0.34681413441E+02  0.47787271909E+02  0.20000003941E+02 0.  0.
         12    1    1    2    0    0  0.13910077941E+02  0.22075608536E+02  0.34681413441E+02  0.43400728091E+02  0.00000000000E+00 0. -1.
         11    1    3    3    0    0 -0.43409399919E+01 -0.26229737878E+01 -0.94865668728E+01  0.10757262793E+02  0.51100000000E-03 0. -1.
        -11    1    3    3    0    0 -0.14194071694E+02 -0.13524001137E+02 -0.17694849982E+02  0.26409808673E+02  0.51100000000E-03 0.  1.
        -12    1    3    3    0    0  0.46249337448E+01 -0.59286336114E+01 -0.74999965865E+01  0.10620200443E+02  0.00000000000E+00 0.  1.
</event>
<event>
 7    1  0.2476315E-009  0.4778727E+02  0.7816164E-02  0.1312668E+00
        -11   -1    0    0    0    0  0.00000000000E+00  0.00000000000E+00  0.45593999997E+02  0.45594000000E+02  0.51100000000E-03 0.  1.
         11   -1    0    0    0    0 -0.00000000000E+00 -0.00000000000E+00 -0.45593999997E+02  0.45594000000E+02  0.51100000000E-03 0. -1.
    9900012    2    1    2    0    0 -0.33859376165E+02 -0.17058576140E+02 -0.21122759874E+02  0.47787270064E+02  0.19999995532E+02 0.  0.
         12    1    1    2    0    0  0.33859376165E+02  0.17058576140E+02  0.21122759874E+02  0.43400729936E+02  0.00000000000E+00 0. -1.
         11    1    3    3    0    0 -0.13279765808E+01 -0.31220330981E+01 -0.28065157255E+01  0.44030833791E+01  0.51100000000E-03 0. -1.
        -11    1    3    3    0    0 -0.22621260358E+02 -0.14673358587E+02 -0.19641220327E+02  0.33358753103E+02  0.51100000000E-03 0.  1.
        -12    1    3    3    0    0 -0.99101392268E+01  0.73681554539E+00  0.13249761778E+01  0.10025433582E+02  0.00000000000E+00 0.  1.
</event>
<event>
 7    1  0.2476315E-009  0.4778727E+02  0.7816164E-02  0.1312668E+00
        -11   -1    0    0    0    0  0.00000000000E+00  0.00000000000E+00  0.45593999997E+02  0.45594000000E+02  0.51100000000E-03 0. -1.
         11   -1    0    0    0    0 -0.00000000000E+00 -0.00000000000E+00 -0.45593999997E+02  0.45594000000E+02  0.51100000000E-03 0.  1.
    9900012    2    1    2    0    0  0.22564567583E+02  0.30602736564E+02 -0.20926923113E+02  0.47787270670E+02  0.19999998294E+02 0.  0.
         12    1    1    2    0    0 -0.22564567583E+02 -0.30602736564E+02  0.20926923113E+02  0.43400729330E+02  0.00000000000E+00 0. -1.
         11    1    3    3    0    0  0.13235052886E+02  0.45702783711E+01 -0.77567318357E+01  0.16006903458E+02  0.51100000000E-03 0. -1.
        -11    1    3    3    0    0  0.13337540452E+01  0.61001505753E+01  0.59313555785E+00  0.62723637447E+01  0.51100000000E-03 0.  1.
         12    1    3    3    0    0  0.79957606524E+01  0.19932307617E+02 -0.13763326835E+02  0.25508003468E+02  0.00000000000E+00 0. -1.
</event>
<event>
 7    1  0.2476315E-009  0.4778727E+02  0.7816164E-02  0.1312668E+00
        -11   -1    0    0    0    0  0.00000000000E+00  0.00000000000E+00  0.45593999997E+02  0.45594000000E+02  0.51100000000E-03 0.  1.
         11   -1    0    0    0    0 -0.00000000000E+00 -0.00000000000E+00 -0.45593999997E+02  0.45594000000E+02  0.51100000000E-03 0. -1.
    9900012    2    1    2    0    0 -0.12058614388E+02 -0.41449232666E+02  0.44915569071E+01  0.47787272437E+02  0.20000006349E+02 0.  0.
         12    1    1    2    0    0  0.12058614388E+02  0.41449232666E+02 -0.44915569071E+01  0.43400727563E+02  0.00000000000E+00 0. -1.
         11    1    3    3    0    0 -0.48856196743E+01 -0.25304279801E+01  0.43772948789E+01  0.70308645330E+01  0.51100000000E-03 0. -1.
        -11    1    3    3    0    0 -0.59239907950E+01 -0.38354275269E+02 -0.12409337734E+01  0.38828906954E+02  0.51100000000E-03 0.  1.
        -12    1    3    3    0    0 -0.12490039190E+01 -0.56452941727E+00  0.13551958016E+01  0.19275009503E+01  0.00000000000E+00 0.  1.
</event>
<event>
 7    1  0.2476315E-009  0.4778728E+02  0.7816164E-02  0.1312668E+00
        -11   -1    0    0    0    0  0.00000000000E+00  0.00000000000E+00  0.45593999997E+02  0.45594000000E+02  0.51100000000E-03 0. -1.
         11   -1    0    0    0    0 -0.00000000000E+00 -0.00000000000E+00 -0.45593999997E+02  0.45594000000E+02  0.51100000000E-03 0.  1.
    9900012    2    1    2    0    0  0.39976312797E+02  0.73094976911E+01 -0.15234437589E+02  0.47787280766E+02  0.20000044325E+02 0.  0.
         12    1    1    2    0    0 -0.39976312797E+02 -0.73094976911E+01  0.15234437589E+02  0.43400719234E+02  0.00000000000E+00 0. -1.
         11    1    3    3    0    0  0.59006828741E+01  0.11428317583E+01  0.41368476959E+01  0.72964122642E+01  0.51100000000E-03 0. -1.
        -11    1    3    3    0    0  0.22193625527E+02  0.65750378343E+01 -0.15980916790E+02  0.28127883644E+02  0.51100000000E-03 0.  1.
        -12    1    3    3    0    0  0.11882004396E+02 -0.40837190148E+00 -0.33903684943E+01  0.12362984858E+02  0.00000000000E+00 0.  1.
</event>
<event>
 7    1  0.2476315E-009  0.4778727E+02  0.7816164E-02  0.1312668E+00
        -11   -1    0    0    0    0  0.00000000000E+00  0.00000000000E+00  0.45593999997E+02  0.45594000000E+02  0.51100000000E-03 0.  1.
         11   -1    0    0    0    0 -0.00000000000E+00 -0.00000000000E+00 -0.45593999997E+02  0.45594000000E+02  0.51100000000E-03 0. -1.
    9900012    2    1    2    0    0  0.11884847156E+02  0.73116577745E+01  0.41096390927E+02  0.47787270990E+02  0.19999999753E+02 0.  0.
         12    1    1    2    0    0 -0.11884847156E+02 -0.73116577745E+01 -0.41096390927E+02  0.43400729010E+02  0.00000000000E+00 0. -1.
         11    1    3    3    0    0 -0.15501679388E+01 -0.27581428533E+01  0.55338245419E+01  0.63744479729E+01  0.51100000000E-03 0.  1.
        -11    1    3    3    0    0  0.49689792332E+01 -0.22788720834E+01  0.51302073609E+01  0.74968687077E+01  0.51100000000E-03 0. -1.
         12    1    3    3    0    0  0.84660358614E+01  0.12348672711E+02  0.30432359025E+02  0.33915954310E+02  0.00000000000E+00 0. -1.
</event>
<event>
 7    1  0.2476315E-009  0.4778727E+02  0.7816164E-02  0.1312668E+00
        -11   -1    0    0    0    0  0.00000000000E+00  0.00000000000E+00  0.45593999997E+02  0.45594000000E+02  0.51100000000E-03 0. -1.
         11   -1    0    0    0    0 -0.00000000000E+00 -0.00000000000E+00 -0.45593999997E+02  0.45594000000E+02  0.51100000000E-03 0.  1.
    9900012    2    1    2    0    0 -0.24631031470E+02 -0.11745141270E+02 -0.33748891986E+02  0.47787265386E+02  0.19999974200E+02 0.  0.
         12    1    1    2    0    0  0.24631031470E+02  0.11745141270E+02  0.33748891986E+02  0.43400734614E+02  0.00000000000E+00 0. -1.
         11    1    3    3    0    0 -0.66349718561E+00  0.19355315348E+01  0.14374410269E+01  0.25005495005E+01  0.51100000000E-03 0. -1.
        -11    1    3    3    0    0 -0.15702628740E+02 -0.12527541766E+02 -0.23302087143E+02  0.30765225784E+02  0.51100000000E-03 0.  1.
         12    1    3    3    0    0 -0.82649055447E+01 -0.11531310382E+01 -0.11884245870E+02  0.14521490101E+02  0.00000000000E+00 0. -1.
</event>
<event>
 7    1  0.2476315E-009  0.4778727E+02  0.7816164E-02  0.1312668E+00
        -11   -1    0    0    0    0  0.00000000000E+00  0.00000000000E+00  0.45593999997E+02  0.45594000000E+02  0.51100000000E-03 0. -1.
         11   -1    0    0    0    0 -0.00000000000E+00 -0.00000000000E+00 -0.45593999997E+02  0.45594000000E+02  0.51100000000E-03 0.  1.
    9900012    2    1    2    0    0 -0.38661470860E+02 -0.86572797834E+01 -0.17719069174E+02  0.47787271496E+02  0.20000002058E+02 0.  0.
         12    1    1    2    0    0  0.38661470860E+02  0.86572797834E+01  0.17719069174E+02  0.43400728504E+02  0.00000000000E+00 0. -1.
         11    1    3    3    0    0 -0.30814020820E+02 -0.65464005002E+01 -0.76212344191E+01  0.32410529970E+02  0.51100000000E-03 0. -1.
        -11    1    3    3    0    0 -0.90138378916E+01 -0.19387546972E+01 -0.10640051706E+02  0.14079017859E+02  0.51100000000E-03 0.  1.
         12    1    3    3    0    0  0.11663878515E+01 -0.17212458605E+00  0.54221695096E+00  0.12977236667E+01  0.00000000000E+00 0. -1.
</event>
<event>
 7    1  0.2476315E-009  0.4778727E+02  0.7816164E-02  0.1312668E+00
        -11   -1    0    0    0    0  0.00000000000E+00  0.00000000000E+00  0.45593999997E+02  0.45594000000E+02  0.51100000000E-03 0.  1.
         11   -1    0    0    0    0 -0.00000000000E+00 -0.00000000000E+00 -0.45593999997E+02  0.45594000000E+02  0.51100000000E-03 0. -1.
    9900012    2    1    2    0    0  0.14707290781E+02  0.29030320746E+02  0.28715141513E+02  0.47787271010E+02  0.19999999844E+02 0.  0.
         12    1    1    2    0    0 -0.14707290781E+02 -0.29030320746E+02 -0.28715141513E+02  0.43400728990E+02  0.00000000000E+00 0. -1.
         11    1    3    3    0    0  0.47810973151E+01 -0.14093579063E+01  0.77427949074E+01  0.92084773162E+01  0.51100000000E-03 0. -1.
        -11    1    3    3    0    0  0.62788519918E+01  0.14188777123E+02  0.79320942202E+01  0.17425943233E+02  0.51100000000E-03 0.  1.
         12    1    3    3    0    0  0.36473414746E+01  0.16250901529E+02  0.13040252385E+02  0.21152850461E+02  0.00000000000E+00 0. -1.
</event>
<event>
 7    1  0.2476315E-009  0.4778727E+02  0.7816164E-02  0.1312668E+00
        -11   -1    0    0    0    0  0.00000000000E+00  0.00000000000E+00  0.45593999997E+02  0.45594000000E+02  0.51100000000E-03 0.  1.
         11   -1    0    0    0    0 -0.00000000000E+00 -0.00000000000E+00 -0.45593999997E+02  0.45594000000E+02  0.51100000000E-03 0. -1.
    9900012    2    1    2    0    0  0.16418756559E+02 -0.11732794675E+02  0.38423810278E+02  0.47787271502E+02  0.20000002087E+02 0.  0.
         12    1    1    2    0    0 -0.16418756559E+02  0.11732794675E+02 -0.38423810278E+02  0.43400728498E+02  0.00000000000E+00 0. -1.
         11    1    3    3    0    0  0.39419637475E+01 -0.11360778095E+02  0.88860013112E+01  0.14952169631E+02  0.51100000000E-03 0. -1.
        -11    1    3    3    0    0  0.12201373466E+02 -0.20475085941E+01  0.27675042934E+02  0.30314580775E+02  0.51100000000E-03 0.  1.
         12    1    3    3    0    0  0.27541934524E+00  0.16754920137E+01  0.18627660332E+01  0.25205210965E+01  0.00000000000E+00 0. -1.
</event>
<event>
 7    1  0.2476315E-009  0.4778727E+02  0.7816164E-02  0.1312668E+00
        -11   -1    0    0    0    0  0.00000000000E+00  0.00000000000E+00  0.45593999997E+02  0.45594000000E+02  0.51100000000E-03 0.  1.
         11   -1    0    0    0    0 -0.00000000000E+00 -0.00000000000E+00 -0.45593999997E+02  0.45594000000E+02  0.51100000000E-03 0. -1.
    9900012    2    1    2    0    0 -0.17354467612E+02 -0.12880987182E+02  0.37636759295E+02  0.47787273888E+02  0.20000012964E+02 0.  0.
         12    1    1    2    0    0  0.17354467612E+02  0.12880987182E+02 -0.37636759295E+02  0.43400726112E+02  0.00000000000E+00 0. -1.
         11    1    3    3    0    0  0.85211807057E+00  0.16776351487E+01 -0.88946406779E+00  0.20812764082E+01  0.51100000000E-03 0. -1.
        -11    1    3    3    0    0 -0.12471730108E+02 -0.64440874737E+01  0.17378147949E+02  0.22339882311E+02  0.51100000000E-03 0.  1.
         12    1    3    3    0    0 -0.57348555738E+01 -0.81145348568E+01  0.21148075413E+02  0.23366115169E+02  0.00000000000E+00 0. -1.
</event>
<event>
 7    1  0.2476315E-009  0.4778728E+02  0.7816164E-02  0.1312668E+00
        -11   -1    0    0    0    0  0.00000000000E+00  0.00000000000E+00  0.45593999997E+02  0.45594000000E+02  0.51100000000E-03 0.  1.
         11   -1    0    0    0    0 -0.00000000000E+00 -0.00000000000E+00 -0.45593999997E+02  0.45594000000E+02  0.51100000000E-03 0. -1.
    9900012    2    1    2    0    0 -0.10567468060E+02  0.33130591158E+01  0.41963974571E+02  0.47787275309E+02  0.20000019445E+02 0.  0.
         12    1    1    2    0    0  0.10567468060E+02 -0.33130591158E+01 -0.41963974571E+02  0.43400724691E+02  0.00000000000E+00 0. -1.
         11    1    3    3    0    0 -0.10650766257E+00  0.67970257167E+00  0.51090927354E+00  0.85695274959E+00  0.51100000000E-03 0. -1.
        -11    1    3    3    0    0 -0.13770358976E+02 -0.17930536155E+01  0.37890016924E+02  0.40354568643E+02  0.51100000000E-03 0.  1.
        -12    1    3    3    0    0  0.33093985794E+01  0.44264101597E+01  0.35630483733E+01  0.65757539164E+01  0.00000000000E+00 0.  1.
</event>
<event>
 7    1  0.2476315E-009  0.4778726E+02  0.7816164E-02  0.1312668E+00
        -11   -1    0    0    0    0  0.00000000000E+00  0.00000000000E+00  0.45593999997E+02  0.45594000000E+02  0.51100000000E-03 0.  1.
         11   -1    0    0    0    0 -0.00000000000E+00 -0.00000000000E+00 -0.45593999997E+02  0.45594000000E+02  0.51100000000E-03 0. -1.
    9900012    2    1    2    0    0 -0.16830931736E+02  0.39289741029E+02  0.75272805017E+01  0.47787263082E+02  0.19999963697E+02 0.  0.
         12    1    1    2    0    0  0.16830931736E+02 -0.39289741029E+02 -0.75272805017E+01  0.43400736918E+02  0.00000000000E+00 0. -1.
         11    1    3    3    0    0  0.22431857832E+01  0.92530405419E+01 -0.52634214954E+00  0.95356005604E+01  0.51100000000E-03 0. -1.
        -11    1    3    3    0    0 -0.91842028851E+01  0.17375487026E+02  0.10029452611E+02  0.22064610850E+02  0.51100000000E-03 0.  1.
        -12    1    3    3    0    0 -0.98899146346E+01  0.12661213462E+02 -0.19758299599E+01  0.16187051672E+02  0.00000000000E+00 0.  1.
</event>
<event>
 7    1  0.2476315E-009  0.4778727E+02  0.7816164E-02  0.1312668E+00
        -11   -1    0    0    0    0  0.00000000000E+00  0.00000000000E+00  0.45593999997E+02  0.45594000000E+02  0.51100000000E-03 0.  1.
         11   -1    0    0    0    0 -0.00000000000E+00 -0.00000000000E+00 -0.45593999997E+02  0.45594000000E+02  0.51100000000E-03 0. -1.
    9900012    2    1    2    0    0  0.28730975733E+02 -0.29960673302E+02  0.12669358055E+02  0.47787267923E+02  0.19999985767E+02 0.  0.
         12    1    1    2    0    0 -0.28730975733E+02  0.29960673302E+02 -0.12669358055E+02  0.43400732077E+02  0.00000000000E+00 0. -1.
         11    1    3    3    0    0  0.24500552543E+01  0.24467423783E+01  0.15948907989E+01  0.38122166697E+01  0.51100000000E-03 0. -1.
        -11    1    3    3    0    0  0.16027711331E+02 -0.25696481553E+02  0.72981780460E+01  0.31152208553E+02  0.51100000000E-03 0.  1.
         12    1    3    3    0    0  0.10253209148E+02 -0.67109341278E+01  0.37762892103E+01  0.12822842700E+02  0.00000000000E+00 0. -1.
</event>
<event>
 7    1  0.2476315E-009  0.4778727E+02  0.7816164E-02  0.1312668E+00
        -11   -1    0    0    0    0  0.00000000000E+00  0.00000000000E+00  0.45593999997E+02  0.45594000000E+02  0.51100000000E-03 0.  1.
         11   -1    0    0    0    0 -0.00000000000E+00 -0.00000000000E+00 -0.45593999997E+02  0.45594000000E+02  0.51100000000E-03 0. -1.
    9900012    2    1    2    0    0 -0.52729717980E+01 -0.31192900963E+02  0.29712320320E+02  0.47787270963E+02  0.19999999630E+02 0.  0.
         12    1    1    2    0    0  0.52729717980E+01  0.31192900963E+02 -0.29712320320E+02  0.43400729037E+02  0.00000000000E+00 0. -1.
         11    1    3    3    0    0 -0.36373300891E+01 -0.13372509292E+02  0.36387590813E+01  0.14328110233E+02  0.51100000000E-03 0. -1.
        -11    1    3    3    0    0  0.40197676673E+01 -0.12736882964E+02  0.17061104488E+02  0.21667210396E+02  0.51100000000E-03 0.  1.
         12    1    3    3    0    0 -0.56554093761E+01 -0.50835087070E+01  0.90124567510E+01  0.11791950334E+02  0.00000000000E+00 0. -1.
</event>
<event>
 7    1  0.2476315E-009  0.4778727E+02  0.7816164E-02  0.1312668E+00
        -11   -1    0    0    0    0  0.00000000000E+00  0.00000000000E+00  0.45593999997E+02  0.45594000000E+02  0.51100000000E-03 0.  1.
         11   -1    0    0    0    0 -0.00000000000E+00 -0.00000000000E+00 -0.45593999997E+02  0.45594000000E+02  0.51100000000E-03 0. -1.
    9900012    2    1    2    0    0 -0.84000845664E+01 -0.31314991639E+02  0.28851915199E+02  0.47787272671E+02  0.20000007415E+02 0.  0.
         12    1    1    2    0    0  0.84000845664E+01  0.31314991639E+02 -0.28851915199E+02  0.43400727329E+02  0.00000000000E+00 0. -1.
         11    1    3    3    0    0 -0.91288008961E+00 -0.48228303600E+01  0.14835014083E+01  0.51277499382E+01  0.51100000000E-03 0. -1.
        -11    1    3    3    0    0 -0.11996958824E+02 -0.10639339849E+02  0.11107410638E+02  0.19506336017E+02  0.51100000000E-03 0.  1.
        -12    1    3    3    0    0  0.45097543475E+01 -0.15852821430E+02  0.16261003153E+02  0.23153186716E+02  0.00000000000E+00 0.  1.
</event>
<event>
 7    1  0.2476315E-009  0.4778727E+02  0.7816164E-02  0.1312668E+00
        -11   -1    0    0    0    0  0.00000000000E+00  0.00000000000E+00  0.45593999997E+02  0.45594000000E+02  0.51100000000E-03 0.  1.
         11   -1    0    0    0    0 -0.00000000000E+00 -0.00000000000E+00 -0.45593999997E+02  0.45594000000E+02  0.51100000000E-03 0. -1.
    9900012    2    1    2    0    0 -0.38908224360E+02  0.49947674098E+01  0.18569475985E+02  0.47787273478E+02  0.20000011094E+02 0.  0.
         12    1    1    2    0    0  0.38908224360E+02 -0.49947674098E+01 -0.18569475985E+02  0.43400726522E+02  0.00000000000E+00 0. -1.
         11    1    3    3    0    0 -0.18898209084E+01 -0.48804750800E+00 -0.30898779632E+01  0.36547174343E+01  0.51100000000E-03 0. -1.
        -11    1    3    3    0    0 -0.32959660046E+02  0.24413646341E+01  0.16662418726E+02  0.37012641755E+02  0.51100000000E-03 0.  1.
         12    1    3    3    0    0 -0.40587434048E+01  0.30414502838E+01  0.49969352221E+01  0.71199142880E+01  0.00000000000E+00 0. -1.
</event>
<event>
 7    1  0.2476315E-009  0.4778727E+02  0.7816164E-02  0.1312668E+00
        -11   -1    0    0    0    0  0.00000000000E+00  0.00000000000E+00  0.45593999997E+02  0.45594000000E+02  0.51100000000E-03 0.  1.
         11   -1    0    0    0    0 -0.00000000000E+00 -0.00000000000E+00 -0.45593999997E+02  0.45594000000E+02  0.51100000000E-03 0. -1.
    9900012    2    1    2    0    0 -0.30649377138E+02 -0.25946199080E+02  0.16463099823E+02  0.47787271649E+02  0.20000002755E+02 0.  0.
         12    1    1    2    0    0  0.30649377138E+02  0.25946199080E+02 -0.16463099823E+02  0.43400728351E+02  0.00000000000E+00 0. -1.
         11    1    3    3    0    0 -0.18848061878E+02 -0.14158714164E+02  0.13194288499E+02  0.27014956461E+02  0.51100000000E-03 0. -1.
        -11    1    3    3    0    0  0.20040346490E+01 -0.63572640966E+00 -0.12674194816E+01  0.24549247128E+01  0.51100000000E-03 0.  1.
        -12    1    3    3    0    0 -0.13805349909E+02 -0.11151758506E+02  0.45362308057E+01  0.18317390475E+02  0.00000000000E+00 0.  1.
</event>
<event>
 7    1  0.2476315E-009  0.4778727E+02  0.7816164E-02  0.1312668E+00
        -11   -1    0    0    0    0  0.00000000000E+00  0.00000000000E+00  0.45593999997E+02  0.45594000000E+02  0.51100000000E-03 0.  1.
         11   -1    0    0    0    0 -0.00000000000E+00 -0.00000000000E+00 -0.45593999997E+02  0.45594000000E+02  0.51100000000E-03 0. -1.
    9900012    2    1    2    0    0 -0.34803224263E+02 -0.31042837451E+01  0.25743386862E+02  0.47787274616E+02  0.20000016286E+02 0.  0.
         12    1    1    2    0    0  0.34803224263E+02  0.31042837451E+01 -0.25743386862E+02  0.43400725384E+02  0.00000000000E+00 0. -1.
         11    1    3    3    0    0 -0.86742417377E+01  0.11283231803E+01  0.33597652293E+01  0.93703578149E+01  0.51100000000E-03 0. -1.
        -11    1    3    3    0    0 -0.25476176354E+02 -0.28869650273E+01  0.12688543832E+02  0.28607154237E+02  0.51100000000E-03 0.  1.
        -12    1    3    3    0    0 -0.65280617182E+00 -0.13456418981E+01  0.96950778008E+01  0.98097625649E+01  0.00000000000E+00 0.  1.
</event>
<event>
 7    1  0.2476315E-009  0.4778726E+02  0.7816164E-02  0.1312668E+00
        -11   -1    0    0    0    0  0.00000000000E+00  0.00000000000E+00  0.45593999997E+02  0.45594000000E+02  0.51100000000E-03 0.  1.
         11   -1    0    0    0    0 -0.00000000000E+00 -0.00000000000E+00 -0.45593999997E+02  0.45594000000E+02  0.51100000000E-03 0. -1.
    9900012    2    1    2    0    0 -0.33688041607E+02 -0.41138496875E+01  0.27052111284E+02  0.47787255404E+02  0.19999928689E+02 0.  0.
         12    1    1    2    0    0  0.33688041607E+02  0.41138496875E+01 -0.27052111284E+02  0.43400744596E+02  0.00000000000E+00 0. -1.
         11    1    3    3    0    0 -0.49864504654E+01  0.54850492483E+01  0.97510075914E+01  0.12248779646E+02  0.51100000000E-03 0. -1.
        -11    1    3    3    0    0 -0.13629623168E+02 -0.57232625012E+01  0.46923734414E+01  0.15509375556E+02  0.51100000000E-03 0.  1.
         12    1    3    3    0    0 -0.15071967974E+02 -0.38756364346E+01  0.12608730251E+02  0.20029100202E+02  0.00000000000E+00 0. -1.
</event>
<event>
 7    1  0.2476315E-009  0.4778727E+02  0.7816164E-02  0.1312668E+00
        -11   -1    0    0    0    0  0.00000000000E+00  0.00000000000E+00  0.45593999997E+02  0.45594000000E+02  0.51100000000E-03 0.  1.
         11   -1    0    0    0    0 -0.00000000000E+00 -0.00000000000E+00 -0.45593999997E+02  0.45594000000E+02  0.51100000000E-03 0. -1.
    9900012    2    1    2    0    0  0.16188056959E+02 -0.30705312748E+01  0.40151487002E+02  0.47787271217E+02  0.20000000788E+02 0.  0.
         12    1    1    2    0    0 -0.16188056959E+02  0.30705312748E+01 -0.40151487002E+02  0.43400728783E+02  0.00000000000E+00 0. -1.
         11    1    3    3    0    0 -0.25452292638E+01 -0.38054927998E+00  0.13810957436E+02  0.14048685181E+02  0.51100000000E-03 0. -1.
        -11    1    3    3    0    0  0.12773706261E+02  0.24232529539E+01  0.18753423158E+02  0.22819522496E+02  0.51100000000E-03 0.  1.
         12    1    3    3    0    0  0.59595799620E+01 -0.51132349487E+01  0.75871064076E+01  0.10919063541E+02  0.00000000000E+00 0. -1.
</event>
<event>
 7    1  0.2476315E-009  0.4778727E+02  0.7816164E-02  0.1312668E+00
        -11   -1    0    0    0    0  0.00000000000E+00  0.00000000000E+00  0.45593999997E+02  0.45594000000E+02  0.51100000000E-03 0.  1.
         11   -1    0    0    0    0 -0.00000000000E+00 -0.00000000000E+00 -0.45593999997E+02  0.45594000000E+02  0.51100000000E-03 0. -1.
    9900012    2    1    2    0    0  0.27295429075E+02 -0.62481432221E+01  0.33159365185E+02  0.47787271417E+02  0.20000001697E+02 0.  0.
         12    1    1    2    0    0 -0.27295429075E+02  0.62481432221E+01 -0.33159365185E+02  0.43400728583E+02  0.00000000000E+00 0. -1.
         11    1    3    3    0    0  0.16823733747E+02 -0.27313296034E+01  0.20553051465E+02  0.26700676085E+02  0.51100000000E-03 0.  1.
        -11    1    3    3    0    0  0.12301068868E+01 -0.41926558580E+01 -0.11336160530E+01  0.45140460469E+01  0.51100000000E-03 0. -1.
        -12    1    3    3    0    0  0.92415884415E+01  0.67584223931E+00  0.13739929772E+02  0.16572549285E+02  0.00000000000E+00 0.  1.
</event>
<event>
 7    1  0.2476315E-009  0.4778727E+02  0.7816164E-02  0.1312668E+00
        -11   -1    0    0    0    0  0.00000000000E+00  0.00000000000E+00  0.45593999997E+02  0.45594000000E+02  0.51100000000E-03 0.  1.
         11   -1    0    0    0    0 -0.00000000000E+00 -0.00000000000E+00 -0.45593999997E+02  0.45594000000E+02  0.51100000000E-03 0. -1.
    9900012    2    1    2    0    0 -0.13973311276E+02  0.40507383315E+02 -0.68936255218E+01  0.47787267243E+02  0.19999982668E+02 0.  0.
         12    1    1    2    0    0  0.13973311276E+02 -0.40507383315E+02  0.68936255218E+01  0.43400732757E+02  0.00000000000E+00 0. -1.
         11    1    3    3    0    0 -0.50731694811E+01  0.20408932765E+01 -0.58547296631E+01  0.80112516899E+01  0.51100000000E-03 0. -1.
        -11    1    3    3    0    0 -0.72817449749E+01  0.23249538590E+02 -0.19857556480E+01  0.24443978405E+02  0.51100000000E-03 0.  1.
         12    1    3    3    0    0 -0.16183968200E+01  0.15216951448E+02  0.94685978925E+00  0.15332037148E+02  0.00000000000E+00 0. -1.
</event>
<event>
 7    1  0.2476315E-009  0.4778728E+02  0.7816164E-02  0.1312668E+00
        -11   -1    0    0    0    0  0.00000000000E+00  0.00000000000E+00  0.45593999997E+02  0.45594000000E+02  0.51100000000E-03 0. -1.
         11   -1    0    0    0    0 -0.00000000000E+00 -0.00000000000E+00 -0.45593999997E+02  0.45594000000E+02  0.51100000000E-03 0.  1.
    9900012    2    1    2    0    0 -0.26126508729E+02  0.22736132058E+01  0.34581191386E+02  0.47787279118E+02  0.20000036812E+02 0.  0.
         12    1    1    2    0    0  0.26126508729E+02 -0.22736132058E+01 -0.34581191386E+02  0.43400720882E+02  0.00000000000E+00 0. -1.
         11    1    3    3    0    0 -0.10837306994E+02 -0.60218441524E+00  0.23431424258E+02  0.25823274231E+02  0.51100000000E-03 0. -1.
        -11    1    3    3    0    0 -0.13780637929E+02  0.20971863205E+01  0.38383918238E+01  0.14458126581E+02  0.51100000000E-03 0.  1.
         12    1    3    3    0    0 -0.15085638063E+01  0.77861130060E+00  0.73113753041E+01  0.75058783065E+01  0.00000000000E+00 0. -1.
</event>
<event>
 7    1  0.2476315E-009  0.4778727E+02  0.7816164E-02  0.1312668E+00
        -11   -1    0    0    0    0  0.00000000000E+00  0.00000000000E+00  0.45593999997E+02  0.45594000000E+02  0.51100000000E-03 0. -1.
         11   -1    0    0    0    0 -0.00000000000E+00 -0.00000000000E+00 -0.45593999997E+02  0.45594000000E+02  0.51100000000E-03 0.  1.
    9900012    2    1    2    0    0  0.36461201245E+02  0.21916330633E+02  0.85952534779E+01  0.47787272736E+02  0.20000007715E+02 0.  0.
         12    1    1    2    0    0 -0.36461201245E+02 -0.21916330633E+02 -0.85952534779E+01  0.43400727264E+02  0.00000000000E+00 0. -1.
         11    1    3    3    0    0  0.26944862493E+00  0.61263621810E+01 -0.15486554557E+01  0.63248122594E+01  0.51100000000E-03 0. -1.
        -11    1    3    3    0    0  0.17597044891E+02  0.11784791701E+02  0.51093421881E+01  0.21786295743E+02  0.51100000000E-03 0.  1.
         12    1    3    3    0    0  0.18594707729E+02  0.40051767510E+01  0.50345667455E+01  0.19676164734E+02  0.00000000000E+00 0. -1.
</event>
<event>
 7    1  0.2476315E-009  0.4778728E+02  0.7816164E-02  0.1312668E+00
        -11   -1    0    0    0    0  0.00000000000E+00  0.00000000000E+00  0.45593999997E+02  0.45594000000E+02  0.51100000000E-03 0.  1.
         11   -1    0    0    0    0 -0.00000000000E+00 -0.00000000000E+00 -0.45593999997E+02  0.45594000000E+02  0.51100000000E-03 0. -1.
    9900012    2    1    2    0    0  0.50431791469E+01 -0.42837117093E+02 -0.48135924224E+01  0.47787275020E+02  0.20000018127E+02 0.  0.
         12    1    1    2    0    0 -0.50431791469E+01  0.42837117093E+02  0.48135924224E+01  0.43400724980E+02  0.00000000000E+00 0. -1.
         11    1    3    3    0    0  0.90846077939E+01 -0.13881684568E+02  0.10744344952E+01  0.16624851126E+02  0.51100000000E-03 0. -1.
        -11    1    3    3    0    0 -0.17704689966E+01 -0.28118070454E+02 -0.56002193521E+01  0.28724952629E+02  0.51100000000E-03 0.  1.
         12    1    3    3    0    0 -0.22709596503E+01 -0.83736207163E+00 -0.28780756558E+00  0.24374712649E+01  0.00000000000E+00 0. -1.
</event>
<event>
 7    1  0.2476315E-009  0.4778727E+02  0.7816164E-02  0.1312668E+00
        -11   -1    0    0    0    0  0.00000000000E+00  0.00000000000E+00  0.45593999997E+02  0.45594000000E+02  0.51100000000E-03 0. -1.
         11   -1    0    0    0    0 -0.00000000000E+00 -0.00000000000E+00 -0.45593999997E+02  0.45594000000E+02  0.51100000000E-03 0.  1.
    9900012    2    1    2    0    0 -0.67975137593E+01 -0.51745702160E+01 -0.42551626652E+02  0.47787270732E+02  0.19999998577E+02 0.  0.
         12    1    1    2    0    0  0.67975137593E+01  0.51745702160E+01  0.42551626652E+02  0.43400729268E+02  0.00000000000E+00 0. -1.
         11    1    3    3    0    0  0.42583697860E+01  0.16419512275E+01 -0.81062990875E+01  0.93027846490E+01  0.51100000000E-03 0. -1.
        -11    1    3    3    0    0 -0.96096106107E+01 -0.84441449665E+01 -0.33909353465E+02  0.36242136430E+02  0.51100000000E-03 0.  1.
         12    1    3    3    0    0 -0.14462729346E+01  0.16276235229E+01 -0.53597409918E+00  0.22423496536E+01  0.00000000000E+00 0. -1.
</event>
<event>
 7    1  0.2476315E-009  0.4778725E+02  0.7816164E-02  0.1312668E+00
        -11   -1    0    0    0    0  0.00000000000E+00  0.00000000000E+00  0.45593999997E+02  0.45594000000E+02  0.51100000000E-03 0. -1.
         11   -1    0    0    0    0 -0.00000000000E+00 -0.00000000000E+00 -0.45593999997E+02  0.45594000000E+02  0.51100000000E-03 0.  1.
    9900012    2    1    2    0    0 -0.96992594000E+01  0.39135746878E+02 -0.16060605496E+02  0.47787246947E+02  0.19999890131E+02 0.  0.
         12    1    1    2    0    0  0.96992594000E+01 -0.39135746878E+02  0.16060605496E+02  0.43400753053E+02  0.00000000000E+00 0. -1.
         11    1    3    3    0    0 -0.18400839652E+01  0.44204402577E+01 -0.23087272422E+00  0.47936941441E+01  0.51100000000E-03 0. -1.
        -11    1    3    3    0    0  0.41772374117E+01  0.29658010972E+01 -0.54686720806E+01  0.74934413408E+01  0.51100000000E-03 0.  1.
        -12    1    3    3    0    0 -0.12036412847E+02  0.31749505523E+02 -0.10361060691E+02  0.35500111462E+02  0.00000000000E+00 0.  1.
</event>
<event>
 7    1  0.2476315E-009  0.4778727E+02  0.7816164E-02  0.1312668E+00
        -11   -1    0    0    0    0  0.00000000000E+00  0.00000000000E+00  0.45593999997E+02  0.45594000000E+02  0.51100000000E-03 0.  1.
         11   -1    0    0    0    0 -0.00000000000E+00 -0.00000000000E+00 -0.45593999997E+02  0.45594000000E+02  0.51100000000E-03 0. -1.
    9900012    2    1    2    0    0  0.15173295681E+02  0.23446194203E+01  0.40594295885E+02  0.47787274194E+02  0.20000014362E+02 0.  0.
         12    1    1    2    0    0 -0.15173295681E+02 -0.23446194203E+01 -0.40594295885E+02  0.43400725806E+02  0.00000000000E+00 0. -1.
         11    1    3    3    0    0 -0.19411329629E+01  0.96408431361E+00  0.40438295013E+01  0.45880293199E+01  0.51100000000E-03 0. -1.
        -11    1    3    3    0    0  0.52642232134E+01 -0.40000973373E+01  0.24795791425E+02  0.25662114048E+02  0.51100000000E-03 0.  1.
        -12    1    3    3    0    0  0.11850205431E+02  0.53806324440E+01  0.11754674958E+02  0.17537130827E+02  0.00000000000E+00 0.  1.
</event>
<event>
 7    1  0.2476315E-009  0.4778727E+02  0.7816164E-02  0.1312668E+00
        -11   -1    0    0    0    0  0.00000000000E+00  0.00000000000E+00  0.45593999997E+02  0.45594000000E+02  0.51100000000E-03 0.  1.
         11   -1    0    0    0    0 -0.00000000000E+00 -0.00000000000E+00 -0.45593999997E+02  0.45594000000E+02  0.51100000000E-03 0. -1.
    9900012    2    1    2    0    0  0.14075453450E+02  0.31193217751E+02  0.26692474133E+02  0.47787269605E+02  0.19999993438E+02 0.  0.
         12    1    1    2    0    0 -0.14075453450E+02 -0.31193217751E+02 -0.26692474133E+02  0.43400730395E+02  0.00000000000E+00 0. -1.
         11    1    3    3    0    0  0.11873903719E+02  0.69246817252E+01  0.12672549742E+02  0.18695837070E+02  0.51100000000E-03 0. -1.
        -11    1    3    3    0    0  0.41760260421E+01  0.19224721204E+02  0.87393964004E+01  0.21526870385E+02  0.51100000000E-03 0.  1.
         12    1    3    3    0    0 -0.19744763114E+01  0.50438148213E+01  0.52805279903E+01  0.75645621494E+01  0.00000000000E+00 0. -1.
</event>
<event>
 7    1  0.2476315E-009  0.4778728E+02  0.7816164E-02  0.1312668E+00
        -11   -1    0    0    0    0  0.00000000000E+00  0.00000000000E+00  0.45593999997E+02  0.45594000000E+02  0.51100000000E-03 0.  1.
         11   -1    0    0    0    0 -0.00000000000E+00 -0.00000000000E+00 -0.45593999997E+02  0.45594000000E+02  0.51100000000E-03 0. -1.
    9900012    2    1    2    0    0  0.26253089610E+02  0.13434415964E+02  0.31842026121E+02  0.47787275653E+02  0.20000021011E+02 0.  0.
         12    1    1    2    0    0 -0.26253089610E+02 -0.13434415964E+02 -0.31842026121E+02  0.43400724347E+02  0.00000000000E+00 0. -1.
         11    1    3    3    0    0  0.12641188469E+02  0.14092115495E+02  0.15028747460E+02  0.24171276663E+02  0.51100000000E-03 0. -1.
        -11    1    3    3    0    0  0.45916661196E+01 -0.38023964592E+01  0.26306779406E+01  0.65162936762E+01  0.51100000000E-03 0.  1.
        -12    1    3    3    0    0  0.90202350218E+01  0.31446969279E+01  0.14182600720E+02  0.17099705313E+02  0.00000000000E+00 0.  1.
</event>
<event>
 7    1  0.2476315E-009  0.4778727E+02  0.7816164E-02  0.1312668E+00
        -11   -1    0    0    0    0  0.00000000000E+00  0.00000000000E+00  0.45593999997E+02  0.45594000000E+02  0.51100000000E-03 0. -1.
         11   -1    0    0    0    0 -0.00000000000E+00 -0.00000000000E+00 -0.45593999997E+02  0.45594000000E+02  0.51100000000E-03 0.  1.
    9900012    2    1    2    0    0 -0.48786515441E+01  0.38993982080E+02 -0.18419869299E+02  0.47787268850E+02  0.19999989995E+02 0.  0.
         12    1    1    2    0    0  0.48786515441E+01 -0.38993982080E+02  0.18419869299E+02  0.43400731150E+02  0.00000000000E+00 0. -1.
         11    1    3    3    0    0  0.24166319967E+01  0.21943246434E+02 -0.13750797986E+02  0.26008279832E+02  0.51100000000E-03 0.  1.
        -11    1    3    3    0    0 -0.96673576539E+01  0.10479980916E+02 -0.25982660655E+01  0.14492715095E+02  0.51100000000E-03 0. -1.
         12    1    3    3    0    0  0.23720741131E+01  0.65707547299E+01 -0.20708052472E+01  0.72862739236E+01  0.00000000000E+00 0. -1.
</event>
<event>
 7    1  0.2476315E-009  0.4778727E+02  0.7816164E-02  0.1312668E+00
        -11   -1    0    0    0    0  0.00000000000E+00  0.00000000000E+00  0.45593999997E+02  0.45594000000E+02  0.51100000000E-03 0.  1.
         11   -1    0    0    0    0 -0.00000000000E+00 -0.00000000000E+00 -0.45593999997E+02  0.45594000000E+02  0.51100000000E-03 0. -1.
    9900012    2    1    2    0    0 -0.14586435722E+01  0.33440964832E+02  0.27626036352E+02  0.47787266660E+02  0.19999980008E+02 0.  0.
         12    1    1    2    0    0  0.14586435722E+01 -0.33440964832E+02 -0.27626036352E+02  0.43400733340E+02  0.00000000000E+00 0. -1.
         11    1    3    3    0    0 -0.61282603584E+01  0.40288669516E+01  0.15097014273E+01  0.74877595177E+01  0.51100000000E-03 0. -1.
        -11    1    3    3    0    0  0.36809853323E+01  0.29408000919E+02  0.24748340918E+02  0.38611663387E+02  0.51100000000E-03 0.  1.
        -12    1    3    3    0    0  0.98863145394E+00  0.40969607372E-02  0.13679940071E+01  0.16878437547E+01  0.00000000000E+00 0.  1.
</event>
<event>
 7    1  0.2476315E-009  0.4778727E+02  0.7816164E-02  0.1312668E+00
        -11   -1    0    0    0    0  0.00000000000E+00  0.00000000000E+00  0.45593999997E+02  0.45594000000E+02  0.51100000000E-03 0. -1.
         11   -1    0    0    0    0 -0.00000000000E+00 -0.00000000000E+00 -0.45593999997E+02  0.45594000000E+02  0.51100000000E-03 0.  1.
    9900012    2    1    2    0    0 -0.38366548743E+02  0.65670120777E+01 -0.19196506853E+02  0.47787267455E+02  0.19999983635E+02 0.  0.
         12    1    1    2    0    0  0.38366548743E+02 -0.65670120777E+01  0.19196506853E+02  0.43400732545E+02  0.00000000000E+00 0. -1.
         11    1    3    3    0    0 -0.16291670552E+02  0.64522949984E+01 -0.85587006173E+00  0.17543749712E+02  0.51100000000E-03 0. -1.
        -11    1    3    3    0    0 -0.22252621293E+02 -0.15638503824E+01 -0.16503687173E+02  0.27748810299E+02  0.51100000000E-03 0.  1.
         12    1    3    3    0    0  0.17774310253E+00  0.16785674617E+01 -0.18369496174E+01  0.24947074440E+01  0.00000000000E+00 0. -1.
</event>
<event>
 7    1  0.2476315E-009  0.4778727E+02  0.7816164E-02  0.1312668E+00
        -11   -1    0    0    0    0  0.00000000000E+00  0.00000000000E+00  0.45593999997E+02  0.45594000000E+02  0.51100000000E-03 0.  1.
         11   -1    0    0    0    0 -0.00000000000E+00 -0.00000000000E+00 -0.45593999997E+02  0.45594000000E+02  0.51100000000E-03 0. -1.
    9900012    2    1    2    0    0 -0.16668650684E+02  0.16126036006E+02  0.36684194150E+02  0.47787273585E+02  0.20000011586E+02 0.  0.
         12    1    1    2    0    0  0.16668650684E+02 -0.16126036006E+02 -0.36684194150E+02  0.43400726415E+02  0.00000000000E+00 0. -1.
         11    1    3    3    0    0  0.18822842329E+01  0.52251453429E+01  0.10294588282E+02  0.11697165723E+02  0.51100000000E-03 0.  1.
        -11    1    3    3    0    0 -0.99328891547E+01 -0.92689915732E+00  0.11158572489E+02  0.14967804423E+02  0.51100000000E-03 0. -1.
        -12    1    3    3    0    0 -0.86180457627E+01  0.11827789820E+02  0.15231033379E+02  0.21122303439E+02  0.00000000000E+00 0.  1.
</event>
<event>
 7    1  0.2476315E-009  0.4778727E+02  0.7816164E-02  0.1312668E+00
        -11   -1    0    0    0    0  0.00000000000E+00  0.00000000000E+00  0.45593999997E+02  0.45594000000E+02  0.51100000000E-03 0. -1.
         11   -1    0    0    0    0 -0.00000000000E+00 -0.00000000000E+00 -0.45593999997E+02  0.45594000000E+02  0.51100000000E-03 0.  1.
    9900012    2    1    2    0    0 -0.59629012400E+01  0.20410161316E+02 -0.37835067364E+02  0.47787271912E+02  0.20000003955E+02 0.  0.
         12    1    1    2    0    0  0.59629012400E+01 -0.20410161316E+02  0.37835067364E+02  0.43400728088E+02  0.00000000000E+00 0. -1.
         11    1    3    3    0    0  0.14711632097E+01  0.21325088301E+01  0.13368323128E+01  0.29153106170E+01  0.51100000000E-03 0. -1.
        -11    1    3    3    0    0 -0.14439938026E+01  0.97603771645E+01 -0.27571224405E+02  0.29283485038E+02  0.51100000000E-03 0.  1.
         12    1    3    3    0    0 -0.59900706471E+01  0.85172753219E+01 -0.11600675271E+02  0.15588476257E+02  0.00000000000E+00 0. -1.
</event>
<event>
 7    1  0.2476315E-009  0.4778727E+02  0.7816164E-02  0.1312668E+00
        -11   -1    0    0    0    0  0.00000000000E+00  0.00000000000E+00  0.45593999997E+02  0.45594000000E+02  0.51100000000E-03 0.  1.
         11   -1    0    0    0    0 -0.00000000000E+00 -0.00000000000E+00 -0.45593999997E+02  0.45594000000E+02  0.51100000000E-03 0. -1.
    9900012    2    1    2    0    0  0.40943945155E+02 -0.14136947367E+02  0.27135810304E+01  0.47787269042E+02  0.19999990868E+02 0.  0.
         12    1    1    2    0    0 -0.40943945155E+02  0.14136947367E+02 -0.27135810304E+01  0.43400730958E+02  0.00000000000E+00 0. -1.
         11    1    3    3    0    0  0.34176613396E+01  0.25672395261E+01 -0.52233107268E+00  0.43062695953E+01  0.51100000000E-03 0. -1.
        -11    1    3    3    0    0  0.36327462035E+02 -0.11718075342E+02  0.20991717922E+01  0.38228318169E+02  0.51100000000E-03 0.  1.
        -12    1    3    3    0    0  0.11988217809E+01 -0.49861115511E+01  0.11367403110E+01  0.52526812769E+01  0.00000000000E+00 0.  1.
</event>
<event>
 7    1  0.2476315E-009  0.4778727E+02  0.7816164E-02  0.1312668E+00
        -11   -1    0    0    0    0  0.00000000000E+00  0.00000000000E+00  0.45593999997E+02  0.45594000000E+02  0.51100000000E-03 0.  1.
         11   -1    0    0    0    0 -0.00000000000E+00 -0.00000000000E+00 -0.45593999997E+02  0.45594000000E+02  0.51100000000E-03 0. -1.
    9900012    2    1    2    0    0 -0.12312811309E+02 -0.20692541901E+02  0.36108674943E+02  0.47787273983E+02  0.20000013398E+02 0.  0.
         12    1    1    2    0    0  0.12312811309E+02  0.20692541901E+02 -0.36108674943E+02  0.43400726017E+02  0.00000000000E+00 0. -1.
         11    1    3    3    0    0 -0.57754889087E+01 -0.48029682316E+01  0.31942638098E+01  0.81626035991E+01  0.51100000000E-03 0.  1.
        -11    1    3    3    0    0  0.75767266538E+00  0.47958327827E+00  0.12204202063E+02  0.12237099993E+02  0.51100000000E-03 0. -1.
        -12    1    3    3    0    0 -0.72949950656E+01 -0.16369156947E+02  0.20710209071E+02  0.27387570391E+02  0.00000000000E+00 0.  1.
</event>
<event>
 7    1  0.2476315E-009  0.4778727E+02  0.7816164E-02  0.1312668E+00
        -11   -1    0    0    0    0  0.00000000000E+00  0.00000000000E+00  0.45593999997E+02  0.45594000000E+02  0.51100000000E-03 0. -1.
         11   -1    0    0    0    0 -0.00000000000E+00 -0.00000000000E+00 -0.45593999997E+02  0.45594000000E+02  0.51100000000E-03 0.  1.
    9900012    2    1    2    0    0  0.22412611978E+02  0.36478042969E+02  0.71169104335E+01  0.47787271796E+02  0.20000003426E+02 0.  0.
         12    1    1    2    0    0 -0.22412611978E+02 -0.36478042969E+02 -0.71169104335E+01  0.43400728204E+02  0.00000000000E+00 0. -1.
         11    1    3    3    0    0  0.51243206444E+01  0.65448323878E+01  0.30728432505E+01  0.88620459802E+01  0.51100000000E-03 0. -1.
        -11    1    3    3    0    0  0.13779376119E+02  0.20517054308E+02  0.10637154559E+02  0.26906686549E+02  0.51100000000E-03 0.  1.
        -12    1    3    3    0    0  0.35089152145E+01  0.94161562736E+01 -0.65930873756E+01  0.12018539266E+02  0.00000000000E+00 0.  1.
</event>
<event>
 7    1  0.2476315E-009  0.4778727E+02  0.7816164E-02  0.1312668E+00
        -11   -1    0    0    0    0  0.00000000000E+00  0.00000000000E+00  0.45593999997E+02  0.45594000000E+02  0.51100000000E-03 0.  1.
         11   -1    0    0    0    0 -0.00000000000E+00 -0.00000000000E+00 -0.45593999997E+02  0.45594000000E+02  0.51100000000E-03 0. -1.
    9900012    2    1    2    0    0  0.85652184459E-01 -0.41053273038E+02  0.14079943587E+02  0.47787269882E+02  0.19999994698E+02 0.  0.
         12    1    1    2    0    0 -0.85652184459E-01  0.41053273038E+02 -0.14079943587E+02  0.43400730118E+02  0.00000000000E+00 0. -1.
         11    1    3    3    0    0 -0.31464544866E+01 -0.16376171212E+02  0.66639913990E+01  0.17957949244E+02  0.51100000000E-03 0. -1.
        -11    1    3    3    0    0  0.12292059618E+01 -0.16781273189E+02 -0.24842637148E+01  0.17008634384E+02  0.51100000000E-03 0.  1.
        -12    1    3    3    0    0  0.20029007093E+01 -0.78958286365E+01  0.99002159025E+01  0.12820686254E+02  0.00000000000E+00 0.  1.
</event>
<event>
 7    1  0.2476315E-009  0.4778726E+02  0.7816164E-02  0.1312668E+00
        -11   -1    0    0    0    0  0.00000000000E+00  0.00000000000E+00  0.45593999997E+02  0.45594000000E+02  0.51100000000E-03 0.  1.
         11   -1    0    0    0    0 -0.00000000000E+00 -0.00000000000E+00 -0.45593999997E+02  0.45594000000E+02  0.51100000000E-03 0. -1.
    9900012    2    1    2    0    0  0.16659770834E+02  0.34918108040E+02  0.19667273493E+02  0.47787264062E+02  0.19999968163E+02 0.  0.
         12    1    1    2    0    0 -0.16659770834E+02 -0.34918108040E+02 -0.19667273493E+02  0.43400735938E+02  0.00000000000E+00 0. -1.
         11    1    3    3    0    0 -0.34447701635E+01  0.57811623576E+01  0.42498283388E+01  0.79592286595E+01  0.51100000000E-03 0. -1.
        -11    1    3    3    0    0  0.10573451968E+02  0.22042606694E+02  0.75844815109E+01  0.25596850518E+02  0.51100000000E-03 0.  1.
         12    1    3    3    0    0  0.95310890297E+01  0.70943389887E+01  0.78329636433E+01  0.14231184885E+02  0.00000000000E+00 0. -1.
</event>
<event>
 7    1  0.2476315E-009  0.4778727E+02  0.7816164E-02  0.1312668E+00
        -11   -1    0    0    0    0  0.00000000000E+00  0.00000000000E+00  0.45593999997E+02  0.45594000000E+02  0.51100000000E-03 0.  1.
         11   -1    0    0    0    0 -0.00000000000E+00 -0.00000000000E+00 -0.45593999997E+02  0.45594000000E+02  0.51100000000E-03 0. -1.
    9900012    2    1    2    0    0  0.26414448410E+02 -0.23069464166E+02  0.25567561299E+02  0.47787268987E+02  0.19999990619E+02 0.  0.
         12    1    1    2    0    0 -0.26414448410E+02  0.23069464166E+02 -0.25567561299E+02  0.43400731013E+02  0.00000000000E+00 0. -1.
         11    1    3    3    0    0  0.30084240864E+01  0.13247048438E+01 -0.17630080303E+01  0.37301013368E+01  0.51100000000E-03 0. -1.
        -11    1    3    3    0    0  0.18838272148E+02 -0.21918662690E+02  0.20314370828E+02  0.35326787768E+02  0.51100000000E-03 0.  1.
        -12    1    3    3    0    0  0.45677521755E+01 -0.24755063201E+01  0.70161985013E+01  0.87303798822E+01  0.00000000000E+00 0.  1.
</event>
<event>
 7    1  0.2476315E-009  0.4778726E+02  0.7816164E-02  0.1312668E+00
        -11   -1    0    0    0    0  0.00000000000E+00  0.00000000000E+00  0.45593999997E+02  0.45594000000E+02  0.51100000000E-03 0. -1.
         11   -1    0    0    0    0 -0.00000000000E+00 -0.00000000000E+00 -0.45593999997E+02  0.45594000000E+02  0.51100000000E-03 0.  1.
    9900012    2    1    2    0    0  0.25092350825E+02 -0.25999486538E+02 -0.24042153243E+02  0.47787256887E+02  0.19999935451E+02 0.  0.
         12    1    1    2    0    0 -0.25092350825E+02  0.25999486538E+02  0.24042153243E+02  0.43400743113E+02  0.00000000000E+00 0. -1.
         11    1    3    3    0    0  0.27526283369E+01 -0.61048168388E+01 -0.36331466703E+01  0.76187601607E+01  0.51100000000E-03 0. -1.
        -11    1    3    3    0    0  0.25081963581E+02 -0.18554394768E+02 -0.20071488991E+02  0.37097643226E+02  0.51100000000E-03 0.  1.
        -12    1    3    3    0    0 -0.27422410932E+01 -0.13402749312E+01 -0.33751758154E+00  0.30708535006E+01  0.00000000000E+00 0.  1.
</event>
<event>
 7    1  0.2476315E-009  0.4778727E+02  0.7816164E-02  0.1312668E+00
        -11   -1    0    0    0    0  0.00000000000E+00  0.00000000000E+00  0.45593999997E+02  0.45594000000E+02  0.51100000000E-03 0.  1.
         11   -1    0    0    0    0 -0.00000000000E+00 -0.00000000000E+00 -0.45593999997E+02  0.45594000000E+02  0.51100000000E-03 0. -1.
    9900012    2    1    2    0    0 -0.37226387515E+02 -0.91218003690E+01  0.20362024967E+02  0.47787271548E+02  0.20000002296E+02 0.  0.
         12    1    1    2    0    0  0.37226387515E+02  0.91218003690E+01 -0.20362024967E+02  0.43400728452E+02  0.00000000000E+00 0. -1.
         11    1    3    3    0    0 -0.13295589215E+02 -0.81527993040E+01  0.13019393332E+02  0.20316137233E+02  0.51100000000E-03 0. -1.
        -11    1    3    3    0    0 -0.19886519417E+02 -0.25095397812E+00  0.99822319451E+00  0.19913138432E+02  0.51100000000E-03 0.  1.
        -12    1    3    3    0    0 -0.40442788835E+01 -0.71804708685E+00  0.63444084407E+01  0.75579958831E+01  0.00000000000E+00 0.  1.
</event>
<event>
 7    1  0.2476315E-009  0.4778727E+02  0.7816164E-02  0.1312668E+00
        -11   -1    0    0    0    0  0.00000000000E+00  0.00000000000E+00  0.45593999997E+02  0.45594000000E+02  0.51100000000E-03 0.  1.
         11   -1    0    0    0    0 -0.00000000000E+00 -0.00000000000E+00 -0.45593999997E+02  0.45594000000E+02  0.51100000000E-03 0. -1.
    9900012    2    1    2    0    0 -0.42532148862E+02 -0.83120688913E+00  0.85993429325E+01  0.47787270852E+02  0.19999999121E+02 0.  0.
         12    1    1    2    0    0  0.42532148862E+02  0.83120688913E+00 -0.85993429325E+01  0.43400729148E+02  0.00000000000E+00 0. -1.
         11    1    3    3    0    0 -0.22143729547E+02  0.28822808766E+01  0.78780960968E+01  0.23679457334E+02  0.51100000000E-03 0. -1.
        -11    1    3    3    0    0 -0.65053096212E+01 -0.68991783165E+01 -0.17739261745E+01  0.96469958559E+01  0.51100000000E-03 0.  1.
        -12    1    3    3    0    0 -0.13883109695E+02  0.31856905508E+01  0.24951730101E+01  0.14460817661E+02  0.00000000000E+00 0.  1.
</event>
<event>
 7    1  0.2476315E-009  0.4778727E+02  0.7816164E-02  0.1312668E+00
        -11   -1    0    0    0    0  0.00000000000E+00  0.00000000000E+00  0.45593999997E+02  0.45594000000E+02  0.51100000000E-03 0.  1.
         11   -1    0    0    0    0 -0.00000000000E+00 -0.00000000000E+00 -0.45593999997E+02  0.45594000000E+02  0.51100000000E-03 0. -1.
    9900012    2    1    2    0    0 -0.40859170319E+02 -0.20654139742E+01  0.14487415286E+02  0.47787274940E+02  0.20000017762E+02 0.  0.
         12    1    1    2    0    0  0.40859170319E+02  0.20654139742E+01 -0.14487415286E+02  0.43400725060E+02  0.00000000000E+00 0. -1.
         11    1    3    3    0    0 -0.59384713612E-01  0.16899174026E+01  0.92840085915E-01  0.16935072821E+01  0.51100000000E-03 0. -1.
        -11    1    3    3    0    0 -0.23248883341E+02  0.53160578631E+01  0.57718246477E+01  0.24537420562E+02  0.51100000000E-03 0.  1.
        -12    1    3    3    0    0 -0.17550902264E+02 -0.90713892399E+01  0.86227505527E+01  0.21556347096E+02  0.00000000000E+00 0.  1.
</event>
<event>
 7    1  0.2476315E-009  0.4778727E+02  0.7816164E-02  0.1312668E+00
        -11   -1    0    0    0    0  0.00000000000E+00  0.00000000000E+00  0.45593999997E+02  0.45594000000E+02  0.51100000000E-03 0.  1.
         11   -1    0    0    0    0 -0.00000000000E+00 -0.00000000000E+00 -0.45593999997E+02  0.45594000000E+02  0.51100000000E-03 0. -1.
    9900012    2    1    2    0    0 -0.19115432494E+02 -0.30659090146E+02 -0.24046696119E+02  0.47787272330E+02  0.20000005859E+02 0.  0.
         12    1    1    2    0    0  0.19115432494E+02  0.30659090146E+02  0.24046696119E+02  0.43400727670E+02  0.00000000000E+00 0. -1.
         11    1    3    3    0    0 -0.10991490177E+02 -0.33212867380E+01 -0.39061617226E+01  0.12128557275E+02  0.51100000000E-03 0. -1.
        -11    1    3    3    0    0 -0.15097420739E+01 -0.14508601189E+02 -0.71725130516E+01  0.16254961499E+02  0.51100000000E-03 0.  1.
        -12    1    3    3    0    0 -0.66142002438E+01 -0.12829202220E+02 -0.12968021345E+02  0.19403753556E+02  0.00000000000E+00 0.  1.
</event>
<event>
 7    1  0.2476315E-009  0.4778727E+02  0.7816164E-02  0.1312668E+00
        -11   -1    0    0    0    0  0.00000000000E+00  0.00000000000E+00  0.45593999997E+02  0.45594000000E+02  0.51100000000E-03 0.  1.
         11   -1    0    0    0    0 -0.00000000000E+00 -0.00000000000E+00 -0.45593999997E+02  0.45594000000E+02  0.51100000000E-03 0. -1.
    9900012    2    1    2    0    0 -0.10287970850E+02  0.28984860244E+02  0.30621216180E+02  0.47787270192E+02  0.19999996112E+02 0.  0.
         12    1    1    2    0    0  0.10287970850E+02 -0.28984860244E+02 -0.30621216180E+02  0.43400729808E+02  0.00000000000E+00 0. -1.
         11    1    3    3    0    0 -0.34169049633E+01  0.74862047181E+01 -0.95174641609E+00  0.82839798474E+01  0.51100000000E-03 0. -1.
        -11    1    3    3    0    0 -0.70881557716E+01  0.18179318146E+02  0.22192948530E+02  0.29550914118E+02  0.51100000000E-03 0.  1.
        -12    1    3    3    0    0  0.21708988539E+00  0.33193373790E+01  0.93800140668E+01  0.99523762262E+01  0.00000000000E+00 0.  1.
</event>
<event>
 7    1  0.2476315E-009  0.4778727E+02  0.7816164E-02  0.1312668E+00
        -11   -1    0    0    0    0  0.00000000000E+00  0.00000000000E+00  0.45593999997E+02  0.45594000000E+02  0.51100000000E-03 0.  1.
         11   -1    0    0    0    0 -0.00000000000E+00 -0.00000000000E+00 -0.45593999997E+02  0.45594000000E+02  0.51100000000E-03 0. -1.
    9900012    2    1    2    0    0  0.21747557901E+01 -0.10018526042E+02  0.42172541986E+02  0.47787265855E+02  0.19999976337E+02 0.  0.
         12    1    1    2    0    0 -0.21747557901E+01  0.10018526042E+02 -0.42172541986E+02  0.43400734145E+02  0.00000000000E+00 0. -1.
         11    1    3    3    0    0  0.30554818385E+01 -0.68115113544E+01  0.89674191720E+01  0.11668215933E+02  0.51100000000E-03 0. -1.
        -11    1    3    3    0    0 -0.56395515019E+01 -0.51796124857E+01  0.26944789079E+02  0.28011686587E+02  0.51100000000E-03 0.  1.
        -12    1    3    3    0    0  0.47588254535E+01  0.19725977977E+01  0.62603337345E+01  0.81073633344E+01  0.00000000000E+00 0.  1.
</event>
<event>
 7    1  0.2476315E-009  0.4778727E+02  0.7816164E-02  0.1312668E+00
        -11   -1    0    0    0    0  0.00000000000E+00  0.00000000000E+00  0.45593999997E+02  0.45594000000E+02  0.51100000000E-03 0.  1.
         11   -1    0    0    0    0 -0.00000000000E+00 -0.00000000000E+00 -0.45593999997E+02  0.45594000000E+02  0.51100000000E-03 0. -1.
    9900012    2    1    2    0    0 -0.19006807860E+02 -0.30895649279E+02  0.23829046724E+02  0.47787270085E+02  0.19999995624E+02 0.  0.
         12    1    1    2    0    0  0.19006807860E+02  0.30895649279E+02 -0.23829046724E+02  0.43400729915E+02  0.00000000000E+00 0. -1.
         11    1    3    3    0    0 -0.60353889895E+01 -0.13093945416E+01  0.11651633736E+02  0.13187152964E+02  0.51100000000E-03 0. -1.
        -11    1    3    3    0    0 -0.93808695002E+01 -0.23035007159E+02  0.85970749782E+01  0.26315812088E+02  0.51100000000E-03 0.  1.
         12    1    3    3    0    0 -0.35905493703E+01 -0.65512475788E+01  0.35803380096E+01  0.82843050332E+01  0.00000000000E+00 0. -1.
</event>
<event>
 7    1  0.2476315E-009  0.4778727E+02  0.7816164E-02  0.1312668E+00
        -11   -1    0    0    0    0  0.00000000000E+00  0.00000000000E+00  0.45593999997E+02  0.45594000000E+02  0.51100000000E-03 0.  1.
         11   -1    0    0    0    0 -0.00000000000E+00 -0.00000000000E+00 -0.45593999997E+02  0.45594000000E+02  0.51100000000E-03 0. -1.
    9900012    2    1    2    0    0 -0.23813499857E+02  0.70429490644E+01  0.35594070944E+02  0.47787265060E+02  0.19999972714E+02 0.  0.
         12    1    1    2    0    0  0.23813499857E+02 -0.70429490644E+01 -0.35594070944E+02  0.43400734940E+02  0.00000000000E+00 0. -1.
         11    1    3    3    0    0  0.11115531463E+01 -0.15565145558E+01  0.29758556554E+00  0.19356769848E+01  0.51100000000E-03 0. -1.
        -11    1    3    3    0    0 -0.13588156049E+02  0.99793223321E+01  0.15016476810E+02  0.22576966915E+02  0.51100000000E-03 0.  1.
        -12    1    3    3    0    0 -0.11336896955E+02 -0.13798587119E+01  0.20280008568E+02  0.23274621160E+02  0.00000000000E+00 0.  1.
</event>
<event>
 7    1  0.2476315E-009  0.4778726E+02  0.7816164E-02  0.1312668E+00
        -11   -1    0    0    0    0  0.00000000000E+00  0.00000000000E+00  0.45593999997E+02  0.45594000000E+02  0.51100000000E-03 0.  1.
         11   -1    0    0    0    0 -0.00000000000E+00 -0.00000000000E+00 -0.45593999997E+02  0.45594000000E+02  0.51100000000E-03 0. -1.
    9900012    2    1    2    0    0 -0.22566427467E+02  0.24885988000E+02  0.27478498201E+02  0.47787263707E+02  0.19999966547E+02 0.  0.
         12    1    1    2    0    0  0.22566427467E+02 -0.24885988000E+02 -0.27478498201E+02  0.43400736293E+02  0.00000000000E+00 0. -1.
         11    1    3    3    0    0  0.27813192777E+01  0.74968510203E+01  0.50403628215E+01  0.94521833339E+01  0.51100000000E-03 0. -1.
        -11    1    3    3    0    0 -0.19728012363E+02  0.11054260722E+02  0.16301926397E+02  0.27877301814E+02  0.51100000000E-03 0.  1.
         12    1    3    3    0    0 -0.56197343815E+01  0.63348762572E+01  0.61362089827E+01  0.10457778559E+02  0.00000000000E+00 0. -1.
</event>
<event>
 7    1  0.2476315E-009  0.4778727E+02  0.7816164E-02  0.1312668E+00
        -11   -1    0    0    0    0  0.00000000000E+00  0.00000000000E+00  0.45593999997E+02  0.45594000000E+02  0.51100000000E-03 0.  1.
         11   -1    0    0    0    0 -0.00000000000E+00 -0.00000000000E+00 -0.45593999997E+02  0.45594000000E+02  0.51100000000E-03 0. -1.
    9900012    2    1    2    0    0  0.82642427404E+01  0.13793711443E+02  0.40312021564E+02  0.47787271135E+02  0.20000000412E+02 0.  0.
         12    1    1    2    0    0 -0.82642427404E+01 -0.13793711443E+02 -0.40312021564E+02  0.43400728865E+02  0.00000000000E+00 0. -1.
         11    1    3    3    0    0 -0.48905320660E+01  0.83575345621E+01  0.16463666177E+02  0.19100209216E+02  0.51100000000E-03 0. -1.
        -11    1    3    3    0    0  0.53957822676E+01 -0.13979050868E+01  0.75237058919E+01  0.93634798831E+01  0.51100000000E-03 0.  1.
        -12    1    3    3    0    0  0.77589925388E+01  0.68340819678E+01  0.16324649496E+02  0.19323582036E+02  0.00000000000E+00 0.  1.
</event>
<event>
 7    1  0.2476315E-009  0.4778729E+02  0.7816164E-02  0.1312668E+00
        -11   -1    0    0    0    0  0.00000000000E+00  0.00000000000E+00  0.45593999997E+02  0.45594000000E+02  0.51100000000E-03 0.  1.
         11   -1    0    0    0    0 -0.00000000000E+00 -0.00000000000E+00 -0.45593999997E+02  0.45594000000E+02  0.51100000000E-03 0. -1.
    9900012    2    1    2    0    0 -0.37545587387E+02  0.58189990858E+01  0.20978322610E+02  0.47787286847E+02  0.20000072052E+02 0.  0.
         12    1    1    2    0    0  0.37545587387E+02 -0.58189990858E+01 -0.20978322610E+02  0.43400713153E+02  0.00000000000E+00 0. -1.
         11    1    3    3    0    0 -0.15284319480E+02  0.62086098877E+01  0.10275115902E+01  0.16529157239E+02  0.51100000000E-03 0. -1.
        -11    1    3    3    0    0 -0.17078664313E+02  0.32460093975E+01  0.16844286123E+02  0.24206348898E+02  0.51100000000E-03 0.  1.
        -12    1    3    3    0    0 -0.51826035942E+01 -0.36356201995E+01  0.31065248971E+01  0.70517807103E+01  0.00000000000E+00 0.  1.
</event>
<event>
 7    1  0.2476315E-009  0.4778727E+02  0.7816164E-02  0.1312668E+00
        -11   -1    0    0    0    0  0.00000000000E+00  0.00000000000E+00  0.45593999997E+02  0.45594000000E+02  0.51100000000E-03 0.  1.
         11   -1    0    0    0    0 -0.00000000000E+00 -0.00000000000E+00 -0.45593999997E+02  0.45594000000E+02  0.51100000000E-03 0. -1.
    9900012    2    1    2    0    0 -0.17752120199E+01 -0.36985021175E+02  0.22640230028E+02  0.47787272071E+02  0.20000004681E+02 0.  0.
         12    1    1    2    0    0  0.17752120199E+01  0.36985021175E+02 -0.22640230028E+02  0.43400727929E+02  0.00000000000E+00 0. -1.
         11    1    3    3    0    0  0.83009084975E+00  0.99190766538E+00  0.11828767464E+01  0.17527490675E+01  0.51100000000E-03 0. -1.
        -11    1    3    3    0    0 -0.28830453206E+01 -0.58587162820E+01 -0.13159226445E+01  0.66609428357E+01  0.51100000000E-03 0.  1.
        -12    1    3    3    0    0  0.27774245092E+00 -0.32118212558E+02  0.22773275926E+02  0.39373580168E+02  0.00000000000E+00 0.  1.
</event>
<event>
 7    1  0.2476315E-009  0.4778727E+02  0.7816164E-02  0.1312668E+00
        -11   -1    0    0    0    0  0.00000000000E+00  0.00000000000E+00  0.45593999997E+02  0.45594000000E+02  0.51100000000E-03 0. -1.
         11   -1    0    0    0    0 -0.00000000000E+00 -0.00000000000E+00 -0.45593999997E+02  0.45594000000E+02  0.51100000000E-03 0.  1.
    9900012    2    1    2    0    0 -0.11063681239E+02  0.41952722178E+02  0.10895302313E+01  0.47787274006E+02  0.20000013503E+02 0.  0.
         12    1    1    2    0    0  0.11063681239E+02 -0.41952722178E+02 -0.10895302313E+01  0.43400725994E+02  0.00000000000E+00 0. -1.
         11    1    3    3    0    0 -0.46818094322E+01  0.10724423726E+01  0.21163950964E+00  0.48077295832E+01  0.51100000000E-03 0.  1.
        -11    1    3    3    0    0 -0.43676972650E+01  0.32986791565E+02 -0.39526449839E+01  0.33508634705E+02  0.51100000000E-03 0. -1.
         12    1    3    3    0    0 -0.20141745421E+01  0.78934882404E+01  0.48305357055E+01  0.94709097182E+01  0.00000000000E+00 0. -1.
</event>
<event>
 7    1  0.2476315E-009  0.4778727E+02  0.7816164E-02  0.1312668E+00
        -11   -1    0    0    0    0  0.00000000000E+00  0.00000000000E+00  0.45593999997E+02  0.45594000000E+02  0.51100000000E-03 0.  1.
         11   -1    0    0    0    0 -0.00000000000E+00 -0.00000000000E+00 -0.45593999997E+02  0.45594000000E+02  0.51100000000E-03 0. -1.
    9900012    2    1    2    0    0 -0.22344135590E+01  0.26077023316E+02  0.34621081622E+02  0.47787273720E+02  0.20000012199E+02 0.  0.
         12    1    1    2    0    0  0.22344135590E+01 -0.26077023316E+02 -0.34621081622E+02  0.43400726280E+02  0.00000000000E+00 0. -1.
         11    1    3    3    0    0  0.41727588753E-03  0.18879227925E+02  0.10187889658E+02  0.21452700138E+02  0.51100000000E-03 0. -1.
        -11    1    3    3    0    0 -0.41110085790E+01  0.67225219008E+01  0.19138037630E+02  0.20696791462E+02  0.51100000000E-03 0.  1.
        -12    1    3    3    0    0  0.18761777442E+01  0.47527348941E+00  0.52951543336E+01  0.56377821201E+01  0.00000000000E+00 0.  1.
</event>
<event>
 7    1  0.2476315E-009  0.4778728E+02  0.7816164E-02  0.1312668E+00
        -11   -1    0    0    0    0  0.00000000000E+00  0.00000000000E+00  0.45593999997E+02  0.45594000000E+02  0.51100000000E-03 0. -1.
         11   -1    0    0    0    0 -0.00000000000E+00 -0.00000000000E+00 -0.45593999997E+02  0.45594000000E+02  0.51100000000E-03 0.  1.
    9900012    2    1    2    0    0 -0.33043091171E+02  0.26891845303E+02  0.82828547136E+01  0.47787275350E+02  0.20000019632E+02 0.  0.
         12    1    1    2    0    0  0.33043091171E+02 -0.26891845303E+02 -0.82828547136E+01  0.43400724650E+02  0.00000000000E+00 0. -1.
         11    1    3    3    0    0 -0.10035751781E+02  0.16656501486E+02  0.44895543478E+00  0.19451398839E+02  0.51100000000E-03 0. -1.
        -11    1    3    3    0    0 -0.12526091698E+02  0.73324214517E+01  0.94802326410E+01  0.17336152652E+02  0.51100000000E-03 0.  1.
        -12    1    3    3    0    0 -0.10481247692E+02  0.29029223653E+01 -0.16463333622E+01  0.10999723859E+02  0.00000000000E+00 0.  1.
</event>
<event>
 7    1  0.2476315E-009  0.4778728E+02  0.7816164E-02  0.1312668E+00
        -11   -1    0    0    0    0  0.00000000000E+00  0.00000000000E+00  0.45593999997E+02  0.45594000000E+02  0.51100000000E-03 0.  1.
         11   -1    0    0    0    0 -0.00000000000E+00 -0.00000000000E+00 -0.45593999997E+02  0.45594000000E+02  0.51100000000E-03 0. -1.
    9900012    2    1    2    0    0 -0.30427709377E+02  0.37780719006E+01  0.30716502595E+02  0.47787275848E+02  0.20000021903E+02 0.  0.
         12    1    1    2    0    0  0.30427709377E+02 -0.37780719006E+01 -0.30716502595E+02  0.43400724152E+02  0.00000000000E+00 0. -1.
         11    1    3    3    0    0 -0.13796876499E+01 -0.14218480297E+01 -0.16124035121E+00  0.19877596793E+01  0.51100000000E-03 0. -1.
        -11    1    3    3    0    0 -0.90876339529E+01  0.90238518530E+01  0.75751227399E+01  0.14879431371E+02  0.51100000000E-03 0.  1.
        -12    1    3    3    0    0 -0.19960387774E+02 -0.38239319227E+01  0.23302620206E+02  0.30920084798E+02  0.00000000000E+00 0.  1.
</event>
<event>
 7    1  0.2476315E-009  0.4778727E+02  0.7816164E-02  0.1312668E+00
        -11   -1    0    0    0    0  0.00000000000E+00  0.00000000000E+00  0.45593999997E+02  0.45594000000E+02  0.51100000000E-03 0.  1.
         11   -1    0    0    0    0 -0.00000000000E+00 -0.00000000000E+00 -0.45593999997E+02  0.45594000000E+02  0.51100000000E-03 0. -1.
    9900012    2    1    2    0    0  0.41177710413E+02  0.26608694965E+01  0.13451370267E+02  0.47787269322E+02  0.19999992147E+02 0.  0.
         12    1    1    2    0    0 -0.41177710413E+02 -0.26608694965E+01 -0.13451370267E+02  0.43400730678E+02  0.00000000000E+00 0. -1.
         11    1    3    3    0    0  0.25176653121E+02 -0.12369005703E+01  0.16546248917E+02  0.30152481471E+02  0.51100000000E-03 0. -1.
        -11    1    3    3    0    0  0.13574003370E+02  0.11105440044E+01 -0.29553410725E+01  0.13936316464E+02  0.51100000000E-03 0.  1.
        -12    1    3    3    0    0  0.24270539220E+01  0.27872260625E+01 -0.13953757752E+00  0.36984713868E+01  0.00000000000E+00 0.  1.
</event>
<event>
 7    1  0.2476315E-009  0.4778727E+02  0.7816164E-02  0.1312668E+00
        -11   -1    0    0    0    0  0.00000000000E+00  0.00000000000E+00  0.45593999997E+02  0.45594000000E+02  0.51100000000E-03 0.  1.
         11   -1    0    0    0    0 -0.00000000000E+00 -0.00000000000E+00 -0.45593999997E+02  0.45594000000E+02  0.51100000000E-03 0. -1.
    9900012    2    1    2    0    0 -0.40857253103E+01 -0.24278152166E+01  0.43139726515E+02  0.47787269110E+02  0.19999991180E+02 0.  0.
         12    1    1    2    0    0  0.40857253103E+01  0.24278152166E+01 -0.43139726515E+02  0.43400730890E+02  0.00000000000E+00 0. -1.
         11    1    3    3    0    0  0.25891156041E+01  0.30194770767E+01  0.21123208062E+01  0.45036275243E+01  0.51100000000E-03 0. -1.
        -11    1    3    3    0    0 -0.64156978219E+01  0.11893406205E+01  0.13904549536E+02  0.15359433834E+02  0.51100000000E-03 0.  1.
         12    1    3    3    0    0 -0.25914309252E+00 -0.66366329138E+01  0.27122856173E+02  0.27924207752E+02  0.00000000000E+00 0. -1.
</event>
<event>
 7    1  0.2476315E-009  0.4778730E+02  0.7816164E-02  0.1312668E+00
        -11   -1    0    0    0    0  0.00000000000E+00  0.00000000000E+00  0.45593999997E+02  0.45594000000E+02  0.51100000000E-03 0. -1.
         11   -1    0    0    0    0 -0.00000000000E+00 -0.00000000000E+00 -0.45593999997E+02  0.45594000000E+02  0.51100000000E-03 0.  1.
    9900012    2    1    2    0    0  0.14010852822E+02  0.18535093219E+02 -0.36657427677E+02  0.47787300912E+02  0.20000136176E+02 0.  0.
         12    1    1    2    0    0 -0.14010852822E+02 -0.18535093219E+02  0.36657427677E+02  0.43400699088E+02  0.00000000000E+00 0. -1.
         11    1    3    3    0    0  0.30927326034E+01  0.13297776021E+02 -0.24191118759E+02  0.27777798134E+02  0.51100000000E-03 0. -1.
        -11    1    3    3    0    0 -0.66931826900E+00 -0.64922210694E+00 -0.48637201475E+01  0.49522974692E+01  0.51100000000E-03 0.  1.
         12    1    3    3    0    0  0.11587438488E+02  0.58865393049E+01 -0.76025887704E+01  0.15057205309E+02  0.00000000000E+00 0. -1.
</event>
<event>
 7    1  0.2476315E-009  0.4778727E+02  0.7816164E-02  0.1312668E+00
        -11   -1    0    0    0    0  0.00000000000E+00  0.00000000000E+00  0.45593999997E+02  0.45594000000E+02  0.51100000000E-03 0.  1.
         11   -1    0    0    0    0 -0.00000000000E+00 -0.00000000000E+00 -0.45593999997E+02  0.45594000000E+02  0.51100000000E-03 0. -1.
    9900012    2    1    2    0    0  0.48516151865E+01 -0.26886504250E+02  0.33722409859E+02  0.47787271810E+02  0.20000003493E+02 0.  0.
         12    1    1    2    0    0 -0.48516151865E+01  0.26886504250E+02 -0.33722409859E+02  0.43400728190E+02  0.00000000000E+00 0. -1.
         11    1    3    3    0    0  0.64830348922E+01 -0.80136916919E+00  0.66937795016E+01  0.93530004937E+01  0.51100000000E-03 0. -1.
        -11    1    3    3    0    0  0.83072914269E+00 -0.12671743802E+02  0.79480988229E+01  0.14981170750E+02  0.51100000000E-03 0.  1.
         12    1    3    3    0    0 -0.24621488483E+01 -0.13413391279E+02  0.19080531534E+02  0.23453100566E+02  0.00000000000E+00 0. -1.
</event>
<event>
 7    1  0.2476315E-009  0.4778727E+02  0.7816164E-02  0.1312668E+00
        -11   -1    0    0    0    0  0.00000000000E+00  0.00000000000E+00  0.45593999997E+02  0.45594000000E+02  0.51100000000E-03 0.  1.
         11   -1    0    0    0    0 -0.00000000000E+00 -0.00000000000E+00 -0.45593999997E+02  0.45594000000E+02  0.51100000000E-03 0. -1.
    9900012    2    1    2    0    0  0.36407805619E+02  0.42407558778E+01 -0.23240285463E+02  0.47787272024E+02  0.20000004468E+02 0.  0.
         12    1    1    2    0    0 -0.36407805619E+02 -0.42407558778E+01  0.23240285463E+02  0.43400727976E+02  0.00000000000E+00 0. -1.
         11    1    3    3    0    0  0.70598579068E+01 -0.23032763605E+01  0.10397368626E+01  0.74985150971E+01  0.51100000000E-03 0. -1.
        -11    1    3    3    0    0  0.13521730282E+02  0.22813813778E+01 -0.18242910775E+02  0.22822043831E+02  0.51100000000E-03 0.  1.
         12    1    3    3    0    0  0.15826217431E+02  0.42626508605E+01 -0.60371115501E+01  0.17466713096E+02  0.00000000000E+00 0. -1.
</event>
<event>
 7    1  0.2476315E-009  0.4778727E+02  0.7816164E-02  0.1312668E+00
        -11   -1    0    0    0    0  0.00000000000E+00  0.00000000000E+00  0.45593999997E+02  0.45594000000E+02  0.51100000000E-03 0. -1.
         11   -1    0    0    0    0 -0.00000000000E+00 -0.00000000000E+00 -0.45593999997E+02  0.45594000000E+02  0.51100000000E-03 0.  1.
    9900012    2    1    2    0    0  0.38603831468E+02 -0.18330587914E+02  0.75734395885E+01  0.47787271383E+02  0.20000001543E+02 0.  0.
         12    1    1    2    0    0 -0.38603831468E+02  0.18330587914E+02 -0.75734395885E+01  0.43400728617E+02  0.00000000000E+00 0. -1.
         11    1    3    3    0    0  0.12591132280E+02 -0.11910970506E+02  0.66169825855E+01  0.18552420038E+02  0.51100000000E-03 0. -1.
        -11    1    3    3    0    0  0.16982921708E+02 -0.75722353951E+01  0.50285524399E+01  0.19262521084E+02  0.51100000000E-03 0.  1.
         12    1    3    3    0    0  0.90297774807E+01  0.11526179874E+01 -0.40720954369E+01  0.99723302605E+01  0.00000000000E+00 0. -1.
</event>
<event>
 7    1  0.2476315E-009  0.4778727E+02  0.7816164E-02  0.1312668E+00
        -11   -1    0    0    0    0  0.00000000000E+00  0.00000000000E+00  0.45593999997E+02  0.45594000000E+02  0.51100000000E-03 0.  1.
         11   -1    0    0    0    0 -0.00000000000E+00 -0.00000000000E+00 -0.45593999997E+02  0.45594000000E+02  0.51100000000E-03 0. -1.
    9900012    2    1    2    0    0 -0.37055085216E+02  0.52972260828E+01  0.21965499130E+02  0.47787273087E+02  0.20000009311E+02 0.  0.
         12    1    1    2    0    0  0.37055085216E+02 -0.52972260828E+01 -0.21965499130E+02  0.43400726913E+02  0.00000000000E+00 0. -1.
         11    1    3    3    0    0 -0.12399036626E+02 -0.38327523570E+01  0.14420688197E+02  0.19400575976E+02  0.51100000000E-03 0. -1.
        -11    1    3    3    0    0 -0.19201491466E+02  0.92648902939E+01  0.82999276082E+01  0.22878467284E+02  0.51100000000E-03 0.  1.
         12    1    3    3    0    0 -0.54545571241E+01 -0.13491185411E+00 -0.75511667475E+00  0.55082298265E+01  0.00000000000E+00 0. -1.
</event>
<event>
 7    1  0.2476315E-009  0.4778728E+02  0.7816164E-02  0.1312668E+00
        -11   -1    0    0    0    0  0.00000000000E+00  0.00000000000E+00  0.45593999997E+02  0.45594000000E+02  0.51100000000E-03 0.  1.
         11   -1    0    0    0    0 -0.00000000000E+00 -0.00000000000E+00 -0.45593999997E+02  0.45594000000E+02  0.51100000000E-03 0. -1.
    9900012    2    1    2    0    0  0.13230019917E+02  0.24208214961E+02  0.33504494693E+02  0.47787282687E+02  0.20000053085E+02 0.  0.
         12    1    1    2    0    0 -0.13230019917E+02 -0.24208214961E+02 -0.33504494693E+02  0.43400717313E+02  0.00000000000E+00 0. -1.
         11    1    3    3    0    0 -0.22709741924E+01 -0.13450749255E+01  0.21063983253E+01  0.33769016130E+01  0.51100000000E-03 0. -1.
        -11    1    3    3    0    0  0.15479732628E+02  0.24521339267E+02  0.26105707185E+02  0.39018279685E+02  0.51100000000E-03 0.  1.
        -12    1    3    3    0    0  0.21261481445E-01  0.10319506196E+01  0.52923891829E+01  0.53921013896E+01  0.00000000000E+00 0.  1.
</event>
<event>
 7    1  0.2476315E-009  0.4778727E+02  0.7816164E-02  0.1312668E+00
        -11   -1    0    0    0    0  0.00000000000E+00  0.00000000000E+00  0.45593999997E+02  0.45594000000E+02  0.51100000000E-03 0.  1.
         11   -1    0    0    0    0 -0.00000000000E+00 -0.00000000000E+00 -0.45593999997E+02  0.45594000000E+02  0.51100000000E-03 0. -1.
    9900012    2    1    2    0    0  0.28498509597E+02 -0.41899053745E+00  0.32730455841E+02  0.47787270260E+02  0.19999996425E+02 0.  0.
         12    1    1    2    0    0 -0.28498509597E+02  0.41899053745E+00 -0.32730455841E+02  0.43400729740E+02  0.00000000000E+00 0. -1.
         11    1    3    3    0    0  0.10447491722E+02  0.60891412899E+00  0.20198387128E+02  0.22748531877E+02  0.51100000000E-03 0. -1.
        -11    1    3    3    0    0  0.17844019829E+02 -0.12018366908E+01  0.65432703288E+01  0.19043840000E+02  0.51100000000E-03 0.  1.
        -12    1    3    3    0    0  0.20699804629E+00  0.17393202441E+00  0.59887983844E+01  0.59948983836E+01  0.00000000000E+00 0.  1.
</event>
<event>
 7    1  0.2476315E-009  0.4778727E+02  0.7816164E-02  0.1312668E+00
        -11   -1    0    0    0    0  0.00000000000E+00  0.00000000000E+00  0.45593999997E+02  0.45594000000E+02  0.51100000000E-03 0.  1.
         11   -1    0    0    0    0 -0.00000000000E+00 -0.00000000000E+00 -0.45593999997E+02  0.45594000000E+02  0.51100000000E-03 0. -1.
    9900012    2    1    2    0    0 -0.34062927369E+01  0.39480670330E+02 -0.17700202864E+02  0.47787270267E+02  0.19999996456E+02 0.  0.
         12    1    1    2    0    0  0.34062927369E+01 -0.39480670330E+02  0.17700202864E+02  0.43400729733E+02  0.00000000000E+00 0. -1.
         11    1    3    3    0    0 -0.39586787448E+01  0.35143601660E+01  0.26909692997E+01  0.59382809645E+01  0.51100000000E-03 0. -1.
        -11    1    3    3    0    0  0.14018555157E+01  0.26890855925E+02 -0.12077136533E+02  0.29511702058E+02  0.51100000000E-03 0.  1.
         12    1    3    3    0    0 -0.84946950775E+00  0.90754542388E+01 -0.83140356302E+01  0.12337287244E+02  0.00000000000E+00 0. -1.
</event>
<event>
 7    1  0.2476315E-009  0.4778727E+02  0.7816164E-02  0.1312668E+00
        -11   -1    0    0    0    0  0.00000000000E+00  0.00000000000E+00  0.45593999997E+02  0.45594000000E+02  0.51100000000E-03 0.  1.
         11   -1    0    0    0    0 -0.00000000000E+00 -0.00000000000E+00 -0.45593999997E+02  0.45594000000E+02  0.51100000000E-03 0. -1.
    9900012    2    1    2    0    0  0.10258275475E+02  0.15982527419E+02  0.39024992637E+02  0.47787269030E+02  0.19999990814E+02 0.  0.
         12    1    1    2    0    0 -0.10258275475E+02 -0.15982527419E+02 -0.39024992637E+02  0.43400730970E+02  0.00000000000E+00 0. -1.
         11    1    3    3    0    0  0.15932741566E+01  0.42035165662E+01  0.76512645372E+01  0.88741153553E+01  0.51100000000E-03 0. -1.
        -11    1    3    3    0    0  0.51252632930E+00  0.66678835671E+01  0.27888670770E+02  0.28679283674E+02  0.51100000000E-03 0.  1.
        -12    1    3    3    0    0  0.81524749895E+01  0.51111272859E+01  0.34850573303E+01  0.10233870000E+02  0.00000000000E+00 0.  1.
</event>
<event>
 7    1  0.2476315E-009  0.4778727E+02  0.7816164E-02  0.1312668E+00
        -11   -1    0    0    0    0  0.00000000000E+00  0.00000000000E+00  0.45593999997E+02  0.45594000000E+02  0.51100000000E-03 0.  1.
         11   -1    0    0    0    0 -0.00000000000E+00 -0.00000000000E+00 -0.45593999997E+02  0.45594000000E+02  0.51100000000E-03 0. -1.
    9900012    2    1    2    0    0 -0.27765773800E+02 -0.27558545973E+02  0.18793933020E+02  0.47787267642E+02  0.19999984486E+02 0.  0.
         12    1    1    2    0    0  0.27765773800E+02  0.27558545973E+02 -0.18793933020E+02  0.43400732358E+02  0.00000000000E+00 0. -1.
         11    1    3    3    0    0  0.17960080233E+01  0.14026181305E+01  0.14022788821E+01  0.26756996775E+01  0.51100000000E-03 0. -1.
        -11    1    3    3    0    0 -0.13016440644E+02 -0.15876991696E+02  0.85809239913E+01  0.22251715645E+02  0.51100000000E-03 0.  1.
         12    1    3    3    0    0 -0.16545341180E+02 -0.13084172407E+02  0.88107301463E+01  0.22859852319E+02  0.00000000000E+00 0. -1.
</event>
<event>
 7    1  0.2476315E-009  0.4778727E+02  0.7816164E-02  0.1312668E+00
        -11   -1    0    0    0    0  0.00000000000E+00  0.00000000000E+00  0.45593999997E+02  0.45594000000E+02  0.51100000000E-03 0.  1.
         11   -1    0    0    0    0 -0.00000000000E+00 -0.00000000000E+00 -0.45593999997E+02  0.45594000000E+02  0.51100000000E-03 0. -1.
    9900012    2    1    2    0    0 -0.10348770214E+02 -0.41493119946E+02  0.74059044254E+01  0.47787268806E+02  0.19999989795E+02 0.  0.
         12    1    1    2    0    0  0.10348770214E+02  0.41493119946E+02 -0.74059044254E+01  0.43400731194E+02  0.00000000000E+00 0. -1.
         11    1    3    3    0    0  0.26362422653E+01 -0.27927502066E+00  0.22347909764E+01  0.34672840651E+01  0.51100000000E-03 0. -1.
        -11    1    3    3    0    0 -0.10989825523E+02 -0.37408974136E+02  0.70650895251E+01  0.39624778879E+02  0.51100000000E-03 0.  1.
        -12    1    3    3    0    0 -0.19951869558E+01 -0.38048707893E+01 -0.18939760761E+01  0.46952058622E+01  0.00000000000E+00 0.  1.
</event>
<event>
 7    1  0.2476315E-009  0.4778726E+02  0.7816164E-02  0.1312668E+00
        -11   -1    0    0    0    0  0.00000000000E+00  0.00000000000E+00  0.45593999997E+02  0.45594000000E+02  0.51100000000E-03 0. -1.
         11   -1    0    0    0    0 -0.00000000000E+00 -0.00000000000E+00 -0.45593999997E+02  0.45594000000E+02  0.51100000000E-03 0.  1.
    9900012    2    1    2    0    0  0.14469342829E+02 -0.38548413200E+02  0.13721589291E+02  0.47787262047E+02  0.19999958979E+02 0.  0.
         12    1    1    2    0    0 -0.14469342829E+02  0.38548413200E+02 -0.13721589291E+02  0.43400737953E+02  0.00000000000E+00 0. -1.
         11    1    3    3    0    0  0.56046785737E+01 -0.89062988626E+01  0.87664272262E+01  0.13696161065E+02  0.51100000000E-03 0. -1.
        -11    1    3    3    0    0  0.25804683176E+01 -0.24827006914E+02  0.41376290234E+00  0.24964180120E+02  0.51100000000E-03 0.  1.
        -12    1    3    3    0    0  0.62841959373E+01 -0.48151074235E+01  0.45413991626E+01  0.91269208626E+01  0.00000000000E+00 0.  1.
</event>
<event>
 7    1  0.2476315E-009  0.4778733E+02  0.7816164E-02  0.1312667E+00
        -11   -1    0    0    0    0  0.00000000000E+00  0.00000000000E+00  0.45593999997E+02  0.45594000000E+02  0.51100000000E-03 0.  1.
         11   -1    0    0    0    0 -0.00000000000E+00 -0.00000000000E+00 -0.45593999997E+02  0.45594000000E+02  0.51100000000E-03 0. -1.
    9900012    2    1    2    0    0  0.58887662621E+01  0.38619414835E+02  0.18907172760E+02  0.47787332355E+02  0.20000279536E+02 0.  0.
         12    1    1    2    0    0 -0.58887662621E+01 -0.38619414835E+02 -0.18907172760E+02  0.43400667645E+02  0.00000000000E+00 0. -1.
         11    1    3    3    0    0  0.93344767131E+01  0.29116452695E+02  0.69726272091E+01  0.31361087410E+02  0.51100000000E-03 0. -1.
        -11    1    3    3    0    0 -0.14521087737E+00  0.29344309740E+01  0.69473635188E+01  0.75430651239E+01  0.51100000000E-03 0.  1.
         12    1    3    3    0    0 -0.33004995737E+01  0.65685311657E+01  0.49871820325E+01  0.88831798212E+01  0.00000000000E+00 0. -1.
</event>
<event>
 7    1  0.2476315E-009  0.4778727E+02  0.7816164E-02  0.1312668E+00
        -11   -1    0    0    0    0  0.00000000000E+00  0.00000000000E+00  0.45593999997E+02  0.45594000000E+02  0.51100000000E-03 0. -1.
         11   -1    0    0    0    0 -0.00000000000E+00 -0.00000000000E+00 -0.45593999997E+02  0.45594000000E+02  0.51100000000E-03 0.  1.
    9900012    2    1    2    0    0  0.12936617406E+02  0.39234094657E+02 -0.13302370989E+02  0.47787270428E+02  0.19999997190E+02 0.  0.
         12    1    1    2    0    0 -0.12936617406E+02 -0.39234094657E+02  0.13302370989E+02  0.43400729572E+02  0.00000000000E+00 0. -1.
         11    1    3    3    0    0  0.21989750990E+01  0.12231900656E+02 -0.11504757309E+02  0.16935593469E+02  0.51100000000E-03 0. -1.
        -11    1    3    3    0    0  0.73303761346E+01  0.26293822352E+02 -0.12184545459E+01  0.27323691916E+02  0.51100000000E-03 0.  1.
        -12    1    3    3    0    0  0.34072661726E+01  0.70837164829E+00 -0.57915913454E+00  0.35279850434E+01  0.00000000000E+00 0.  1.
</event>
<event>
 7    1  0.2476315E-009  0.4778727E+02  0.7816164E-02  0.1312668E+00
        -11   -1    0    0    0    0  0.00000000000E+00  0.00000000000E+00  0.45593999997E+02  0.45594000000E+02  0.51100000000E-03 0.  1.
         11   -1    0    0    0    0 -0.00000000000E+00 -0.00000000000E+00 -0.45593999997E+02  0.45594000000E+02  0.51100000000E-03 0. -1.
    9900012    2    1    2    0    0 -0.16711356668E+02 -0.32581727244E+02  0.23297744234E+02  0.47787270994E+02  0.19999999768E+02 0.  0.
         12    1    1    2    0    0  0.16711356668E+02  0.32581727244E+02 -0.23297744234E+02  0.43400729006E+02  0.00000000000E+00 0. -1.
         11    1    3    3    0    0 -0.10449322126E+02 -0.54046445658E+01  0.11576472190E+02  0.16504945453E+02  0.51100000000E-03 0. -1.
        -11    1    3    3    0    0  0.20621727249E+00 -0.15356077754E+02  0.45466201077E+01  0.16016348030E+02  0.51100000000E-03 0.  1.
        -12    1    3    3    0    0 -0.64682518151E+01 -0.11821004924E+02  0.71746519359E+01  0.15265977511E+02  0.00000000000E+00 0.  1.
</event>
<event>
 7    1  0.2476315E-009  0.4778727E+02  0.7816164E-02  0.1312668E+00
        -11   -1    0    0    0    0  0.00000000000E+00  0.00000000000E+00  0.45593999997E+02  0.45594000000E+02  0.51100000000E-03 0. -1.
         11   -1    0    0    0    0 -0.00000000000E+00 -0.00000000000E+00 -0.45593999997E+02  0.45594000000E+02  0.51100000000E-03 0.  1.
    9900012    2    1    2    0    0 -0.17814892324E+02  0.25685921270E+02  0.30107909970E+02  0.47787272094E+02  0.20000004787E+02 0.  0.
         12    1    1    2    0    0  0.17814892324E+02 -0.25685921270E+02 -0.30107909970E+02  0.43400727906E+02  0.00000000000E+00 0. -1.
         11    1    3    3    0    0  0.39480077599E+00 -0.79039582801E+00  0.62458509124E+00  0.10819889163E+01  0.51100000000E-03 0. -1.
        -11    1    3    3    0    0  0.28738973630E+01  0.66849628849E+01  0.66937612090E+01  0.98870852231E+01  0.51100000000E-03 0.  1.
        -12    1    3    3    0    0 -0.21083590463E+02  0.19791354213E+02  0.22789563670E+02  0.36818197955E+02  0.00000000000E+00 0.  1.
</event>
<event>
 7    1  0.2476315E-009  0.4778727E+02  0.7816164E-02  0.1312668E+00
        -11   -1    0    0    0    0  0.00000000000E+00  0.00000000000E+00  0.45593999997E+02  0.45594000000E+02  0.51100000000E-03 0.  1.
         11   -1    0    0    0    0 -0.00000000000E+00 -0.00000000000E+00 -0.45593999997E+02  0.45594000000E+02  0.51100000000E-03 0. -1.
    9900012    2    1    2    0    0  0.39661113628E+02  0.16753993577E+02 -0.54701644536E+01  0.47787274958E+02  0.20000017846E+02 0.  0.
         12    1    1    2    0    0 -0.39661113628E+02 -0.16753993577E+02  0.54701644536E+01  0.43400725042E+02  0.00000000000E+00 0. -1.
         11    1    3    3    0    0  0.42614800356E+01  0.50356864047E+01  0.20881020576E+01  0.69194306214E+01  0.51100000000E-03 0. -1.
        -11    1    3    3    0    0  0.18011426274E+02  0.41033983829E+01 -0.11109175364E+02  0.21556046304E+02  0.51100000000E-03 0.  1.
        -12    1    3    3    0    0  0.17388207318E+02  0.76149087897E+01  0.35509088525E+01  0.19311798033E+02  0.00000000000E+00 0.  1.
</event>
<event>
 7    1  0.2476315E-009  0.4778727E+02  0.7816164E-02  0.1312668E+00
        -11   -1    0    0    0    0  0.00000000000E+00  0.00000000000E+00  0.45593999997E+02  0.45594000000E+02  0.51100000000E-03 0. -1.
         11   -1    0    0    0    0 -0.00000000000E+00 -0.00000000000E+00 -0.45593999997E+02  0.45594000000E+02  0.51100000000E-03 0.  1.
    9900012    2    1    2    0    0 -0.32473922212E+02  0.10703914682E+02 -0.26730013114E+02  0.47787274034E+02  0.20000013629E+02 0.  0.
         12    1    1    2    0    0  0.32473922212E+02 -0.10703914682E+02  0.26730013114E+02  0.43400725966E+02  0.00000000000E+00 0. -1.
         11    1    3    3    0    0 -0.16569194701E+01 -0.10632295543E+01  0.25334196252E+01  0.32084348948E+01  0.51100000000E-03 0. -1.
        -11    1    3    3    0    0 -0.28307991306E+02  0.91887533753E+01 -0.24154827045E+02  0.38330552177E+02  0.51100000000E-03 0.  1.
         12    1    3    3    0    0 -0.25090114355E+01  0.25783908611E+01 -0.51086056945E+01  0.62482869619E+01  0.00000000000E+00 0. -1.
</event>
<event>
 7    1  0.2476315E-009  0.4778724E+02  0.7816164E-02  0.1312668E+00
        -11   -1    0    0    0    0  0.00000000000E+00  0.00000000000E+00  0.45593999997E+02  0.45594000000E+02  0.51100000000E-03 0.  1.
         11   -1    0    0    0    0 -0.00000000000E+00 -0.00000000000E+00 -0.45593999997E+02  0.45594000000E+02  0.51100000000E-03 0. -1.
    9900012    2    1    2    0    0  0.33601077266E+02 -0.21182561218E+02 -0.17489778839E+02  0.47787243589E+02  0.19999874820E+02 0.  0.
         12    1    1    2    0    0 -0.33601077266E+02  0.21182561218E+02  0.17489778839E+02  0.43400756411E+02  0.00000000000E+00 0. -1.
         11    1    3    3    0    0  0.15506746310E+02 -0.10718376782E+02 -0.11425030337E+02  0.22042552040E+02  0.51100000000E-03 0. -1.
        -11    1    3    3    0    0  0.16187476957E+02 -0.75748842177E+01  0.97615034986E+00  0.17898775123E+02  0.51100000000E-03 0.  1.
        -12    1    3    3    0    0  0.19068539997E+01 -0.28893002183E+01 -0.70408988519E+01  0.78459164264E+01  0.00000000000E+00 0.  1.
</event>
<event>
 7    1  0.2476315E-009  0.4778727E+02  0.7816164E-02  0.1312668E+00
        -11   -1    0    0    0    0  0.00000000000E+00  0.00000000000E+00  0.45593999997E+02  0.45594000000E+02  0.51100000000E-03 0. -1.
         11   -1    0    0    0    0 -0.00000000000E+00 -0.00000000000E+00 -0.45593999997E+02  0.45594000000E+02  0.51100000000E-03 0.  1.
    9900012    2    1    2    0    0  0.37633486476E+02 -0.54094442754E+01 -0.20930400635E+02  0.47787273480E+02  0.20000011104E+02 0.  0.
         12    1    1    2    0    0 -0.37633486476E+02  0.54094442754E+01  0.20930400635E+02  0.43400726520E+02  0.00000000000E+00 0. -1.
         11    1    3    3    0    0  0.25286892226E+02 -0.54565402543E+01 -0.96130313463E+01  0.27597302801E+02  0.51100000000E-03 0.  1.
        -11    1    3    3    0    0  0.15161102807E+00  0.37310123535E+01 -0.41109090099E+01  0.55536485516E+01  0.51100000000E-03 0. -1.
         12    1    3    3    0    0  0.12194983222E+02 -0.36839163746E+01 -0.72064602793E+01  0.14636322127E+02  0.00000000000E+00 0. -1.
</event>
<event>
 7    1  0.2476315E-009  0.4778727E+02  0.7816164E-02  0.1312668E+00
        -11   -1    0    0    0    0  0.00000000000E+00  0.00000000000E+00  0.45593999997E+02  0.45594000000E+02  0.51100000000E-03 0.  1.
         11   -1    0    0    0    0 -0.00000000000E+00 -0.00000000000E+00 -0.45593999997E+02  0.45594000000E+02  0.51100000000E-03 0. -1.
    9900012    2    1    2    0    0  0.28784151027E+02 -0.31708158528E+02  0.70490191136E+01  0.47787270305E+02  0.19999996629E+02 0.  0.
         12    1    1    2    0    0 -0.28784151027E+02  0.31708158528E+02 -0.70490191136E+01  0.43400729695E+02  0.00000000000E+00 0. -1.
         11    1    3    3    0    0  0.40104026000E+01 -0.16300900197E+02  0.33846096458E+01  0.17124784932E+02  0.51100000000E-03 0. -1.
        -11    1    3    3    0    0  0.11900836631E+02 -0.12471184679E+02  0.19584405541E+01  0.17349231957E+02  0.51100000000E-03 0.  1.
         12    1    3    3    0    0  0.12872911796E+02 -0.29360736519E+01  0.17059689137E+01  0.13313253416E+02  0.00000000000E+00 0. -1.
</event>
<event>
 7    1  0.2476315E-009  0.4778728E+02  0.7816164E-02  0.1312668E+00
        -11   -1    0    0    0    0  0.00000000000E+00  0.00000000000E+00  0.45593999997E+02  0.45594000000E+02  0.51100000000E-03 0.  1.
         11   -1    0    0    0    0 -0.00000000000E+00 -0.00000000000E+00 -0.45593999997E+02  0.45594000000E+02  0.51100000000E-03 0. -1.
    9900012    2    1    2    0    0 -0.39188891215E+02  0.13689856444E+02  0.12666552480E+02  0.47787275169E+02  0.20000018807E+02 0.  0.
         12    1    1    2    0    0  0.39188891215E+02 -0.13689856444E+02 -0.12666552480E+02  0.43400724831E+02  0.00000000000E+00 0. -1.
         11    1    3    3    0    0 -0.23249603456E+02  0.10902859456E+02  0.13561741039E+02  0.29040269032E+02  0.51100000000E-03 0. -1.
        -11    1    3    3    0    0 -0.13402631786E+02 -0.16846272071E+01  0.11052205404E+00  0.13508542594E+02  0.51100000000E-03 0.  1.
         12    1    3    3    0    0 -0.25366559729E+01  0.44716241951E+01 -0.10057106126E+01  0.52384635442E+01  0.00000000000E+00 0. -1.
</event>
<event>
 7    1  0.2476315E-009  0.4778728E+02  0.7816164E-02  0.1312668E+00
        -11   -1    0    0    0    0  0.00000000000E+00  0.00000000000E+00  0.45593999997E+02  0.45594000000E+02  0.51100000000E-03 0. -1.
         11   -1    0    0    0    0 -0.00000000000E+00 -0.00000000000E+00 -0.45593999997E+02  0.45594000000E+02  0.51100000000E-03 0.  1.
    9900012    2    1    2    0    0 -0.35566269437E+02  0.61086800862E+01 -0.24111143600E+02  0.47787277197E+02  0.20000028053E+02 0.  0.
         12    1    1    2    0    0  0.35566269437E+02 -0.61086800862E+01  0.24111143600E+02  0.43400722803E+02  0.00000000000E+00 0. -1.
         11    1    3    3    0    0 -0.97547520590E+01 -0.15277472941E+01 -0.14051544924E+02  0.17173675045E+02  0.51100000000E-03 0. -1.
        -11    1    3    3    0    0 -0.20598622258E+02  0.47216457607E+01 -0.29650631468E+01  0.21339840143E+02  0.51100000000E-03 0.  1.
        -12    1    3    3    0    0 -0.52128951205E+01  0.29147816195E+01 -0.70945355292E+01  0.92737620091E+01  0.00000000000E+00 0.  1.
</event>
<event>
 7    1  0.2476315E-009  0.4778727E+02  0.7816164E-02  0.1312668E+00
        -11   -1    0    0    0    0  0.00000000000E+00  0.00000000000E+00  0.45593999997E+02  0.45594000000E+02  0.51100000000E-03 0. -1.
         11   -1    0    0    0    0 -0.00000000000E+00 -0.00000000000E+00 -0.45593999997E+02  0.45594000000E+02  0.51100000000E-03 0.  1.
    9900012    2    1    2    0    0  0.32408123764E+02  0.28215807230E+02 -0.60995967079E+01  0.47787270241E+02  0.19999996339E+02 0.  0.
         12    1    1    2    0    0 -0.32408123764E+02 -0.28215807230E+02  0.60995967079E+01  0.43400729759E+02  0.00000000000E+00 0. -1.
         11    1    3    3    0    0  0.15299613869E+02  0.22491690575E+02 -0.21978424281E+01  0.27290746436E+02  0.51100000000E-03 0. -1.
        -11    1    3    3    0    0  0.97099965302E+01  0.57311737296E+01  0.14461190792E+01  0.11367569907E+02  0.51100000000E-03 0.  1.
         12    1    3    3    0    0  0.73985133652E+01 -0.70570737428E-02 -0.53478733590E+01  0.91289538985E+01  0.00000000000E+00 0. -1.
</event>
<event>
 7    1  0.2476315E-009  0.4778726E+02  0.7816164E-02  0.1312668E+00
        -11   -1    0    0    0    0  0.00000000000E+00  0.00000000000E+00  0.45593999997E+02  0.45594000000E+02  0.51100000000E-03 0.  1.
         11   -1    0    0    0    0 -0.00000000000E+00 -0.00000000000E+00 -0.45593999997E+02  0.45594000000E+02  0.51100000000E-03 0. -1.
    9900012    2    1    2    0    0 -0.20248815156E+02 -0.13724090213E+02 -0.35850515945E+02  0.47787255065E+02  0.19999927144E+02 0.  0.
         12    1    1    2    0    0  0.20248815156E+02  0.13724090213E+02  0.35850515945E+02  0.43400744935E+02  0.00000000000E+00 0. -1.
         11    1    3    3    0    0 -0.10076393351E+02  0.17446734728E+01 -0.86407066000E+01  0.13388031943E+02  0.51100000000E-03 0. -1.
        -11    1    3    3    0    0 -0.60762852204E+01 -0.77503042589E+01 -0.22296382175E+02  0.24374517771E+02  0.51100000000E-03 0.  1.
         12    1    3    3    0    0 -0.40961365848E+01 -0.77184594265E+01 -0.49134271695E+01  0.10024705352E+02  0.00000000000E+00 0. -1.
</event>
<event>
 7    1  0.2476315E-009  0.4778727E+02  0.7816164E-02  0.1312668E+00
        -11   -1    0    0    0    0  0.00000000000E+00  0.00000000000E+00  0.45593999997E+02  0.45594000000E+02  0.51100000000E-03 0.  1.
         11   -1    0    0    0    0 -0.00000000000E+00 -0.00000000000E+00 -0.45593999997E+02  0.45594000000E+02  0.51100000000E-03 0. -1.
    9900012    2    1    2    0    0 -0.18704362568E+02 -0.17874827515E+02  0.34846243475E+02  0.47787270489E+02  0.19999997469E+02 0.  0.
         12    1    1    2    0    0  0.18704362568E+02  0.17874827515E+02 -0.34846243475E+02  0.43400729511E+02  0.00000000000E+00 0. -1.
         11    1    3    3    0    0 -0.20874857621E+01 -0.11216910000E+02  0.16127946850E+02  0.19755691246E+02  0.51100000000E-03 0.  1.
        -11    1    3    3    0    0 -0.13142630846E+02 -0.18095418824E+01  0.72831748590E+01  0.15134326006E+02  0.51100000000E-03 0. -1.
         12    1    3    3    0    0 -0.34742459605E+01 -0.48483756323E+01  0.11435121766E+02  0.12897253237E+02  0.00000000000E+00 0. -1.
</event>
<event>
 7    1  0.2476315E-009  0.4778727E+02  0.7816164E-02  0.1312668E+00
        -11   -1    0    0    0    0  0.00000000000E+00  0.00000000000E+00  0.45593999997E+02  0.45594000000E+02  0.51100000000E-03 0. -1.
         11   -1    0    0    0    0 -0.00000000000E+00 -0.00000000000E+00 -0.45593999997E+02  0.45594000000E+02  0.51100000000E-03 0.  1.
    9900012    2    1    2    0    0 -0.23694931104E+02 -0.62921099161E+01 -0.35813165908E+02  0.47787271209E+02  0.20000000752E+02 0.  0.
         12    1    1    2    0    0  0.23694931104E+02  0.62921099161E+01  0.35813165908E+02  0.43400728791E+02  0.00000000000E+00 0. -1.
         11    1    3    3    0    0  0.18247024443E+00  0.13921365664E+01 -0.83432768275E+00  0.16332307103E+01  0.51100000000E-03 0. -1.
        -11    1    3    3    0    0  0.18615950907E+01  0.91593670535E+00 -0.64677500390E+01  0.67923683026E+01  0.51100000000E-03 0.  1.
        -12    1    3    3    0    0 -0.25738996439E+02 -0.86001831878E+01 -0.28511088186E+02  0.39361672197E+02  0.00000000000E+00 0.  1.
</event>
<event>
 7    1  0.2476315E-009  0.4778727E+02  0.7816164E-02  0.1312668E+00
        -11   -1    0    0    0    0  0.00000000000E+00  0.00000000000E+00  0.45593999997E+02  0.45594000000E+02  0.51100000000E-03 0. -1.
         11   -1    0    0    0    0 -0.00000000000E+00 -0.00000000000E+00 -0.45593999997E+02  0.45594000000E+02  0.51100000000E-03 0.  1.
    9900012    2    1    2    0    0 -0.36936591920E+02  0.22763201130E+02  0.10716490137E+01  0.47787267518E+02  0.19999983922E+02 0.  0.
         12    1    1    2    0    0  0.36936591920E+02 -0.22763201130E+02 -0.10716490137E+01  0.43400732482E+02  0.00000000000E+00 0. -1.
         11    1    3    3    0    0 -0.18493128512E+02  0.69607933049E+01 -0.79943906430E+01  0.21315692051E+02  0.51100000000E-03 0. -1.
        -11    1    3    3    0    0 -0.75853199250E+01  0.99202934376E+01  0.52470262332E+01  0.13545500537E+02  0.51100000000E-03 0.  1.
        -12    1    3    3    0    0 -0.10858143483E+02  0.58821143874E+01  0.38190134235E+01  0.12926074930E+02  0.00000000000E+00 0.  1.
</event>
<event>
 7    1  0.2476315E-009  0.4778727E+02  0.7816164E-02  0.1312668E+00
        -11   -1    0    0    0    0  0.00000000000E+00  0.00000000000E+00  0.45593999997E+02  0.45594000000E+02  0.51100000000E-03 0. -1.
         11   -1    0    0    0    0 -0.00000000000E+00 -0.00000000000E+00 -0.45593999997E+02  0.45594000000E+02  0.51100000000E-03 0.  1.
    9900012    2    1    2    0    0 -0.19482849124E+02 -0.10966464837E+02 -0.37199172564E+02  0.47787271890E+02  0.20000003855E+02 0.  0.
         12    1    1    2    0    0  0.19482849124E+02  0.10966464837E+02  0.37199172564E+02  0.43400728110E+02  0.00000000000E+00 0. -1.
         11    1    3    3    0    0  0.92098336016E+00  0.70191449051E+00  0.54047049342E+00  0.12778900254E+01  0.51100000000E-03 0. -1.
        -11    1    3    3    0    0 -0.20709524947E+02 -0.12448486325E+02 -0.38449261010E+02  0.45411396233E+02  0.51100000000E-03 0.  1.
        -12    1    3    3    0    0  0.30569246306E+00  0.78010699801E+00  0.70961795198E+00  0.10979856320E+01  0.00000000000E+00 0.  1.
</event>
<event>
 7    1  0.2476315E-009  0.4778727E+02  0.7816164E-02  0.1312668E+00
        -11   -1    0    0    0    0  0.00000000000E+00  0.00000000000E+00  0.45593999997E+02  0.45594000000E+02  0.51100000000E-03 0.  1.
         11   -1    0    0    0    0 -0.00000000000E+00 -0.00000000000E+00 -0.45593999997E+02  0.45594000000E+02  0.51100000000E-03 0. -1.
    9900012    2    1    2    0    0  0.24560119203E+02  0.89408639681E+01  0.34648010775E+02  0.47787272421E+02  0.20000006275E+02 0.  0.
         12    1    1    2    0    0 -0.24560119203E+02 -0.89408639681E+01 -0.34648010775E+02  0.43400727579E+02  0.00000000000E+00 0. -1.
         11    1    3    3    0    0  0.30531548323E+01 -0.18920215307E+00 -0.10641070726E+01  0.32388078066E+01  0.51100000000E-03 0. -1.
        -11    1    3    3    0    0  0.13156682648E+02  0.10709640768E+02  0.29469710882E+02  0.34003802190E+02  0.51100000000E-03 0.  1.
        -12    1    3    3    0    0  0.83502817225E+01 -0.15795746466E+01  0.62424069655E+01  0.10544662424E+02  0.00000000000E+00 0.  1.
</event>
<event>
 7    1  0.2476315E-009  0.4778727E+02  0.7816164E-02  0.1312668E+00
        -11   -1    0    0    0    0  0.00000000000E+00  0.00000000000E+00  0.45593999997E+02  0.45594000000E+02  0.51100000000E-03 0.  1.
         11   -1    0    0    0    0 -0.00000000000E+00 -0.00000000000E+00 -0.45593999997E+02  0.45594000000E+02  0.51100000000E-03 0. -1.
    9900012    2    1    2    0    0  0.18715327182E+02  0.26423643420E+02  0.28898981548E+02  0.47787268006E+02  0.19999986147E+02 0.  0.
         12    1    1    2    0    0 -0.18715327182E+02 -0.26423643420E+02 -0.28898981548E+02  0.43400731994E+02  0.00000000000E+00 0. -1.
         11    1    3    3    0    0  0.30097655531E+01  0.11150909635E+02  0.15781768164E+02  0.19556729814E+02  0.51100000000E-03 0. -1.
        -11    1    3    3    0    0  0.10219336674E+02  0.11740597175E+02  0.14814713169E+02  0.21488419919E+02  0.51100000000E-03 0.  1.
         12    1    3    3    0    0  0.54862249547E+01  0.35321366101E+01 -0.16974997853E+01  0.67421182730E+01  0.00000000000E+00 0. -1.
</event>
<event>
 7    1  0.2476315E-009  0.4778727E+02  0.7816164E-02  0.1312668E+00
        -11   -1    0    0    0    0  0.00000000000E+00  0.00000000000E+00  0.45593999997E+02  0.45594000000E+02  0.51100000000E-03 0.  1.
         11   -1    0    0    0    0 -0.00000000000E+00 -0.00000000000E+00 -0.45593999997E+02  0.45594000000E+02  0.51100000000E-03 0. -1.
    9900012    2    1    2    0    0 -0.41549870259E+00 -0.10121384240E+02  0.42201992753E+02  0.47787271314E+02  0.20000001230E+02 0.  0.
         12    1    1    2    0    0  0.41549870259E+00  0.10121384240E+02 -0.42201992753E+02  0.43400728686E+02  0.00000000000E+00 0. -1.
         11    1    3    3    0    0 -0.76692170126E+01 -0.56143735092E+01  0.21840096349E+02  0.23818645812E+02  0.51100000000E-03 0. -1.
        -11    1    3    3    0    0  0.60779665832E+01 -0.62509275401E+01  0.94570325940E+01  0.12862785027E+02  0.51100000000E-03 0.  1.
        -12    1    3    3    0    0  0.11757517268E+01  0.17439168094E+01  0.10904863810E+02  0.11105840476E+02  0.00000000000E+00 0.  1.
</event>
<event>
 7    1  0.2476315E-009  0.4778727E+02  0.7816164E-02  0.1312668E+00
        -11   -1    0    0    0    0  0.00000000000E+00  0.00000000000E+00  0.45593999997E+02  0.45594000000E+02  0.51100000000E-03 0.  1.
         11   -1    0    0    0    0 -0.00000000000E+00 -0.00000000000E+00 -0.45593999997E+02  0.45594000000E+02  0.51100000000E-03 0. -1.
    9900012    2    1    2    0    0 -0.56293305049E+01  0.39623878908E+02  0.16789343389E+02  0.47787271976E+02  0.20000004246E+02 0.  0.
         12    1    1    2    0    0  0.56293305049E+01 -0.39623878908E+02 -0.16789343389E+02  0.43400728024E+02  0.00000000000E+00 0. -1.
         11    1    3    3    0    0  0.22975418703E+01  0.42589214767E+01 -0.26785696077E+01  0.55309896217E+01  0.51100000000E-03 0. -1.
        -11    1    3    3    0    0 -0.11608404562E+01  0.24281678146E+02  0.14784396080E+02  0.28452167086E+02  0.51100000000E-03 0.  1.
        -12    1    3    3    0    0 -0.67660319190E+01  0.11083279285E+02  0.46835169162E+01  0.13804115268E+02  0.00000000000E+00 0.  1.
</event>
<event>
 7    1  0.2476315E-009  0.4778727E+02  0.7816164E-02  0.1312668E+00
        -11   -1    0    0    0    0  0.00000000000E+00  0.00000000000E+00  0.45593999997E+02  0.45594000000E+02  0.51100000000E-03 0. -1.
         11   -1    0    0    0    0 -0.00000000000E+00 -0.00000000000E+00 -0.45593999997E+02  0.45594000000E+02  0.51100000000E-03 0.  1.
    9900012    2    1    2    0    0 -0.41708803184E+02  0.73154013367E+00  0.11977644469E+02  0.47787269810E+02  0.19999994369E+02 0.  0.
         12    1    1    2    0    0  0.41708803184E+02 -0.73154013367E+00 -0.11977644469E+02  0.43400730190E+02  0.00000000000E+00 0. -1.
         11    1    3    3    0    0 -0.22784195663E+02 -0.18997546159E+01 -0.32147140546E+01  0.23088157707E+02  0.51100000000E-03 0. -1.
        -11    1    3    3    0    0 -0.68865691665E+01  0.12167999669E+01  0.79130529936E+01  0.10560390380E+02  0.51100000000E-03 0.  1.
         12    1    3    3    0    0 -0.12038038355E+02  0.14144947826E+01  0.72793055302E+01  0.14138721722E+02  0.00000000000E+00 0. -1.
</event>
<event>
 7    1  0.2476315E-009  0.4778726E+02  0.7816164E-02  0.1312668E+00
        -11   -1    0    0    0    0  0.00000000000E+00  0.00000000000E+00  0.45593999997E+02  0.45594000000E+02  0.51100000000E-03 0.  1.
         11   -1    0    0    0    0 -0.00000000000E+00 -0.00000000000E+00 -0.45593999997E+02  0.45594000000E+02  0.51100000000E-03 0. -1.
    9900012    2    1    2    0    0 -0.25263245152E+02 -0.19150938466E+02  0.29641758154E+02  0.47787264682E+02  0.19999970990E+02 0.  0.
         12    1    1    2    0    0  0.25263245152E+02  0.19150938466E+02 -0.29641758154E+02  0.43400735318E+02  0.00000000000E+00 0. -1.
         11    1    3    3    0    0 -0.11217669358E+02 -0.13842481115E+02  0.66632099473E+01  0.19022322580E+02  0.51100000000E-03 0. -1.
        -11    1    3    3    0    0 -0.62561758857E+01 -0.47472116720E+01  0.17628045402E+02  0.19298283352E+02  0.51100000000E-03 0.  1.
        -12    1    3    3    0    0 -0.77893999077E+01 -0.56124567880E+00  0.53505028037E+01  0.94666587499E+01  0.00000000000E+00 0.  1.
</event>
<event>
 7    1  0.2476315E-009  0.4778727E+02  0.7816164E-02  0.1312668E+00
        -11   -1    0    0    0    0  0.00000000000E+00  0.00000000000E+00  0.45593999997E+02  0.45594000000E+02  0.51100000000E-03 0. -1.
         11   -1    0    0    0    0 -0.00000000000E+00 -0.00000000000E+00 -0.45593999997E+02  0.45594000000E+02  0.51100000000E-03 0.  1.
    9900012    2    1    2    0    0 -0.37409170165E+02 -0.19741443158E+02  0.97186782915E+01  0.47787270765E+02  0.19999998727E+02 0.  0.
         12    1    1    2    0    0  0.37409170165E+02  0.19741443158E+02 -0.97186782915E+01  0.43400729235E+02  0.00000000000E+00 0. -1.
         11    1    3    3    0    0 -0.47544741459E+01 -0.42521969380E+01  0.57333524620E+01  0.85765688896E+01  0.51100000000E-03 0. -1.
        -11    1    3    3    0    0 -0.25252382139E+02 -0.54021629314E+01 -0.74533188794E+00  0.25834505762E+02  0.51100000000E-03 0.  1.
        -12    1    3    3    0    0 -0.74023138792E+01 -0.10087083289E+02  0.47306577174E+01  0.13376196114E+02  0.00000000000E+00 0.  1.
</event>
<event>
 7    1  0.2476315E-009  0.4778727E+02  0.7816164E-02  0.1312668E+00
        -11   -1    0    0    0    0  0.00000000000E+00  0.00000000000E+00  0.45593999997E+02  0.45594000000E+02  0.51100000000E-03 0. -1.
         11   -1    0    0    0    0 -0.00000000000E+00 -0.00000000000E+00 -0.45593999997E+02  0.45594000000E+02  0.51100000000E-03 0.  1.
    9900012    2    1    2    0    0 -0.31337554876E+02 -0.17281814469E+01 -0.29976566209E+02  0.47787268688E+02  0.19999989257E+02 0.  0.
         12    1    1    2    0    0  0.31337554876E+02  0.17281814469E+01  0.29976566209E+02  0.43400731312E+02  0.00000000000E+00 0. -1.
         11    1    3    3    0    0 -0.53014111597E+01 -0.56145688801E+01 -0.11236949785E+02  0.13634419119E+02  0.51100000000E-03 0. -1.
        -11    1    3    3    0    0 -0.11826094926E+02 -0.26090174941E+01 -0.12276637731E+02  0.17244689841E+02  0.51100000000E-03 0.  1.
         12    1    3    3    0    0 -0.14210048790E+02  0.64954049273E+01 -0.64629786932E+01  0.16908159728E+02  0.00000000000E+00 0. -1.
</event>
<event>
 7    1  0.2476315E-009  0.4778728E+02  0.7816164E-02  0.1312668E+00
        -11   -1    0    0    0    0  0.00000000000E+00  0.00000000000E+00  0.45593999997E+02  0.45594000000E+02  0.51100000000E-03 0. -1.
         11   -1    0    0    0    0 -0.00000000000E+00 -0.00000000000E+00 -0.45593999997E+02  0.45594000000E+02  0.51100000000E-03 0.  1.
    9900012    2    1    2    0    0 -0.34610441821E+02 -0.25261997054E+02  0.68972147067E+01  0.47787277092E+02  0.20000027574E+02 0.  0.
         12    1    1    2    0    0  0.34610441821E+02  0.25261997054E+02 -0.68972147067E+01  0.43400722908E+02  0.00000000000E+00 0. -1.
         11    1    3    3    0    0 -0.10599449357E+02 -0.18216280597E+02  0.40696820792E+01  0.21464936942E+02  0.51100000000E-03 0. -1.
        -11    1    3    3    0    0 -0.17532497389E+02 -0.80249170132E+01  0.25543776057E+00  0.19283490516E+02  0.51100000000E-03 0.  1.
         12    1    3    3    0    0 -0.64784950755E+01  0.97920055562E+00  0.25720948669E+01  0.70388496344E+01  0.00000000000E+00 0. -1.
</event>
<event>
 7    1  0.2476315E-009  0.4778726E+02  0.7816164E-02  0.1312668E+00
        -11   -1    0    0    0    0  0.00000000000E+00  0.00000000000E+00  0.45593999997E+02  0.45594000000E+02  0.51100000000E-03 0.  1.
         11   -1    0    0    0    0 -0.00000000000E+00 -0.00000000000E+00 -0.45593999997E+02  0.45594000000E+02  0.51100000000E-03 0. -1.
    9900012    2    1    2    0    0  0.23068450530E+02 -0.21147019017E+02  0.30071149251E+02  0.47787264517E+02  0.19999970238E+02 0.  0.
         12    1    1    2    0    0 -0.23068450530E+02  0.21147019017E+02 -0.30071149251E+02  0.43400735483E+02  0.00000000000E+00 0. -1.
         11    1    3    3    0    0  0.94382248076E+01 -0.25735864614E+00  0.13238662784E+02  0.16260643086E+02  0.51100000000E-03 0. -1.
        -11    1    3    3    0    0  0.68065834293E+01 -0.10895637087E+02  0.30859096647E+01  0.13212392828E+02  0.51100000000E-03 0.  1.
        -12    1    3    3    0    0  0.68236422934E+01 -0.99940232840E+01  0.13746576802E+02  0.18314228603E+02  0.00000000000E+00 0.  1.
</event>
<event>
 7    1  0.2476315E-009  0.4778727E+02  0.7816164E-02  0.1312668E+00
        -11   -1    0    0    0    0  0.00000000000E+00  0.00000000000E+00  0.45593999997E+02  0.45594000000E+02  0.51100000000E-03 0. -1.
         11   -1    0    0    0    0 -0.00000000000E+00 -0.00000000000E+00 -0.45593999997E+02  0.45594000000E+02  0.51100000000E-03 0.  1.
    9900012    2    1    2    0    0 -0.13744487467E+02  0.32586473106E+02 -0.25156194356E+02  0.47787270978E+02  0.19999999695E+02 0.  0.
         12    1    1    2    0    0  0.13744487467E+02 -0.32586473106E+02  0.25156194356E+02  0.43400729022E+02  0.00000000000E+00 0. -1.
         11    1    3    3    0    0 -0.36747566139E+01  0.20289244741E+01 -0.30485035065E+01  0.51878458520E+01  0.51100000000E-03 0. -1.
        -11    1    3    3    0    0 -0.12098295489E+02  0.10431464914E+02 -0.12045169550E+02  0.20006756952E+02  0.51100000000E-03 0.  1.
        -12    1    3    3    0    0  0.20285646360E+01  0.20126083718E+02 -0.10062521299E+02  0.22592668174E+02  0.00000000000E+00 0.  1.
</event>
<event>
 7    1  0.2476315E-009  0.4778727E+02  0.7816164E-02  0.1312668E+00
        -11   -1    0    0    0    0  0.00000000000E+00  0.00000000000E+00  0.45593999997E+02  0.45594000000E+02  0.51100000000E-03 0. -1.
         11   -1    0    0    0    0 -0.00000000000E+00 -0.00000000000E+00 -0.45593999997E+02  0.45594000000E+02  0.51100000000E-03 0.  1.
    9900012    2    1    2    0    0 -0.38019292621E+02 -0.12808700910E+02 -0.16555777921E+02  0.47787271746E+02  0.20000003198E+02 0.  0.
         12    1    1    2    0    0  0.38019292621E+02  0.12808700910E+02  0.16555777921E+02  0.43400728254E+02  0.00000000000E+00 0. -1.
         11    1    3    3    0    0 -0.43116081220E-04  0.74056355215E+00  0.92730489879E-01  0.74634682387E+00  0.51100000000E-03 0.  1.
        -11    1    3    3    0    0 -0.41120536376E+01 -0.39199844475E+01  0.32692685584E+01  0.65546457079E+01  0.51100000000E-03 0. -1.
        -12    1    3    3    0    0 -0.33907195868E+02 -0.96292800146E+01 -0.19917776969E+02  0.40486279214E+02  0.00000000000E+00 0.  1.
</event>
<event>
 7    1  0.2476315E-009  0.4778728E+02  0.7816164E-02  0.1312668E+00
        -11   -1    0    0    0    0  0.00000000000E+00  0.00000000000E+00  0.45593999997E+02  0.45594000000E+02  0.51100000000E-03 0.  1.
         11   -1    0    0    0    0 -0.00000000000E+00 -0.00000000000E+00 -0.45593999997E+02  0.45594000000E+02  0.51100000000E-03 0. -1.
    9900012    2    1    2    0    0 -0.36816366983E+02  0.10227361970E+02  0.20581030534E+02  0.47787278479E+02  0.20000033895E+02 0.  0.
         12    1    1    2    0    0  0.36816366983E+02 -0.10227361970E+02 -0.20581030534E+02  0.43400721521E+02  0.00000000000E+00 0. -1.
         11    1    3    3    0    0  0.89729893897E+00  0.10438228759E+01  0.28857470401E+01  0.31972250191E+01  0.51100000000E-03 0. -1.
        -11    1    3    3    0    0 -0.30047882123E+02  0.11496594056E+02  0.17403227432E+02  0.36577578109E+02  0.51100000000E-03 0.  1.
        -12    1    3    3    0    0 -0.76657837989E+01 -0.23130549616E+01  0.29205606270E+00  0.80124753510E+01  0.00000000000E+00 0.  1.
</event>
<event>
 7    1  0.2476315E-009  0.4778727E+02  0.7816164E-02  0.1312668E+00
        -11   -1    0    0    0    0  0.00000000000E+00  0.00000000000E+00  0.45593999997E+02  0.45594000000E+02  0.51100000000E-03 0.  1.
         11   -1    0    0    0    0 -0.00000000000E+00 -0.00000000000E+00 -0.45593999997E+02  0.45594000000E+02  0.51100000000E-03 0. -1.
    9900012    2    1    2    0    0  0.28515540683E+01 -0.16957980757E+02  0.39848699757E+02  0.47787270233E+02  0.19999996301E+02 0.  0.
         12    1    1    2    0    0 -0.28515540683E+01  0.16957980757E+02 -0.39848699757E+02  0.43400729767E+02  0.00000000000E+00 0. -1.
         11    1    3    3    0    0 -0.20938307074E+00 -0.11401478419E+02  0.15042545163E+02  0.18876326885E+02  0.51100000000E-03 0. -1.
        -11    1    3    3    0    0  0.69357436764E+01 -0.29235424111E+01  0.22427764006E+02  0.23657054744E+02  0.51100000000E-03 0.  1.
        -12    1    3    3    0    0 -0.38748065373E+01 -0.26329599268E+01  0.23783905873E+01  0.52538886041E+01  0.00000000000E+00 0.  1.
</event>
<event>
 7    1  0.2476315E-009  0.4778726E+02  0.7816164E-02  0.1312668E+00
        -11   -1    0    0    0    0  0.00000000000E+00  0.00000000000E+00  0.45593999997E+02  0.45594000000E+02  0.51100000000E-03 0.  1.
         11   -1    0    0    0    0 -0.00000000000E+00 -0.00000000000E+00 -0.45593999997E+02  0.45594000000E+02  0.51100000000E-03 0. -1.
    9900012    2    1    2    0    0 -0.41336092382E+02 -0.58060184874E+01  0.11884509056E+02  0.47787263375E+02  0.19999965032E+02 0.  0.
         12    1    1    2    0    0  0.41336092382E+02  0.58060184874E+01 -0.11884509056E+02  0.43400736625E+02  0.00000000000E+00 0. -1.
         11    1    3    3    0    0 -0.11968721510E+02 -0.47979116892E+01  0.86414189813E+01  0.15522382982E+02  0.51100000000E-03 0. -1.
        -11    1    3    3    0    0 -0.20832279230E+02 -0.31344074535E+01  0.76676644929E+01  0.22418774433E+02  0.51100000000E-03 0.  1.
         12    1    3    3    0    0 -0.85350916419E+01  0.21263006552E+01 -0.44245744181E+01  0.98461059609E+01  0.00000000000E+00 0. -1.
</event>
<event>
 7    1  0.2476315E-009  0.4778727E+02  0.7816164E-02  0.1312668E+00
        -11   -1    0    0    0    0  0.00000000000E+00  0.00000000000E+00  0.45593999997E+02  0.45594000000E+02  0.51100000000E-03 0.  1.
         11   -1    0    0    0    0 -0.00000000000E+00 -0.00000000000E+00 -0.45593999997E+02  0.45594000000E+02  0.51100000000E-03 0. -1.
    9900012    2    1    2    0    0  0.40811879019E+02  0.11842343719E+01  0.14717718773E+02  0.47787272748E+02  0.20000007767E+02 0.  0.
         12    1    1    2    0    0 -0.40811879019E+02 -0.11842343719E+01 -0.14717718773E+02  0.43400727252E+02  0.00000000000E+00 0. -1.
         11    1    3    3    0    0  0.45415505147E+01 -0.27723803237E+01  0.26101694685E+01  0.59266144342E+01  0.51100000000E-03 0. -1.
        -11    1    3    3    0    0  0.20664033991E+02 -0.37537916862E+01  0.63278797719E+00  0.21011750848E+02  0.51100000000E-03 0.  1.
        -12    1    3    3    0    0  0.15606294514E+02  0.77104063818E+01  0.11474761327E+02  0.20848907466E+02  0.00000000000E+00 0.  1.
</event>
<event>
 7    1  0.2476315E-009  0.4778727E+02  0.7816164E-02  0.1312668E+00
        -11   -1    0    0    0    0  0.00000000000E+00  0.00000000000E+00  0.45593999997E+02  0.45594000000E+02  0.51100000000E-03 0. -1.
         11   -1    0    0    0    0 -0.00000000000E+00 -0.00000000000E+00 -0.45593999997E+02  0.45594000000E+02  0.51100000000E-03 0.  1.
    9900012    2    1    2    0    0  0.14453078714E+02  0.32237404187E+02 -0.25208759163E+02  0.47787271302E+02  0.20000001172E+02 0.  0.
         12    1    1    2    0    0 -0.14453078714E+02 -0.32237404187E+02  0.25208759163E+02  0.43400728698E+02  0.00000000000E+00 0. -1.
         11    1    3    3    0    0  0.16513094642E+01 -0.22466459771E+01 -0.13211244665E+01  0.30853867197E+01  0.51100000000E-03 0. -1.
        -11    1    3    3    0    0  0.44830333242E+00  0.63279924317E+01 -0.76254403158E+01  0.99192643056E+01  0.51100000000E-03 0.  1.
         12    1    3    3    0    0  0.12353465917E+02  0.28156057733E+02 -0.16262194380E+02  0.34782620276E+02  0.00000000000E+00 0. -1.
</event>
<event>
 7    1  0.2476315E-009  0.4778727E+02  0.7816164E-02  0.1312668E+00
        -11   -1    0    0    0    0  0.00000000000E+00  0.00000000000E+00  0.45593999997E+02  0.45594000000E+02  0.51100000000E-03 0.  1.
         11   -1    0    0    0    0 -0.00000000000E+00 -0.00000000000E+00 -0.45593999997E+02  0.45594000000E+02  0.51100000000E-03 0. -1.
    9900012    2    1    2    0    0 -0.30948937847E+02  0.33584587741E+01  0.30240818334E+02  0.47787273132E+02  0.20000009516E+02 0.  0.
         12    1    1    2    0    0  0.30948937847E+02 -0.33584587741E+01 -0.30240818334E+02  0.43400726868E+02  0.00000000000E+00 0. -1.
         11    1    3    3    0    0 -0.34494986333E+01  0.97107293716E+00  0.87284215996E+01  0.94354314873E+01  0.51100000000E-03 0. -1.
        -11    1    3    3    0    0 -0.25146858625E+02  0.32100432482E+01  0.23943214544E+02  0.34870422987E+02  0.51100000000E-03 0.  1.
        -12    1    3    3    0    0 -0.23525805886E+01 -0.82265741121E+00 -0.24308178093E+01  0.34814186569E+01  0.00000000000E+00 0.  1.
</event>
<event>
 7    1  0.2476315E-009  0.4778727E+02  0.7816164E-02  0.1312668E+00
        -11   -1    0    0    0    0  0.00000000000E+00  0.00000000000E+00  0.45593999997E+02  0.45594000000E+02  0.51100000000E-03 0.  1.
         11   -1    0    0    0    0 -0.00000000000E+00 -0.00000000000E+00 -0.45593999997E+02  0.45594000000E+02  0.51100000000E-03 0. -1.
    9900012    2    1    2    0    0  0.21531286874E+01  0.13613286911E+02  0.41154169031E+02  0.47787272214E+02  0.20000005334E+02 0.  0.
         12    1    1    2    0    0 -0.21531286874E+01 -0.13613286911E+02 -0.41154169031E+02  0.43400727786E+02  0.00000000000E+00 0. -1.
         11    1    3    3    0    0  0.27162107551E+01 -0.32137488428E+01  0.12920735922E+02  0.13588649658E+02  0.51100000000E-03 0. -1.
        -11    1    3    3    0    0 -0.21827825582E+01  0.11297163844E+02  0.10588704790E+02  0.15636851346E+02  0.51100000000E-03 0.  1.
        -12    1    3    3    0    0  0.16197004905E+01  0.55298719091E+01  0.17644728319E+02  0.18561771211E+02  0.00000000000E+00 0.  1.
</event>
<event>
 7    1  0.2476315E-009  0.4778727E+02  0.7816164E-02  0.1312668E+00
        -11   -1    0    0    0    0  0.00000000000E+00  0.00000000000E+00  0.45593999997E+02  0.45594000000E+02  0.51100000000E-03 0.  1.
         11   -1    0    0    0    0 -0.00000000000E+00 -0.00000000000E+00 -0.45593999997E+02  0.45594000000E+02  0.51100000000E-03 0. -1.
    9900012    2    1    2    0    0 -0.18294340919E+02 -0.89241842955E+01  0.38331443600E+02  0.47787267939E+02  0.19999985841E+02 0.  0.
         12    1    1    2    0    0  0.18294340919E+02  0.89241842955E+01 -0.38331443600E+02  0.43400732061E+02  0.00000000000E+00 0. -1.
         11    1    3    3    0    0 -0.59115429097E+01 -0.99657881713E+01  0.12250596741E+02  0.16862395863E+02  0.51100000000E-03 0. -1.
        -11    1    3    3    0    0 -0.56289772799E+01 -0.43188091095E+01  0.69083074590E+01  0.99026364949E+01  0.51100000000E-03 0.  1.
         12    1    3    3    0    0 -0.67538207295E+01  0.53604129854E+01  0.19172539399E+02  0.21022235582E+02  0.00000000000E+00 0. -1.
</event>
<event>
 7    1  0.2476315E-009  0.4778727E+02  0.7816164E-02  0.1312668E+00
        -11   -1    0    0    0    0  0.00000000000E+00  0.00000000000E+00  0.45593999997E+02  0.45594000000E+02  0.51100000000E-03 0. -1.
         11   -1    0    0    0    0 -0.00000000000E+00 -0.00000000000E+00 -0.45593999997E+02  0.45594000000E+02  0.51100000000E-03 0.  1.
    9900012    2    1    2    0    0  0.33851532639E+02 -0.11796253261E+00 -0.27160330873E+02  0.47787265555E+02  0.19999974973E+02 0.  0.
         12    1    1    2    0    0 -0.33851532639E+02  0.11796253261E+00  0.27160330873E+02  0.43400734445E+02  0.00000000000E+00 0. -1.
         11    1    3    3    0    0 -0.12383723070E+01 -0.29992412480E+00 -0.41382184168E+01  0.43299390732E+01  0.51100000000E-03 0. -1.
        -11    1    3    3    0    0  0.25929232919E+02 -0.10522234578E+01 -0.22247259786E+02  0.34181469573E+02  0.51100000000E-03 0.  1.
         12    1    3    3    0    0  0.91606720276E+01  0.12341850499E+01 -0.77485267067E+00  0.92758569089E+01  0.00000000000E+00 0. -1.
</event>
<event>
 7    1  0.2476315E-009  0.4778727E+02  0.7816164E-02  0.1312668E+00
        -11   -1    0    0    0    0  0.00000000000E+00  0.00000000000E+00  0.45593999997E+02  0.45594000000E+02  0.51100000000E-03 0. -1.
         11   -1    0    0    0    0 -0.00000000000E+00 -0.00000000000E+00 -0.45593999997E+02  0.45594000000E+02  0.51100000000E-03 0.  1.
    9900012    2    1    2    0    0  0.11019061584E+02 -0.16003617727E+01 -0.41948089899E+02  0.47787272792E+02  0.20000007968E+02 0.  0.
         12    1    1    2    0    0 -0.11019061584E+02  0.16003617727E+01  0.41948089899E+02  0.43400727208E+02  0.00000000000E+00 0. -1.
         11    1    3    3    0    0  0.71267835953E+01 -0.56205296171E+01 -0.99440057590E+01  0.13463456034E+02  0.51100000000E-03 0. -1.
        -11    1    3    3    0    0 -0.25200765761E+01 -0.12827627047E+01 -0.16377947110E+02  0.16620271295E+02  0.51100000000E-03 0.  1.
         12    1    3    3    0    0  0.64123545650E+01  0.53029305491E+01 -0.15626137030E+02  0.17703545463E+02  0.00000000000E+00 0. -1.
</event>
<event>
 7    1  0.2476315E-009  0.4778727E+02  0.7816164E-02  0.1312668E+00
        -11   -1    0    0    0    0  0.00000000000E+00  0.00000000000E+00  0.45593999997E+02  0.45594000000E+02  0.51100000000E-03 0.  1.
         11   -1    0    0    0    0 -0.00000000000E+00 -0.00000000000E+00 -0.45593999997E+02  0.45594000000E+02  0.51100000000E-03 0. -1.
    9900012    2    1    2    0    0  0.12052933567E+02 -0.18561952343E+02  0.37333684052E+02  0.47787271351E+02  0.20000001399E+02 0.  0.
         12    1    1    2    0    0 -0.12052933567E+02  0.18561952343E+02 -0.37333684052E+02  0.43400728649E+02  0.00000000000E+00 0. -1.
         11    1    3    3    0    0  0.13443768252E+01 -0.42326214477E+01  0.25393958973E+02  0.25779363568E+02  0.51100000000E-03 0.  1.
        -11    1    3    3    0    0  0.60159670724E+01 -0.11421847649E+02  0.91464710590E+01  0.15821137653E+02  0.51100000000E-03 0. -1.
        -12    1    3    3    0    0  0.46925896696E+01 -0.29074832457E+01  0.27932540200E+01  0.61867701308E+01  0.00000000000E+00 0.  1.
</event>
<event>
 7    1  0.2476315E-009  0.4778728E+02  0.7816164E-02  0.1312668E+00
        -11   -1    0    0    0    0  0.00000000000E+00  0.00000000000E+00  0.45593999997E+02  0.45594000000E+02  0.51100000000E-03 0.  1.
         11   -1    0    0    0    0 -0.00000000000E+00 -0.00000000000E+00 -0.45593999997E+02  0.45594000000E+02  0.51100000000E-03 0. -1.
    9900012    2    1    2    0    0 -0.40157501759E+02  0.16060125739E+02  0.36152451183E+01  0.47787278997E+02  0.20000036260E+02 0.  0.
         12    1    1    2    0    0  0.40157501759E+02 -0.16060125739E+02 -0.36152451183E+01  0.43400721003E+02  0.00000000000E+00 0. -1.
         11    1    3    3    0    0  0.17093577875E+01  0.13116520770E+01  0.51449369651E+00  0.22151837941E+01  0.51100000000E-03 0. -1.
        -11    1    3    3    0    0 -0.18053000414E+02  0.42075793603E+01 -0.31184371075E+01  0.18797318912E+02  0.51100000000E-03 0.  1.
         12    1    3    3    0    0 -0.23813859133E+02  0.10540894302E+02  0.62191885293E+01  0.26774776291E+02  0.00000000000E+00 0. -1.
</event>
<event>
 7    1  0.2476315E-009  0.4778727E+02  0.7816164E-02  0.1312668E+00
        -11   -1    0    0    0    0  0.00000000000E+00  0.00000000000E+00  0.45593999997E+02  0.45594000000E+02  0.51100000000E-03 0.  1.
         11   -1    0    0    0    0 -0.00000000000E+00 -0.00000000000E+00 -0.45593999997E+02  0.45594000000E+02  0.51100000000E-03 0. -1.
    9900012    2    1    2    0    0  0.38031794948E+01 -0.69750470806E+00  0.43228145528E+02  0.47787271287E+02  0.20000001104E+02 0.  0.
         12    1    1    2    0    0 -0.38031794948E+01  0.69750470806E+00 -0.43228145528E+02  0.43400728713E+02  0.00000000000E+00 0. -1.
         11    1    3    3    0    0 -0.79077312878E+01  0.11223679111E+01  0.16822282157E+02  0.18622059529E+02  0.51100000000E-03 0. -1.
        -11    1    3    3    0    0  0.11681582344E+02 -0.22920031576E+01  0.25215387146E+02  0.27884196128E+02  0.51100000000E-03 0.  1.
        -12    1    3    3    0    0  0.29328438773E-01  0.47213053839E+00  0.11904762248E+01  0.12810156301E+01  0.00000000000E+00 0.  1.
</event>
<event>
 7    1  0.2476315E-009  0.4778728E+02  0.7816164E-02  0.1312668E+00
        -11   -1    0    0    0    0  0.00000000000E+00  0.00000000000E+00  0.45593999997E+02  0.45594000000E+02  0.51100000000E-03 0.  1.
         11   -1    0    0    0    0 -0.00000000000E+00 -0.00000000000E+00 -0.45593999997E+02  0.45594000000E+02  0.51100000000E-03 0. -1.
    9900012    2    1    2    0    0  0.21960251489E+02  0.32566735667E+02  0.18460164155E+02  0.47787279060E+02  0.20000036546E+02 0.  0.
         12    1    1    2    0    0 -0.21960251489E+02 -0.32566735667E+02 -0.18460164155E+02  0.43400720940E+02  0.00000000000E+00 0. -1.
         11    1    3    3    0    0  0.81958099728E+01  0.13081243989E+02  0.13482228791E+02  0.20495383354E+02  0.51100000000E-03 0. -1.
        -11    1    3    3    0    0  0.94504134710E+01  0.65258630031E+01 -0.24513552553E+01  0.11743353250E+02  0.51100000000E-03 0.  1.
         12    1    3    3    0    0  0.43140280451E+01  0.12959628676E+02  0.74292906189E+01  0.15548542455E+02  0.00000000000E+00 0. -1.
</event>
<event>
 7    1  0.2476315E-009  0.4778727E+02  0.7816164E-02  0.1312668E+00
        -11   -1    0    0    0    0  0.00000000000E+00  0.00000000000E+00  0.45593999997E+02  0.45594000000E+02  0.51100000000E-03 0. -1.
         11   -1    0    0    0    0 -0.00000000000E+00 -0.00000000000E+00 -0.45593999997E+02  0.45594000000E+02  0.51100000000E-03 0.  1.
    9900012    2    1    2    0    0 -0.23760882097E+01  0.68447566450E+01 -0.42791665622E+02  0.47787272640E+02  0.20000007274E+02 0.  0.
         12    1    1    2    0    0  0.23760882097E+01 -0.68447566450E+01  0.42791665622E+02  0.43400727360E+02  0.00000000000E+00 0. -1.
         11    1    3    3    0    0  0.78528619960E+01  0.57418797970E+01 -0.21592061152E+02  0.23682350605E+02  0.51100000000E-03 0. -1.
        -11    1    3    3    0    0 -0.90897610492E+01  0.22271038077E+01 -0.14819753011E+02  0.17527373644E+02  0.51100000000E-03 0.  1.
         12    1    3    3    0    0 -0.11391891565E+01 -0.11242269597E+01 -0.63798514592E+01  0.65775483907E+01  0.00000000000E+00 0. -1.
</event>
<event>
 7    1  0.2476315E-009  0.4778727E+02  0.7816164E-02  0.1312668E+00
        -11   -1    0    0    0    0  0.00000000000E+00  0.00000000000E+00  0.45593999997E+02  0.45594000000E+02  0.51100000000E-03 0. -1.
         11   -1    0    0    0    0 -0.00000000000E+00 -0.00000000000E+00 -0.45593999997E+02  0.45594000000E+02  0.51100000000E-03 0.  1.
    9900012    2    1    2    0    0  0.32147292518E+02 -0.25137740207E+02 -0.14773922305E+02  0.47787272135E+02  0.20000004973E+02 0.  0.
         12    1    1    2    0    0 -0.32147292518E+02  0.25137740207E+02  0.14773922305E+02  0.43400727865E+02  0.00000000000E+00 0. -1.
         11    1    3    3    0    0  0.19411411760E+02 -0.56772673861E+01 -0.47099693204E+01  0.20765791166E+02  0.51100000000E-03 0. -1.
        -11    1    3    3    0    0  0.49049288455E+01 -0.12271545297E+02 -0.96849594566E+01  0.16384370324E+02  0.51100000000E-03 0.  1.
         12    1    3    3    0    0  0.78309519122E+01 -0.71889275231E+01 -0.37899352790E+00  0.10637110645E+02  0.00000000000E+00 0. -1.
</event>
<event>
 7    1  0.2476315E-009  0.4778727E+02  0.7816164E-02  0.1312668E+00
        -11   -1    0    0    0    0  0.00000000000E+00  0.00000000000E+00  0.45593999997E+02  0.45594000000E+02  0.51100000000E-03 0. -1.
         11   -1    0    0    0    0 -0.00000000000E+00 -0.00000000000E+00 -0.45593999997E+02  0.45594000000E+02  0.51100000000E-03 0.  1.
    9900012    2    1    2    0    0  0.18490642714E+02 -0.81866128973E+01 -0.38401806729E+02  0.47787271219E+02  0.20000000795E+02 0.  0.
         12    1    1    2    0    0 -0.18490642714E+02  0.81866128973E+01  0.38401806729E+02  0.43400728781E+02  0.00000000000E+00 0. -1.
         11    1    3    3    0    0  0.11765502178E+02 -0.72445379207E+01 -0.89997333729E+01  0.16489559492E+02  0.51100000000E-03 0. -1.
        -11    1    3    3    0    0  0.30479848466E+01  0.36312806164E+01 -0.15470858341E+02  0.16180972425E+02  0.51100000000E-03 0.  1.
        -12    1    3    3    0    0  0.36771556894E+01 -0.45733555930E+01 -0.13931215014E+02  0.15116739302E+02  0.00000000000E+00 0.  1.
</event>
<event>
 7    1  0.2476315E-009  0.4778727E+02  0.7816164E-02  0.1312668E+00
        -11   -1    0    0    0    0  0.00000000000E+00  0.00000000000E+00  0.45593999997E+02  0.45594000000E+02  0.51100000000E-03 0. -1.
         11   -1    0    0    0    0 -0.00000000000E+00 -0.00000000000E+00 -0.45593999997E+02  0.45594000000E+02  0.51100000000E-03 0.  1.
    9900012    2    1    2    0    0  0.40993937019E+02  0.14244150659E+02 -0.47409772736E+00  0.47787268797E+02  0.19999989754E+02 0.  0.
         12    1    1    2    0    0 -0.40993937019E+02 -0.14244150659E+02  0.47409772736E+00  0.43400731203E+02  0.00000000000E+00 0. -1.
         11    1    3    3    0    0  0.17934004811E+02  0.11060897323E+02 -0.67380063994E+01  0.22121770016E+02  0.51100000000E-03 0. -1.
        -11    1    3    3    0    0  0.20538691405E+02  0.40631324371E+01  0.80738395505E+01  0.22439558266E+02  0.51100000000E-03 0.  1.
         12    1    3    3    0    0  0.25212408032E+01 -0.87987910185E+00 -0.18099308784E+01  0.32259405150E+01  0.00000000000E+00 0. -1.
</event>
<event>
 7    1  0.2476315E-009  0.4778728E+02  0.7816164E-02  0.1312668E+00
        -11   -1    0    0    0    0  0.00000000000E+00  0.00000000000E+00  0.45593999997E+02  0.45594000000E+02  0.51100000000E-03 0.  1.
         11   -1    0    0    0    0 -0.00000000000E+00 -0.00000000000E+00 -0.45593999997E+02  0.45594000000E+02  0.51100000000E-03 0. -1.
    9900012    2    1    2    0    0 -0.14735647255E+02  0.10451272112E+02  0.39462064565E+02  0.47787275023E+02  0.20000018140E+02 0.  0.
         12    1    1    2    0    0  0.14735647255E+02 -0.10451272112E+02 -0.39462064565E+02  0.43400724977E+02  0.00000000000E+00 0. -1.
         11    1    3    3    0    0  0.28912597091E+01  0.24145042411E+00  0.17168991401E+01  0.33712644410E+01  0.51100000000E-03 0. -1.
        -11    1    3    3    0    0 -0.19199332616E+02  0.99596742338E+01  0.36354496155E+02  0.42301996107E+02  0.51100000000E-03 0.  1.
        -12    1    3    3    0    0  0.15724256518E+01  0.25014745414E+00  0.13906692703E+01  0.21140144745E+01  0.00000000000E+00 0.  1.
</event>
<event>
 7    1  0.2476315E-009  0.4778727E+02  0.7816164E-02  0.1312668E+00
        -11   -1    0    0    0    0  0.00000000000E+00  0.00000000000E+00  0.45593999997E+02  0.45594000000E+02  0.51100000000E-03 0. -1.
         11   -1    0    0    0    0 -0.00000000000E+00 -0.00000000000E+00 -0.45593999997E+02  0.45594000000E+02  0.51100000000E-03 0.  1.
    9900012    2    1    2    0    0  0.38469853493E+02 -0.17357302087E+02 -0.10120147483E+02  0.47787274792E+02  0.20000017088E+02 0.  0.
         12    1    1    2    0    0 -0.38469853493E+02  0.17357302087E+02  0.10120147483E+02  0.43400725208E+02  0.00000000000E+00 0. -1.
         11    1    3    3    0    0  0.16117022518E+00 -0.96606052484E+00  0.29834771195E+01  0.31401249598E+01  0.51100000000E-03 0. -1.
        -11    1    3    3    0    0  0.22655313183E+02 -0.57191179638E+01 -0.10140526263E+02  0.25471588071E+02  0.51100000000E-03 0.  1.
         12    1    3    3    0    0  0.15653370085E+02 -0.10672123599E+02 -0.29630983390E+01  0.19175561762E+02  0.00000000000E+00 0. -1.
</event>
<event>
 7    1  0.2476315E-009  0.4778727E+02  0.7816164E-02  0.1312668E+00
        -11   -1    0    0    0    0  0.00000000000E+00  0.00000000000E+00  0.45593999997E+02  0.45594000000E+02  0.51100000000E-03 0. -1.
         11   -1    0    0    0    0 -0.00000000000E+00 -0.00000000000E+00 -0.45593999997E+02  0.45594000000E+02  0.51100000000E-03 0.  1.
    9900012    2    1    2    0    0  0.29791443746E+02 -0.22486868524E+02 -0.22145743677E+02  0.47787270289E+02  0.19999996554E+02 0.  0.
         12    1    1    2    0    0 -0.29791443746E+02  0.22486868524E+02  0.22145743677E+02  0.43400729711E+02  0.00000000000E+00 0. -1.
         11    1    3    3    0    0 -0.10843100518E+00 -0.28403750491E+01 -0.63959380085E+01  0.69991078698E+01  0.51100000000E-03 0. -1.
        -11    1    3    3    0    0  0.17028062076E+02 -0.14150709304E+02 -0.39674879690E+01  0.22493075221E+02  0.51100000000E-03 0.  1.
         12    1    3    3    0    0  0.12871812675E+02 -0.54957841715E+01 -0.11782317699E+02  0.18295087198E+02  0.00000000000E+00 0. -1.
</event>
<event>
 7    1  0.2476315E-009  0.4778726E+02  0.7816164E-02  0.1312668E+00
        -11   -1    0    0    0    0  0.00000000000E+00  0.00000000000E+00  0.45593999997E+02  0.45594000000E+02  0.51100000000E-03 0.  1.
         11   -1    0    0    0    0 -0.00000000000E+00 -0.00000000000E+00 -0.45593999997E+02  0.45594000000E+02  0.51100000000E-03 0. -1.
    9900012    2    1    2    0    0  0.16771871624E+02 -0.60248358475E+01  0.39573096882E+02  0.47787258974E+02  0.19999944966E+02 0.  0.
         12    1    1    2    0    0 -0.16771871624E+02  0.60248358475E+01 -0.39573096882E+02  0.43400741026E+02  0.00000000000E+00 0. -1.
         11    1    3    3    0    0 -0.16645538972E+01 -0.11305681022E+01  0.27619603613E+01  0.34172136615E+01  0.51100000000E-03 0. -1.
        -11    1    3    3    0    0  0.75324775423E+01 -0.63384174582E+01  0.57085655791E+01  0.11379871486E+02  0.51100000000E-03 0.  1.
        -12    1    3    3    0    0  0.10903947978E+02  0.14441497129E+01  0.31102570942E+02  0.32990173827E+02  0.00000000000E+00 0.  1.
</event>
<event>
 7    1  0.2476315E-009  0.4778727E+02  0.7816164E-02  0.1312668E+00
        -11   -1    0    0    0    0  0.00000000000E+00  0.00000000000E+00  0.45593999997E+02  0.45594000000E+02  0.51100000000E-03 0.  1.
         11   -1    0    0    0    0 -0.00000000000E+00 -0.00000000000E+00 -0.45593999997E+02  0.45594000000E+02  0.51100000000E-03 0. -1.
    9900012    2    1    2    0    0  0.14164615730E+02  0.92274451672E+01  0.39973003137E+02  0.47787273475E+02  0.20000011081E+02 0.  0.
         12    1    1    2    0    0 -0.14164615730E+02 -0.92274451672E+01 -0.39973003137E+02  0.43400726525E+02  0.00000000000E+00 0. -1.
         11    1    3    3    0    0  0.14373184632E+01  0.33453397754E+01  0.77415495287E+01  0.85550436553E+01  0.51100000000E-03 0. -1.
        -11    1    3    3    0    0 -0.31618231751E+01  0.50377203318E+01  0.12822042009E+02  0.14134373473E+02  0.51100000000E-03 0.  1.
        -12    1    3    3    0    0  0.15889120442E+02  0.84438505993E+00  0.19409411600E+02  0.25097856347E+02  0.00000000000E+00 0.  1.
</event>
<event>
 7    1  0.2476315E-009  0.4778728E+02  0.7816164E-02  0.1312668E+00
        -11   -1    0    0    0    0  0.00000000000E+00  0.00000000000E+00  0.45593999997E+02  0.45594000000E+02  0.51100000000E-03 0.  1.
         11   -1    0    0    0    0 -0.00000000000E+00 -0.00000000000E+00 -0.45593999997E+02  0.45594000000E+02  0.51100000000E-03 0. -1.
    9900012    2    1    2    0    0 -0.11347269588E+02 -0.36093196371E+02  0.21263663901E+02  0.47787277035E+02  0.20000027314E+02 0.  0.
         12    1    1    2    0    0  0.11347269588E+02  0.36093196371E+02 -0.21263663901E+02  0.43400722965E+02  0.00000000000E+00 0. -1.
         11    1    3    3    0    0 -0.23185912724E+01  0.35224561194E-01  0.49233334058E+01  0.54420876825E+01  0.51100000000E-03 0. -1.
        -11    1    3    3    0    0 -0.83242089995E+01 -0.32982368517E+02  0.18244998599E+02  0.38600635521E+02  0.51100000000E-03 0.  1.
        -12    1    3    3    0    0 -0.70446931593E+00 -0.31460524150E+01 -0.19046681034E+01  0.37445538318E+01  0.00000000000E+00 0.  1.
</event>
<event>
 7    1  0.2476315E-009  0.4778727E+02  0.7816164E-02  0.1312668E+00
        -11   -1    0    0    0    0  0.00000000000E+00  0.00000000000E+00  0.45593999997E+02  0.45594000000E+02  0.51100000000E-03 0. -1.
         11   -1    0    0    0    0 -0.00000000000E+00 -0.00000000000E+00 -0.45593999997E+02  0.45594000000E+02  0.51100000000E-03 0.  1.
    9900012    2    1    2    0    0  0.20247853136E+02  0.12114100133E+01 -0.38369003539E+02  0.47787268400E+02  0.19999987942E+02 0.  0.
         12    1    1    2    0    0 -0.20247853136E+02 -0.12114100133E+01  0.38369003539E+02  0.43400731600E+02  0.00000000000E+00 0. -1.
         11    1    3    3    0    0  0.11328461939E+02  0.26761789226E+01 -0.77054166737E+01  0.13959564102E+02  0.51100000000E-03 0. -1.
        -11    1    3    3    0    0  0.15954527310E+01  0.43491719211E+01 -0.13635756050E+02  0.14401201656E+02  0.51100000000E-03 0.  1.
         12    1    3    3    0    0  0.73239384655E+01 -0.58139408304E+01 -0.17027830816E+02  0.19426502642E+02  0.00000000000E+00 0. -1.
</event>
<event>
 7    1  0.2476315E-009  0.4778727E+02  0.7816164E-02  0.1312668E+00
        -11   -1    0    0    0    0  0.00000000000E+00  0.00000000000E+00  0.45593999997E+02  0.45594000000E+02  0.51100000000E-03 0.  1.
         11   -1    0    0    0    0 -0.00000000000E+00 -0.00000000000E+00 -0.45593999997E+02  0.45594000000E+02  0.51100000000E-03 0. -1.
    9900012    2    1    2    0    0  0.36614860935E+02  0.10328781233E+02  0.20887587932E+02  0.47787273132E+02  0.20000009518E+02 0.  0.
         12    1    1    2    0    0 -0.36614860935E+02 -0.10328781233E+02 -0.20887587932E+02  0.43400726868E+02  0.00000000000E+00 0. -1.
         11    1    3    3    0    0  0.29030605265E+01  0.55863748480E+01  0.48437232943E+01  0.79433620071E+01  0.51100000000E-03 0. -1.
        -11    1    3    3    0    0  0.26743840929E+02 -0.15197365866E+01  0.14117641798E+02  0.30279538258E+02  0.51100000000E-03 0.  1.
        -12    1    3    3    0    0  0.69679594793E+01  0.62621429716E+01  0.19262228398E+01  0.95643728666E+01  0.00000000000E+00 0.  1.
</event>
<event>
 7    1  0.2476315E-009  0.4778725E+02  0.7816164E-02  0.1312668E+00
        -11   -1    0    0    0    0  0.00000000000E+00  0.00000000000E+00  0.45593999997E+02  0.45594000000E+02  0.51100000000E-03 0.  1.
         11   -1    0    0    0    0 -0.00000000000E+00 -0.00000000000E+00 -0.45593999997E+02  0.45594000000E+02  0.51100000000E-03 0. -1.
    9900012    2    1    2    0    0 -0.19013928628E+02 -0.28953399177E+02  0.26149495050E+02  0.47787252343E+02  0.19999914733E+02 0.  0.
         12    1    1    2    0    0  0.19013928628E+02  0.28953399177E+02 -0.26149495050E+02  0.43400747657E+02  0.00000000000E+00 0. -1.
         11    1    3    3    0    0 -0.27277737186E+01 -0.19283632418E+02  0.88710359781E+01  0.21400806253E+02  0.51100000000E-03 0. -1.
        -11    1    3    3    0    0 -0.32059727814E+01 -0.25780668744E+01  0.81172636803E+00  0.41932791752E+01  0.51100000000E-03 0.  1.
         12    1    3    3    0    0 -0.13080182128E+02 -0.70916998852E+01  0.16466732704E+02  0.22193166915E+02  0.00000000000E+00 0. -1.
</event>
<event>
 7    1  0.2476315E-009  0.4778727E+02  0.7816164E-02  0.1312668E+00
        -11   -1    0    0    0    0  0.00000000000E+00  0.00000000000E+00  0.45593999997E+02  0.45594000000E+02  0.51100000000E-03 0.  1.
         11   -1    0    0    0    0 -0.00000000000E+00 -0.00000000000E+00 -0.45593999997E+02  0.45594000000E+02  0.51100000000E-03 0. -1.
    9900012    2    1    2    0    0  0.22217446626E+02  0.99170829999E+01  0.35939671226E+02  0.47787269158E+02  0.19999991399E+02 0.  0.
         12    1    1    2    0    0 -0.22217446626E+02 -0.99170829999E+01 -0.35939671226E+02  0.43400730842E+02  0.00000000000E+00 0. -1.
         11    1    3    3    0    0  0.16445031464E+02  0.53920472577E+01  0.86980642520E+01  0.19369294140E+02  0.51100000000E-03 0. -1.
        -11    1    3    3    0    0  0.46111726994E+01  0.18837153174E+01  0.20266535695E+02  0.20869685345E+02  0.51100000000E-03 0.  1.
        -12    1    3    3    0    0  0.11612424621E+01  0.26413204248E+01  0.69750712792E+01  0.75482896734E+01  0.00000000000E+00 0.  1.
</event>
<event>
 7    1  0.2476315E-009  0.4778727E+02  0.7816164E-02  0.1312668E+00
        -11   -1    0    0    0    0  0.00000000000E+00  0.00000000000E+00  0.45593999997E+02  0.45594000000E+02  0.51100000000E-03 0. -1.
         11   -1    0    0    0    0 -0.00000000000E+00 -0.00000000000E+00 -0.45593999997E+02  0.45594000000E+02  0.51100000000E-03 0.  1.
    9900012    2    1    2    0    0  0.14194793790E+01  0.42477271861E+02  0.87914581152E+01  0.47787270948E+02  0.19999999558E+02 0.  0.
         12    1    1    2    0    0 -0.14194793790E+01 -0.42477271861E+02 -0.87914581152E+01  0.43400729052E+02  0.00000000000E+00 0. -1.
         11    1    3    3    0    0  0.21402212612E+01 -0.66199001457E-01  0.45378991216E+01  0.50177144253E+01  0.51100000000E-03 0. -1.
        -11    1    3    3    0    0 -0.99219334686E-02  0.17985539118E+02  0.20785985764E+01  0.18105255815E+02  0.51100000000E-03 0.  1.
         12    1    3    3    0    0 -0.71081994873E+00  0.24557931745E+02  0.21749604171E+01  0.24664300708E+02  0.00000000000E+00 0. -1.
</event>
<event>
 7    1  0.2476315E-009  0.4778727E+02  0.7816164E-02  0.1312668E+00
        -11   -1    0    0    0    0  0.00000000000E+00  0.00000000000E+00  0.45593999997E+02  0.45594000000E+02  0.51100000000E-03 0. -1.
         11   -1    0    0    0    0 -0.00000000000E+00 -0.00000000000E+00 -0.45593999997E+02  0.45594000000E+02  0.51100000000E-03 0.  1.
    9900012    2    1    2    0    0  0.22792730755E+02 -0.27614948143E+02 -0.24526091158E+02  0.47787273235E+02  0.20000009989E+02 0.  0.
         12    1    1    2    0    0 -0.22792730755E+02  0.27614948143E+02  0.24526091158E+02  0.43400726765E+02  0.00000000000E+00 0. -1.
         11    1    3    3    0    0  0.59112504629E+01 -0.94146670872E+01 -0.18763033143E+02  0.21808948883E+02  0.51100000000E-03 0. -1.
        -11    1    3    3    0    0  0.12774500951E+02 -0.14752239676E+02 -0.64930381103E+01  0.20566380191E+02  0.51100000000E-03 0.  1.
         12    1    3    3    0    0  0.41069793419E+01 -0.34480413800E+01  0.72998009512E+00  0.54119441620E+01  0.00000000000E+00 0. -1.
</event>
<event>
 7    1  0.2476315E-009  0.4778728E+02  0.7816164E-02  0.1312668E+00
        -11   -1    0    0    0    0  0.00000000000E+00  0.00000000000E+00  0.45593999997E+02  0.45594000000E+02  0.51100000000E-03 0.  1.
         11   -1    0    0    0    0 -0.00000000000E+00 -0.00000000000E+00 -0.45593999997E+02  0.45594000000E+02  0.51100000000E-03 0. -1.
    9900012    2    1    2    0    0  0.37486398540E+02 -0.21830246661E+02 -0.13537053855E+01  0.47787282689E+02  0.20000053093E+02 0.  0.
         12    1    1    2    0    0 -0.37486398540E+02  0.21830246661E+02  0.13537053855E+01  0.43400717311E+02  0.00000000000E+00 0. -1.
         11    1    3    3    0    0 -0.16584590691E+01 -0.32927922224E+01  0.19388266760E+01  0.41655751397E+01  0.51100000000E-03 0. -1.
        -11    1    3    3    0    0  0.23098803466E+01 -0.13835958301E+01  0.72987792543E+00  0.27897323678E+01  0.51100000000E-03 0.  1.
         12    1    3    3    0    0  0.36834977263E+02 -0.17153858609E+02 -0.40224099869E+01  0.40831975182E+02  0.00000000000E+00 0. -1.
</event>
<event>
 7    1  0.2476315E-009  0.4778727E+02  0.7816164E-02  0.1312668E+00
        -11   -1    0    0    0    0  0.00000000000E+00  0.00000000000E+00  0.45593999997E+02  0.45594000000E+02  0.51100000000E-03 0.  1.
         11   -1    0    0    0    0 -0.00000000000E+00 -0.00000000000E+00 -0.45593999997E+02  0.45594000000E+02  0.51100000000E-03 0. -1.
    9900012    2    1    2    0    0  0.14829857277E+02  0.72148203199E+01  0.40145298410E+02  0.47787270933E+02  0.19999999494E+02 0.  0.
         12    1    1    2    0    0 -0.14829857277E+02 -0.72148203199E+01 -0.40145298410E+02  0.43400729067E+02  0.00000000000E+00 0. -1.
         11    1    3    3    0    0 -0.35410324014E+01 -0.28890350126E+01  0.51644150288E+01  0.68961305543E+01  0.51100000000E-03 0. -1.
        -11    1    3    3    0    0  0.17147044635E+02  0.96401882317E+01  0.31133806107E+02  0.36827547458E+02  0.51100000000E-03 0.  1.
         12    1    3    3    0    0  0.12238450442E+01  0.46366710074E+00  0.38470772741E+01  0.40635929207E+01  0.00000000000E+00 0. -1.
</event>
<event>
 7    1  0.2476315E-009  0.4778727E+02  0.7816164E-02  0.1312668E+00
        -11   -1    0    0    0    0  0.00000000000E+00  0.00000000000E+00  0.45593999997E+02  0.45594000000E+02  0.51100000000E-03 0.  1.
         11   -1    0    0    0    0 -0.00000000000E+00 -0.00000000000E+00 -0.45593999997E+02  0.45594000000E+02  0.51100000000E-03 0. -1.
    9900012    2    1    2    0    0  0.40190621371E+02 -0.15228148631E+02  0.60366192278E+01  0.47787270413E+02  0.19999997123E+02 0.  0.
         12    1    1    2    0    0 -0.40190621371E+02  0.15228148631E+02 -0.60366192278E+01  0.43400729587E+02  0.00000000000E+00 0. -1.
         11    1    3    3    0    0  0.13260127587E+02  0.18122974523E+01 -0.74939720785E+00  0.13404365040E+02  0.51100000000E-03 0. -1.
        -11    1    3    3    0    0  0.15962517669E+02 -0.43334340070E+01  0.79290024244E+00  0.16559266641E+02  0.51100000000E-03 0.  1.
         12    1    3    3    0    0  0.10967976115E+02 -0.12707012076E+02  0.59931161932E+01  0.17823638733E+02  0.00000000000E+00 0. -1.
</event>
<event>
 7    1  0.2476315E-009  0.4778727E+02  0.7816164E-02  0.1312668E+00
        -11   -1    0    0    0    0  0.00000000000E+00  0.00000000000E+00  0.45593999997E+02  0.45594000000E+02  0.51100000000E-03 0.  1.
         11   -1    0    0    0    0 -0.00000000000E+00 -0.00000000000E+00 -0.45593999997E+02  0.45594000000E+02  0.51100000000E-03 0. -1.
    9900012    2    1    2    0    0  0.16585122328E+02  0.34785444673E+02  0.19963216666E+02  0.47787268861E+02  0.19999990045E+02 0.  0.
         12    1    1    2    0    0 -0.16585122328E+02 -0.34785444673E+02 -0.19963216666E+02  0.43400731139E+02  0.00000000000E+00 0. -1.
         11    1    3    3    0    0  0.15172984749E+02  0.24488806959E+02  0.98705069884E+01  0.30452389741E+02  0.51100000000E-03 0. -1.
        -11    1    3    3    0    0 -0.15434218591E+01 -0.70686500600E+00  0.41518876130E+01  0.44855300895E+01  0.51100000000E-03 0.  1.
         12    1    3    3    0    0  0.29555594382E+01  0.11003502720E+02  0.59408220650E+01  0.12849349031E+02  0.00000000000E+00 0. -1.
</event>
<event>
 7    1  0.2476315E-009  0.4778725E+02  0.7816164E-02  0.1312668E+00
        -11   -1    0    0    0    0  0.00000000000E+00  0.00000000000E+00  0.45593999997E+02  0.45594000000E+02  0.51100000000E-03 0.  1.
         11   -1    0    0    0    0 -0.00000000000E+00 -0.00000000000E+00 -0.45593999997E+02  0.45594000000E+02  0.51100000000E-03 0. -1.
    9900012    2    1    2    0    0 -0.13858566500E+02  0.40488015985E+02  0.72308629337E+01  0.47787254815E+02  0.19999926002E+02 0.  0.
         12    1    1    2    0    0  0.13858566500E+02 -0.40488015985E+02 -0.72308629337E+01  0.43400745185E+02  0.00000000000E+00 0. -1.
         11    1    3    3    0    0 -0.22194782646E+01  0.46399984736E+01 -0.19799104605E+01  0.55114168138E+01  0.51100000000E-03 0. -1.
        -11    1    3    3    0    0 -0.11443701005E+02  0.10340128122E+02  0.90788595261E+00  0.15449944966E+02  0.51100000000E-03 0.  1.
        -12    1    3    3    0    0 -0.19538723069E+00  0.25507889389E+02  0.83028874416E+01  0.26825893035E+02  0.00000000000E+00 0.  1.
</event>
<event>
 7    1  0.2476315E-009  0.4778726E+02  0.7816164E-02  0.1312668E+00
        -11   -1    0    0    0    0  0.00000000000E+00  0.00000000000E+00  0.45593999997E+02  0.45594000000E+02  0.51100000000E-03 0. -1.
         11   -1    0    0    0    0 -0.00000000000E+00 -0.00000000000E+00 -0.45593999997E+02  0.45594000000E+02  0.51100000000E-03 0.  1.
    9900012    2    1    2    0    0  0.35272366017E+02 -0.24493650694E+02 -0.62884947406E+01  0.47787263890E+02  0.19999967381E+02 0.  0.
         12    1    1    2    0    0 -0.35272366017E+02  0.24493650694E+02  0.62884947406E+01  0.43400736110E+02  0.00000000000E+00 0. -1.
         11    1    3    3    0    0  0.29625856213E+02 -0.13871541170E+02 -0.37882357499E+01  0.32931166715E+02  0.51100000000E-03 0. -1.
        -11    1    3    3    0    0  0.75891604693E+01 -0.61520080485E+01 -0.17383182204E+01  0.99229184293E+01  0.51100000000E-03 0.  1.
         12    1    3    3    0    0 -0.19426506656E+01 -0.44701014751E+01 -0.76194077025E+00  0.49331787464E+01  0.00000000000E+00 0. -1.
</event>
<event>
 7    1  0.2476315E-009  0.4778728E+02  0.7816164E-02  0.1312668E+00
        -11   -1    0    0    0    0  0.00000000000E+00  0.00000000000E+00  0.45593999997E+02  0.45594000000E+02  0.51100000000E-03 0. -1.
         11   -1    0    0    0    0 -0.00000000000E+00 -0.00000000000E+00 -0.45593999997E+02  0.45594000000E+02  0.51100000000E-03 0.  1.
    9900012    2    1    2    0    0 -0.29171815064E+02  0.24712663953E+02 -0.20540501479E+02  0.47787277025E+02  0.20000027266E+02 0.  0.
         12    1    1    2    0    0  0.29171815064E+02 -0.24712663953E+02  0.20540501479E+02  0.43400722975E+02  0.00000000000E+00 0. -1.
         11    1    3    3    0    0 -0.22174081871E+02  0.10185733046E+02 -0.13042871754E+02  0.27668674857E+02  0.51100000000E-03 0. -1.
        -11    1    3    3    0    0  0.85805333231E+00  0.40207913892E+01 -0.54725201807E+01  0.68448152865E+01  0.51100000000E-03 0.  1.
         12    1    3    3    0    0 -0.78557865254E+01  0.10506139518E+02 -0.20251095447E+01  0.13273786881E+02  0.00000000000E+00 0. -1.
</event>
<event>
 7    1  0.2476315E-009  0.4778725E+02  0.7816164E-02  0.1312668E+00
        -11   -1    0    0    0    0  0.00000000000E+00  0.00000000000E+00  0.45593999997E+02  0.45594000000E+02  0.51100000000E-03 0.  1.
         11   -1    0    0    0    0 -0.00000000000E+00 -0.00000000000E+00 -0.45593999997E+02  0.45594000000E+02  0.51100000000E-03 0. -1.
    9900012    2    1    2    0    0 -0.62047455531E+01 -0.36362443685E+02  0.22866977123E+02  0.47787253222E+02  0.19999918740E+02 0.  0.
         12    1    1    2    0    0  0.62047455531E+01  0.36362443685E+02 -0.22866977123E+02  0.43400746778E+02  0.00000000000E+00 0. -1.
         11    1    3    3    0    0  0.10062868542E+01 -0.10245220907E+02 -0.19739938409E+01  0.10482071198E+02  0.51100000000E-03 0. -1.
        -11    1    3    3    0    0 -0.36122038101E+01 -0.84491443583E+01  0.48730678389E+01  0.10401098364E+02  0.51100000000E-03 0.  1.
         12    1    3    3    0    0 -0.35988285971E+01 -0.17668078420E+02  0.19967903125E+02  0.26904083659E+02  0.00000000000E+00 0. -1.
</event>
<event>
 7    1  0.2476315E-009  0.4778727E+02  0.7816164E-02  0.1312668E+00
        -11   -1    0    0    0    0  0.00000000000E+00  0.00000000000E+00  0.45593999997E+02  0.45594000000E+02  0.51100000000E-03 0.  1.
         11   -1    0    0    0    0 -0.00000000000E+00 -0.00000000000E+00 -0.45593999997E+02  0.45594000000E+02  0.51100000000E-03 0. -1.
    9900012    2    1    2    0    0 -0.98760392463E+01 -0.20050450151E+02 -0.37203044372E+02  0.47787271746E+02  0.20000003198E+02 0.  0.
         12    1    1    2    0    0  0.98760392463E+01  0.20050450151E+02  0.37203044372E+02  0.43400728254E+02  0.00000000000E+00 0. -1.
         11    1    3    3    0    0 -0.10319395915E+02 -0.13176823103E+02 -0.36995418049E+02  0.40605166617E+02  0.51100000000E-03 0. -1.
        -11    1    3    3    0    0  0.24101161671E+00 -0.39919064952E+01 -0.11192789119E+01  0.41528531890E+01  0.51100000000E-03 0.  1.
         12    1    3    3    0    0  0.20234505240E+00 -0.28817205535E+01  0.91165258916E+00  0.30292519393E+01  0.00000000000E+00 0. -1.
</event>
<event>
 7    1  0.2476315E-009  0.4778727E+02  0.7816164E-02  0.1312668E+00
        -11   -1    0    0    0    0  0.00000000000E+00  0.00000000000E+00  0.45593999997E+02  0.45594000000E+02  0.51100000000E-03 0.  1.
         11   -1    0    0    0    0 -0.00000000000E+00 -0.00000000000E+00 -0.45593999997E+02  0.45594000000E+02  0.51100000000E-03 0. -1.
    9900012    2    1    2    0    0 -0.24039605300E+02 -0.22654329110E+02  0.28151413305E+02  0.47787270496E+02  0.19999997500E+02 0.  0.
         12    1    1    2    0    0  0.24039605300E+02  0.22654329110E+02 -0.28151413305E+02  0.43400729504E+02  0.00000000000E+00 0. -1.
         11    1    3    3    0    0 -0.91032801916E+01 -0.13781295360E+02  0.72795158267E+01  0.18049519744E+02  0.51100000000E-03 0. -1.
        -11    1    3    3    0    0 -0.12439723032E+02 -0.29249117070E+01  0.19217023029E+02  0.23078037004E+02  0.51100000000E-03 0.  1.
        -12    1    3    3    0    0 -0.24966020760E+01 -0.59481220426E+01  0.16548744497E+01  0.66597137479E+01  0.00000000000E+00 0.  1.
</event>
<event>
 7    1  0.2476315E-009  0.4778727E+02  0.7816164E-02  0.1312668E+00
        -11   -1    0    0    0    0  0.00000000000E+00  0.00000000000E+00  0.45593999997E+02  0.45594000000E+02  0.51100000000E-03 0. -1.
         11   -1    0    0    0    0 -0.00000000000E+00 -0.00000000000E+00 -0.45593999997E+02  0.45594000000E+02  0.51100000000E-03 0.  1.
    9900012    2    1    2    0    0  0.15052340865E+02  0.29743388339E+02 -0.27791751122E+02  0.47787267911E+02  0.19999985715E+02 0.  0.
         12    1    1    2    0    0 -0.15052340865E+02 -0.29743388339E+02  0.27791751122E+02  0.43400732089E+02  0.00000000000E+00 0. -1.
         11    1    3    3    0    0  0.59131494119E+01  0.32885171901E+01 -0.13906835176E+02  0.15465437147E+02  0.51100000000E-03 0. -1.
        -11    1    3    3    0    0  0.65457171418E+01  0.23534387006E+02 -0.14440380996E+02  0.28376722647E+02  0.51100000000E-03 0.  1.
         12    1    3    3    0    0  0.25934743112E+01  0.29204841429E+01  0.55546505004E+00  0.39451081169E+01  0.00000000000E+00 0. -1.
</event>
<event>
 7    1  0.2476315E-009  0.4778727E+02  0.7816164E-02  0.1312668E+00
        -11   -1    0    0    0    0  0.00000000000E+00  0.00000000000E+00  0.45593999997E+02  0.45594000000E+02  0.51100000000E-03 0.  1.
         11   -1    0    0    0    0 -0.00000000000E+00 -0.00000000000E+00 -0.45593999997E+02  0.45594000000E+02  0.51100000000E-03 0. -1.
    9900012    2    1    2    0    0 -0.42931092380E+02  0.18169310481E+01  0.61027358320E+01  0.47787270559E+02  0.19999997785E+02 0.  0.
         12    1    1    2    0    0  0.42931092380E+02 -0.18169310481E+01 -0.61027358320E+01  0.43400729441E+02  0.00000000000E+00 0. -1.
         11    1    3    3    0    0 -0.16502906092E+01  0.43246419022E+01 -0.78931380208E+00  0.46956366146E+01  0.51100000000E-03 0. -1.
        -11    1    3    3    0    0 -0.28849964737E+02 -0.40790334921E+00  0.27612230031E+00  0.28854169443E+02  0.51100000000E-03 0.  1.
         12    1    3    3    0    0 -0.12430837034E+02 -0.20998075049E+01  0.66159273338E+01  0.14237464501E+02  0.00000000000E+00 0. -1.
</event>
<event>
 7    1  0.2476315E-009  0.4778728E+02  0.7816164E-02  0.1312668E+00
        -11   -1    0    0    0    0  0.00000000000E+00  0.00000000000E+00  0.45593999997E+02  0.45594000000E+02  0.51100000000E-03 0. -1.
         11   -1    0    0    0    0 -0.00000000000E+00 -0.00000000000E+00 -0.45593999997E+02  0.45594000000E+02  0.51100000000E-03 0.  1.
    9900012    2    1    2    0    0  0.11656135845E+02 -0.37608910613E+02 -0.18257246475E+02  0.47787277550E+02  0.20000029664E+02 0.  0.
         12    1    1    2    0    0 -0.11656135845E+02  0.37608910613E+02  0.18257246475E+02  0.43400722450E+02  0.00000000000E+00 0. -1.
         11    1    3    3    0    0  0.21362399232E+01 -0.54047445817E+00  0.68775146471E+00  0.23083838476E+01  0.51100000000E-03 0. -1.
        -11    1    3    3    0    0  0.12921201159E+02 -0.22760668676E+02 -0.87989913961E+01  0.27612093869E+02  0.51100000000E-03 0.  1.
        -12    1    3    3    0    0 -0.34013052374E+01 -0.14307767479E+02 -0.10146006543E+02  0.17866799834E+02  0.00000000000E+00 0.  1.
</event>
<event>
 7    1  0.2476315E-009  0.4778726E+02  0.7816164E-02  0.1312668E+00
        -11   -1    0    0    0    0  0.00000000000E+00  0.00000000000E+00  0.45593999997E+02  0.45594000000E+02  0.51100000000E-03 0. -1.
         11   -1    0    0    0    0 -0.00000000000E+00 -0.00000000000E+00 -0.45593999997E+02  0.45594000000E+02  0.51100000000E-03 0.  1.
    9900012    2    1    2    0    0 -0.23539726380E+02  0.19285848810E+02 -0.30944487770E+02  0.47787262613E+02  0.19999961557E+02 0.  0.
         12    1    1    2    0    0  0.23539726380E+02 -0.19285848810E+02  0.30944487770E+02  0.43400737387E+02  0.00000000000E+00 0. -1.
         11    1    3    3    0    0  0.21179829681E+01  0.38968918438E+01  0.10268225759E+00  0.44364582498E+01  0.51100000000E-03 0. -1.
        -11    1    3    3    0    0 -0.96376318269E+01  0.55314323333E+01 -0.14718383212E+02  0.18442112013E+02  0.51100000000E-03 0.  1.
         12    1    3    3    0    0 -0.16020077521E+02  0.98575246330E+01 -0.16328786816E+02  0.24908692350E+02  0.00000000000E+00 0. -1.
</event>
<event>
 7    1  0.2476315E-009  0.4778728E+02  0.7816164E-02  0.1312668E+00
        -11   -1    0    0    0    0  0.00000000000E+00  0.00000000000E+00  0.45593999997E+02  0.45594000000E+02  0.51100000000E-03 0. -1.
         11   -1    0    0    0    0 -0.00000000000E+00 -0.00000000000E+00 -0.45593999997E+02  0.45594000000E+02  0.51100000000E-03 0.  1.
    9900012    2    1    2    0    0  0.13154622784E+02 -0.13127057905E+02 -0.39220641830E+02  0.47787280013E+02  0.20000040889E+02 0.  0.
         12    1    1    2    0    0 -0.13154622784E+02  0.13127057905E+02  0.39220641830E+02  0.43400719987E+02  0.00000000000E+00 0. -1.
         11    1    3    3    0    0 -0.17690045674E+00 -0.45737326893E+01  0.65363119996E+00  0.46235871887E+01  0.51100000000E-03 0. -1.
        -11    1    3    3    0    0  0.59008471612E+01 -0.60426516860E+01 -0.17007636253E+02  0.18989295084E+02  0.51100000000E-03 0.  1.
         12    1    3    3    0    0  0.74306760794E+01 -0.25106735300E+01 -0.22866636777E+02  0.24174397739E+02  0.00000000000E+00 0. -1.
</event>
<event>
 7    1  0.2476315E-009  0.4778727E+02  0.7816164E-02  0.1312668E+00
        -11   -1    0    0    0    0  0.00000000000E+00  0.00000000000E+00  0.45593999997E+02  0.45594000000E+02  0.51100000000E-03 0.  1.
         11   -1    0    0    0    0 -0.00000000000E+00 -0.00000000000E+00 -0.45593999997E+02  0.45594000000E+02  0.51100000000E-03 0. -1.
    9900012    2    1    2    0    0 -0.31651207491E+02  0.19532448585E+02  0.22367563977E+02  0.47787269573E+02  0.19999993290E+02 0.  0.
         12    1    1    2    0    0  0.31651207491E+02 -0.19532448585E+02 -0.22367563977E+02  0.43400730427E+02  0.00000000000E+00 0. -1.
         11    1    3    3    0    0 -0.11848772685E+02  0.55910164018E+01 -0.14320234291E+01  0.13179665015E+02  0.51100000000E-03 0. -1.
        -11    1    3    3    0    0 -0.18911871140E+02  0.10760055890E+02  0.21447765258E+02  0.30552320822E+02  0.51100000000E-03 0.  1.
         12    1    3    3    0    0 -0.89056366534E+00  0.31813762931E+01  0.23518221476E+01  0.40552837354E+01  0.00000000000E+00 0. -1.
</event>
<event>
 7    1  0.2476315E-009  0.4778727E+02  0.7816164E-02  0.1312668E+00
        -11   -1    0    0    0    0  0.00000000000E+00  0.00000000000E+00  0.45593999997E+02  0.45594000000E+02  0.51100000000E-03 0.  1.
         11   -1    0    0    0    0 -0.00000000000E+00 -0.00000000000E+00 -0.45593999997E+02  0.45594000000E+02  0.51100000000E-03 0. -1.
    9900012    2    1    2    0    0  0.10776266199E+02  0.25191557227E+02  0.33658293232E+02  0.47787272218E+02  0.20000005352E+02 0.  0.
         12    1    1    2    0    0 -0.10776266199E+02 -0.25191557227E+02 -0.33658293232E+02  0.43400727782E+02  0.00000000000E+00 0. -1.
         11    1    3    3    0    0  0.58447992845E+01  0.90874497504E+01  0.79572781644E+01  0.13418707005E+02  0.51100000000E-03 0. -1.
        -11    1    3    3    0    0  0.92097030731E+01  0.49063166488E+01  0.15170096723E+02  0.18412561163E+02  0.51100000000E-03 0.  1.
        -12    1    3    3    0    0 -0.42782361589E+01  0.11197790828E+02  0.10530918345E+02  0.15956004050E+02  0.00000000000E+00 0.  1.
</event>
<event>
 7    1  0.2476315E-009  0.4778726E+02  0.7816164E-02  0.1312668E+00
        -11   -1    0    0    0    0  0.00000000000E+00  0.00000000000E+00  0.45593999997E+02  0.45594000000E+02  0.51100000000E-03 0. -1.
         11   -1    0    0    0    0 -0.00000000000E+00 -0.00000000000E+00 -0.45593999997E+02  0.45594000000E+02  0.51100000000E-03 0.  1.
    9900012    2    1    2    0    0  0.16340483254E+02 -0.19101197726E+02 -0.35380185338E+02  0.47787255052E+02  0.19999927082E+02 0.  0.
         12    1    1    2    0    0 -0.16340483254E+02  0.19101197726E+02  0.35380185338E+02  0.43400744948E+02  0.00000000000E+00 0. -1.
         11    1    3    3    0    0  0.92343467034E+01 -0.10192163815E+02 -0.97779350394E+01  0.16874874108E+02  0.51100000000E-03 0. -1.
        -11    1    3    3    0    0  0.17390466580E+01  0.23996122385E+01 -0.12277690061E+02  0.12630284860E+02  0.51100000000E-03 0.  1.
        -12    1    3    3    0    0  0.53670898925E+01 -0.11308646149E+02 -0.13324560238E+02  0.18282096083E+02  0.00000000000E+00 0.  1.
</event>
<event>
 7    1  0.2476315E-009  0.4778727E+02  0.7816164E-02  0.1312668E+00
        -11   -1    0    0    0    0  0.00000000000E+00  0.00000000000E+00  0.45593999997E+02  0.45594000000E+02  0.51100000000E-03 0.  1.
         11   -1    0    0    0    0 -0.00000000000E+00 -0.00000000000E+00 -0.45593999997E+02  0.45594000000E+02  0.51100000000E-03 0. -1.
    9900012    2    1    2    0    0  0.22165265532E+02 -0.10722887887E+02  0.35739950715E+02  0.47787269616E+02  0.19999993487E+02 0.  0.
         12    1    1    2    0    0 -0.22165265532E+02  0.10722887887E+02 -0.35739950715E+02  0.43400730384E+02  0.00000000000E+00 0. -1.
         11    1    3    3    0    0  0.12941058521E+02 -0.44526290743E+01  0.55964298061E+01  0.14785700124E+02  0.51100000000E-03 0. -1.
        -11    1    3    3    0    0  0.42146711907E+01 -0.71675190874E+01  0.19750095201E+02  0.21429023399E+02  0.51100000000E-03 0.  1.
        -12    1    3    3    0    0  0.50095358204E+01  0.89726027469E+00  0.10393425708E+02  0.11572546094E+02  0.00000000000E+00 0.  1.
</event>
<event>
 7    1  0.2476315E-009  0.4778726E+02  0.7816164E-02  0.1312668E+00
        -11   -1    0    0    0    0  0.00000000000E+00  0.00000000000E+00  0.45593999997E+02  0.45594000000E+02  0.51100000000E-03 0.  1.
         11   -1    0    0    0    0 -0.00000000000E+00 -0.00000000000E+00 -0.45593999997E+02  0.45594000000E+02  0.51100000000E-03 0. -1.
    9900012    2    1    2    0    0 -0.35356357086E+01  0.66124459379E+01  0.42748083507E+02  0.47787264930E+02  0.19999972121E+02 0.  0.
         12    1    1    2    0    0  0.35356357086E+01 -0.66124459379E+01 -0.42748083507E+02  0.43400735070E+02  0.00000000000E+00 0. -1.
         11    1    3    3    0    0  0.36998851819E+01  0.11235634443E+02  0.18077586446E+02  0.21603883069E+02  0.51100000000E-03 0. -1.
        -11    1    3    3    0    0 -0.38963307028E+01 -0.16261369173E+01  0.10407996388E+02  0.11231745336E+02  0.51100000000E-03 0.  1.
         12    1    3    3    0    0 -0.33391901877E+01 -0.29970515875E+01  0.14262500673E+02  0.14951636525E+02  0.00000000000E+00 0. -1.
</event>
<event>
 7    1  0.2476315E-009  0.4778727E+02  0.7816164E-02  0.1312668E+00
        -11   -1    0    0    0    0  0.00000000000E+00  0.00000000000E+00  0.45593999997E+02  0.45594000000E+02  0.51100000000E-03 0.  1.
         11   -1    0    0    0    0 -0.00000000000E+00 -0.00000000000E+00 -0.45593999997E+02  0.45594000000E+02  0.51100000000E-03 0. -1.
    9900012    2    1    2    0    0  0.29972522044E+02  0.91063200666E+01  0.30039078883E+02  0.47787269557E+02  0.19999993220E+02 0.  0.
         12    1    1    2    0    0 -0.29972522044E+02 -0.91063200666E+01 -0.30039078883E+02  0.43400730443E+02  0.00000000000E+00 0. -1.
         11    1    3    3    0    0  0.14610453005E+02  0.27014175697E+01  0.70825544770E+01  0.16459816891E+02  0.51100000000E-03 0.  1.
        -11    1    3    3    0    0  0.26640387677E+01 -0.60069607920E-01  0.14531913753E+02  0.14774208220E+02  0.51100000000E-03 0. -1.
        -12    1    3    3    0    0  0.12698030271E+02  0.64649721048E+01  0.84246106523E+01  0.16553244447E+02  0.00000000000E+00 0.  1.
</event>
<event>
 7    1  0.2476315E-009  0.4778727E+02  0.7816164E-02  0.1312668E+00
        -11   -1    0    0    0    0  0.00000000000E+00  0.00000000000E+00  0.45593999997E+02  0.45594000000E+02  0.51100000000E-03 0.  1.
         11   -1    0    0    0    0 -0.00000000000E+00 -0.00000000000E+00 -0.45593999997E+02  0.45594000000E+02  0.51100000000E-03 0. -1.
    9900012    2    1    2    0    0  0.94267049577E+01 -0.14617786479E+02  0.39762810562E+02  0.47787267844E+02  0.19999985407E+02 0.  0.
         12    1    1    2    0    0 -0.94267049577E+01  0.14617786479E+02 -0.39762810562E+02  0.43400732156E+02  0.00000000000E+00 0. -1.
         11    1    3    3    0    0 -0.16915499781E+01 -0.68100799828E+01  0.26851569629E+01  0.75132282594E+01  0.51100000000E-03 0. -1.
        -11    1    3    3    0    0  0.10669548681E+02 -0.56948981277E+01  0.35746105280E+02  0.37736655611E+02  0.51100000000E-03 0.  1.
        -12    1    3    3    0    0  0.44870625457E+00 -0.21128083681E+01  0.13315483196E+01  0.25373839739E+01  0.00000000000E+00 0.  1.
</event>
<event>
 7    1  0.2476315E-009  0.4778727E+02  0.7816164E-02  0.1312668E+00
        -11   -1    0    0    0    0  0.00000000000E+00  0.00000000000E+00  0.45593999997E+02  0.45594000000E+02  0.51100000000E-03 0. -1.
         11   -1    0    0    0    0 -0.00000000000E+00 -0.00000000000E+00 -0.45593999997E+02  0.45594000000E+02  0.51100000000E-03 0.  1.
    9900012    2    1    2    0    0 -0.97759263581E+01  0.35025550638E+02 -0.23691035412E+02  0.47787273133E+02  0.20000009524E+02 0.  0.
         12    1    1    2    0    0  0.97759263581E+01 -0.35025550638E+02  0.23691035412E+02  0.43400726867E+02  0.00000000000E+00 0. -1.
         11    1    3    3    0    0  0.20552342859E+01  0.13881513155E+02 -0.13178586649E+02  0.19250858209E+02  0.51100000000E-03 0. -1.
        -11    1    3    3    0    0 -0.23096357517E+01  0.14692315107E+02 -0.74492942499E+01  0.16634017121E+02  0.51100000000E-03 0.  1.
         12    1    3    3    0    0 -0.95215248924E+01  0.64517223756E+01 -0.30631545130E+01  0.11902397803E+02  0.00000000000E+00 0. -1.
</event>
<event>
 7    1  0.2476315E-009  0.4778728E+02  0.7816164E-02  0.1312668E+00
        -11   -1    0    0    0    0  0.00000000000E+00  0.00000000000E+00  0.45593999997E+02  0.45594000000E+02  0.51100000000E-03 0.  1.
         11   -1    0    0    0    0 -0.00000000000E+00 -0.00000000000E+00 -0.45593999997E+02  0.45594000000E+02  0.51100000000E-03 0. -1.
    9900012    2    1    2    0    0  0.95515819326E+01  0.14601654719E+02  0.39738919956E+02  0.47787276535E+02  0.20000025035E+02 0.  0.
         12    1    1    2    0    0 -0.95515819326E+01 -0.14601654719E+02 -0.39738919956E+02  0.43400723465E+02  0.00000000000E+00 0. -1.
         11    1    3    3    0    0  0.12987439620E+02  0.40207080332E+01  0.18338020745E+02  0.22828111750E+02  0.51100000000E-03 0. -1.
        -11    1    3    3    0    0 -0.31079331275E+01  0.49541350940E+01  0.16444672651E+02  0.17453651816E+02  0.51100000000E-03 0.  1.
         12    1    3    3    0    0 -0.32792456019E+00  0.56268115922E+01  0.49562265608E+01  0.75055129694E+01  0.00000000000E+00 0. -1.
</event>
<event>
 7    1  0.2476315E-009  0.4778727E+02  0.7816164E-02  0.1312668E+00
        -11   -1    0    0    0    0  0.00000000000E+00  0.00000000000E+00  0.45593999997E+02  0.45594000000E+02  0.51100000000E-03 0. -1.
         11   -1    0    0    0    0 -0.00000000000E+00 -0.00000000000E+00 -0.45593999997E+02  0.45594000000E+02  0.51100000000E-03 0.  1.
    9900012    2    1    2    0    0 -0.61066814225E+01  0.41739222451E+02  0.10206328973E+02  0.47787269593E+02  0.19999993381E+02 0.  0.
         12    1    1    2    0    0  0.61066814225E+01 -0.41739222451E+02 -0.10206328973E+02  0.43400730407E+02  0.00000000000E+00 0. -1.
         11    1    3    3    0    0 -0.25634014634E+01  0.58371453682E+01  0.29943007398E+01  0.70433749221E+01  0.51100000000E-03 0. -1.
        -11    1    3    3    0    0 -0.49931190268E+01  0.15619852792E+02 -0.48510130851E+01  0.17100975617E+02  0.51100000000E-03 0.  1.
        -12    1    3    3    0    0  0.14498390677E+01  0.20282224291E+02  0.12063041318E+02  0.23642919053E+02  0.00000000000E+00 0.  1.
</event>
<event>
 7    1  0.2476315E-009  0.4778727E+02  0.7816164E-02  0.1312668E+00
        -11   -1    0    0    0    0  0.00000000000E+00  0.00000000000E+00  0.45593999997E+02  0.45594000000E+02  0.51100000000E-03 0.  1.
         11   -1    0    0    0    0 -0.00000000000E+00 -0.00000000000E+00 -0.45593999997E+02  0.45594000000E+02  0.51100000000E-03 0. -1.
    9900012    2    1    2    0    0  0.85806349822E+01 -0.41256792994E+02 -0.10386193144E+02  0.47787271056E+02  0.20000000053E+02 0.  0.
         12    1    1    2    0    0 -0.85806349822E+01  0.41256792994E+02  0.10386193144E+02  0.43400728944E+02  0.00000000000E+00 0. -1.
         11    1    3    3    0    0 -0.10063521420E+01 -0.54488505082E+00 -0.16142867151E+01  0.19787789700E+01  0.51100000000E-03 0. -1.
        -11    1    3    3    0    0  0.32006292788E+01 -0.71122388230E+01  0.46359454991E+01  0.90730347618E+01  0.51100000000E-03 0.  1.
        -12    1    3    3    0    0  0.63863578454E+01 -0.33599669120E+02 -0.13407851929E+02  0.36735457324E+02  0.00000000000E+00 0.  1.
</event>
<event>
 7    1  0.2476315E-009  0.4778728E+02  0.7816164E-02  0.1312668E+00
        -11   -1    0    0    0    0  0.00000000000E+00  0.00000000000E+00  0.45593999997E+02  0.45594000000E+02  0.51100000000E-03 0.  1.
         11   -1    0    0    0    0 -0.00000000000E+00 -0.00000000000E+00 -0.45593999997E+02  0.45594000000E+02  0.51100000000E-03 0. -1.
    9900012    2    1    2    0    0  0.37528301882E+01 -0.28002057739E+02  0.32945772391E+02  0.47787275462E+02  0.20000020139E+02 0.  0.
         12    1    1    2    0    0 -0.37528301882E+01  0.28002057739E+02 -0.32945772391E+02  0.43400724538E+02  0.00000000000E+00 0. -1.
         11    1    3    3    0    0  0.51900055686E+01  0.60334855688E+00  0.49363729586E+01  0.71880432338E+01  0.51100000000E-03 0. -1.
        -11    1    3    3    0    0 -0.40416444556E+01 -0.15019946516E+02  0.14539775072E+02  0.21291752926E+02  0.51100000000E-03 0.  1.
        -12    1    3    3    0    0  0.26044690753E+01 -0.13585459779E+02  0.13469624360E+02  0.19307479302E+02  0.00000000000E+00 0.  1.
</event>
<event>
 7    1  0.2476315E-009  0.4778726E+02  0.7816164E-02  0.1312668E+00
        -11   -1    0    0    0    0  0.00000000000E+00  0.00000000000E+00  0.45593999997E+02  0.45594000000E+02  0.51100000000E-03 0.  1.
         11   -1    0    0    0    0 -0.00000000000E+00 -0.00000000000E+00 -0.45593999997E+02  0.45594000000E+02  0.51100000000E-03 0. -1.
    9900012    2    1    2    0    0 -0.22235449525E+02  0.29967134257E+02 -0.22162575212E+02  0.47787261629E+02  0.19999957069E+02 0.  0.
         12    1    1    2    0    0  0.22235449525E+02 -0.29967134257E+02  0.22162575212E+02  0.43400738371E+02  0.00000000000E+00 0. -1.
         11    1    3    3    0    0 -0.66531572610E+01 -0.85121155231E-01 -0.16350076213E+01  0.68516419443E+01  0.51100000000E-03 0. -1.
        -11    1    3    3    0    0 -0.11485335550E+02  0.22175425899E+02 -0.93622034592E+01  0.26670457446E+02  0.51100000000E-03 0.  1.
         12    1    3    3    0    0 -0.40969567142E+01  0.78768295129E+01 -0.11165364132E+02  0.14265162239E+02  0.00000000000E+00 0. -1.
</event>
<event>
 7    1  0.2476315E-009  0.4778727E+02  0.7816164E-02  0.1312668E+00
        -11   -1    0    0    0    0  0.00000000000E+00  0.00000000000E+00  0.45593999997E+02  0.45594000000E+02  0.51100000000E-03 0.  1.
         11   -1    0    0    0    0 -0.00000000000E+00 -0.00000000000E+00 -0.45593999997E+02  0.45594000000E+02  0.51100000000E-03 0. -1.
    9900012    2    1    2    0    0  0.14616549810E+02 -0.52950000341E+01  0.40520894433E+02  0.47787269138E+02  0.19999991306E+02 0.  0.
         12    1    1    2    0    0 -0.14616549810E+02  0.52950000341E+01 -0.40520894433E+02  0.43400730862E+02  0.00000000000E+00 0. -1.
         11    1    3    3    0    0  0.12009517203E+02 -0.25368769492E+01  0.15647268192E+02  0.19887213235E+02  0.51100000000E-03 0. -1.
        -11    1    3    3    0    0 -0.24863816483E+01 -0.58759657427E+01  0.98823460253E+01  0.11763070617E+02  0.51100000000E-03 0.  1.
        -12    1    3    3    0    0  0.50934142549E+01  0.31178426578E+01  0.14991280216E+02  0.16136985286E+02  0.00000000000E+00 0.  1.
</event>
<event>
 7    1  0.2476315E-009  0.4778727E+02  0.7816164E-02  0.1312668E+00
        -11   -1    0    0    0    0  0.00000000000E+00  0.00000000000E+00  0.45593999997E+02  0.45594000000E+02  0.51100000000E-03 0.  1.
         11   -1    0    0    0    0 -0.00000000000E+00 -0.00000000000E+00 -0.45593999997E+02  0.45594000000E+02  0.51100000000E-03 0. -1.
    9900012    2    1    2    0    0 -0.33383113801E+02  0.27700519778E+02 -0.13684441912E+01  0.47787265876E+02  0.19999976435E+02 0.  0.
         12    1    1    2    0    0  0.33383113801E+02 -0.27700519778E+02  0.13684441912E+01  0.43400734124E+02  0.00000000000E+00 0. -1.
         11    1    3    3    0    0 -0.20005391853E+02  0.88873290063E+01  0.55028613775E+01  0.22571703605E+02  0.51100000000E-03 0.  1.
        -11    1    3    3    0    0 -0.11402029401E+02  0.11013857516E+02 -0.65813531679E+01  0.17164659671E+02  0.51100000000E-03 0. -1.
         12    1    3    3    0    0 -0.19756925467E+01  0.77993332554E+01 -0.28995240074E+00  0.80509025992E+01  0.00000000000E+00 0. -1.
</event>
<event>
 7    1  0.2476315E-009  0.4778728E+02  0.7816164E-02  0.1312668E+00
        -11   -1    0    0    0    0  0.00000000000E+00  0.00000000000E+00  0.45593999997E+02  0.45594000000E+02  0.51100000000E-03 0. -1.
         11   -1    0    0    0    0 -0.00000000000E+00 -0.00000000000E+00 -0.45593999997E+02  0.45594000000E+02  0.51100000000E-03 0.  1.
    9900012    2    1    2    0    0 -0.35151029942E+02  0.23007297232E+02 -0.10894586717E+02  0.47787278213E+02  0.20000032684E+02 0.  0.
         12    1    1    2    0    0  0.35151029942E+02 -0.23007297232E+02  0.10894586717E+02  0.43400721787E+02  0.00000000000E+00 0. -1.
         11    1    3    3    0    0 -0.17644312796E+02  0.10229138729E+02  0.31933702708E+01  0.20643513924E+02  0.51100000000E-03 0. -1.
        -11    1    3    3    0    0 -0.12647662926E+02  0.12950847596E+02 -0.12612483402E+02  0.22062696317E+02  0.51100000000E-03 0.  1.
        -12    1    3    3    0    0 -0.48590542197E+01 -0.17268909265E+00 -0.14754735861E+01  0.50810679720E+01  0.00000000000E+00 0.  1.
</event>
<event>
 7    1  0.2476315E-009  0.4778727E+02  0.7816164E-02  0.1312668E+00
        -11   -1    0    0    0    0  0.00000000000E+00  0.00000000000E+00  0.45593999997E+02  0.45594000000E+02  0.51100000000E-03 0.  1.
         11   -1    0    0    0    0 -0.00000000000E+00 -0.00000000000E+00 -0.45593999997E+02  0.45594000000E+02  0.51100000000E-03 0. -1.
    9900012    2    1    2    0    0  0.70032004693E+01 -0.17923653713E+02  0.38901433415E+02  0.47787266124E+02  0.19999977565E+02 0.  0.
         12    1    1    2    0    0 -0.70032004693E+01  0.17923653713E+02 -0.38901433415E+02  0.43400733876E+02  0.00000000000E+00 0. -1.
         11    1    3    3    0    0  0.14272356633E+01  0.27991521471E+01  0.52878472968E+01  0.61509010459E+01  0.51100000000E-03 0. -1.
        -11    1    3    3    0    0  0.32570918643E+01 -0.17243858539E+02  0.16740168896E+02  0.24252681495E+02  0.51100000000E-03 0.  1.
        -12    1    3    3    0    0  0.23188729417E+01 -0.34789473209E+01  0.16873417222E+02  0.17383683583E+02  0.00000000000E+00 0.  1.
</event>
<event>
 7    1  0.2476315E-009  0.4778727E+02  0.7816164E-02  0.1312668E+00
        -11   -1    0    0    0    0  0.00000000000E+00  0.00000000000E+00  0.45593999997E+02  0.45594000000E+02  0.51100000000E-03 0.  1.
         11   -1    0    0    0    0 -0.00000000000E+00 -0.00000000000E+00 -0.45593999997E+02  0.45594000000E+02  0.51100000000E-03 0. -1.
    9900012    2    1    2    0    0  0.20958633038E+02  0.12725609141E+02  0.35810866284E+02  0.47787267623E+02  0.19999984401E+02 0.  0.
         12    1    1    2    0    0 -0.20958633038E+02 -0.12725609141E+02 -0.35810866284E+02  0.43400732377E+02  0.00000000000E+00 0. -1.
         11    1    3    3    0    0  0.76594603021E+00 -0.29516154115E+01  0.15269641675E+01  0.34103264782E+01  0.51100000000E-03 0. -1.
        -11    1    3    3    0    0  0.21511543591E+02  0.12883170616E+02  0.30927257937E+02  0.39814794694E+02  0.51100000000E-03 0.  1.
        -12    1    3    3    0    0 -0.13188565837E+01  0.27940539362E+01  0.33566441798E+01  0.45621464506E+01  0.00000000000E+00 0.  1.
</event>
<event>
 7    1  0.2476315E-009  0.4778727E+02  0.7816164E-02  0.1312668E+00
        -11   -1    0    0    0    0  0.00000000000E+00  0.00000000000E+00  0.45593999997E+02  0.45594000000E+02  0.51100000000E-03 0.  1.
         11   -1    0    0    0    0 -0.00000000000E+00 -0.00000000000E+00 -0.45593999997E+02  0.45594000000E+02  0.51100000000E-03 0. -1.
    9900012    2    1    2    0    0 -0.15976143039E+02 -0.76331918543E+01  0.39624746877E+02  0.47787270406E+02  0.19999997088E+02 0.  0.
         12    1    1    2    0    0  0.15976143039E+02  0.76331918543E+01 -0.39624746877E+02  0.43400729594E+02  0.00000000000E+00 0. -1.
         11    1    3    3    0    0 -0.11362788933E+02  0.36751524179E+01  0.23122644430E+02  0.26024534642E+02  0.51100000000E-03 0.  1.
        -11    1    3    3    0    0 -0.22303639482E+00 -0.84366683931E+01  0.12838415136E+02  0.15363984583E+02  0.51100000000E-03 0. -1.
        -12    1    3    3    0    0 -0.43903177113E+01 -0.28716758792E+01  0.36636873107E+01  0.63987511807E+01  0.00000000000E+00 0.  1.
</event>
<event>
 7    1  0.2476315E-009  0.4778727E+02  0.7816164E-02  0.1312668E+00
        -11   -1    0    0    0    0  0.00000000000E+00  0.00000000000E+00  0.45593999997E+02  0.45594000000E+02  0.51100000000E-03 0.  1.
         11   -1    0    0    0    0 -0.00000000000E+00 -0.00000000000E+00 -0.45593999997E+02  0.45594000000E+02  0.51100000000E-03 0. -1.
    9900012    2    1    2    0    0  0.60462549791E+00 -0.25892094944E+02  0.34826099497E+02  0.47787270066E+02  0.19999995540E+02 0.  0.
         12    1    1    2    0    0 -0.60462549791E+00  0.25892094944E+02 -0.34826099497E+02  0.43400729934E+02  0.00000000000E+00 0. -1.
         11    1    3    3    0    0 -0.69865512238E+01 -0.13257339288E+02  0.26643664653E+02  0.30568837227E+02  0.51100000000E-03 0. -1.
        -11    1    3    3    0    0  0.39053040890E+01 -0.72901516016E+01  0.64800628846E+01  0.10506613424E+02  0.51100000000E-03 0.  1.
         12    1    3    3    0    0  0.36858726328E+01 -0.53446040547E+01  0.17023719592E+01  0.67118194146E+01  0.00000000000E+00 0. -1.
</event>
<event>
 7    1  0.2476315E-009  0.4778727E+02  0.7816164E-02  0.1312668E+00
        -11   -1    0    0    0    0  0.00000000000E+00  0.00000000000E+00  0.45593999997E+02  0.45594000000E+02  0.51100000000E-03 0. -1.
         11   -1    0    0    0    0 -0.00000000000E+00 -0.00000000000E+00 -0.45593999997E+02  0.45594000000E+02  0.51100000000E-03 0.  1.
    9900012    2    1    2    0    0  0.40717173931E+02  0.10832076103E+02 -0.10411592689E+02  0.47787269731E+02  0.19999994010E+02 0.  0.
         12    1    1    2    0    0 -0.40717173931E+02 -0.10832076103E+02  0.10411592689E+02  0.43400730269E+02  0.00000000000E+00 0. -1.
         11    1    3    3    0    0  0.23546124324E+02  0.14798695028E+02 -0.64088769564E+01  0.28539359651E+02  0.51100000000E-03 0.  1.
        -11    1    3    3    0    0  0.16550756064E+02 -0.34866889230E+01 -0.53060678374E+01  0.17726784314E+02  0.51100000000E-03 0. -1.
         12    1    3    3    0    0  0.62029354245E+00 -0.47993000206E+00  0.13033521050E+01  0.15211257658E+01  0.00000000000E+00 0. -1.
</event>
<event>
 7    1  0.2476315E-009  0.4778728E+02  0.7816164E-02  0.1312668E+00
        -11   -1    0    0    0    0  0.00000000000E+00  0.00000000000E+00  0.45593999997E+02  0.45594000000E+02  0.51100000000E-03 0. -1.
         11   -1    0    0    0    0 -0.00000000000E+00 -0.00000000000E+00 -0.45593999997E+02  0.45594000000E+02  0.51100000000E-03 0.  1.
    9900012    2    1    2    0    0 -0.32199560672E+02 -0.20512892354E+02  0.20640533005E+02  0.47787284995E+02  0.20000063608E+02 0.  0.
         12    1    1    2    0    0  0.32199560672E+02  0.20512892354E+02 -0.20640533005E+02  0.43400715005E+02  0.00000000000E+00 0. -1.
         11    1    3    3    0    0 -0.47208675948E+01  0.20401370006E+01  0.71595461324E+01  0.88152056647E+01  0.51100000000E-03 0. -1.
        -11    1    3    3    0    0 -0.20715944593E+01  0.63652411480E+00  0.83147097458E+00  0.23212089081E+01  0.51100000000E-03 0.  1.
         12    1    3    3    0    0 -0.25407098618E+02 -0.23189553469E+02  0.12649515898E+02  0.36650870423E+02  0.00000000000E+00 0. -1.
</event>
<event>
 7    1  0.2476315E-009  0.4778727E+02  0.7816164E-02  0.1312668E+00
        -11   -1    0    0    0    0  0.00000000000E+00  0.00000000000E+00  0.45593999997E+02  0.45594000000E+02  0.51100000000E-03 0. -1.
         11   -1    0    0    0    0 -0.00000000000E+00 -0.00000000000E+00 -0.45593999997E+02  0.45594000000E+02  0.51100000000E-03 0.  1.
    9900012    2    1    2    0    0  0.18405365042E+02  0.38289830299E+02 -0.88743671049E+01  0.47787274682E+02  0.20000016584E+02 0.  0.
         12    1    1    2    0    0 -0.18405365042E+02 -0.38289830299E+02  0.88743671049E+01  0.43400725318E+02  0.00000000000E+00 0. -1.
         11    1    3    3    0    0  0.85011234150E+00  0.19197505553E+02 -0.35801007570E+01  0.19546969897E+02  0.51100000000E-03 0. -1.
        -11    1    3    3    0    0  0.17403330356E+02  0.20167546193E+02 -0.52665552311E+01  0.27154049996E+02  0.51100000000E-03 0.  1.
         12    1    3    3    0    0  0.15192234477E+00 -0.10752214476E+01 -0.27711116784E-01  0.10862547888E+01  0.00000000000E+00 0. -1.
</event>
<event>
 7    1  0.2476315E-009  0.4778727E+02  0.7816164E-02  0.1312668E+00
        -11   -1    0    0    0    0  0.00000000000E+00  0.00000000000E+00  0.45593999997E+02  0.45594000000E+02  0.51100000000E-03 0. -1.
         11   -1    0    0    0    0 -0.00000000000E+00 -0.00000000000E+00 -0.45593999997E+02  0.45594000000E+02  0.51100000000E-03 0.  1.
    9900012    2    1    2    0    0 -0.11012628682E+02  0.17855884351E+02 -0.37993584370E+02  0.47787273626E+02  0.20000011772E+02 0.  0.
         12    1    1    2    0    0  0.11012628682E+02 -0.17855884351E+02  0.37993584370E+02  0.43400726374E+02  0.00000000000E+00 0. -1.
         11    1    3    3    0    0  0.14692510384E+01 -0.72880004718E-01 -0.15444983429E+01  0.21329522970E+01  0.51100000000E-03 0. -1.
        -11    1    3    3    0    0 -0.30886410112E+01  0.62933565929E+00  0.10333370349E+01  0.33171602851E+01  0.51100000000E-03 0.  1.
        -12    1    3    3    0    0 -0.93932387094E+01  0.17299428697E+02 -0.37482423062E+02  0.42337161044E+02  0.00000000000E+00 0.  1.
</event>
<event>
 7    1  0.2476315E-009  0.4778727E+02  0.7816164E-02  0.1312668E+00
        -11   -1    0    0    0    0  0.00000000000E+00  0.00000000000E+00  0.45593999997E+02  0.45594000000E+02  0.51100000000E-03 0.  1.
         11   -1    0    0    0    0 -0.00000000000E+00 -0.00000000000E+00 -0.45593999997E+02  0.45594000000E+02  0.51100000000E-03 0. -1.
    9900012    2    1    2    0    0 -0.29164820862E+02  0.28215287308E+02 -0.15392662309E+02  0.47787271126E+02  0.20000000373E+02 0.  0.
         12    1    1    2    0    0  0.29164820862E+02 -0.28215287308E+02  0.15392662309E+02  0.43400728874E+02  0.00000000000E+00 0. -1.
         11    1    3    3    0    0 -0.23182544908E+02  0.19195874965E+02 -0.19616640560E+02  0.35926655719E+02  0.51100000000E-03 0. -1.
        -11    1    3    3    0    0 -0.48933291896E+01  0.65511963102E+01  0.21419174306E+01  0.84528488803E+01  0.51100000000E-03 0.  1.
         12    1    3    3    0    0 -0.10889467644E+01  0.24682160337E+01  0.20820608195E+01  0.34077665268E+01  0.00000000000E+00 0. -1.
</event>
<event>
 7    1  0.2476315E-009  0.4778727E+02  0.7816164E-02  0.1312668E+00
        -11   -1    0    0    0    0  0.00000000000E+00  0.00000000000E+00  0.45593999997E+02  0.45594000000E+02  0.51100000000E-03 0.  1.
         11   -1    0    0    0    0 -0.00000000000E+00 -0.00000000000E+00 -0.45593999997E+02  0.45594000000E+02  0.51100000000E-03 0. -1.
    9900012    2    1    2    0    0 -0.43030481155E+02 -0.31339345792E+01 -0.47094699744E+01  0.47787274640E+02  0.20000016393E+02 0.  0.
         12    1    1    2    0    0  0.43030481155E+02  0.31339345792E+01  0.47094699744E+01  0.43400725360E+02  0.00000000000E+00 0. -1.
         11    1    3    3    0    0 -0.32511017639E+01  0.78274724607E+00  0.19168719715E+01  0.38544460493E+01  0.51100000000E-03 0. -1.
        -11    1    3    3    0    0 -0.28066667698E+02 -0.76699790783E+00  0.32859903762E+01  0.28268778794E+02  0.51100000000E-03 0.  1.
        -12    1    3    3    0    0 -0.11712711693E+02 -0.31496839174E+01 -0.99123323222E+01  0.15664049797E+02  0.00000000000E+00 0.  1.
</event>
<event>
 7    1  0.2476315E-009  0.4778727E+02  0.7816164E-02  0.1312668E+00
        -11   -1    0    0    0    0  0.00000000000E+00  0.00000000000E+00  0.45593999997E+02  0.45594000000E+02  0.51100000000E-03 0.  1.
         11   -1    0    0    0    0 -0.00000000000E+00 -0.00000000000E+00 -0.45593999997E+02  0.45594000000E+02  0.51100000000E-03 0. -1.
    9900012    2    1    2    0    0 -0.15571456296E+02  0.15142498529E+01  0.40482838093E+02  0.47787269778E+02  0.19999994224E+02 0.  0.
         12    1    1    2    0    0  0.15571456296E+02 -0.15142498529E+01 -0.40482838093E+02  0.43400730222E+02  0.00000000000E+00 0. -1.
         11    1    3    3    0    0  0.34323838569E+01 -0.72383719643E+00  0.71825503785E+01  0.79933866057E+01  0.51100000000E-03 0. -1.
        -11    1    3    3    0    0 -0.95378839157E+01  0.23216632635E+01  0.76274289506E+01  0.12431372513E+02  0.51100000000E-03 0.  1.
         12    1    3    3    0    0 -0.94659562373E+01 -0.83576214179E-01  0.25672858764E+02  0.27362510659E+02  0.00000000000E+00 0. -1.
</event>
<event>
 7    1  0.2476315E-009  0.4778729E+02  0.7816164E-02  0.1312668E+00
        -11   -1    0    0    0    0  0.00000000000E+00  0.00000000000E+00  0.45593999997E+02  0.45594000000E+02  0.51100000000E-03 0. -1.
         11   -1    0    0    0    0 -0.00000000000E+00 -0.00000000000E+00 -0.45593999997E+02  0.45594000000E+02  0.51100000000E-03 0.  1.
    9900012    2    1    2    0    0  0.33332359975E+02 -0.54821366592E+01 -0.27249245488E+02  0.47787292362E+02  0.20000097194E+02 0.  0.
         12    1    1    2    0    0 -0.33332359975E+02  0.54821366592E+01  0.27249245488E+02  0.43400707638E+02  0.00000000000E+00 0. -1.
         11    1    3    3    0    0  0.11877169173E+02 -0.68217572344E+01 -0.12196466201E+02  0.18340046548E+02  0.51100000000E-03 0. -1.
        -11    1    3    3    0    0  0.60818669475E+01  0.64382076488E+01 -0.73639925609E+01  0.11518160009E+02  0.51100000000E-03 0.  1.
        -12    1    3    3    0    0  0.15373323854E+02 -0.50985870736E+01 -0.76887867259E+01  0.17929085805E+02  0.00000000000E+00 0.  1.
</event>
<event>
 7    1  0.2476315E-009  0.4778727E+02  0.7816164E-02  0.1312668E+00
        -11   -1    0    0    0    0  0.00000000000E+00  0.00000000000E+00  0.45593999997E+02  0.45594000000E+02  0.51100000000E-03 0. -1.
         11   -1    0    0    0    0 -0.00000000000E+00 -0.00000000000E+00 -0.45593999997E+02  0.45594000000E+02  0.51100000000E-03 0.  1.
    9900012    2    1    2    0    0  0.24171010801E+02 -0.35698431449E+02  0.50007162885E+01  0.47787274954E+02  0.20000017827E+02 0.  0.
         12    1    1    2    0    0 -0.24171010801E+02  0.35698431449E+02 -0.50007162885E+01  0.43400725046E+02  0.00000000000E+00 0. -1.
         11    1    3    3    0    0 -0.20117231808E+01 -0.47167811357E+00  0.85594463680E+00  0.22365491011E+01  0.51100000000E-03 0. -1.
        -11    1    3    3    0    0  0.21414357397E+02 -0.29605742464E+02 -0.10156291308E+01  0.36552786383E+02  0.51100000000E-03 0.  1.
         12    1    3    3    0    0  0.47683765852E+01 -0.56210108714E+01  0.51604007826E+01  0.89979394703E+01  0.00000000000E+00 0. -1.
</event>
<event>
 7    1  0.2476315E-009  0.4778727E+02  0.7816164E-02  0.1312668E+00
        -11   -1    0    0    0    0  0.00000000000E+00  0.00000000000E+00  0.45593999997E+02  0.45594000000E+02  0.51100000000E-03 0.  1.
         11   -1    0    0    0    0 -0.00000000000E+00 -0.00000000000E+00 -0.45593999997E+02  0.45594000000E+02  0.51100000000E-03 0. -1.
    9900012    2    1    2    0    0 -0.46834998916E+01  0.30018916794E+02  0.30992785364E+02  0.47787270959E+02  0.19999999608E+02 0.  0.
         12    1    1    2    0    0  0.46834998916E+01 -0.30018916794E+02 -0.30992785364E+02  0.43400729041E+02  0.00000000000E+00 0. -1.
         11    1    3    3    0    0 -0.12410488533E+01  0.12820998612E+02  0.66456148534E+01  0.14494219700E+02  0.51100000000E-03 0. -1.
        -11    1    3    3    0    0 -0.51470084993E+01  0.86472110835E+01  0.22108964022E+02  0.24291402726E+02  0.51100000000E-03 0.  1.
        -12    1    3    3    0    0  0.17045574610E+01  0.85507070984E+01  0.22382064886E+01  0.90016485327E+01  0.00000000000E+00 0.  1.
</event>
<event>
 7    1  0.2476315E-009  0.4778728E+02  0.7816164E-02  0.1312668E+00
        -11   -1    0    0    0    0  0.00000000000E+00  0.00000000000E+00  0.45593999997E+02  0.45594000000E+02  0.51100000000E-03 0.  1.
         11   -1    0    0    0    0 -0.00000000000E+00 -0.00000000000E+00 -0.45593999997E+02  0.45594000000E+02  0.51100000000E-03 0. -1.
    9900012    2    1    2    0    0 -0.22505638401E+02 -0.16380303148E+02  0.33298719618E+02  0.47787276282E+02  0.20000023882E+02 0.  0.
         12    1    1    2    0    0  0.22505638401E+02  0.16380303148E+02 -0.33298719618E+02  0.43400723718E+02  0.00000000000E+00 0. -1.
         11    1    3    3    0    0 -0.16433100267E+02 -0.56492249257E+01  0.10114453596E+02  0.20106285049E+02  0.51100000000E-03 0. -1.
        -11    1    3    3    0    0 -0.77062567850E+01 -0.62107662214E+01  0.12336753880E+02  0.15816305107E+02  0.51100000000E-03 0.  1.
         12    1    3    3    0    0  0.16337186513E+01 -0.45203120010E+01  0.10847512142E+02  0.11864686127E+02  0.00000000000E+00 0. -1.
</event>
<event>
 7    1  0.2476315E-009  0.4778727E+02  0.7816164E-02  0.1312668E+00
        -11   -1    0    0    0    0  0.00000000000E+00  0.00000000000E+00  0.45593999997E+02  0.45594000000E+02  0.51100000000E-03 0. -1.
         11   -1    0    0    0    0 -0.00000000000E+00 -0.00000000000E+00 -0.45593999997E+02  0.45594000000E+02  0.51100000000E-03 0.  1.
    9900012    2    1    2    0    0  0.29519203239E+02 -0.16069151112E+02 -0.27459465481E+02  0.47787271644E+02  0.20000002733E+02 0.  0.
         12    1    1    2    0    0 -0.29519203239E+02  0.16069151112E+02  0.27459465481E+02  0.43400728356E+02  0.00000000000E+00 0. -1.
         11    1    3    3    0    0  0.11500135583E+02 -0.99958349058E+01 -0.35708366741E+01  0.15649942770E+02  0.51100000000E-03 0. -1.
        -11    1    3    3    0    0  0.38177137223E+01 -0.29568025896E+01 -0.13304172987E+02  0.14153396721E+02  0.51100000000E-03 0.  1.
         12    1    3    3    0    0  0.14201353934E+02 -0.31165136170E+01 -0.10584455820E+02  0.17983932153E+02  0.00000000000E+00 0. -1.
</event>
<event>
 7    1  0.2476315E-009  0.4778727E+02  0.7816164E-02  0.1312668E+00
        -11   -1    0    0    0    0  0.00000000000E+00  0.00000000000E+00  0.45593999997E+02  0.45594000000E+02  0.51100000000E-03 0. -1.
         11   -1    0    0    0    0 -0.00000000000E+00 -0.00000000000E+00 -0.45593999997E+02  0.45594000000E+02  0.51100000000E-03 0.  1.
    9900012    2    1    2    0    0 -0.14267445772E+02  0.37939351708E+02 -0.15513497764E+02  0.47787273857E+02  0.20000012822E+02 0.  0.
         12    1    1    2    0    0  0.14267445772E+02 -0.37939351708E+02  0.15513497764E+02  0.43400726143E+02  0.00000000000E+00 0. -1.
         11    1    3    3    0    0 -0.11620638232E+02  0.14662723560E+02 -0.14580369861E+02  0.23719651782E+02  0.51100000000E-03 0.  1.
        -11    1    3    3    0    0 -0.13126376210E+01  0.13640962144E+02  0.21313951784E+01  0.13868731427E+02  0.51100000000E-03 0. -1.
        -12    1    3    3    0    0 -0.13341699192E+01  0.96356660040E+01 -0.30645230809E+01  0.10198890647E+02  0.00000000000E+00 0.  1.
</event>
<event>
 7    1  0.2476315E-009  0.4778727E+02  0.7816164E-02  0.1312668E+00
        -11   -1    0    0    0    0  0.00000000000E+00  0.00000000000E+00  0.45593999997E+02  0.45594000000E+02  0.51100000000E-03 0. -1.
         11   -1    0    0    0    0 -0.00000000000E+00 -0.00000000000E+00 -0.45593999997E+02  0.45594000000E+02  0.51100000000E-03 0.  1.
    9900012    2    1    2    0    0  0.14729083921E+02 -0.39078602896E+02 -0.11812717836E+02  0.47787269360E+02  0.19999992318E+02 0.  0.
         12    1    1    2    0    0 -0.14729083921E+02  0.39078602896E+02  0.11812717836E+02  0.43400730640E+02  0.00000000000E+00 0. -1.
         11    1    3    3    0    0 -0.17423809392E+01 -0.67559609369E+01  0.40379352023E+00  0.69887015237E+01  0.51100000000E-03 0. -1.
        -11    1    3    3    0    0  0.17125818753E+02 -0.33156495082E+02 -0.10476019241E+02  0.38760725141E+02  0.51100000000E-03 0.  1.
        -12    1    3    3    0    0 -0.65435389279E+00  0.83385312235E+00 -0.17404921154E+01  0.20378426952E+01  0.00000000000E+00 0.  1.
</event>
<event>
 7    1  0.2476315E-009  0.4778728E+02  0.7816164E-02  0.1312668E+00
        -11   -1    0    0    0    0  0.00000000000E+00  0.00000000000E+00  0.45593999997E+02  0.45594000000E+02  0.51100000000E-03 0. -1.
         11   -1    0    0    0    0 -0.00000000000E+00 -0.00000000000E+00 -0.45593999997E+02  0.45594000000E+02  0.51100000000E-03 0.  1.
    9900012    2    1    2    0    0 -0.37256780299E+02 -0.29086396925E+01  0.22070222066E+02  0.47787279210E+02  0.20000037228E+02 0.  0.
         12    1    1    2    0    0  0.37256780299E+02  0.29086396925E+01 -0.22070222066E+02  0.43400720790E+02  0.00000000000E+00 0. -1.
         11    1    3    3    0    0 -0.10649085751E+01  0.99951218057E+00  0.56009774553E+01  0.57882642984E+01  0.51100000000E-03 0. -1.
        -11    1    3    3    0    0 -0.22084757219E+02 -0.84889406259E+01  0.83520927542E+01  0.25090955901E+02  0.51100000000E-03 0.  1.
        -12    1    3    3    0    0 -0.14107114505E+02  0.45807887529E+01  0.81171518565E+01  0.16908059011E+02  0.00000000000E+00 0.  1.
</event>
<event>
 7    1  0.2476315E-009  0.4778727E+02  0.7816164E-02  0.1312668E+00
        -11   -1    0    0    0    0  0.00000000000E+00  0.00000000000E+00  0.45593999997E+02  0.45594000000E+02  0.51100000000E-03 0. -1.
         11   -1    0    0    0    0 -0.00000000000E+00 -0.00000000000E+00 -0.45593999997E+02  0.45594000000E+02  0.51100000000E-03 0.  1.
    9900012    2    1    2    0    0 -0.14928115345E+02 -0.40710218056E+02 -0.18581984622E+01  0.47787269782E+02  0.19999994244E+02 0.  0.
         12    1    1    2    0    0  0.14928115345E+02  0.40710218056E+02  0.18581984622E+01  0.43400730218E+02  0.00000000000E+00 0. -1.
         11    1    3    3    0    0 -0.36163157041E+01 -0.75378311671E-01 -0.15253396151E+00  0.36203160128E+01  0.51100000000E-03 0. -1.
        -11    1    3    3    0    0 -0.91261098408E+01 -0.35479186122E+02 -0.59842439046E+01  0.37119667349E+02  0.51100000000E-03 0.  1.
        -12    1    3    3    0    0 -0.21856898000E+01 -0.51556536223E+01  0.42785794039E+01  0.70472864203E+01  0.00000000000E+00 0.  1.
</event>
<event>
 7    1  0.2476315E-009  0.4778727E+02  0.7816164E-02  0.1312668E+00
        -11   -1    0    0    0    0  0.00000000000E+00  0.00000000000E+00  0.45593999997E+02  0.45594000000E+02  0.51100000000E-03 0. -1.
         11   -1    0    0    0    0 -0.00000000000E+00 -0.00000000000E+00 -0.45593999997E+02  0.45594000000E+02  0.51100000000E-03 0.  1.
    9900012    2    1    2    0    0  0.29995391492E+02 -0.12164297905E+01 -0.31343579758E+02  0.47787271847E+02  0.20000003658E+02 0.  0.
         12    1    1    2    0    0 -0.29995391492E+02  0.12164297905E+01  0.31343579758E+02  0.43400728153E+02  0.00000000000E+00 0. -1.
         11    1    3    3    0    0  0.43492628501E+01 -0.20580248709E+01 -0.16671807220E+02  0.17352253743E+02  0.51100000000E-03 0. -1.
        -11    1    3    3    0    0  0.14825172864E+02  0.23069310124E+00 -0.43102345839E+01  0.15440760738E+02  0.51100000000E-03 0.  1.
        -12    1    3    3    0    0  0.10820955778E+02  0.61090197916E+00 -0.10361537954E+02  0.14994257365E+02  0.00000000000E+00 0.  1.
</event>
<event>
 7    1  0.2476315E-009  0.4778727E+02  0.7816164E-02  0.1312668E+00
        -11   -1    0    0    0    0  0.00000000000E+00  0.00000000000E+00  0.45593999997E+02  0.45594000000E+02  0.51100000000E-03 0.  1.
         11   -1    0    0    0    0 -0.00000000000E+00 -0.00000000000E+00 -0.45593999997E+02  0.45594000000E+02  0.51100000000E-03 0. -1.
    9900012    2    1    2    0    0 -0.33920086306E+02 -0.17228793749E+02  0.20885874830E+02  0.47787270093E+02  0.19999995662E+02 0.  0.
         12    1    1    2    0    0  0.33920086306E+02  0.17228793749E+02 -0.20885874830E+02  0.43400729907E+02  0.00000000000E+00 0. -1.
         11    1    3    3    0    0 -0.19253301666E+02 -0.16874219974E+01  0.36140822718E+01  0.19662111000E+02  0.51100000000E-03 0. -1.
        -11    1    3    3    0    0 -0.14165809113E+02 -0.11840957233E+02  0.14363116596E+02  0.23391826236E+02  0.51100000000E-03 0.  1.
         12    1    3    3    0    0 -0.50097552682E+00 -0.37004145184E+01  0.29086759620E+01  0.47333328574E+01  0.00000000000E+00 0. -1.
</event>
<event>
 7    1  0.2476315E-009  0.4778726E+02  0.7816164E-02  0.1312668E+00
        -11   -1    0    0    0    0  0.00000000000E+00  0.00000000000E+00  0.45593999997E+02  0.45594000000E+02  0.51100000000E-03 0. -1.
         11   -1    0    0    0    0 -0.00000000000E+00 -0.00000000000E+00 -0.45593999997E+02  0.45594000000E+02  0.51100000000E-03 0.  1.
    9900012    2    1    2    0    0  0.79993488217E+01 -0.42028982036E+02 -0.72937925337E+01  0.47787258969E+02  0.19999944942E+02 0.  0.
         12    1    1    2    0    0 -0.79993488217E+01  0.42028982036E+02  0.72937925337E+01  0.43400741031E+02  0.00000000000E+00 0. -1.
         11    1    3    3    0    0  0.86275250271E+01 -0.31142087087E+02 -0.93048300831E+01  0.33628018666E+02  0.51100000000E-03 0. -1.
        -11    1    3    3    0    0 -0.44708804013E+01 -0.79853749599E+01  0.18769932532E+01  0.93422742813E+01  0.51100000000E-03 0.  1.
        -12    1    3    3    0    0  0.38427041959E+01 -0.29015199884E+01  0.13404429614E+00  0.48169660216E+01  0.00000000000E+00 0.  1.
</event>
<event>
 7    1  0.2476315E-009  0.4778728E+02  0.7816164E-02  0.1312668E+00
        -11   -1    0    0    0    0  0.00000000000E+00  0.00000000000E+00  0.45593999997E+02  0.45594000000E+02  0.51100000000E-03 0.  1.
         11   -1    0    0    0    0 -0.00000000000E+00 -0.00000000000E+00 -0.45593999997E+02  0.45594000000E+02  0.51100000000E-03 0. -1.
    9900012    2    1    2    0    0 -0.32337701867E+02  0.72994506075E+01  0.28010958497E+02  0.47787277228E+02  0.20000028193E+02 0.  0.
         12    1    1    2    0    0  0.32337701867E+02 -0.72994506075E+01 -0.28010958497E+02  0.43400722772E+02  0.00000000000E+00 0. -1.
         11    1    3    3    0    0 -0.82093588820E+01  0.89488671595E+01  0.14215123092E+02  0.18696136539E+02  0.51100000000E-03 0. -1.
        -11    1    3    3    0    0 -0.11485733087E+01  0.20339757219E+01  0.13863978213E+01  0.27163168193E+01  0.51100000000E-03 0.  1.
         12    1    3    3    0    0 -0.22979769676E+02 -0.36833922739E+01  0.12409437583E+02  0.26374823870E+02  0.00000000000E+00 0. -1.
</event>
<event>
 7    1  0.2476315E-009  0.4778727E+02  0.7816164E-02  0.1312668E+00
        -11   -1    0    0    0    0  0.00000000000E+00  0.00000000000E+00  0.45593999997E+02  0.45594000000E+02  0.51100000000E-03 0. -1.
         11   -1    0    0    0    0 -0.00000000000E+00 -0.00000000000E+00 -0.45593999997E+02  0.45594000000E+02  0.51100000000E-03 0.  1.
    9900012    2    1    2    0    0 -0.22079509448E+02 -0.37176066571E+02 -0.37494753875E+01  0.47787271563E+02  0.20000002365E+02 0.  0.
         12    1    1    2    0    0  0.22079509448E+02  0.37176066571E+02  0.37494753875E+01  0.43400728437E+02  0.00000000000E+00 0. -1.
         11    1    3    3    0    0 -0.20033743075E+02 -0.22813352027E+02  0.44686543976E+01  0.30688251248E+02  0.51100000000E-03 0. -1.
        -11    1    3    3    0    0 -0.31624910638E+01 -0.99235440502E+01 -0.58329207926E+01  0.11937380009E+02  0.51100000000E-03 0.  1.
         12    1    3    3    0    0  0.11167246904E+01 -0.44391704939E+01 -0.23852089925E+01  0.51616403058E+01  0.00000000000E+00 0. -1.
</event>
<event>
 7    1  0.2476315E-009  0.4778727E+02  0.7816164E-02  0.1312668E+00
        -11   -1    0    0    0    0  0.00000000000E+00  0.00000000000E+00  0.45593999997E+02  0.45594000000E+02  0.51100000000E-03 0.  1.
         11   -1    0    0    0    0 -0.00000000000E+00 -0.00000000000E+00 -0.45593999997E+02  0.45594000000E+02  0.51100000000E-03 0. -1.
    9900012    2    1    2    0    0 -0.21539416764E+01 -0.42785659328E+02 -0.69549413508E+01  0.47787270535E+02  0.19999997679E+02 0.  0.
         12    1    1    2    0    0  0.21539416764E+01  0.42785659328E+02  0.69549413508E+01  0.43400729465E+02  0.00000000000E+00 0. -1.
         11    1    3    3    0    0  0.21248418982E+01 -0.39837514376E+02 -0.58241113596E+01  0.40317028389E+02  0.51100000000E-03 0.  1.
        -11    1    3    3    0    0 -0.10328958736E+01  0.15308580579E+01 -0.15358983634E+00  0.18531029054E+01  0.51100000000E-03 0. -1.
        -12    1    3    3    0    0 -0.32458877009E+01 -0.44790030099E+01 -0.97724015487E+00  0.56171392407E+01  0.00000000000E+00 0.  1.
</event>
<event>
 7    1  0.2476315E-009  0.4778727E+02  0.7816164E-02  0.1312668E+00
        -11   -1    0    0    0    0  0.00000000000E+00  0.00000000000E+00  0.45593999997E+02  0.45594000000E+02  0.51100000000E-03 0.  1.
         11   -1    0    0    0    0 -0.00000000000E+00 -0.00000000000E+00 -0.45593999997E+02  0.45594000000E+02  0.51100000000E-03 0. -1.
    9900012    2    1    2    0    0  0.17834090384E+02 -0.33385299847E+02  0.21236531701E+02  0.47787270693E+02  0.19999998398E+02 0.  0.
         12    1    1    2    0    0 -0.17834090384E+02  0.33385299847E+02 -0.21236531701E+02  0.43400729307E+02  0.00000000000E+00 0. -1.
         11    1    3    3    0    0 -0.29946716971E+01 -0.48207958859E+01  0.62002166326E+01  0.84054041009E+01  0.51100000000E-03 0. -1.
        -11    1    3    3    0    0  0.57246775968E+01 -0.11816045136E+02  0.93624870208E+01  0.16125973451E+02  0.51100000000E-03 0.  1.
         12    1    3    3    0    0  0.15104084484E+02 -0.16748458825E+02  0.56738280472E+01  0.23255893142E+02  0.00000000000E+00 0. -1.
</event>
<event>
 7    1  0.2476315E-009  0.4778727E+02  0.7816164E-02  0.1312668E+00
        -11   -1    0    0    0    0  0.00000000000E+00  0.00000000000E+00  0.45593999997E+02  0.45594000000E+02  0.51100000000E-03 0.  1.
         11   -1    0    0    0    0 -0.00000000000E+00 -0.00000000000E+00 -0.45593999997E+02  0.45594000000E+02  0.51100000000E-03 0. -1.
    9900012    2    1    2    0    0 -0.27906451877E+02  0.36427325973E+01  0.33039123620E+02  0.47787271357E+02  0.20000001426E+02 0.  0.
         12    1    1    2    0    0  0.27906451877E+02 -0.36427325973E+01 -0.33039123620E+02  0.43400728643E+02  0.00000000000E+00 0. -1.
         11    1    3    3    0    0 -0.42447297613E+01 -0.32140404007E+01  0.23927565873E+01  0.58372143006E+01  0.51100000000E-03 0. -1.
        -11    1    3    3    0    0 -0.19160558108E+02  0.10128169649E+02  0.28888826979E+02  0.36114694127E+02  0.51100000000E-03 0.  1.
        -12    1    3    3    0    0 -0.45011640082E+01 -0.32713966507E+01  0.17575400537E+01  0.58353629292E+01  0.00000000000E+00 0.  1.
</event>
<event>
 7    1  0.2476315E-009  0.4778727E+02  0.7816164E-02  0.1312668E+00
        -11   -1    0    0    0    0  0.00000000000E+00  0.00000000000E+00  0.45593999997E+02  0.45594000000E+02  0.51100000000E-03 0.  1.
         11   -1    0    0    0    0 -0.00000000000E+00 -0.00000000000E+00 -0.45593999997E+02  0.45594000000E+02  0.51100000000E-03 0. -1.
    9900012    2    1    2    0    0 -0.33028348956E+02 -0.22543876336E+02  0.16867874164E+02  0.47787269893E+02  0.19999994748E+02 0.  0.
         12    1    1    2    0    0  0.33028348956E+02  0.22543876336E+02 -0.16867874164E+02  0.43400730107E+02  0.00000000000E+00 0. -1.
         11    1    3    3    0    0 -0.49385088479E+00 -0.53196396773E+01 -0.20206006443E+00  0.53463336525E+01  0.51100000000E-03 0. -1.
        -11    1    3    3    0    0 -0.15260226103E+02 -0.12861006723E+01  0.76641647897E+01  0.17125068696E+02  0.51100000000E-03 0.  1.
        -12    1    3    3    0    0 -0.17274271968E+02 -0.15938135987E+02  0.94057694385E+01  0.25315867544E+02  0.00000000000E+00 0.  1.
</event>
<event>
 7    1  0.2476315E-009  0.4778728E+02  0.7816164E-02  0.1312668E+00
        -11   -1    0    0    0    0  0.00000000000E+00  0.00000000000E+00  0.45593999997E+02  0.45594000000E+02  0.51100000000E-03 0.  1.
         11   -1    0    0    0    0 -0.00000000000E+00 -0.00000000000E+00 -0.45593999997E+02  0.45594000000E+02  0.51100000000E-03 0. -1.
    9900012    2    1    2    0    0  0.15188730183E+01  0.50741850287E+01  0.43076309942E+02  0.47787276421E+02  0.20000024514E+02 0.  0.
         12    1    1    2    0    0 -0.15188730183E+01 -0.50741850287E+01 -0.43076309942E+02  0.43400723579E+02  0.00000000000E+00 0. -1.
         11    1    3    3    0    0 -0.10472998775E+01 -0.13224786641E+01  0.34555082720E+02  0.34596235762E+02  0.51100000000E-03 0. -1.
        -11    1    3    3    0    0 -0.13062883041E+01  0.39353099913E+01  0.82039362882E+00  0.42268309439E+01  0.51100000000E-03 0.  1.
        -12    1    3    3    0    0  0.38724612000E+01  0.24613537015E+01  0.77008335929E+01  0.89642097150E+01  0.00000000000E+00 0.  1.
</event>
<event>
 7    1  0.2476315E-009  0.4778727E+02  0.7816164E-02  0.1312668E+00
        -11   -1    0    0    0    0  0.00000000000E+00  0.00000000000E+00  0.45593999997E+02  0.45594000000E+02  0.51100000000E-03 0.  1.
         11   -1    0    0    0    0 -0.00000000000E+00 -0.00000000000E+00 -0.45593999997E+02  0.45594000000E+02  0.51100000000E-03 0. -1.
    9900012    2    1    2    0    0 -0.27860649456E+02 -0.31495344692E+02  0.10744802255E+02  0.47787270733E+02  0.19999998580E+02 0.  0.
         12    1    1    2    0    0  0.27860649456E+02  0.31495344692E+02 -0.10744802255E+02  0.43400729267E+02  0.00000000000E+00 0. -1.
         11    1    3    3    0    0 -0.13423329813E+02 -0.24485364471E+01  0.13074001179E+00  0.13645446391E+02  0.51100000000E-03 0.  1.
        -11    1    3    3    0    0 -0.13074746319E+02 -0.26009941457E+02  0.97827605174E+01  0.30711047678E+02  0.51100000000E-03 0. -1.
        -12    1    3    3    0    0 -0.13625733243E+01 -0.30368667882E+01  0.83130172546E+00  0.34307766631E+01  0.00000000000E+00 0.  1.
</event>
<event>
 7    1  0.2476315E-009  0.4778727E+02  0.7816164E-02  0.1312668E+00
        -11   -1    0    0    0    0  0.00000000000E+00  0.00000000000E+00  0.45593999997E+02  0.45594000000E+02  0.51100000000E-03 0.  1.
         11   -1    0    0    0    0 -0.00000000000E+00 -0.00000000000E+00 -0.45593999997E+02  0.45594000000E+02  0.51100000000E-03 0. -1.
    9900012    2    1    2    0    0 -0.19455860035E+01  0.22650702387E+02  0.36970038434E+02  0.47787269991E+02  0.19999995198E+02 0.  0.
         12    1    1    2    0    0  0.19455860035E+01 -0.22650702387E+02 -0.36970038434E+02  0.43400730009E+02  0.00000000000E+00 0. -1.
         11    1    3    3    0    0  0.76165167703E+01  0.89204066214E+01  0.98806600960E+01  0.15336636730E+02  0.51100000000E-03 0. -1.
        -11    1    3    3    0    0 -0.83778644379E+00  0.55850259807E+01  0.61594357689E+01  0.83566171734E+01  0.51100000000E-03 0.  1.
         12    1    3    3    0    0 -0.87243163300E+01  0.81452697847E+01  0.20929942569E+02  0.24094016087E+02  0.00000000000E+00 0. -1.
</event>
<event>
 7    1  0.2476315E-009  0.4778727E+02  0.7816164E-02  0.1312668E+00
        -11   -1    0    0    0    0  0.00000000000E+00  0.00000000000E+00  0.45593999997E+02  0.45594000000E+02  0.51100000000E-03 0. -1.
         11   -1    0    0    0    0 -0.00000000000E+00 -0.00000000000E+00 -0.45593999997E+02  0.45594000000E+02  0.51100000000E-03 0.  1.
    9900012    2    1    2    0    0 -0.41731672534E+02  0.21323672922E+01 -0.11727894136E+02  0.47787274388E+02  0.20000015245E+02 0.  0.
         12    1    1    2    0    0  0.41731672534E+02 -0.21323672922E+01  0.11727894136E+02  0.43400725612E+02  0.00000000000E+00 0. -1.
         11    1    3    3    0    0 -0.21853152013E+02 -0.61154691047E+01 -0.93915221543E+01  0.24559313995E+02  0.51100000000E-03 0. -1.
        -11    1    3    3    0    0 -0.14584531538E+02  0.60939971032E+01  0.21633307527E+01  0.15953850980E+02  0.51100000000E-03 0.  1.
        -12    1    3    3    0    0 -0.52939889830E+01  0.21538392938E+01 -0.44997027348E+01  0.72741094134E+01  0.00000000000E+00 0.  1.
</event>
<event>
 7    1  0.2476315E-009  0.4778727E+02  0.7816164E-02  0.1312668E+00
        -11   -1    0    0    0    0  0.00000000000E+00  0.00000000000E+00  0.45593999997E+02  0.45594000000E+02  0.51100000000E-03 0.  1.
         11   -1    0    0    0    0 -0.00000000000E+00 -0.00000000000E+00 -0.45593999997E+02  0.45594000000E+02  0.51100000000E-03 0. -1.
    9900012    2    1    2    0    0 -0.11894087066E+01  0.41687335229E+02  0.12015596495E+02  0.47787272233E+02  0.20000005420E+02 0.  0.
         12    1    1    2    0    0  0.11894087066E+01 -0.41687335229E+02 -0.12015596495E+02  0.43400727767E+02  0.00000000000E+00 0. -1.
         11    1    3    3    0    0 -0.47654182536E+01  0.22320137879E+02  0.14775897445E+02  0.27188690878E+02  0.51100000000E-03 0. -1.
        -11    1    3    3    0    0  0.82462815046E+00  0.78284807956E+01 -0.37024010245E+01  0.86990169997E+01  0.51100000000E-03 0.  1.
         12    1    3    3    0    0  0.27513813966E+01  0.11538716554E+02  0.94210007453E+00  0.11899564356E+02  0.00000000000E+00 0. -1.
</event>
<event>
 7    1  0.2476315E-009  0.4778727E+02  0.7816164E-02  0.1312668E+00
        -11   -1    0    0    0    0  0.00000000000E+00  0.00000000000E+00  0.45593999997E+02  0.45594000000E+02  0.51100000000E-03 0. -1.
         11   -1    0    0    0    0 -0.00000000000E+00 -0.00000000000E+00 -0.45593999997E+02  0.45594000000E+02  0.51100000000E-03 0.  1.
    9900012    2    1    2    0    0  0.26433003480E+02  0.13047482847E+02 -0.31854084392E+02  0.47787272194E+02  0.20000005242E+02 0.  0.
         12    1    1    2    0    0 -0.26433003480E+02 -0.13047482847E+02  0.31854084392E+02  0.43400727806E+02  0.00000000000E+00 0. -1.
         11    1    3    3    0    0  0.88245244500E+01 -0.57674583364E+00 -0.14962279022E+02  0.17380295202E+02  0.51100000000E-03 0. -1.
        -11    1    3    3    0    0  0.27869488014E+01  0.26967713320E+01  0.17045420527E+01  0.42361684468E+01  0.51100000000E-03 0.  1.
        -12    1    3    3    0    0  0.14821530229E+02  0.10927457349E+02 -0.18596347423E+02  0.26170808545E+02  0.00000000000E+00 0.  1.
</event>
<event>
 7    1  0.2476315E-009  0.4778727E+02  0.7816164E-02  0.1312668E+00
        -11   -1    0    0    0    0  0.00000000000E+00  0.00000000000E+00  0.45593999997E+02  0.45594000000E+02  0.51100000000E-03 0.  1.
         11   -1    0    0    0    0 -0.00000000000E+00 -0.00000000000E+00 -0.45593999997E+02  0.45594000000E+02  0.51100000000E-03 0. -1.
    9900012    2    1    2    0    0 -0.22750804522E+02 -0.19894313025E+02  0.31148688684E+02  0.47787267243E+02  0.19999982668E+02 0.  0.
         12    1    1    2    0    0  0.22750804522E+02  0.19894313025E+02 -0.31148688684E+02  0.43400732757E+02  0.00000000000E+00 0. -1.
         11    1    3    3    0    0 -0.11315529321E+00 -0.70031107274E+00 -0.18218135853E+01  0.19550561935E+01  0.51100000000E-03 0. -1.
        -11    1    3    3    0    0 -0.23445560711E+02 -0.15621846299E+02  0.29104125189E+02  0.40506622941E+02  0.51100000000E-03 0.  1.
         12    1    3    3    0    0  0.80791148202E+00 -0.35721556535E+01  0.38663770799E+01  0.53255881084E+01  0.00000000000E+00 0. -1.
</event>
<event>
 7    1  0.2476315E-009  0.4778727E+02  0.7816164E-02  0.1312668E+00
        -11   -1    0    0    0    0  0.00000000000E+00  0.00000000000E+00  0.45593999997E+02  0.45594000000E+02  0.51100000000E-03 0.  1.
         11   -1    0    0    0    0 -0.00000000000E+00 -0.00000000000E+00 -0.45593999997E+02  0.45594000000E+02  0.51100000000E-03 0. -1.
    9900012    2    1    2    0    0 -0.16120053664E+02  0.39567493380E+02  0.76276251344E+01  0.47787270424E+02  0.19999997172E+02 0.  0.
         12    1    1    2    0    0  0.16120053664E+02 -0.39567493380E+02 -0.76276251344E+01  0.43400729576E+02  0.00000000000E+00 0. -1.
         11    1    3    3    0    0 -0.80002696514E+01  0.15215500186E+02  0.10853659676E+02  0.20330216158E+02  0.51100000000E-03 0. -1.
        -11    1    3    3    0    0 -0.21866607320E+00  0.14939040743E+02 -0.10604440177E+01  0.14978227364E+02  0.51100000000E-03 0.  1.
         12    1    3    3    0    0 -0.79011179392E+01  0.94129524506E+01 -0.21655905244E+01  0.12478826902E+02  0.00000000000E+00 0. -1.
</event>
<event>
 7    1  0.2476315E-009  0.4778727E+02  0.7816164E-02  0.1312668E+00
        -11   -1    0    0    0    0  0.00000000000E+00  0.00000000000E+00  0.45593999997E+02  0.45594000000E+02  0.51100000000E-03 0. -1.
         11   -1    0    0    0    0 -0.00000000000E+00 -0.00000000000E+00 -0.45593999997E+02  0.45594000000E+02  0.51100000000E-03 0.  1.
    9900012    2    1    2    0    0  0.42046454369E+02  0.10407305850E+02 -0.27215434824E+01  0.47787272599E+02  0.20000007087E+02 0.  0.
         12    1    1    2    0    0 -0.42046454369E+02 -0.10407305850E+02  0.27215434824E+01  0.43400727401E+02  0.00000000000E+00 0. -1.
         11    1    3    3    0    0  0.15465982757E+02  0.13193697059E+02 -0.20992863427E+01  0.20437154111E+02  0.51100000000E-03 0. -1.
        -11    1    3    3    0    0  0.10744091626E+02 -0.34055673555E+01 -0.19803155795E+01  0.11443559059E+02  0.51100000000E-03 0.  1.
         12    1    3    3    0    0  0.15836379985E+02  0.61917614648E+00  0.13580584397E+01  0.15906559429E+02  0.00000000000E+00 0. -1.
</event>
<event>
 7    1  0.2476315E-009  0.4778727E+02  0.7816164E-02  0.1312668E+00
        -11   -1    0    0    0    0  0.00000000000E+00  0.00000000000E+00  0.45593999997E+02  0.45594000000E+02  0.51100000000E-03 0.  1.
         11   -1    0    0    0    0 -0.00000000000E+00 -0.00000000000E+00 -0.45593999997E+02  0.45594000000E+02  0.51100000000E-03 0. -1.
    9900012    2    1    2    0    0 -0.26362325428E+02 -0.30010087057E+02  0.16971907488E+02  0.47787272230E+02  0.20000005406E+02 0.  0.
         12    1    1    2    0    0  0.26362325428E+02  0.30010087057E+02 -0.16971907488E+02  0.43400727770E+02  0.00000000000E+00 0. -1.
         11    1    3    3    0    0 -0.13446359309E+02 -0.18664849570E+02  0.19936215198E+01  0.23090164901E+02  0.51100000000E-03 0. -1.
        -11    1    3    3    0    0 -0.14313425129E+02 -0.11291915391E+02  0.14074574997E+02  0.23032046234E+02  0.51100000000E-03 0.  1.
        -12    1    3    3    0    0  0.13974590102E+01 -0.53322096795E-01  0.90371097140E+00  0.16650610953E+01  0.00000000000E+00 0.  1.
</event>
<event>
 7    1  0.2476315E-009  0.4778727E+02  0.7816164E-02  0.1312668E+00
        -11   -1    0    0    0    0  0.00000000000E+00  0.00000000000E+00  0.45593999997E+02  0.45594000000E+02  0.51100000000E-03 0.  1.
         11   -1    0    0    0    0 -0.00000000000E+00 -0.00000000000E+00 -0.45593999997E+02  0.45594000000E+02  0.51100000000E-03 0. -1.
    9900012    2    1    2    0    0  0.29964213767E+01  0.13845430373E+02  0.41023758925E+02  0.47787270978E+02  0.19999999697E+02 0.  0.
         12    1    1    2    0    0 -0.29964213767E+01 -0.13845430373E+02 -0.41023758925E+02  0.43400729022E+02  0.00000000000E+00 0. -1.
         11    1    3    3    0    0  0.77152069532E+01  0.10185743079E+02  0.13653540154E+02  0.18700078594E+02  0.51100000000E-03 0. -1.
        -11    1    3    3    0    0 -0.62115988145E+01  0.35789081283E+00  0.17365668482E+02  0.18446638929E+02  0.51100000000E-03 0.  1.
         12    1    3    3    0    0  0.14928132380E+01  0.33017964817E+01  0.10004550288E+02  0.10640553456E+02  0.00000000000E+00 0. -1.
</event>
<event>
 7    1  0.2476315E-009  0.4778726E+02  0.7816164E-02  0.1312668E+00
        -11   -1    0    0    0    0  0.00000000000E+00  0.00000000000E+00  0.45593999997E+02  0.45594000000E+02  0.51100000000E-03 0.  1.
         11   -1    0    0    0    0 -0.00000000000E+00 -0.00000000000E+00 -0.45593999997E+02  0.45594000000E+02  0.51100000000E-03 0. -1.
    9900012    2    1    2    0    0 -0.16164302796E+02  0.17136050780E+02  0.36451273475E+02  0.47787259693E+02  0.19999948244E+02 0.  0.
         12    1    1    2    0    0  0.16164302796E+02 -0.17136050780E+02 -0.36451273475E+02  0.43400740307E+02  0.00000000000E+00 0. -1.
         11    1    3    3    0    0  0.36184008436E+01  0.23441272567E+01  0.12030408168E+02  0.12779611817E+02  0.51100000000E-03 0. -1.
        -11    1    3    3    0    0 -0.84098413240E+01  0.80219259682E+01  0.13768583262E+02  0.18018063509E+02  0.51100000000E-03 0.  1.
         12    1    3    3    0    0 -0.11372862316E+02  0.67699975550E+01  0.10652282046E+02  0.16989584366E+02  0.00000000000E+00 0. -1.
</event>
<event>
 7    1  0.2476315E-009  0.4778727E+02  0.7816164E-02  0.1312668E+00
        -11   -1    0    0    0    0  0.00000000000E+00  0.00000000000E+00  0.45593999997E+02  0.45594000000E+02  0.51100000000E-03 0. -1.
         11   -1    0    0    0    0 -0.00000000000E+00 -0.00000000000E+00 -0.45593999997E+02  0.45594000000E+02  0.51100000000E-03 0.  1.
    9900012    2    1    2    0    0  0.32458733627E+02 -0.37846342330E+01 -0.28560991315E+02  0.47787273395E+02  0.20000010717E+02 0.  0.
         12    1    1    2    0    0 -0.32458733627E+02  0.37846342330E+01  0.28560991315E+02  0.43400726605E+02  0.00000000000E+00 0. -1.
         11    1    3    3    0    0  0.25519582882E+02 -0.41684514729E+01 -0.14221242604E+02  0.29510486943E+02  0.51100000000E-03 0. -1.
        -11    1    3    3    0    0  0.44417358544E+01 -0.32980661855E+01 -0.12080561176E+02  0.13287069525E+02  0.51100000000E-03 0.  1.
         12    1    3    3    0    0  0.24974148904E+01  0.36818834254E+01 -0.22591875351E+01  0.49897169269E+01  0.00000000000E+00 0. -1.
</event>
<event>
 7    1  0.2476315E-009  0.4778727E+02  0.7816164E-02  0.1312668E+00
        -11   -1    0    0    0    0  0.00000000000E+00  0.00000000000E+00  0.45593999997E+02  0.45594000000E+02  0.51100000000E-03 0.  1.
         11   -1    0    0    0    0 -0.00000000000E+00 -0.00000000000E+00 -0.45593999997E+02  0.45594000000E+02  0.51100000000E-03 0. -1.
    9900012    2    1    2    0    0  0.34205388145E+02 -0.21855266717E+02  0.15361057692E+02  0.47787270112E+02  0.19999995748E+02 0.  0.
         12    1    1    2    0    0 -0.34205388145E+02  0.21855266717E+02 -0.15361057692E+02  0.43400729888E+02  0.00000000000E+00 0. -1.
         11    1    3    3    0    0  0.21192662115E+02 -0.39332704992E+01  0.39631510009E+01  0.21915887170E+02  0.51100000000E-03 0. -1.
        -11    1    3    3    0    0  0.54065854835E+01 -0.94205528071E+01  0.92430965175E+01  0.14262286467E+02  0.51100000000E-03 0.  1.
        -12    1    3    3    0    0  0.76061405465E+01 -0.85014434102E+01  0.21548101740E+01  0.11609096475E+02  0.00000000000E+00 0.  1.
</event>
<event>
 7    1  0.2476315E-009  0.4778727E+02  0.7816164E-02  0.1312668E+00
        -11   -1    0    0    0    0  0.00000000000E+00  0.00000000000E+00  0.45593999997E+02  0.45594000000E+02  0.51100000000E-03 0.  1.
         11   -1    0    0    0    0 -0.00000000000E+00 -0.00000000000E+00 -0.45593999997E+02  0.45594000000E+02  0.51100000000E-03 0. -1.
    9900012    2    1    2    0    0  0.19449066390E+01  0.12881700115E+02  0.41399302769E+02  0.47787272709E+02  0.20000007588E+02 0.  0.
         12    1    1    2    0    0 -0.19449066390E+01 -0.12881700115E+02 -0.41399302769E+02  0.43400727291E+02  0.00000000000E+00 0. -1.
         11    1    3    3    0    0 -0.28386742420E+01  0.14079826678E+02  0.22844311148E+02  0.26984479666E+02  0.51100000000E-03 0.  1.
        -11    1    3    3    0    0  0.21161543399E-01 -0.28382987859E+01  0.12991340267E+02  0.13297793426E+02  0.51100000000E-03 0. -1.
        -12    1    3    3    0    0  0.47624193376E+01  0.16401722229E+01  0.55636513536E+01  0.75049996171E+01  0.00000000000E+00 0.  1.
</event>
<event>
 7    1  0.2476315E-009  0.4778727E+02  0.7816164E-02  0.1312668E+00
        -11   -1    0    0    0    0  0.00000000000E+00  0.00000000000E+00  0.45593999997E+02  0.45594000000E+02  0.51100000000E-03 0.  1.
         11   -1    0    0    0    0 -0.00000000000E+00 -0.00000000000E+00 -0.45593999997E+02  0.45594000000E+02  0.51100000000E-03 0. -1.
    9900012    2    1    2    0    0  0.12501122445E+02  0.11660348561E+02  0.39892122194E+02  0.47787271849E+02  0.20000003666E+02 0.  0.
         12    1    1    2    0    0 -0.12501122445E+02 -0.11660348561E+02 -0.39892122194E+02  0.43400728151E+02  0.00000000000E+00 0. -1.
         11    1    3    3    0    0  0.72816640598E+00  0.12125696114E+01  0.12130097258E+02  0.12212281160E+02  0.51100000000E-03 0. -1.
        -11    1    3    3    0    0 -0.32433451348E+01  0.49048220500E+01  0.48325454506E+01  0.76111801187E+01  0.51100000000E-03 0.  1.
        -12    1    3    3    0    0  0.15016301174E+02  0.55429568997E+01  0.22929479485E+02  0.27963810570E+02  0.00000000000E+00 0.  1.
</event>
<event>
 7    1  0.2476315E-009  0.4778728E+02  0.7816164E-02  0.1312668E+00
        -11   -1    0    0    0    0  0.00000000000E+00  0.00000000000E+00  0.45593999997E+02  0.45594000000E+02  0.51100000000E-03 0. -1.
         11   -1    0    0    0    0 -0.00000000000E+00 -0.00000000000E+00 -0.45593999997E+02  0.45594000000E+02  0.51100000000E-03 0.  1.
    9900012    2    1    2    0    0 -0.17352795803E+02 -0.84009313997E+01 -0.38883514373E+02  0.47787275807E+02  0.20000021712E+02 0.  0.
         12    1    1    2    0    0  0.17352795803E+02  0.84009313997E+01  0.38883514373E+02  0.43400724193E+02  0.00000000000E+00 0. -1.
         11    1    3    3    0    0 -0.17705673378E+02 -0.10348235647E+02 -0.31850429329E+02  0.37881746257E+02  0.51100000000E-03 0. -1.
        -11    1    3    3    0    0 -0.18078711576E+01 -0.28354342290E+00 -0.65021411291E+01  0.67547490344E+01  0.51100000000E-03 0.  1.
         12    1    3    3    0    0  0.21607487325E+01  0.22308476706E+01 -0.53094391467E+00  0.31507805152E+01  0.00000000000E+00 0. -1.
</event>
<event>
 7    1  0.2476315E-009  0.4778727E+02  0.7816164E-02  0.1312668E+00
        -11   -1    0    0    0    0  0.00000000000E+00  0.00000000000E+00  0.45593999997E+02  0.45594000000E+02  0.51100000000E-03 0. -1.
         11   -1    0    0    0    0 -0.00000000000E+00 -0.00000000000E+00 -0.45593999997E+02  0.45594000000E+02  0.51100000000E-03 0.  1.
    9900012    2    1    2    0    0  0.29353631454E+02 -0.60787803892E+01 -0.31385288317E+02  0.47787267595E+02  0.19999984271E+02 0.  0.
         12    1    1    2    0    0 -0.29353631454E+02  0.60787803892E+01  0.31385288317E+02  0.43400732405E+02  0.00000000000E+00 0. -1.
         11    1    3    3    0    0 -0.10551583216E-01 -0.26569815064E-01  0.21196205451E+01  0.21198133897E+01  0.51100000000E-03 0. -1.
        -11    1    3    3    0    0  0.60255504618E+01 -0.45135397902E+01 -0.65451202367E+01  0.99758658261E+01  0.51100000000E-03 0.  1.
         12    1    3    3    0    0  0.23338632575E+02 -0.15386707839E+01 -0.26959788626E+02  0.35691588379E+02  0.00000000000E+00 0. -1.
</event>
<event>
 7    1  0.2476315E-009  0.4778728E+02  0.7816164E-02  0.1312668E+00
        -11   -1    0    0    0    0  0.00000000000E+00  0.00000000000E+00  0.45593999997E+02  0.45594000000E+02  0.51100000000E-03 0.  1.
         11   -1    0    0    0    0 -0.00000000000E+00 -0.00000000000E+00 -0.45593999997E+02  0.45594000000E+02  0.51100000000E-03 0. -1.
    9900012    2    1    2    0    0 -0.36523771643E+01 -0.30128771548E+01  0.43141689400E+02  0.47787278209E+02  0.20000032665E+02 0.  0.
         12    1    1    2    0    0  0.36523771643E+01  0.30128771548E+01 -0.43141689400E+02  0.43400721791E+02  0.00000000000E+00 0. -1.
         11    1    3    3    0    0 -0.75722226575E+01 -0.47909005122E+01  0.16182185434E+02  0.18497416289E+02  0.51100000000E-03 0. -1.
        -11    1    3    3    0    0  0.75632852255E+01  0.11911049112E+01  0.19938765967E+02  0.21358286515E+02  0.51100000000E-03 0.  1.
        -12    1    3    3    0    0 -0.36434397324E+01  0.58691844621E+00  0.70207379991E+01  0.79315754045E+01  0.00000000000E+00 0.  1.
</event>
<event>
 7    1  0.2476315E-009  0.4778727E+02  0.7816164E-02  0.1312668E+00
        -11   -1    0    0    0    0  0.00000000000E+00  0.00000000000E+00  0.45593999997E+02  0.45594000000E+02  0.51100000000E-03 0.  1.
         11   -1    0    0    0    0 -0.00000000000E+00 -0.00000000000E+00 -0.45593999997E+02  0.45594000000E+02  0.51100000000E-03 0. -1.
    9900012    2    1    2    0    0  0.40417627461E+02  0.18508052213E+01  0.15703926302E+02  0.47787269697E+02  0.19999993857E+02 0.  0.
         12    1    1    2    0    0 -0.40417627461E+02 -0.18508052213E+01 -0.15703926302E+02  0.43400730303E+02  0.00000000000E+00 0. -1.
         11    1    3    3    0    0  0.19347207056E+02  0.92984406402E+01  0.54861901777E+01  0.22155669751E+02  0.51100000000E-03 0. -1.
        -11    1    3    3    0    0  0.15001962974E+02 -0.55343038050E+01  0.34805768312E+01  0.16364651754E+02  0.51100000000E-03 0.  1.
        -12    1    3    3    0    0  0.60684574309E+01 -0.19133316138E+01  0.67371592931E+01  0.92669481921E+01  0.00000000000E+00 0.  1.
</event>
<event>
 7    1  0.2476315E-009  0.4778727E+02  0.7816164E-02  0.1312668E+00
        -11   -1    0    0    0    0  0.00000000000E+00  0.00000000000E+00  0.45593999997E+02  0.45594000000E+02  0.51100000000E-03 0.  1.
         11   -1    0    0    0    0 -0.00000000000E+00 -0.00000000000E+00 -0.45593999997E+02  0.45594000000E+02  0.51100000000E-03 0. -1.
    9900012    2    1    2    0    0 -0.91437598890E+01 -0.36567507790E+01  0.42268703339E+02  0.47787268979E+02  0.19999990584E+02 0.  0.
         12    1    1    2    0    0  0.91437598890E+01  0.36567507790E+01 -0.42268703339E+02  0.43400731021E+02  0.00000000000E+00 0. -1.
         11    1    3    3    0    0  0.16289353511E+01  0.30670412148E+01  0.23790740425E+02  0.24042868016E+02  0.51100000000E-03 0. -1.
        -11    1    3    3    0    0 -0.54991734412E+01 -0.16494556160E+01  0.26847289176E+01  0.63379319961E+01  0.51100000000E-03 0.  1.
        -12    1    3    3    0    0 -0.52735217989E+01 -0.50743363778E+01  0.15793233997E+02  0.17406468967E+02  0.00000000000E+00 0.  1.
</event>
<event>
 7    1  0.2476315E-009  0.4778727E+02  0.7816164E-02  0.1312668E+00
        -11   -1    0    0    0    0  0.00000000000E+00  0.00000000000E+00  0.45593999997E+02  0.45594000000E+02  0.51100000000E-03 0.  1.
         11   -1    0    0    0    0 -0.00000000000E+00 -0.00000000000E+00 -0.45593999997E+02  0.45594000000E+02  0.51100000000E-03 0. -1.
    9900012    2    1    2    0    0 -0.20352145701E+01 -0.12096675801E+02  0.41631135263E+02  0.47787273196E+02  0.20000009811E+02 0.  0.
         12    1    1    2    0    0  0.20352145701E+01  0.12096675801E+02 -0.41631135263E+02  0.43400726804E+02  0.00000000000E+00 0. -1.
         11    1    3    3    0    0  0.58614364175E+01 -0.82753651922E+01  0.26731554124E+02  0.28590454562E+02  0.51100000000E-03 0. -1.
        -11    1    3    3    0    0 -0.86371317381E+01 -0.49023911185E+01  0.98793478686E+01  0.14008390268E+02  0.51100000000E-03 0.  1.
        -12    1    3    3    0    0  0.74048075050E+00  0.10810805101E+01  0.50202332707E+01  0.51884283655E+01  0.00000000000E+00 0.  1.
</event>
<event>
 7    1  0.2476315E-009  0.4778727E+02  0.7816164E-02  0.1312668E+00
        -11   -1    0    0    0    0  0.00000000000E+00  0.00000000000E+00  0.45593999997E+02  0.45594000000E+02  0.51100000000E-03 0.  1.
         11   -1    0    0    0    0 -0.00000000000E+00 -0.00000000000E+00 -0.45593999997E+02  0.45594000000E+02  0.51100000000E-03 0. -1.
    9900012    2    1    2    0    0 -0.38015742568E+01  0.23333460100E+02  0.36396716599E+02  0.47787270671E+02  0.19999998299E+02 0.  0.
         12    1    1    2    0    0  0.38015742568E+01 -0.23333460100E+02 -0.36396716599E+02  0.43400729329E+02  0.00000000000E+00 0. -1.
         11    1    3    3    0    0 -0.58849923153E+01  0.42321703258E+01  0.59827159825E+01  0.93987919972E+01  0.51100000000E-03 0. -1.
        -11    1    3    3    0    0 -0.46024046785E+01  0.10284169719E+02  0.21121801776E+02  0.23939022247E+02  0.51100000000E-03 0.  1.
        -12    1    3    3    0    0  0.66858227370E+01  0.88171200558E+01  0.92921988401E+01  0.14449456427E+02  0.00000000000E+00 0.  1.
</event>
<event>
 7    1  0.2476315E-009  0.4778729E+02  0.7816164E-02  0.1312668E+00
        -11   -1    0    0    0    0  0.00000000000E+00  0.00000000000E+00  0.45593999997E+02  0.45594000000E+02  0.51100000000E-03 0. -1.
         11   -1    0    0    0    0 -0.00000000000E+00 -0.00000000000E+00 -0.45593999997E+02  0.45594000000E+02  0.51100000000E-03 0.  1.
    9900012    2    1    2    0    0 -0.62099551990E+01  0.18980153175E+02 -0.38533260729E+02  0.47787286405E+02  0.20000070035E+02 0.  0.
         12    1    1    2    0    0  0.62099551990E+01 -0.18980153175E+02  0.38533260729E+02  0.43400713595E+02  0.00000000000E+00 0. -1.
         11    1    3    3    0    0 -0.10745159605E+01  0.93751392052E+01 -0.33456894453E+01  0.10012065611E+02  0.51100000000E-03 0. -1.
        -11    1    3    3    0    0 -0.44185667738E+01  0.10992515575E+02 -0.33180221759E+02  0.35231892473E+02  0.51100000000E-03 0.  1.
        -12    1    3    3    0    0 -0.71687246468E+00 -0.13875016051E+01 -0.20073495250E+01  0.25433283214E+01  0.00000000000E+00 0.  1.
</event>
<event>
 7    1  0.2476315E-009  0.4778727E+02  0.7816164E-02  0.1312668E+00
        -11   -1    0    0    0    0  0.00000000000E+00  0.00000000000E+00  0.45593999997E+02  0.45594000000E+02  0.51100000000E-03 0. -1.
         11   -1    0    0    0    0 -0.00000000000E+00 -0.00000000000E+00 -0.45593999997E+02  0.45594000000E+02  0.51100000000E-03 0.  1.
    9900012    2    1    2    0    0  0.26666142856E+02 -0.33409050038E+02  0.75083432208E+01  0.47787274002E+02  0.20000013484E+02 0.  0.
         12    1    1    2    0    0 -0.26666142856E+02  0.33409050038E+02 -0.75083432208E+01  0.43400725998E+02  0.00000000000E+00 0. -1.
         11    1    3    3    0    0 -0.86617497695E+00  0.67375631623E+00 -0.17111735044E+01  0.20328112769E+01  0.51100000000E-03 0. -1.
        -11    1    3    3    0    0  0.20774231117E+01 -0.16398257473E+01 -0.16372678177E+01  0.31121313331E+01  0.51100000000E-03 0.  1.
         12    1    3    3    0    0  0.25454894721E+02 -0.32442980607E+02  0.10856784543E+02  0.42642331392E+02  0.00000000000E+00 0. -1.
</event>
<event>
 7    1  0.2476315E-009  0.4778727E+02  0.7816164E-02  0.1312668E+00
        -11   -1    0    0    0    0  0.00000000000E+00  0.00000000000E+00  0.45593999997E+02  0.45594000000E+02  0.51100000000E-03 0.  1.
         11   -1    0    0    0    0 -0.00000000000E+00 -0.00000000000E+00 -0.45593999997E+02  0.45594000000E+02  0.51100000000E-03 0. -1.
    9900012    2    1    2    0    0  0.18903874389E+01  0.43277725303E+02  0.26623270708E+01  0.47787273537E+02  0.20000011366E+02 0.  0.
         12    1    1    2    0    0 -0.18903874389E+01 -0.43277725303E+02 -0.26623270708E+01  0.43400726463E+02  0.00000000000E+00 0. -1.
         11    1    3    3    0    0  0.91343948801E+01  0.15698601860E+02 -0.44539371318E+00  0.18168149218E+02  0.51100000000E-03 0. -1.
        -11    1    3    3    0    0 -0.53304892438E+01  0.10672468153E+02  0.39967290772E+01  0.12581316928E+02  0.51100000000E-03 0.  1.
         12    1    3    3    0    0 -0.19135181973E+01  0.16906655290E+02 -0.88900829327E+00  0.17037807392E+02  0.00000000000E+00 0. -1.
</event>
<event>
 7    1  0.2476315E-009  0.4778728E+02  0.7816164E-02  0.1312668E+00
        -11   -1    0    0    0    0  0.00000000000E+00  0.00000000000E+00  0.45593999997E+02  0.45594000000E+02  0.51100000000E-03 0.  1.
         11   -1    0    0    0    0 -0.00000000000E+00 -0.00000000000E+00 -0.45593999997E+02  0.45594000000E+02  0.51100000000E-03 0. -1.
    9900012    2    1    2    0    0  0.39003259849E+02 -0.13851221791E+02 -0.13058034073E+02  0.47787275607E+02  0.20000020802E+02 0.  0.
         12    1    1    2    0    0 -0.39003259849E+02  0.13851221791E+02  0.13058034073E+02  0.43400724393E+02  0.00000000000E+00 0. -1.
         11    1    3    3    0    0  0.27745678670E+02 -0.12421472890E+02 -0.12762651152E+02  0.32969697274E+02  0.51100000000E-03 0. -1.
        -11    1    3    3    0    0  0.14726965534E+01 -0.15199484895E+01  0.36883696505E+01  0.42524286577E+01  0.51100000000E-03 0.  1.
         12    1    3    3    0    0  0.97848846260E+01  0.90199588733E-01 -0.39837525717E+01  0.10565149675E+02  0.00000000000E+00 0. -1.
</event>
<event>
 7    1  0.2476315E-009  0.4778727E+02  0.7816164E-02  0.1312668E+00
        -11   -1    0    0    0    0  0.00000000000E+00  0.00000000000E+00  0.45593999997E+02  0.45594000000E+02  0.51100000000E-03 0. -1.
         11   -1    0    0    0    0 -0.00000000000E+00 -0.00000000000E+00 -0.45593999997E+02  0.45594000000E+02  0.51100000000E-03 0.  1.
    9900012    2    1    2    0    0  0.95430301156E+01  0.22170762866E+02 -0.36069532019E+02  0.47787270859E+02  0.19999999157E+02 0.  0.
         12    1    1    2    0    0 -0.95430301156E+01 -0.22170762866E+02  0.36069532019E+02  0.43400729141E+02  0.00000000000E+00 0. -1.
         11    1    3    3    0    0  0.22525681943E+00 -0.33112809387E+01 -0.20423034862E+01  0.38969636745E+01  0.51100000000E-03 0. -1.
        -11    1    3    3    0    0  0.40375255834E+01  0.10942887352E+02 -0.19188132454E+02  0.22455129120E+02  0.51100000000E-03 0.  1.
         12    1    3    3    0    0  0.52802477127E+01  0.14539156452E+02 -0.14839096079E+02  0.21435178065E+02  0.00000000000E+00 0. -1.
</event>
<event>
 7    1  0.2476315E-009  0.4778727E+02  0.7816164E-02  0.1312668E+00
        -11   -1    0    0    0    0  0.00000000000E+00  0.00000000000E+00  0.45593999997E+02  0.45594000000E+02  0.51100000000E-03 0. -1.
         11   -1    0    0    0    0 -0.00000000000E+00 -0.00000000000E+00 -0.45593999997E+02  0.45594000000E+02  0.51100000000E-03 0.  1.
    9900012    2    1    2    0    0 -0.13991032171E+02 -0.23179841187E+02 -0.33920041128E+02  0.47787271794E+02  0.20000003420E+02 0.  0.
         12    1    1    2    0    0  0.13991032171E+02  0.23179841187E+02  0.33920041128E+02  0.43400728206E+02  0.00000000000E+00 0. -1.
         11    1    3    3    0    0 -0.30780453820E+01 -0.46846229082E+01 -0.17265143444E+00  0.56080178267E+01  0.51100000000E-03 0. -1.
        -11    1    3    3    0    0 -0.13488682388E+02 -0.11189485430E+02 -0.24335799744E+02  0.29989669658E+02  0.51100000000E-03 0.  1.
        -12    1    3    3    0    0  0.25756955986E+01 -0.73057328489E+01 -0.94115899496E+01  0.12189584310E+02  0.00000000000E+00 0.  1.
</event>
<event>
 7    1  0.2476315E-009  0.4778729E+02  0.7816164E-02  0.1312668E+00
        -11   -1    0    0    0    0  0.00000000000E+00  0.00000000000E+00  0.45593999997E+02  0.45594000000E+02  0.51100000000E-03 0. -1.
         11   -1    0    0    0    0 -0.00000000000E+00 -0.00000000000E+00 -0.45593999997E+02  0.45594000000E+02  0.51100000000E-03 0.  1.
    9900012    2    1    2    0    0  0.35392248315E+02 -0.15832515400E+02 -0.19502364515E+02  0.47787285647E+02  0.20000066579E+02 0.  0.
         12    1    1    2    0    0 -0.35392248315E+02  0.15832515400E+02  0.19502364515E+02  0.43400714353E+02  0.00000000000E+00 0. -1.
         11    1    3    3    0    0 -0.14203985683E+01 -0.22851632590E+01 -0.29508941610E+01  0.39934045405E+01  0.51100000000E-03 0. -1.
        -11    1    3    3    0    0  0.30956199023E+02 -0.12158198608E+02 -0.17686942514E+02  0.37668766732E+02  0.51100000000E-03 0.  1.
        -12    1    3    3    0    0  0.58564478598E+01 -0.13891535327E+01  0.11354721600E+01  0.61251143743E+01  0.00000000000E+00 0.  1.
</event>
<event>
 7    1  0.2476315E-009  0.4778729E+02  0.7816164E-02  0.1312668E+00
        -11   -1    0    0    0    0  0.00000000000E+00  0.00000000000E+00  0.45593999997E+02  0.45594000000E+02  0.51100000000E-03 0. -1.
         11   -1    0    0    0    0 -0.00000000000E+00 -0.00000000000E+00 -0.45593999997E+02  0.45594000000E+02  0.51100000000E-03 0.  1.
    9900012    2    1    2    0    0 -0.22909564446E+02 -0.36033076194E+02 -0.77711816632E+01  0.47787285864E+02  0.20000067566E+02 0.  0.
         12    1    1    2    0    0  0.22909564446E+02  0.36033076194E+02  0.77711816632E+01  0.43400714136E+02  0.00000000000E+00 0. -1.
         11    1    3    3    0    0 -0.56002849102E+01 -0.81861672441E-01 -0.23417078227E+01  0.60707073886E+01  0.51100000000E-03 0. -1.
        -11    1    3    3    0    0 -0.97679440558E+01 -0.24558522207E+02 -0.84044486542E+01  0.27733887241E+02  0.51100000000E-03 0.  1.
         12    1    3    3    0    0 -0.75413354799E+01 -0.11392692315E+02  0.29749748137E+01  0.13982691234E+02  0.00000000000E+00 0. -1.
</event>
<event>
 7    1  0.2476315E-009  0.4778727E+02  0.7816164E-02  0.1312668E+00
        -11   -1    0    0    0    0  0.00000000000E+00  0.00000000000E+00  0.45593999997E+02  0.45594000000E+02  0.51100000000E-03 0. -1.
         11   -1    0    0    0    0 -0.00000000000E+00 -0.00000000000E+00 -0.45593999997E+02  0.45594000000E+02  0.51100000000E-03 0.  1.
    9900012    2    1    2    0    0  0.26264271195E+02 -0.18940382365E+02  0.28897638779E+02  0.47787267834E+02  0.19999985361E+02 0.  0.
         12    1    1    2    0    0 -0.26264271195E+02  0.18940382365E+02 -0.28897638779E+02  0.43400732166E+02  0.00000000000E+00 0. -1.
         11    1    3    3    0    0  0.34362100721E+01 -0.96736657103E+01  0.13265060549E+02  0.16773466534E+02  0.51100000000E-03 0. -1.
        -11    1    3    3    0    0  0.21667595393E+02 -0.10684839050E+02  0.12066877140E+02  0.27004814382E+02  0.51100000000E-03 0.  1.
        -12    1    3    3    0    0  0.11604657299E+01  0.14181223954E+01  0.35657010900E+01  0.40089869171E+01  0.00000000000E+00 0.  1.
</event>
<event>
 7    1  0.2476315E-009  0.4778727E+02  0.7816164E-02  0.1312668E+00
        -11   -1    0    0    0    0  0.00000000000E+00  0.00000000000E+00  0.45593999997E+02  0.45594000000E+02  0.51100000000E-03 0.  1.
         11   -1    0    0    0    0 -0.00000000000E+00 -0.00000000000E+00 -0.45593999997E+02  0.45594000000E+02  0.51100000000E-03 0. -1.
    9900012    2    1    2    0    0 -0.32868891152E+02  0.28172410901E+02  0.30942688061E+01  0.47787271424E+02  0.20000001729E+02 0.  0.
         12    1    1    2    0    0  0.32868891152E+02 -0.28172410901E+02 -0.30942688061E+01  0.43400728576E+02  0.00000000000E+00 0. -1.
         11    1    3    3    0    0 -0.84275595186E+01  0.44971738133E+01 -0.25763916901E-01  0.95524340242E+01  0.51100000000E-03 0. -1.
        -11    1    3    3    0    0 -0.20344427662E+02  0.88352453877E+01  0.49665644941E+01  0.22729365611E+02  0.51100000000E-03 0.  1.
        -12    1    3    3    0    0 -0.40969039711E+01  0.14839991699E+02 -0.18465317711E+01  0.15505471788E+02  0.00000000000E+00 0.  1.
</event>
<event>
 7    1  0.2476315E-009  0.4778727E+02  0.7816164E-02  0.1312668E+00
        -11   -1    0    0    0    0  0.00000000000E+00  0.00000000000E+00  0.45593999997E+02  0.45594000000E+02  0.51100000000E-03 0. -1.
         11   -1    0    0    0    0 -0.00000000000E+00 -0.00000000000E+00 -0.45593999997E+02  0.45594000000E+02  0.51100000000E-03 0.  1.
    9900012    2    1    2    0    0  0.22766418554E+01 -0.21872618067E+02 -0.37416964493E+02  0.47787265547E+02  0.19999974933E+02 0.  0.
         12    1    1    2    0    0 -0.22766418554E+01  0.21872618067E+02  0.37416964493E+02  0.43400734453E+02  0.00000000000E+00 0. -1.
         11    1    3    3    0    0 -0.30425936539E+01  0.12050336592E+01 -0.22452537797E+00  0.32802277617E+01  0.51100000000E-03 0. -1.
        -11    1    3    3    0    0  0.44259462188E+01 -0.22387905390E+02 -0.36819566574E+02  0.43318446309E+02  0.51100000000E-03 0.  1.
        -12    1    3    3    0    0  0.89328929043E+00 -0.68974633567E+00 -0.37287254092E+00  0.11885914756E+01  0.00000000000E+00 0.  1.
</event>
<event>
 7    1  0.2476315E-009  0.4778728E+02  0.7816164E-02  0.1312668E+00
        -11   -1    0    0    0    0  0.00000000000E+00  0.00000000000E+00  0.45593999997E+02  0.45594000000E+02  0.51100000000E-03 0.  1.
         11   -1    0    0    0    0 -0.00000000000E+00 -0.00000000000E+00 -0.45593999997E+02  0.45594000000E+02  0.51100000000E-03 0. -1.
    9900012    2    1    2    0    0 -0.17840740140E+01 -0.24856655389E+02  0.35532894394E+02  0.47787276259E+02  0.20000023777E+02 0.  0.
         12    1    1    2    0    0  0.17840740140E+01  0.24856655389E+02 -0.35532894394E+02  0.43400723741E+02  0.00000000000E+00 0. -1.
         11    1    3    3    0    0  0.40758785660E+01  0.15329563255E+01  0.34939478165E+01  0.55830469088E+01  0.51100000000E-03 0. -1.
        -11    1    3    3    0    0 -0.52166621527E+01 -0.22322979688E+02  0.24103051838E+02  0.33263885737E+02  0.51100000000E-03 0.  1.
         12    1    3    3    0    0 -0.64329042735E+00 -0.40666320256E+01  0.79358947396E+01  0.89403436133E+01  0.00000000000E+00 0. -1.
</event>
<event>
 7    1  0.2476315E-009  0.4778727E+02  0.7816164E-02  0.1312668E+00
        -11   -1    0    0    0    0  0.00000000000E+00  0.00000000000E+00  0.45593999997E+02  0.45594000000E+02  0.51100000000E-03 0. -1.
         11   -1    0    0    0    0 -0.00000000000E+00 -0.00000000000E+00 -0.45593999997E+02  0.45594000000E+02  0.51100000000E-03 0.  1.
    9900012    2    1    2    0    0  0.21376398466E+02 -0.37639936206E+02  0.31476591074E+01  0.47787274582E+02  0.20000016129E+02 0.  0.
         12    1    1    2    0    0 -0.21376398466E+02  0.37639936206E+02 -0.31476591074E+01  0.43400725418E+02  0.00000000000E+00 0. -1.
         11    1    3    3    0    0  0.11079506115E+02 -0.21961275337E+02  0.68998191987E+01  0.25547222460E+02  0.51100000000E-03 0. -1.
        -11    1    3    3    0    0  0.88639877128E+01 -0.94080027157E+01 -0.73503860508E+01  0.14869733307E+02  0.51100000000E-03 0.  1.
         12    1    3    3    0    0  0.14329046382E+01 -0.62706581526E+01  0.35982259595E+01  0.73703188143E+01  0.00000000000E+00 0. -1.
</event>
<event>
 7    1  0.2476315E-009  0.4778727E+02  0.7816164E-02  0.1312668E+00
        -11   -1    0    0    0    0  0.00000000000E+00  0.00000000000E+00  0.45593999997E+02  0.45594000000E+02  0.51100000000E-03 0.  1.
         11   -1    0    0    0    0 -0.00000000000E+00 -0.00000000000E+00 -0.45593999997E+02  0.45594000000E+02  0.51100000000E-03 0. -1.
    9900012    2    1    2    0    0  0.62448782078E+01 -0.27827499717E+01  0.42858853130E+02  0.47787268522E+02  0.19999988498E+02 0.  0.
         12    1    1    2    0    0 -0.62448782078E+01  0.27827499717E+01 -0.42858853130E+02  0.43400731478E+02  0.00000000000E+00 0. -1.
         11    1    3    3    0    0  0.35179180392E+01  0.70059656754E+01  0.24282154602E+02  0.25516315070E+02  0.51100000000E-03 0. -1.
        -11    1    3    3    0    0  0.33408766176E+01 -0.17242752562E+01  0.88865043316E+01  0.96490694489E+01  0.51100000000E-03 0.  1.
         12    1    3    3    0    0 -0.61391644904E+00 -0.80644403908E+01  0.96901941964E+01  0.12621884003E+02  0.00000000000E+00 0. -1.
</event>
<event>
 7    1  0.2476315E-009  0.4778729E+02  0.7816164E-02  0.1312668E+00
        -11   -1    0    0    0    0  0.00000000000E+00  0.00000000000E+00  0.45593999997E+02  0.45594000000E+02  0.51100000000E-03 0. -1.
         11   -1    0    0    0    0 -0.00000000000E+00 -0.00000000000E+00 -0.45593999997E+02  0.45594000000E+02  0.51100000000E-03 0.  1.
    9900012    2    1    2    0    0 -0.40355362779E+02 -0.15800232757E+02 -0.23279318697E+01  0.47787286562E+02  0.20000070748E+02 0.  0.
         12    1    1    2    0    0  0.40355362779E+02  0.15800232757E+02  0.23279318697E+01  0.43400713438E+02  0.00000000000E+00 0. -1.
         11    1    3    3    0    0 -0.11412006908E+02  0.52371170586E+00  0.37059116026E+01  0.12010077297E+02  0.51100000000E-03 0. -1.
        -11    1    3    3    0    0 -0.14635977745E+02 -0.14443995913E+02 -0.13567034717E+01  0.20607802092E+02  0.51100000000E-03 0.  1.
        -12    1    3    3    0    0 -0.14307378126E+02 -0.18799485501E+01 -0.46771400005E+01  0.15169407173E+02  0.00000000000E+00 0.  1.
</event>
<event>
 7    1  0.2476315E-009  0.4778727E+02  0.7816164E-02  0.1312668E+00
        -11   -1    0    0    0    0  0.00000000000E+00  0.00000000000E+00  0.45593999997E+02  0.45594000000E+02  0.51100000000E-03 0.  1.
         11   -1    0    0    0    0 -0.00000000000E+00 -0.00000000000E+00 -0.45593999997E+02  0.45594000000E+02  0.51100000000E-03 0. -1.
    9900012    2    1    2    0    0 -0.39981492119E+02 -0.33413753661E+01  0.16551094400E+02  0.47787271582E+02  0.20000002452E+02 0.  0.
         12    1    1    2    0    0  0.39981492119E+02  0.33413753661E+01 -0.16551094400E+02  0.43400728418E+02  0.00000000000E+00 0. -1.
         11    1    3    3    0    0  0.45377858408E+00  0.49613736720E+00 -0.20878514114E+01  0.21934427432E+01  0.51100000000E-03 0. -1.
        -11    1    3    3    0    0 -0.55317245452E+01  0.22747383488E+01  0.43069391894E+01  0.73704909226E+01  0.51100000000E-03 0.  1.
         12    1    3    3    0    0 -0.34903546157E+02 -0.61122510820E+01  0.14332006622E+02  0.38223337916E+02  0.00000000000E+00 0. -1.
</event>
<event>
 7    1  0.2476315E-009  0.4778729E+02  0.7816164E-02  0.1312668E+00
        -11   -1    0    0    0    0  0.00000000000E+00  0.00000000000E+00  0.45593999997E+02  0.45594000000E+02  0.51100000000E-03 0.  1.
         11   -1    0    0    0    0 -0.00000000000E+00 -0.00000000000E+00 -0.45593999997E+02  0.45594000000E+02  0.51100000000E-03 0. -1.
    9900012    2    1    2    0    0  0.33449575857E+01 -0.27882816044E+02  0.33090509399E+02  0.47787285903E+02  0.20000067746E+02 0.  0.
         12    1    1    2    0    0 -0.33449575857E+01  0.27882816044E+02 -0.33090509399E+02  0.43400714097E+02  0.00000000000E+00 0. -1.
         11    1    3    3    0    0  0.13761383998E+01 -0.18398254498E+02  0.95009042726E+01  0.20752269942E+02  0.51100000000E-03 0. -1.
        -11    1    3    3    0    0 -0.11883555027E+01 -0.78622665012E+01  0.89536444737E+01  0.11974772355E+02  0.51100000000E-03 0.  1.
         12    1    3    3    0    0  0.31571746886E+01 -0.16222950448E+01  0.14635960653E+02  0.15060243606E+02  0.00000000000E+00 0. -1.
</event>
<event>
 7    1  0.2476315E-009  0.4778728E+02  0.7816164E-02  0.1312668E+00
        -11   -1    0    0    0    0  0.00000000000E+00  0.00000000000E+00  0.45593999997E+02  0.45594000000E+02  0.51100000000E-03 0. -1.
         11   -1    0    0    0    0 -0.00000000000E+00 -0.00000000000E+00 -0.45593999997E+02  0.45594000000E+02  0.51100000000E-03 0.  1.
    9900012    2    1    2    0    0  0.98781113580E+01 -0.42148082554E+02  0.30959549874E+01  0.47787275533E+02  0.20000020467E+02 0.  0.
         12    1    1    2    0    0 -0.98781113580E+01  0.42148082554E+02 -0.30959549874E+01  0.43400724467E+02  0.00000000000E+00 0. -1.
         11    1    3    3    0    0  0.46378459442E+01 -0.24630522827E+01 -0.10699890991E+01  0.53592087553E+01  0.51100000000E-03 0. -1.
        -11    1    3    3    0    0  0.18170962183E+01 -0.35353456496E+02  0.72050941819E+01  0.36125920159E+02  0.51100000000E-03 0.  1.
        -12    1    3    3    0    0  0.34231691956E+01 -0.43315737745E+01 -0.30391500954E+01  0.63021466191E+01  0.00000000000E+00 0.  1.
</event>
<event>
 7    1  0.2476315E-009  0.4778727E+02  0.7816164E-02  0.1312668E+00
        -11   -1    0    0    0    0  0.00000000000E+00  0.00000000000E+00  0.45593999997E+02  0.45594000000E+02  0.51100000000E-03 0.  1.
         11   -1    0    0    0    0 -0.00000000000E+00 -0.00000000000E+00 -0.45593999997E+02  0.45594000000E+02  0.51100000000E-03 0. -1.
    9900012    2    1    2    0    0 -0.29368201173E+02 -0.31744323712E+02  0.36646468453E+01  0.47787274608E+02  0.20000016247E+02 0.  0.
         12    1    1    2    0    0  0.29368201173E+02  0.31744323712E+02 -0.36646468453E+01  0.43400725392E+02  0.00000000000E+00 0. -1.
         11    1    3    3    0    0 -0.39173133762E-01 -0.81982882511E+00  0.79909993415E+00  0.11455194467E+01  0.51100000000E-03 0.  1.
        -11    1    3    3    0    0  0.45209435177E+00  0.11562961457E+01  0.25849723285E+01  0.28676632089E+01  0.51100000000E-03 0. -1.
        -12    1    3    3    0    0 -0.29781122391E+02 -0.32080791032E+02  0.28057458257E+00  0.43774091952E+02  0.00000000000E+00 0.  1.
</event>
<event>
 7    1  0.2476315E-009  0.4778727E+02  0.7816164E-02  0.1312668E+00
        -11   -1    0    0    0    0  0.00000000000E+00  0.00000000000E+00  0.45593999997E+02  0.45594000000E+02  0.51100000000E-03 0. -1.
         11   -1    0    0    0    0 -0.00000000000E+00 -0.00000000000E+00 -0.45593999997E+02  0.45594000000E+02  0.51100000000E-03 0.  1.
    9900012    2    1    2    0    0 -0.18430751979E+02  0.86225609202E+01 -0.38335128720E+02  0.47787271097E+02  0.20000000240E+02 0.  0.
         12    1    1    2    0    0  0.18430751979E+02 -0.86225609202E+01  0.38335128720E+02  0.43400728903E+02  0.00000000000E+00 0. -1.
         11    1    3    3    0    0 -0.47493624003E+01  0.65686703001E+01 -0.74687135596E+01  0.11022048594E+02  0.51100000000E-03 0. -1.
        -11    1    3    3    0    0 -0.91709208344E+01 -0.46318383039E+01 -0.24238885605E+02  0.26326475090E+02  0.51100000000E-03 0.  1.
        -12    1    3    3    0    0 -0.45104687447E+01  0.66857289241E+01 -0.66275295546E+01  0.10438747412E+02  0.00000000000E+00 0.  1.
</event>
<event>
 7    1  0.2476315E-009  0.4778727E+02  0.7816164E-02  0.1312668E+00
        -11   -1    0    0    0    0  0.00000000000E+00  0.00000000000E+00  0.45593999997E+02  0.45594000000E+02  0.51100000000E-03 0.  1.
         11   -1    0    0    0    0 -0.00000000000E+00 -0.00000000000E+00 -0.45593999997E+02  0.45594000000E+02  0.51100000000E-03 0. -1.
    9900012    2    1    2    0    0  0.10491783134E+02 -0.35279140614E+02  0.22998445960E+02  0.47787265071E+02  0.19999972766E+02 0.  0.
         12    1    1    2    0    0 -0.10491783134E+02  0.35279140614E+02 -0.22998445960E+02  0.43400734929E+02  0.00000000000E+00 0. -1.
         11    1    3    3    0    0  0.34055339775E+01 -0.16941667138E+02  0.20517876221E+02  0.26825379623E+02  0.51100000000E-03 0.  1.
        -11    1    3    3    0    0  0.42152303708E+01 -0.16929459872E+02  0.11062812251E+01  0.17481379724E+02  0.51100000000E-03 0. -1.
        -12    1    3    3    0    0  0.28710187852E+01 -0.14080136040E+01  0.13742885140E+01  0.34805057238E+01  0.00000000000E+00 0.  1.
</event>
<event>
 7    1  0.2476315E-009  0.4778727E+02  0.7816164E-02  0.1312668E+00
        -11   -1    0    0    0    0  0.00000000000E+00  0.00000000000E+00  0.45593999997E+02  0.45594000000E+02  0.51100000000E-03 0. -1.
         11   -1    0    0    0    0 -0.00000000000E+00 -0.00000000000E+00 -0.45593999997E+02  0.45594000000E+02  0.51100000000E-03 0.  1.
    9900012    2    1    2    0    0  0.95561525996E+01  0.82246752257E+01 -0.41529001380E+02  0.47787270851E+02  0.19999999118E+02 0.  0.
         12    1    1    2    0    0 -0.95561525996E+01 -0.82246752257E+01  0.41529001380E+02  0.43400729149E+02  0.00000000000E+00 0. -1.
         11    1    3    3    0    0  0.12118534234E+02 -0.24947713945E+01 -0.22394923611E+02  0.25585452118E+02  0.51100000000E-03 0. -1.
        -11    1    3    3    0    0 -0.12620477367E+01  0.70284613581E+01 -0.10230480686E+02  0.12476168036E+02  0.51100000000E-03 0.  1.
         12    1    3    3    0    0 -0.13003338976E+01  0.36909852621E+01 -0.89035970831E+01  0.97256506964E+01  0.00000000000E+00 0. -1.
</event>
<event>
 7    1  0.2476315E-009  0.4778727E+02  0.7816164E-02  0.1312668E+00
        -11   -1    0    0    0    0  0.00000000000E+00  0.00000000000E+00  0.45593999997E+02  0.45594000000E+02  0.51100000000E-03 0.  1.
         11   -1    0    0    0    0 -0.00000000000E+00 -0.00000000000E+00 -0.45593999997E+02  0.45594000000E+02  0.51100000000E-03 0. -1.
    9900012    2    1    2    0    0  0.48851164048E+01  0.17260271600E+01  0.43090365726E+02  0.47787272466E+02  0.20000006484E+02 0.  0.
         12    1    1    2    0    0 -0.48851164048E+01 -0.17260271600E+01 -0.43090365726E+02  0.43400727534E+02  0.00000000000E+00 0. -1.
         11    1    3    3    0    0  0.67530058589E+01 -0.17404618359E+01  0.60550548024E+01  0.92355825184E+01  0.51100000000E-03 0. -1.
        -11    1    3    3    0    0 -0.16800524340E+01  0.99505125736E-01  0.33916847435E+02  0.33958577968E+02  0.51100000000E-03 0.  1.
        -12    1    3    3    0    0 -0.18783702016E+00  0.33669838702E+01  0.31184634886E+01  0.45931119797E+01  0.00000000000E+00 0.  1.
</event>
<event>
 7    1  0.2476315E-009  0.4778727E+02  0.7816164E-02  0.1312668E+00
        -11   -1    0    0    0    0  0.00000000000E+00  0.00000000000E+00  0.45593999997E+02  0.45594000000E+02  0.51100000000E-03 0.  1.
         11   -1    0    0    0    0 -0.00000000000E+00 -0.00000000000E+00 -0.45593999997E+02  0.45594000000E+02  0.51100000000E-03 0. -1.
    9900012    2    1    2    0    0 -0.38256663033E+02 -0.19891622588E+02  0.49370293023E+01  0.47787272196E+02  0.20000005250E+02 0.  0.
         12    1    1    2    0    0  0.38256663033E+02  0.19891622588E+02 -0.49370293023E+01  0.43400727804E+02  0.00000000000E+00 0. -1.
         11    1    3    3    0    0 -0.11229063740E+02 -0.13590136652E+02  0.36347597341E+01  0.17999865701E+02  0.51100000000E-03 0. -1.
        -11    1    3    3    0    0 -0.25239845960E+02 -0.30480205825E+01 -0.95779774068E+00  0.25441258426E+02  0.51100000000E-03 0.  1.
        -12    1    3    3    0    0 -0.17877533335E+01 -0.32534653539E+01  0.22600673089E+01  0.43461480683E+01  0.00000000000E+00 0.  1.
</event>
<event>
 7    1  0.2476315E-009  0.4778727E+02  0.7816164E-02  0.1312668E+00
        -11   -1    0    0    0    0  0.00000000000E+00  0.00000000000E+00  0.45593999997E+02  0.45594000000E+02  0.51100000000E-03 0. -1.
         11   -1    0    0    0    0 -0.00000000000E+00 -0.00000000000E+00 -0.45593999997E+02  0.45594000000E+02  0.51100000000E-03 0.  1.
    9900012    2    1    2    0    0  0.19351729757E+02 -0.38844360822E+02  0.49984745598E+00  0.47787266599E+02  0.19999979733E+02 0.  0.
         12    1    1    2    0    0 -0.19351729757E+02  0.38844360822E+02 -0.49984745598E+00  0.43400733401E+02  0.00000000000E+00 0. -1.
         11    1    3    3    0    0  0.84185240505E+01 -0.66502372384E+01 -0.12526494512E+01  0.10801219071E+02  0.51100000000E-03 0. -1.
        -11    1    3    3    0    0  0.10857249818E-01 -0.92321902518E+01  0.62707113563E+01  0.11160433500E+02  0.51100000000E-03 0.  1.
        -12    1    3    3    0    0  0.10922348456E+02 -0.22961933332E+02 -0.45182144492E+01  0.25825614028E+02  0.00000000000E+00 0.  1.
</event>
<event>
 7    1  0.2476315E-009  0.4778727E+02  0.7816164E-02  0.1312668E+00
        -11   -1    0    0    0    0  0.00000000000E+00  0.00000000000E+00  0.45593999997E+02  0.45594000000E+02  0.51100000000E-03 0. -1.
         11   -1    0    0    0    0 -0.00000000000E+00 -0.00000000000E+00 -0.45593999997E+02  0.45594000000E+02  0.51100000000E-03 0.  1.
    9900012    2    1    2    0    0 -0.19482565292E+00  0.29794628444E+02 -0.31557337984E+02  0.47787269340E+02  0.19999992231E+02 0.  0.
         12    1    1    2    0    0  0.19482565292E+00 -0.29794628444E+02  0.31557337984E+02  0.43400730660E+02  0.00000000000E+00 0. -1.
         11    1    3    3    0    0 -0.10194639143E+01  0.11662406227E+02 -0.25713432531E+02  0.28252993442E+02  0.51100000000E-03 0. -1.
        -11    1    3    3    0    0 -0.50364252674E+00  0.13739992009E+02 -0.58590908244E+01  0.14945567294E+02  0.51100000000E-03 0.  1.
         12    1    3    3    0    0  0.13282807881E+01  0.43922302084E+01  0.15185371424E-01  0.45887086038E+01  0.00000000000E+00 0. -1.
</event>
<event>
 7    1  0.2476315E-009  0.4778726E+02  0.7816164E-02  0.1312668E+00
        -11   -1    0    0    0    0  0.00000000000E+00  0.00000000000E+00  0.45593999997E+02  0.45594000000E+02  0.51100000000E-03 0.  1.
         11   -1    0    0    0    0 -0.00000000000E+00 -0.00000000000E+00 -0.45593999997E+02  0.45594000000E+02  0.51100000000E-03 0. -1.
    9900012    2    1    2    0    0  0.32569224510E+01  0.72464939400E+01  0.42667381354E+02  0.47787255192E+02  0.19999927721E+02 0.  0.
         12    1    1    2    0    0 -0.32569224510E+01 -0.72464939400E+01 -0.42667381354E+02  0.43400744808E+02  0.00000000000E+00 0. -1.
         11    1    3    3    0    0 -0.29625164201E+01  0.24329836922E+01  0.60806992216E+01  0.71882415423E+01  0.51100000000E-03 0. -1.
        -11    1    3    3    0    0  0.50384850850E+01  0.24342674974E+01  0.20485695476E+01  0.59589116164E+01  0.51100000000E-03 0.  1.
        -12    1    3    3    0    0  0.11809537861E+01  0.23792427504E+01  0.34538112585E+02  0.34640102033E+02  0.00000000000E+00 0.  1.
</event>
<event>
 7    1  0.2476315E-009  0.4778729E+02  0.7816164E-02  0.1312668E+00
        -11   -1    0    0    0    0  0.00000000000E+00  0.00000000000E+00  0.45593999997E+02  0.45594000000E+02  0.51100000000E-03 0.  1.
         11   -1    0    0    0    0 -0.00000000000E+00 -0.00000000000E+00 -0.45593999997E+02  0.45594000000E+02  0.51100000000E-03 0. -1.
    9900012    2    1    2    0    0 -0.26716320702E+02  0.21847932046E+02  0.26315927941E+02  0.47787285836E+02  0.20000067442E+02 0.  0.
         12    1    1    2    0    0  0.26716320702E+02 -0.21847932046E+02 -0.26315927941E+02  0.43400714164E+02  0.00000000000E+00 0. -1.
         11    1    3    3    0    0 -0.20845114962E+02  0.60059666013E+01  0.12843027253E+02  0.25209795752E+02  0.51100000000E-03 0. -1.
        -11    1    3    3    0    0 -0.60825302752E+01  0.99077603688E+01  0.11414983793E+02  0.16293027507E+02  0.51100000000E-03 0.  1.
         12    1    3    3    0    0  0.21132453482E+00  0.59342050757E+01  0.20579168939E+01  0.62844625770E+01  0.00000000000E+00 0. -1.
</event>
<event>
 7    1  0.2476315E-009  0.4778728E+02  0.7816164E-02  0.1312668E+00
        -11   -1    0    0    0    0  0.00000000000E+00  0.00000000000E+00  0.45593999997E+02  0.45594000000E+02  0.51100000000E-03 0.  1.
         11   -1    0    0    0    0 -0.00000000000E+00 -0.00000000000E+00 -0.45593999997E+02  0.45594000000E+02  0.51100000000E-03 0. -1.
    9900012    2    1    2    0    0  0.10968604034E+02 -0.51986570099E+01  0.41668772697E+02  0.47787275038E+02  0.20000018209E+02 0.  0.
         12    1    1    2    0    0 -0.10968604034E+02  0.51986570099E+01 -0.41668772697E+02  0.43400724962E+02  0.00000000000E+00 0. -1.
         11    1    3    3    0    0 -0.25022658695E+01 -0.52993463828E+01  0.35622416653E+01  0.68581318527E+01  0.51100000000E-03 0. -1.
        -11    1    3    3    0    0  0.10990657519E+01  0.20251455558E+01  0.79372987899E+01  0.82649786684E+01  0.51100000000E-03 0.  1.
         12    1    3    3    0    0  0.12371804151E+02 -0.19244561829E+01  0.30169232242E+02  0.32664164517E+02  0.00000000000E+00 0. -1.
</event>
<event>
 7    1  0.2476315E-009  0.4778728E+02  0.7816164E-02  0.1312668E+00
        -11   -1    0    0    0    0  0.00000000000E+00  0.00000000000E+00  0.45593999997E+02  0.45594000000E+02  0.51100000000E-03 0.  1.
         11   -1    0    0    0    0 -0.00000000000E+00 -0.00000000000E+00 -0.45593999997E+02  0.45594000000E+02  0.51100000000E-03 0. -1.
    9900012    2    1    2    0    0 -0.35835345082E+01  0.43248090128E+02  0.61957123860E+00  0.47787275492E+02  0.20000020280E+02 0.  0.
         12    1    1    2    0    0  0.35835345082E+01 -0.43248090128E+02 -0.61957123860E+00  0.43400724508E+02  0.00000000000E+00 0. -1.
         11    1    3    3    0    0 -0.37964016818E+01  0.13666530290E+02  0.83981309265E+01  0.16483789589E+02  0.51100000000E-03 0.  1.
        -11    1    3    3    0    0  0.39900385091E-01  0.11428236973E+02 -0.63969592606E+01  0.13096842382E+02  0.51100000000E-03 0. -1.
        -12    1    3    3    0    0  0.17296678853E+00  0.18153322865E+02 -0.13816004272E+01  0.18206643521E+02  0.00000000000E+00 0.  1.
</event>
<event>
 7    1  0.2476315E-009  0.4778728E+02  0.7816164E-02  0.1312668E+00
        -11   -1    0    0    0    0  0.00000000000E+00  0.00000000000E+00  0.45593999997E+02  0.45594000000E+02  0.51100000000E-03 0.  1.
         11   -1    0    0    0    0 -0.00000000000E+00 -0.00000000000E+00 -0.45593999997E+02  0.45594000000E+02  0.51100000000E-03 0. -1.
    9900012    2    1    2    0    0 -0.27244708161E+02 -0.84131178398E+01  0.32719538266E+02  0.47787275825E+02  0.20000021799E+02 0.  0.
         12    1    1    2    0    0  0.27244708161E+02  0.84131178398E+01 -0.32719538266E+02  0.43400724175E+02  0.00000000000E+00 0. -1.
         11    1    3    3    0    0 -0.14036161045E+02 -0.72600695840E+01  0.61233905846E+01  0.16947517215E+02  0.51100000000E-03 0.  1.
        -11    1    3    3    0    0 -0.99834860784E+01 -0.44478855716E+01  0.20008450975E+02  0.22798942761E+02  0.51100000000E-03 0. -1.
         12    1    3    3    0    0 -0.32250610375E+01  0.32948373158E+01  0.65876967055E+01  0.80408158490E+01  0.00000000000E+00 0. -1.
</event>
<event>
 7    1  0.2476315E-009  0.4778728E+02  0.7816164E-02  0.1312668E+00
        -11   -1    0    0    0    0  0.00000000000E+00  0.00000000000E+00  0.45593999997E+02  0.45594000000E+02  0.51100000000E-03 0. -1.
         11   -1    0    0    0    0 -0.00000000000E+00 -0.00000000000E+00 -0.45593999997E+02  0.45594000000E+02  0.51100000000E-03 0.  1.
    9900012    2    1    2    0    0  0.26579807970E+02  0.16778559578E+02 -0.29926852643E+02  0.47787276937E+02  0.20000026868E+02 0.  0.
         12    1    1    2    0    0 -0.26579807970E+02 -0.16778559578E+02  0.29926852643E+02  0.43400723063E+02  0.00000000000E+00 0. -1.
         11    1    3    3    0    0  0.11635151940E+02  0.45677791134E+01 -0.20475378236E+02  0.23989215929E+02  0.51100000000E-03 0. -1.
        -11    1    3    3    0    0  0.13030873361E+02  0.80322561264E+01 -0.25682327649E+01  0.15521488937E+02  0.51100000000E-03 0.  1.
        -12    1    3    3    0    0  0.19137826681E+01  0.41785243384E+01 -0.68832416423E+01  0.82765720714E+01  0.00000000000E+00 0.  1.
</event>
<event>
 7    1  0.2476315E-009  0.4778728E+02  0.7816164E-02  0.1312668E+00
        -11   -1    0    0    0    0  0.00000000000E+00  0.00000000000E+00  0.45593999997E+02  0.45594000000E+02  0.51100000000E-03 0.  1.
         11   -1    0    0    0    0 -0.00000000000E+00 -0.00000000000E+00 -0.45593999997E+02  0.45594000000E+02  0.51100000000E-03 0. -1.
    9900012    2    1    2    0    0 -0.29057864642E+02 -0.29661419311E+02  0.12627884741E+02  0.47787276894E+02  0.20000026670E+02 0.  0.
         12    1    1    2    0    0  0.29057864642E+02  0.29661419311E+02 -0.12627884741E+02  0.43400723106E+02  0.00000000000E+00 0. -1.
         11    1    3    3    0    0 -0.11614339570E+01 -0.10846921727E+02 -0.51511600175E+00  0.10921079825E+02  0.51100000000E-03 0. -1.
        -11    1    3    3    0    0 -0.11080945698E+02 -0.33274602188E+01  0.49045794407E+01  0.12566393629E+02  0.51100000000E-03 0.  1.
         12    1    3    3    0    0 -0.16815484987E+02 -0.15487037365E+02  0.82384213017E+01  0.24299803440E+02  0.00000000000E+00 0. -1.
</event>
<event>
 7    1  0.2476315E-009  0.4778727E+02  0.7816164E-02  0.1312668E+00
        -11   -1    0    0    0    0  0.00000000000E+00  0.00000000000E+00  0.45593999997E+02  0.45594000000E+02  0.51100000000E-03 0.  1.
         11   -1    0    0    0    0 -0.00000000000E+00 -0.00000000000E+00 -0.45593999997E+02  0.45594000000E+02  0.51100000000E-03 0. -1.
    9900012    2    1    2    0    0 -0.14665480548E+01 -0.10244528700E+01  0.43363844582E+02  0.47787270930E+02  0.19999999480E+02 0.  0.
         12    1    1    2    0    0  0.14665480548E+01  0.10244528700E+01 -0.43363844582E+02  0.43400729070E+02  0.00000000000E+00 0. -1.
         11    1    3    3    0    0  0.44808010810E+01  0.57956851728E+01  0.12475256120E+02  0.14467189100E+02  0.51100000000E-03 0. -1.
        -11    1    3    3    0    0 -0.51821116873E+01 -0.88384408120E+01  0.23839278533E+02  0.25947707389E+02  0.51100000000E-03 0.  1.
        -12    1    3    3    0    0 -0.76523744852E+00  0.20183027693E+01  0.70493099293E+01  0.73723744412E+01  0.00000000000E+00 0.  1.
</event>
<event>
 7    1  0.2476315E-009  0.4778727E+02  0.7816164E-02  0.1312668E+00
        -11   -1    0    0    0    0  0.00000000000E+00  0.00000000000E+00  0.45593999997E+02  0.45594000000E+02  0.51100000000E-03 0. -1.
         11   -1    0    0    0    0 -0.00000000000E+00 -0.00000000000E+00 -0.45593999997E+02  0.45594000000E+02  0.51100000000E-03 0.  1.
    9900012    2    1    2    0    0 -0.58921659763E+01  0.76936436241E+01 -0.42305002916E+02  0.47787273695E+02  0.20000012085E+02 0.  0.
         12    1    1    2    0    0  0.58921659763E+01 -0.76936436241E+01  0.42305002916E+02  0.43400726305E+02  0.00000000000E+00 0. -1.
         11    1    3    3    0    0 -0.37697218156E+01 -0.44092525498E+01 -0.53245185884E+01  0.78741862484E+01  0.51100000000E-03 0.  1.
        -11    1    3    3    0    0 -0.48213100894E+01  0.34691348375E+01 -0.15930667766E+02  0.17001944101E+02  0.51100000000E-03 0. -1.
         12    1    3    3    0    0  0.26988659286E+01  0.86337613364E+01 -0.21049816562E+02  0.22911143345E+02  0.00000000000E+00 0. -1.
</event>
<event>
 7    1  0.2476315E-009  0.4778727E+02  0.7816164E-02  0.1312668E+00
        -11   -1    0    0    0    0  0.00000000000E+00  0.00000000000E+00  0.45593999997E+02  0.45594000000E+02  0.51100000000E-03 0.  1.
         11   -1    0    0    0    0 -0.00000000000E+00 -0.00000000000E+00 -0.45593999997E+02  0.45594000000E+02  0.51100000000E-03 0. -1.
    9900012    2    1    2    0    0  0.23590940316E+02 -0.81172916467E+01  0.35513383044E+02  0.47787271159E+02  0.20000000523E+02 0.  0.
         12    1    1    2    0    0 -0.23590940316E+02  0.81172916467E+01 -0.35513383044E+02  0.43400728841E+02  0.00000000000E+00 0. -1.
         11    1    3    3    0    0  0.22605394244E+02 -0.34052633782E+01  0.20465491764E+02  0.30682829416E+02  0.51100000000E-03 0. -1.
        -11    1    3    3    0    0  0.21876066016E+01 -0.57311441766E+01  0.13773099385E+02  0.15077463419E+02  0.51100000000E-03 0.  1.
        -12    1    3    3    0    0 -0.12020605292E+01  0.10191159081E+01  0.12747918956E+01  0.20269783243E+01  0.00000000000E+00 0.  1.
</event>
<event>
 7    1  0.2476315E-009  0.4778727E+02  0.7816164E-02  0.1312668E+00
        -11   -1    0    0    0    0  0.00000000000E+00  0.00000000000E+00  0.45593999997E+02  0.45594000000E+02  0.51100000000E-03 0.  1.
         11   -1    0    0    0    0 -0.00000000000E+00 -0.00000000000E+00 -0.45593999997E+02  0.45594000000E+02  0.51100000000E-03 0. -1.
    9900012    2    1    2    0    0 -0.25916135038E+02  0.30680125900E+01  0.34678011909E+02  0.47787271129E+02  0.20000000387E+02 0.  0.
         12    1    1    2    0    0  0.25916135038E+02 -0.30680125900E+01 -0.34678011909E+02  0.43400728871E+02  0.00000000000E+00 0. -1.
         11    1    3    3    0    0 -0.21675759174E+02  0.26034182427E+01  0.13408185807E+02  0.25620221881E+02  0.51100000000E-03 0. -1.
        -11    1    3    3    0    0 -0.11358769497E+01 -0.36582528773E+00  0.15633127645E+02  0.15678607235E+02  0.51100000000E-03 0.  1.
         12    1    3    3    0    0 -0.31044989146E+01  0.83041963506E+00  0.56366984562E+01  0.64884420139E+01  0.00000000000E+00 0. -1.
</event>
<event>
 7    1  0.2476315E-009  0.4778727E+02  0.7816164E-02  0.1312668E+00
        -11   -1    0    0    0    0  0.00000000000E+00  0.00000000000E+00  0.45593999997E+02  0.45594000000E+02  0.51100000000E-03 0.  1.
         11   -1    0    0    0    0 -0.00000000000E+00 -0.00000000000E+00 -0.45593999997E+02  0.45594000000E+02  0.51100000000E-03 0. -1.
    9900012    2    1    2    0    0 -0.20929830835E+02 -0.45864460987E+01  0.37742941844E+02  0.47787274596E+02  0.20000016192E+02 0.  0.
         12    1    1    2    0    0  0.20929830835E+02  0.45864460987E+01 -0.37742941844E+02  0.43400725404E+02  0.00000000000E+00 0. -1.
         11    1    3    3    0    0 -0.11095621059E+01  0.48265384159E+01  0.10690311052E+02  0.11781738064E+02  0.51100000000E-03 0.  1.
        -11    1    3    3    0    0 -0.11890999394E+02 -0.66633454852E+01  0.22881160339E+02  0.26633504057E+02  0.51100000000E-03 0. -1.
        -12    1    3    3    0    0 -0.79292693351E+01 -0.27496390295E+01  0.41714704531E+01  0.93720324755E+01  0.00000000000E+00 0.  1.
</event>
<event>
 7    1  0.2476315E-009  0.4778727E+02  0.7816164E-02  0.1312668E+00
        -11   -1    0    0    0    0  0.00000000000E+00  0.00000000000E+00  0.45593999997E+02  0.45594000000E+02  0.51100000000E-03 0. -1.
         11   -1    0    0    0    0 -0.00000000000E+00 -0.00000000000E+00 -0.45593999997E+02  0.45594000000E+02  0.51100000000E-03 0.  1.
    9900012    2    1    2    0    0  0.29450984202E+02  0.27219829399E+02 -0.16593484245E+02  0.47787270716E+02  0.19999998504E+02 0.  0.
         12    1    1    2    0    0 -0.29450984202E+02 -0.27219829399E+02  0.16593484245E+02  0.43400729284E+02  0.00000000000E+00 0. -1.
         11    1    3    3    0    0  0.20691035607E+01 -0.26178099314E+01 -0.30612097560E+01  0.45282583642E+01  0.51100000000E-03 0. -1.
        -11    1    3    3    0    0  0.12251413629E+02  0.16492009287E+02 -0.97151885663E+01  0.22725941023E+02  0.51100000000E-03 0.  1.
         12    1    3    3    0    0  0.15130467012E+02  0.13345630043E+02 -0.38170859226E+01  0.20533071329E+02  0.00000000000E+00 0. -1.
</event>
<event>
 7    1  0.2476315E-009  0.4778727E+02  0.7816164E-02  0.1312668E+00
        -11   -1    0    0    0    0  0.00000000000E+00  0.00000000000E+00  0.45593999997E+02  0.45594000000E+02  0.51100000000E-03 0.  1.
         11   -1    0    0    0    0 -0.00000000000E+00 -0.00000000000E+00 -0.45593999997E+02  0.45594000000E+02  0.51100000000E-03 0. -1.
    9900012    2    1    2    0    0  0.16868126777E+02  0.39985168348E+02  0.52511125485E+00  0.47787272695E+02  0.20000007526E+02 0.  0.
         12    1    1    2    0    0 -0.16868126777E+02 -0.39985168348E+02 -0.52511125485E+00  0.43400727305E+02  0.00000000000E+00 0. -1.
         11    1    3    3    0    0 -0.69913101068E+00  0.84232971084E+00 -0.32256000658E+01  0.34062882376E+01  0.51100000000E-03 0. -1.
        -11    1    3    3    0    0  0.17710151740E+02  0.28342590493E+02  0.28900651130E+01  0.33545556892E+02  0.51100000000E-03 0.  1.
        -12    1    3    3    0    0 -0.14289395233E+00  0.10800248143E+02  0.86064620771E+00  0.10835427566E+02  0.00000000000E+00 0.  1.
</event>
<event>
 7    1  0.2476315E-009  0.4778726E+02  0.7816164E-02  0.1312668E+00
        -11   -1    0    0    0    0  0.00000000000E+00  0.00000000000E+00  0.45593999997E+02  0.45594000000E+02  0.51100000000E-03 0.  1.
         11   -1    0    0    0    0 -0.00000000000E+00 -0.00000000000E+00 -0.45593999997E+02  0.45594000000E+02  0.51100000000E-03 0. -1.
    9900012    2    1    2    0    0 -0.84593486089E+01  0.20387007987E+01  0.42519498887E+02  0.47787255012E+02  0.19999926904E+02 0.  0.
         12    1    1    2    0    0  0.84593486089E+01 -0.20387007987E+01 -0.42519498887E+02  0.43400744988E+02  0.00000000000E+00 0. -1.
         11    1    3    3    0    0 -0.67346900963E+00  0.43059197049E+01  0.76310682403E+00  0.44245719904E+01  0.51100000000E-03 0. -1.
        -11    1    3    3    0    0  0.53296622599E+00  0.21244585176E+01  0.59191697130E+01  0.63114140526E+01  0.51100000000E-03 0.  1.
         12    1    3    3    0    0 -0.83188458253E+01 -0.43916774238E+01  0.35837222350E+02  0.37051268969E+02  0.00000000000E+00 0. -1.
</event>
<event>
 7    1  0.2476315E-009  0.4778725E+02  0.7816164E-02  0.1312668E+00
        -11   -1    0    0    0    0  0.00000000000E+00  0.00000000000E+00  0.45593999997E+02  0.45594000000E+02  0.51100000000E-03 0.  1.
         11   -1    0    0    0    0 -0.00000000000E+00 -0.00000000000E+00 -0.45593999997E+02  0.45594000000E+02  0.51100000000E-03 0. -1.
    9900012    2    1    2    0    0  0.29229836683E+02  0.23733962461E+02  0.21585661888E+02  0.47787249710E+02  0.19999902727E+02 0.  0.
         12    1    1    2    0    0 -0.29229836683E+02 -0.23733962461E+02 -0.21585661888E+02  0.43400750290E+02  0.00000000000E+00 0. -1.
         11    1    3    3    0    0  0.81420314457E-01  0.74873079475E+01  0.96611555820E+00  0.75498204682E+01  0.51100000000E-03 0. -1.
        -11    1    3    3    0    0  0.16603758397E+02  0.90562750674E+01  0.64230297796E+01  0.19973888525E+02  0.51100000000E-03 0.  1.
         12    1    3    3    0    0  0.12544657971E+02  0.71903794456E+01  0.14196516551E+02  0.20263540716E+02  0.00000000000E+00 0. -1.
</event>
<event>
 7    1  0.2476315E-009  0.4778727E+02  0.7816164E-02  0.1312668E+00
        -11   -1    0    0    0    0  0.00000000000E+00  0.00000000000E+00  0.45593999997E+02  0.45594000000E+02  0.51100000000E-03 0.  1.
         11   -1    0    0    0    0 -0.00000000000E+00 -0.00000000000E+00 -0.45593999997E+02  0.45594000000E+02  0.51100000000E-03 0. -1.
    9900012    2    1    2    0    0 -0.42075186036E+01  0.20839024571E+02  0.37837219657E+02  0.47787270176E+02  0.19999996041E+02 0.  0.
         12    1    1    2    0    0  0.42075186036E+01 -0.20839024571E+02 -0.37837219657E+02  0.43400729824E+02  0.00000000000E+00 0. -1.
         11    1    3    3    0    0  0.23176917900E+01  0.98174534821E+01  0.32244968444E+01  0.10590159029E+02  0.51100000000E-03 0. -1.
        -11    1    3    3    0    0 -0.60703511370E+01  0.70847852902E+01  0.20217618366E+02  0.22266464429E+02  0.51100000000E-03 0.  1.
         12    1    3    3    0    0 -0.45485925658E+00  0.39367857988E+01  0.14395104447E+02  0.14930646718E+02  0.00000000000E+00 0. -1.
</event>
<event>
 7    1  0.2476315E-009  0.4778727E+02  0.7816164E-02  0.1312668E+00
        -11   -1    0    0    0    0  0.00000000000E+00  0.00000000000E+00  0.45593999997E+02  0.45594000000E+02  0.51100000000E-03 0. -1.
         11   -1    0    0    0    0 -0.00000000000E+00 -0.00000000000E+00 -0.45593999997E+02  0.45594000000E+02  0.51100000000E-03 0.  1.
    9900012    2    1    2    0    0  0.42999202651E+02 -0.58777148970E+01  0.37995071129E+00  0.47787270472E+02  0.19999997390E+02 0.  0.
         12    1    1    2    0    0 -0.42999202651E+02  0.58777148970E+01 -0.37995071129E+00  0.43400729528E+02  0.00000000000E+00 0. -1.
         11    1    3    3    0    0  0.34042049068E+02 -0.51033597327E+01  0.78736621967E+01  0.35311470402E+02  0.51100000000E-03 0. -1.
        -11    1    3    3    0    0  0.12571663395E+01  0.13784655911E+00 -0.35665930567E+01  0.37841848756E+01  0.51100000000E-03 0.  1.
         12    1    3    3    0    0  0.76999872430E+01 -0.91220172336E+00 -0.39271184287E+01  0.86916151939E+01  0.00000000000E+00 0. -1.
</event>
<event>
 7    1  0.2476315E-009  0.4778727E+02  0.7816164E-02  0.1312668E+00
        -11   -1    0    0    0    0  0.00000000000E+00  0.00000000000E+00  0.45593999997E+02  0.45594000000E+02  0.51100000000E-03 0.  1.
         11   -1    0    0    0    0 -0.00000000000E+00 -0.00000000000E+00 -0.45593999997E+02  0.45594000000E+02  0.51100000000E-03 0. -1.
    9900012    2    1    2    0    0  0.16704981180E+02  0.39777708961E+02  0.47223725698E+01  0.47787270408E+02  0.19999997097E+02 0.  0.
         12    1    1    2    0    0 -0.16704981180E+02 -0.39777708961E+02 -0.47223725698E+01  0.43400729592E+02  0.00000000000E+00 0. -1.
         11    1    3    3    0    0  0.24464189805E+01  0.91735819709E+01 -0.64371874957E+01  0.11470699853E+02  0.51100000000E-03 0. -1.
        -11    1    3    3    0    0  0.12028649660E+02  0.29022630493E+02  0.86019760353E+01  0.32572925649E+02  0.51100000000E-03 0.  1.
        -12    1    3    3    0    0  0.22299125398E+01  0.15814964977E+01  0.25575840302E+01  0.37436449055E+01  0.00000000000E+00 0.  1.
</event>
<event>
 7    1  0.2476315E-009  0.4778727E+02  0.7816164E-02  0.1312668E+00
        -11   -1    0    0    0    0  0.00000000000E+00  0.00000000000E+00  0.45593999997E+02  0.45594000000E+02  0.51100000000E-03 0.  1.
         11   -1    0    0    0    0 -0.00000000000E+00 -0.00000000000E+00 -0.45593999997E+02  0.45594000000E+02  0.51100000000E-03 0. -1.
    9900012    2    1    2    0    0 -0.17631272973E+02  0.11850315679E+02  0.37846154656E+02  0.47787272004E+02  0.20000004376E+02 0.  0.
         12    1    1    2    0    0  0.17631272973E+02 -0.11850315679E+02 -0.37846154656E+02  0.43400727996E+02  0.00000000000E+00 0. -1.
         11    1    3    3    0    0  0.75078019637E+00 -0.19233993320E+01 -0.57984454454E+00  0.21446108856E+01  0.51100000000E-03 0. -1.
        -11    1    3    3    0    0 -0.12195534476E+02  0.80423994582E+01  0.15911942996E+02  0.21600953228E+02  0.51100000000E-03 0.  1.
         12    1    3    3    0    0 -0.61865186937E+01  0.57313155529E+01  0.22514056204E+02  0.24041707890E+02  0.00000000000E+00 0. -1.
</event>
<event>
 7    1  0.2476315E-009  0.4778727E+02  0.7816164E-02  0.1312668E+00
        -11   -1    0    0    0    0  0.00000000000E+00  0.00000000000E+00  0.45593999997E+02  0.45594000000E+02  0.51100000000E-03 0.  1.
         11   -1    0    0    0    0 -0.00000000000E+00 -0.00000000000E+00 -0.45593999997E+02  0.45594000000E+02  0.51100000000E-03 0. -1.
    9900012    2    1    2    0    0  0.43282193585E+02 -0.20235363301E+01  0.24860503751E+01  0.47787269277E+02  0.19999991943E+02 0.  0.
         12    1    1    2    0    0 -0.43282193585E+02  0.20235363301E+01 -0.24860503751E+01  0.43400730723E+02  0.00000000000E+00 0. -1.
         11    1    3    3    0    0  0.79252945734E+01  0.52168954601E+01  0.37391534842E+01  0.10198409746E+02  0.51100000000E-03 0. -1.
        -11    1    3    3    0    0  0.35939819814E+02 -0.75525997717E+01 -0.17426135757E+01  0.36766140862E+02  0.51100000000E-03 0.  1.
         12    1    3    3    0    0 -0.58292080264E+00  0.31216798148E+00  0.48951046667E+00  0.82271866867E+00  0.00000000000E+00 0. -1.
</event>
<event>
 7    1 -0.4599755E-009  0.4778727E+02  0.7816164E-02  0.1312668E+00
        -11   -1    0    0    0    0  0.00000000000E+00  0.00000000000E+00  0.45593999997E+02  0.45594000000E+02  0.51100000000E-03 0.  1.
         11   -1    0    0    0    0 -0.00000000000E+00 -0.00000000000E+00 -0.45593999997E+02  0.45594000000E+02  0.51100000000E-03 0. -1.
    9900012    2    1    2    0    0 -0.22929868974E+02  0.23766462260E+02  0.28160249031E+02  0.47787271377E+02  0.20000001518E+02 0.  0.
         12    1    1    2    0    0  0.22929868974E+02 -0.23766462260E+02 -0.28160249031E+02  0.43400728623E+02  0.00000000000E+00 0. -1.
         11    1    3    3    0    0 -0.92465358143E+01 -0.63747557996E+00  0.65795104503E+01  0.11366387188E+02  0.51100000000E-03 0. -1.
        -11    1    3    3    0    0 -0.46099586106E+01  0.66607644389E+01  0.11557737498E+02  0.14113780416E+02  0.51100000000E-03 0.  1.
         12    1    3    3    0    0 -0.90733745489E+01  0.17743173401E+02  0.10023001082E+02  0.22307103773E+02  0.00000000000E+00 0. -1.
</event>
<event>
 7    1  0.2476315E-009  0.4778727E+02  0.7816164E-02  0.1312668E+00
        -11   -1    0    0    0    0  0.00000000000E+00  0.00000000000E+00  0.45593999997E+02  0.45594000000E+02  0.51100000000E-03 0.  1.
         11   -1    0    0    0    0 -0.00000000000E+00 -0.00000000000E+00 -0.45593999997E+02  0.45594000000E+02  0.51100000000E-03 0. -1.
    9900012    2    1    2    0    0  0.13024685051E+02 -0.20536134004E+02  0.35947850043E+02  0.47787272549E+02  0.20000006862E+02 0.  0.
         12    1    1    2    0    0 -0.13024685051E+02  0.20536134004E+02 -0.35947850043E+02  0.43400727451E+02  0.00000000000E+00 0. -1.
         11    1    3    3    0    0  0.11976459507E+01 -0.14107246742E+02  0.19661325389E+02  0.24228423035E+02  0.51100000000E-03 0. -1.
        -11    1    3    3    0    0  0.86863453111E+00 -0.59690080837E+01  0.63664953321E+01  0.87701679874E+01  0.51100000000E-03 0.  1.
         12    1    3    3    0    0  0.10958404569E+02 -0.45987917875E+00  0.99200293222E+01  0.14788681527E+02  0.00000000000E+00 0. -1.
</event>
<event>
 7    1  0.2476315E-009  0.4778727E+02  0.7816164E-02  0.1312668E+00
        -11   -1    0    0    0    0  0.00000000000E+00  0.00000000000E+00  0.45593999997E+02  0.45594000000E+02  0.51100000000E-03 0.  1.
         11   -1    0    0    0    0 -0.00000000000E+00 -0.00000000000E+00 -0.45593999997E+02  0.45594000000E+02  0.51100000000E-03 0. -1.
    9900012    2    1    2    0    0 -0.55951173895E+01 -0.43005912623E+02  0.16760957340E+01  0.47787272402E+02  0.20000006188E+02 0.  0.
         12    1    1    2    0    0  0.55951173895E+01  0.43005912623E+02 -0.16760957340E+01  0.43400727598E+02  0.00000000000E+00 0. -1.
         11    1    3    3    0    0  0.15253179639E+01 -0.19944873012E+02  0.21180086625E+01  0.20114932645E+02  0.51100000000E-03 0. -1.
        -11    1    3    3    0    0 -0.28660030398E+01 -0.13436847487E+02  0.63630729789E+01  0.15141054844E+02  0.51100000000E-03 0.  1.
         12    1    3    3    0    0 -0.42544323135E+01 -0.96241921248E+01 -0.68049859073E+01  0.12531284913E+02  0.00000000000E+00 0. -1.
</event>
<event>
 7    1  0.2476315E-009  0.4778727E+02  0.7816164E-02  0.1312668E+00
        -11   -1    0    0    0    0  0.00000000000E+00  0.00000000000E+00  0.45593999997E+02  0.45594000000E+02  0.51100000000E-03 0.  1.
         11   -1    0    0    0    0 -0.00000000000E+00 -0.00000000000E+00 -0.45593999997E+02  0.45594000000E+02  0.51100000000E-03 0. -1.
    9900012    2    1    2    0    0 -0.41090572739E+02  0.29921782766E+00  0.13967782924E+02  0.47787266606E+02  0.19999979762E+02 0.  0.
         12    1    1    2    0    0  0.41090572739E+02 -0.29921782766E+00 -0.13967782924E+02  0.43400733394E+02  0.00000000000E+00 0. -1.
         11    1    3    3    0    0 -0.74488485442E+01  0.79065456195E+01  0.17449368109E+01  0.11001982231E+02  0.51100000000E-03 0. -1.
        -11    1    3    3    0    0 -0.23606242076E+02 -0.37321888988E+01  0.92212897653E+01  0.25616714936E+02  0.51100000000E-03 0.  1.
         12    1    3    3    0    0 -0.10035482119E+02 -0.38751388930E+01  0.30015563478E+01  0.11168569439E+02  0.00000000000E+00 0. -1.
</event>
<event>
 7    1  0.2476315E-009  0.4778727E+02  0.7816164E-02  0.1312668E+00
        -11   -1    0    0    0    0  0.00000000000E+00  0.00000000000E+00  0.45593999997E+02  0.45594000000E+02  0.51100000000E-03 0. -1.
         11   -1    0    0    0    0 -0.00000000000E+00 -0.00000000000E+00 -0.45593999997E+02  0.45594000000E+02  0.51100000000E-03 0.  1.
    9900012    2    1    2    0    0  0.98886473170E+01  0.30199122556E+02 -0.29560964413E+02  0.47787274592E+02  0.20000016175E+02 0.  0.
         12    1    1    2    0    0 -0.98886473170E+01 -0.30199122556E+02  0.29560964413E+02  0.43400725408E+02  0.00000000000E+00 0. -1.
         11    1    3    3    0    0 -0.41471639176E+01  0.54500605991E+01 -0.59069737506E+01  0.90440294253E+01  0.51100000000E-03 0. -1.
        -11    1    3    3    0    0  0.10260759511E+02  0.24657114127E+02 -0.19135463895E+02  0.32854565003E+02  0.51100000000E-03 0.  1.
        -12    1    3    3    0    0  0.37750517233E+01  0.91947829767E-01 -0.45185267680E+01  0.58886801637E+01  0.00000000000E+00 0.  1.
</event>
<event>
 7    1  0.2476315E-009  0.4778727E+02  0.7816164E-02  0.1312668E+00
        -11   -1    0    0    0    0  0.00000000000E+00  0.00000000000E+00  0.45593999997E+02  0.45594000000E+02  0.51100000000E-03 0.  1.
         11   -1    0    0    0    0 -0.00000000000E+00 -0.00000000000E+00 -0.45593999997E+02  0.45594000000E+02  0.51100000000E-03 0. -1.
    9900012    2    1    2    0    0  0.18751171599E+02 -0.38784646392E+02 -0.52695343589E+01  0.47787271614E+02  0.20000002598E+02 0.  0.
         12    1    1    2    0    0 -0.18751171599E+02  0.38784646392E+02  0.52695343589E+01  0.43400728386E+02  0.00000000000E+00 0. -1.
         11    1    3    3    0    0 -0.28278285191E+01 -0.71781551058E+01 -0.35247869706E+01  0.84821370129E+01  0.51100000000E-03 0. -1.
        -11    1    3    3    0    0  0.19850243471E+00 -0.27659423318E+01  0.16777193155E+01  0.32410773767E+01  0.51100000000E-03 0.  1.
         12    1    3    3    0    0  0.21380497683E+02 -0.28840548954E+02 -0.34224667038E+01  0.36064057225E+02  0.00000000000E+00 0. -1.
</event>
<event>
 7    1  0.2476315E-009  0.4778727E+02  0.7816164E-02  0.1312668E+00
        -11   -1    0    0    0    0  0.00000000000E+00  0.00000000000E+00  0.45593999997E+02  0.45594000000E+02  0.51100000000E-03 0.  1.
         11   -1    0    0    0    0 -0.00000000000E+00 -0.00000000000E+00 -0.45593999997E+02  0.45594000000E+02  0.51100000000E-03 0. -1.
    9900012    2    1    2    0    0  0.10097496059E+02 -0.36441915623E+02  0.21299073822E+02  0.47787272050E+02  0.20000004583E+02 0.  0.
         12    1    1    2    0    0 -0.10097496059E+02  0.36441915623E+02 -0.21299073822E+02  0.43400727950E+02  0.00000000000E+00 0. -1.
         11    1    3    3    0    0  0.27922787586E+00 -0.38182485954E+01  0.93343472719E+01  0.10088955833E+02  0.51100000000E-03 0. -1.
        -11    1    3    3    0    0  0.11961966745E+02 -0.28735697040E+02  0.91562468268E+01  0.32444811434E+02  0.51100000000E-03 0.  1.
        -12    1    3    3    0    0 -0.21436985612E+01 -0.38879699880E+01  0.28084797229E+01  0.52535047828E+01  0.00000000000E+00 0.  1.
</event>
<event>
 7    1  0.2476315E-009  0.4778727E+02  0.7816164E-02  0.1312668E+00
        -11   -1    0    0    0    0  0.00000000000E+00  0.00000000000E+00  0.45593999997E+02  0.45594000000E+02  0.51100000000E-03 0.  1.
         11   -1    0    0    0    0 -0.00000000000E+00 -0.00000000000E+00 -0.45593999997E+02  0.45594000000E+02  0.51100000000E-03 0. -1.
    9900012    2    1    2    0    0 -0.17185881741E+01 -0.31275874307E+02  0.30041459655E+02  0.47787272389E+02  0.20000006128E+02 0.  0.
         12    1    1    2    0    0  0.17185881741E+01  0.31275874307E+02 -0.30041459655E+02  0.43400727611E+02  0.00000000000E+00 0. -1.
         11    1    3    3    0    0 -0.14925398377E+01 -0.11887602984E+02  0.59315427906E+01  0.13368843630E+02  0.51100000000E-03 0. -1.
        -11    1    3    3    0    0 -0.72282372259E+01 -0.13870319770E+02  0.15754456884E+02  0.22199912069E+02  0.51100000000E-03 0.  1.
        -12    1    3    3    0    0  0.70021888895E+01 -0.55179515527E+01  0.83554599808E+01  0.12218516689E+02  0.00000000000E+00 0.  1.
</event>
<event>
 7    1  0.2476315E-009  0.4778727E+02  0.7816164E-02  0.1312668E+00
        -11   -1    0    0    0    0  0.00000000000E+00  0.00000000000E+00  0.45593999997E+02  0.45594000000E+02  0.51100000000E-03 0.  1.
         11   -1    0    0    0    0 -0.00000000000E+00 -0.00000000000E+00 -0.45593999997E+02  0.45594000000E+02  0.51100000000E-03 0. -1.
    9900012    2    1    2    0    0  0.38362250322E+02  0.11018124193E+02  0.17045879685E+02  0.47787270459E+02  0.19999997329E+02 0.  0.
         12    1    1    2    0    0 -0.38362250322E+02 -0.11018124193E+02 -0.17045879685E+02  0.43400729541E+02  0.00000000000E+00 0. -1.
         11    1    3    3    0    0  0.16201799913E+01 -0.17965680955E+01  0.66137022971E+01  0.70422793513E+01  0.51100000000E-03 0. -1.
        -11    1    3    3    0    0  0.78481672754E+01  0.46828072332E+01  0.43372261120E+01  0.10116024109E+02  0.51100000000E-03 0.  1.
         12    1    3    3    0    0  0.28893903055E+02  0.81318850556E+01  0.60949512757E+01  0.30628966998E+02  0.00000000000E+00 0. -1.
</event>
<event>
 7    1  0.2476315E-009  0.4778727E+02  0.7816164E-02  0.1312668E+00
        -11   -1    0    0    0    0  0.00000000000E+00  0.00000000000E+00  0.45593999997E+02  0.45594000000E+02  0.51100000000E-03 0. -1.
         11   -1    0    0    0    0 -0.00000000000E+00 -0.00000000000E+00 -0.45593999997E+02  0.45594000000E+02  0.51100000000E-03 0.  1.
    9900012    2    1    2    0    0 -0.37909256916E+02 -0.17804624270E+02 -0.11380102694E+02  0.47787272556E+02  0.20000006893E+02 0.  0.
         12    1    1    2    0    0  0.37909256916E+02  0.17804624270E+02  0.11380102694E+02  0.43400727444E+02  0.00000000000E+00 0. -1.
         11    1    3    3    0    0 -0.15281766340E+02 -0.56668777371E+01  0.34285556259E+01  0.16655355886E+02  0.51100000000E-03 0. -1.
        -11    1    3    3    0    0 -0.20435747100E+02 -0.66779137620E+01 -0.11773175967E+02  0.24511669963E+02  0.51100000000E-03 0.  1.
         12    1    3    3    0    0 -0.21917434762E+01 -0.54598327709E+01 -0.30354823529E+01  0.66202467074E+01  0.00000000000E+00 0. -1.
</event>
<event>
 7    1  0.2476315E-009  0.4778727E+02  0.7816164E-02  0.1312668E+00
        -11   -1    0    0    0    0  0.00000000000E+00  0.00000000000E+00  0.45593999997E+02  0.45594000000E+02  0.51100000000E-03 0.  1.
         11   -1    0    0    0    0 -0.00000000000E+00 -0.00000000000E+00 -0.45593999997E+02  0.45594000000E+02  0.51100000000E-03 0. -1.
    9900012    2    1    2    0    0 -0.28803788194E+02 -0.26994588110E+02  0.18034899622E+02  0.47787267219E+02  0.19999982558E+02 0.  0.
         12    1    1    2    0    0  0.28803788194E+02  0.26994588110E+02 -0.18034899622E+02  0.43400732781E+02  0.00000000000E+00 0. -1.
         11    1    3    3    0    0 -0.46188517671E+01 -0.83842766460E+01 -0.74283007080E+00  0.96011292721E+01  0.51100000000E-03 0.  1.
        -11    1    3    3    0    0 -0.17483022275E+02 -0.16845147270E+02  0.19606552682E+02  0.31206280822E+02  0.51100000000E-03 0. -1.
        -12    1    3    3    0    0 -0.67019141525E+01 -0.17651641938E+01 -0.82882298870E+00  0.69798571250E+01  0.00000000000E+00 0.  1.
</event>
<event>
 7    1  0.2476315E-009  0.4778727E+02  0.7816164E-02  0.1312668E+00
        -11   -1    0    0    0    0  0.00000000000E+00  0.00000000000E+00  0.45593999997E+02  0.45594000000E+02  0.51100000000E-03 0. -1.
         11   -1    0    0    0    0 -0.00000000000E+00 -0.00000000000E+00 -0.45593999997E+02  0.45594000000E+02  0.51100000000E-03 0.  1.
    9900012    2    1    2    0    0 -0.13375875851E+02 -0.61681396601E+01 -0.40824786172E+02  0.47787272268E+02  0.20000005581E+02 0.  0.
         12    1    1    2    0    0  0.13375875851E+02  0.61681396601E+01  0.40824786172E+02  0.43400727732E+02  0.00000000000E+00 0. -1.
         11    1    3    3    0    0 -0.21562267282E+01 -0.40602971413E+01 -0.27403917554E+02  0.27786867836E+02  0.51100000000E-03 0. -1.
        -11    1    3    3    0    0 -0.68500491827E+01 -0.52872910273E+01 -0.49976258125E+01  0.99927415776E+01  0.51100000000E-03 0.  1.
        -12    1    3    3    0    0 -0.43695999400E+01  0.31794485085E+01 -0.84232428059E+01  0.10007662855E+02  0.00000000000E+00 0.  1.
</event>
<event>
 7    1  0.2476315E-009  0.4778727E+02  0.7816164E-02  0.1312668E+00
        -11   -1    0    0    0    0  0.00000000000E+00  0.00000000000E+00  0.45593999997E+02  0.45594000000E+02  0.51100000000E-03 0.  1.
         11   -1    0    0    0    0 -0.00000000000E+00 -0.00000000000E+00 -0.45593999997E+02  0.45594000000E+02  0.51100000000E-03 0. -1.
    9900012    2    1    2    0    0 -0.32981141940E+02  0.19351303738E+02  0.20527903074E+02  0.47787268616E+02  0.19999988927E+02 0.  0.
         12    1    1    2    0    0  0.32981141940E+02 -0.19351303738E+02 -0.20527903074E+02  0.43400731384E+02  0.00000000000E+00 0. -1.
         11    1    3    3    0    0 -0.42125674925E+01 -0.33859384343E+01  0.53816930213E+00  0.54313838401E+01  0.51100000000E-03 0. -1.
        -11    1    3    3    0    0 -0.16974201579E+02  0.16118059171E+02  0.15627902502E+02  0.28145100596E+02  0.51100000000E-03 0.  1.
         12    1    3    3    0    0 -0.11794372869E+02  0.66191830017E+01  0.43618312704E+01  0.14210784180E+02  0.00000000000E+00 0. -1.
</event>
<event>
 7    1  0.9482688E-009  0.4778729E+02  0.7816164E-02  0.1312668E+00
        -11   -1    0    0    0    0  0.00000000000E+00  0.00000000000E+00  0.45593999997E+02  0.45594000000E+02  0.51100000000E-03 0. -1.
         11   -1    0    0    0    0 -0.00000000000E+00 -0.00000000000E+00 -0.45593999997E+02  0.45594000000E+02  0.51100000000E-03 0.  1.
    9900012    2    1    2    0    0  0.50134040616E+01  0.34783861256E+02 -0.25467052409E+02  0.47787285921E+02  0.20000067829E+02 0.  0.
         12    1    1    2    0    0 -0.50134040616E+01 -0.34783861256E+02  0.25467052409E+02  0.43400714079E+02  0.00000000000E+00 0. -1.
         11    1    3    3    0    0  0.20164943677E+01 -0.13383580375E+01  0.29500421988E+00  0.24381303333E+01  0.51100000000E-03 0. -1.
        -11    1    3    3    0    0 -0.13191761736E+01  0.14376683321E+02 -0.59441822844E+01  0.15612896988E+02  0.51100000000E-03 0.  1.
         12    1    3    3    0    0  0.43160858674E+01  0.21745535973E+02 -0.19817874345E+02  0.29736258599E+02  0.00000000000E+00 0. -1.
</event>
<event>
 7    1  0.2476315E-009  0.4778727E+02  0.7816164E-02  0.1312668E+00
        -11   -1    0    0    0    0  0.00000000000E+00  0.00000000000E+00  0.45593999997E+02  0.45594000000E+02  0.51100000000E-03 0.  1.
         11   -1    0    0    0    0 -0.00000000000E+00 -0.00000000000E+00 -0.45593999997E+02  0.45594000000E+02  0.51100000000E-03 0. -1.
    9900012    2    1    2    0    0  0.22706172973E+02 -0.35261685113E+02  0.11165417216E+02  0.47787271093E+02  0.20000000220E+02 0.  0.
         12    1    1    2    0    0 -0.22706172973E+02  0.35261685113E+02 -0.11165417216E+02  0.43400728907E+02  0.00000000000E+00 0. -1.
         11    1    3    3    0    0  0.75457527091E+01 -0.21650110717E+02  0.42174523859E+00  0.22931278798E+02  0.51100000000E-03 0. -1.
        -11    1    3    3    0    0  0.11990909586E+01 -0.66310408539E+01  0.23744626466E+01  0.71446899901E+01  0.51100000000E-03 0.  1.
         12    1    3    3    0    0  0.13961329306E+02 -0.69805335423E+01  0.83692093307E+01  0.17711302305E+02  0.00000000000E+00 0. -1.
</event>
<event>
 7    1  0.2476315E-009  0.4778727E+02  0.7816164E-02  0.1312668E+00
        -11   -1    0    0    0    0  0.00000000000E+00  0.00000000000E+00  0.45593999997E+02  0.45594000000E+02  0.51100000000E-03 0.  1.
         11   -1    0    0    0    0 -0.00000000000E+00 -0.00000000000E+00 -0.45593999997E+02  0.45594000000E+02  0.51100000000E-03 0. -1.
    9900012    2    1    2    0    0 -0.42616615888E+02  0.79364756054E+01 -0.21117945071E+01  0.47787271079E+02  0.20000000160E+02 0.  0.
         12    1    1    2    0    0  0.42616615888E+02 -0.79364756054E+01  0.21117945071E+01  0.43400728921E+02  0.00000000000E+00 0. -1.
         11    1    3    3    0    0  0.13868079205E+01  0.53261658570E+00 -0.17909398331E+01  0.23268825459E+01  0.51100000000E-03 0. -1.
        -11    1    3    3    0    0 -0.24472231699E+02  0.63746807050E+01 -0.38682327017E+01  0.25583000271E+02  0.51100000000E-03 0.  1.
         12    1    3    3    0    0 -0.19531192110E+02  0.10291783147E+01  0.35473780276E+01  0.19877388262E+02  0.00000000000E+00 0. -1.
</event>
<event>
 7    1  0.2476315E-009  0.4778727E+02  0.7816164E-02  0.1312668E+00
        -11   -1    0    0    0    0  0.00000000000E+00  0.00000000000E+00  0.45593999997E+02  0.45594000000E+02  0.51100000000E-03 0. -1.
         11   -1    0    0    0    0 -0.00000000000E+00 -0.00000000000E+00 -0.45593999997E+02  0.45594000000E+02  0.51100000000E-03 0.  1.
    9900012    2    1    2    0    0 -0.38851299188E+02 -0.12094642267E+02 -0.15096995478E+02  0.47787273133E+02  0.20000009522E+02 0.  0.
         12    1    1    2    0    0  0.38851299188E+02  0.12094642267E+02  0.15096995478E+02  0.43400726867E+02  0.00000000000E+00 0. -1.
         11    1    3    3    0    0 -0.41309895678E+00 -0.12433170618E+01  0.20434309117E+01  0.24273644589E+01  0.51100000000E-03 0. -1.
        -11    1    3    3    0    0 -0.36467421716E+02 -0.73371498824E+01 -0.17865693258E+02  0.41266083057E+02  0.51100000000E-03 0.  1.
        -12    1    3    3    0    0 -0.19707785145E+01 -0.35141753227E+01  0.72526686775E+00  0.40938256169E+01  0.00000000000E+00 0.  1.
</event>
<event>
 7    1  0.2476315E-009  0.4778724E+02  0.7816164E-02  0.1312668E+00
        -11   -1    0    0    0    0  0.00000000000E+00  0.00000000000E+00  0.45593999997E+02  0.45594000000E+02  0.51100000000E-03 0.  1.
         11   -1    0    0    0    0 -0.00000000000E+00 -0.00000000000E+00 -0.45593999997E+02  0.45594000000E+02  0.51100000000E-03 0. -1.
    9900012    2    1    2    0    0 -0.16549395574E+02  0.18868461881E+02  0.35407978116E+02  0.47787236621E+02  0.19999843051E+02 0.  0.
         12    1    1    2    0    0  0.16549395574E+02 -0.18868461881E+02 -0.35407978116E+02  0.43400763379E+02  0.00000000000E+00 0. -1.
         11    1    3    3    0    0 -0.17863044545E+01  0.83668071607E+00 -0.45940918232E+00  0.20253333757E+01  0.51100000000E-03 0. -1.
        -11    1    3    3    0    0 -0.15931671374E+01 -0.12416452269E+01 -0.89910137731E+00  0.22109382499E+01  0.51100000000E-03 0.  1.
        -12    1    3    3    0    0 -0.13169923982E+02  0.19273426391E+02  0.36766488675E+02  0.43550964996E+02  0.00000000000E+00 0.  1.
</event>
<event>
 7    1  0.2476315E-009  0.4778728E+02  0.7816164E-02  0.1312668E+00
        -11   -1    0    0    0    0  0.00000000000E+00  0.00000000000E+00  0.45593999997E+02  0.45594000000E+02  0.51100000000E-03 0.  1.
         11   -1    0    0    0    0 -0.00000000000E+00 -0.00000000000E+00 -0.45593999997E+02  0.45594000000E+02  0.51100000000E-03 0. -1.
    9900012    2    1    2    0    0 -0.10027643210E+02 -0.34461974496E+02  0.24401665850E+02  0.47787278684E+02  0.20000034832E+02 0.  0.
         12    1    1    2    0    0  0.10027643210E+02  0.34461974496E+02 -0.24401665850E+02  0.43400721316E+02  0.00000000000E+00 0. -1.
         11    1    3    3    0    0 -0.97948383184E+01 -0.17526546744E+02  0.55988982986E+01  0.20843856670E+02  0.51100000000E-03 0. -1.
        -11    1    3    3    0    0 -0.14712832459E+01 -0.83034394803E+00  0.62850216390E+01  0.65081212901E+01  0.51100000000E-03 0.  1.
         12    1    3    3    0    0  0.12384783546E+01 -0.16105083804E+02  0.12517745912E+02  0.20435300724E+02  0.00000000000E+00 0. -1.
</event>
<event>
 7    1  0.2476315E-009  0.4778727E+02  0.7816164E-02  0.1312668E+00
        -11   -1    0    0    0    0  0.00000000000E+00  0.00000000000E+00  0.45593999997E+02  0.45594000000E+02  0.51100000000E-03 0.  1.
         11   -1    0    0    0    0 -0.00000000000E+00 -0.00000000000E+00 -0.45593999997E+02  0.45594000000E+02  0.51100000000E-03 0. -1.
    9900012    2    1    2    0    0  0.25338451497E+02 -0.21129225302E+02  0.28198259451E+02  0.47787272792E+02  0.20000007966E+02 0.  0.
         12    1    1    2    0    0 -0.25338451497E+02  0.21129225302E+02 -0.28198259451E+02  0.43400727208E+02  0.00000000000E+00 0. -1.
         11    1    3    3    0    0  0.92975023399E+01 -0.11897677214E+01  0.44942047825E+01  0.10395045641E+02  0.51100000000E-03 0. -1.
        -11    1    3    3    0    0  0.86594834362E+01 -0.14518797523E+02  0.69087062077E+01  0.18262320680E+02  0.51100000000E-03 0.  1.
        -12    1    3    3    0    0  0.73814657211E+01 -0.54206600578E+01  0.16795348461E+02  0.19129906470E+02  0.00000000000E+00 0.  1.
</event>
<event>
 7    1  0.2476315E-009  0.4778728E+02  0.7816164E-02  0.1312668E+00
        -11   -1    0    0    0    0  0.00000000000E+00  0.00000000000E+00  0.45593999997E+02  0.45594000000E+02  0.51100000000E-03 0.  1.
         11   -1    0    0    0    0 -0.00000000000E+00 -0.00000000000E+00 -0.45593999997E+02  0.45594000000E+02  0.51100000000E-03 0. -1.
    9900012    2    1    2    0    0 -0.36664122118E+02  0.23089010191E+02  0.25025089730E+01  0.47787276579E+02  0.20000025234E+02 0.  0.
         12    1    1    2    0    0  0.36664122118E+02 -0.23089010191E+02 -0.25025089730E+01  0.43400723421E+02  0.00000000000E+00 0. -1.
         11    1    3    3    0    0  0.15253696175E+01 -0.37651324262E+00  0.86464565524E+00  0.17933563678E+01  0.51100000000E-03 0. -1.
        -11    1    3    3    0    0 -0.23971824933E+02  0.16200795981E+02 -0.36786776037E+01  0.29165850754E+02  0.51100000000E-03 0.  1.
         12    1    3    3    0    0 -0.14217666803E+02  0.72647274526E+01  0.53165409215E+01  0.16828069457E+02  0.00000000000E+00 0. -1.
</event>
<event>
 7    1  0.2476315E-009  0.4778727E+02  0.7816164E-02  0.1312668E+00
        -11   -1    0    0    0    0  0.00000000000E+00  0.00000000000E+00  0.45593999997E+02  0.45594000000E+02  0.51100000000E-03 0.  1.
         11   -1    0    0    0    0 -0.00000000000E+00 -0.00000000000E+00 -0.45593999997E+02  0.45594000000E+02  0.51100000000E-03 0. -1.
    9900012    2    1    2    0    0  0.28486993004E+02 -0.53384056932E+01  0.32305045952E+02  0.47787270286E+02  0.19999996544E+02 0.  0.
         12    1    1    2    0    0 -0.28486993004E+02  0.53384056932E+01 -0.32305045952E+02  0.43400729714E+02  0.00000000000E+00 0. -1.
         11    1    3    3    0    0  0.16275035371E+00 -0.34387255004E+01  0.23725845310E+01  0.41809661997E+01  0.51100000000E-03 0. -1.
        -11    1    3    3    0    0  0.11783224003E+02  0.42415341259E+01  0.60369413881E+01  0.13902504855E+02  0.51100000000E-03 0.  1.
        -12    1    3    3    0    0  0.16541018647E+02 -0.61412143187E+01  0.23895520033E+02  0.29703799232E+02  0.00000000000E+00 0.  1.
</event>
<event>
 7    1  0.2476315E-009  0.4778727E+02  0.7816164E-02  0.1312668E+00
        -11   -1    0    0    0    0  0.00000000000E+00  0.00000000000E+00  0.45593999997E+02  0.45594000000E+02  0.51100000000E-03 0.  1.
         11   -1    0    0    0    0 -0.00000000000E+00 -0.00000000000E+00 -0.45593999997E+02  0.45594000000E+02  0.51100000000E-03 0. -1.
    9900012    2    1    2    0    0 -0.66136244075E+01 -0.40936060984E+02  0.12811005344E+02  0.47787274492E+02  0.20000015718E+02 0.  0.
         12    1    1    2    0    0  0.66136244075E+01  0.40936060984E+02 -0.12811005344E+02  0.43400725508E+02  0.00000000000E+00 0. -1.
         11    1    3    3    0    0 -0.56303128695E+01 -0.19278390127E+01  0.38455149431E+01  0.70855466766E+01  0.51100000000E-03 0.  1.
        -11    1    3    3    0    0  0.20483234837E+01 -0.45213302895E+01  0.21887118540E+01  0.54248056668E+01  0.51100000000E-03 0. -1.
         12    1    3    3    0    0 -0.30316350217E+01 -0.34486891682E+02  0.67767785466E+01  0.35276922148E+02  0.00000000000E+00 0. -1.
</event>
<event>
 7    1  0.2476315E-009  0.4778727E+02  0.7816164E-02  0.1312668E+00
        -11   -1    0    0    0    0  0.00000000000E+00  0.00000000000E+00  0.45593999997E+02  0.45594000000E+02  0.51100000000E-03 0.  1.
         11   -1    0    0    0    0 -0.00000000000E+00 -0.00000000000E+00 -0.45593999997E+02  0.45594000000E+02  0.51100000000E-03 0. -1.
    9900012    2    1    2    0    0 -0.27870229899E+02 -0.13432457518E+02  0.30437519348E+02  0.47787271738E+02  0.20000003162E+02 0.  0.
         12    1    1    2    0    0  0.27870229899E+02  0.13432457518E+02 -0.30437519348E+02  0.43400728262E+02  0.00000000000E+00 0. -1.
         11    1    3    3    0    0 -0.27278258992E+02 -0.96103531231E+01  0.19228634309E+02  0.34730428711E+02  0.51100000000E-03 0. -1.
        -11    1    3    3    0    0 -0.14078120801E+00 -0.47162110318E+01  0.11085398742E+02  0.12047760430E+02  0.51100000000E-03 0.  1.
         12    1    3    3    0    0 -0.45118969872E+00  0.89410663677E+00  0.12348629708E+00  0.10090825971E+01  0.00000000000E+00 0. -1.
</event>
<event>
 7    1  0.2476315E-009  0.4778727E+02  0.7816164E-02  0.1312668E+00
        -11   -1    0    0    0    0  0.00000000000E+00  0.00000000000E+00  0.45593999997E+02  0.45594000000E+02  0.51100000000E-03 0. -1.
         11   -1    0    0    0    0 -0.00000000000E+00 -0.00000000000E+00 -0.45593999997E+02  0.45594000000E+02  0.51100000000E-03 0.  1.
    9900012    2    1    2    0    0  0.18675907246E+02  0.39100346688E+02 -0.24488869456E+01  0.47787266483E+02  0.19999979201E+02 0.  0.
         12    1    1    2    0    0 -0.18675907246E+02 -0.39100346688E+02  0.24488869456E+01  0.43400733517E+02  0.00000000000E+00 0. -1.
         11    1    3    3    0    0 -0.18755423633E+01  0.12032616652E+01 -0.86568843722E+00  0.23905887398E+01  0.51100000000E-03 0. -1.
        -11    1    3    3    0    0 -0.67679882579E+00 -0.77129140341E+00 -0.75985684136E+00  0.12768436709E+01  0.51100000000E-03 0.  1.
        -12    1    3    3    0    0  0.21228248435E+02  0.38668376426E+02 -0.82334166702E+00  0.44119834072E+02  0.00000000000E+00 0.  1.
</event>
<event>
 7    1  0.2476315E-009  0.4778726E+02  0.7816164E-02  0.1312668E+00
        -11   -1    0    0    0    0  0.00000000000E+00  0.00000000000E+00  0.45593999997E+02  0.45594000000E+02  0.51100000000E-03 0.  1.
         11   -1    0    0    0    0 -0.00000000000E+00 -0.00000000000E+00 -0.45593999997E+02  0.45594000000E+02  0.51100000000E-03 0. -1.
    9900012    2    1    2    0    0  0.19861927295E+01 -0.23259363222E+02  0.36587996928E+02  0.47787257399E+02  0.19999937787E+02 0.  0.
         12    1    1    2    0    0 -0.19861927295E+01  0.23259363222E+02 -0.36587996928E+02  0.43400742601E+02  0.00000000000E+00 0. -1.
         11    1    3    3    0    0  0.65157775064E+00 -0.52620365987E+00  0.15978976995E+02  0.16000910910E+02  0.51100000000E-03 0. -1.
        -11    1    3    3    0    0  0.39075288373E+01 -0.97396557844E+01  0.12219029812E+02  0.16106966388E+02  0.51100000000E-03 0.  1.
         12    1    3    3    0    0 -0.25729138584E+01 -0.12993503778E+02  0.83899901207E+01  0.15679380102E+02  0.00000000000E+00 0. -1.
</event>
<event>
 7    1  0.2476315E-009  0.4778727E+02  0.7816164E-02  0.1312668E+00
        -11   -1    0    0    0    0  0.00000000000E+00  0.00000000000E+00  0.45593999997E+02  0.45594000000E+02  0.51100000000E-03 0. -1.
         11   -1    0    0    0    0 -0.00000000000E+00 -0.00000000000E+00 -0.45593999997E+02  0.45594000000E+02  0.51100000000E-03 0.  1.
    9900012    2    1    2    0    0  0.89319050872E+01  0.65405418610E+01 -0.41965052815E+02  0.47787271042E+02  0.19999999987E+02 0.  0.
         12    1    1    2    0    0 -0.89319050872E+01 -0.65405418610E+01  0.41965052815E+02  0.43400728958E+02  0.00000000000E+00 0. -1.
         11    1    3    3    0    0  0.63640340265E+01  0.95002506665E+01 -0.16429393930E+02  0.20017009691E+02  0.51100000000E-03 0. -1.
        -11    1    3    3    0    0  0.17987320772E+01  0.24858033967E+01 -0.21499395885E+01  0.37465845924E+01  0.51100000000E-03 0.  1.
         12    1    3    3    0    0  0.76913898343E+00 -0.54455122022E+01 -0.23385719297E+02  0.24023676758E+02  0.00000000000E+00 0. -1.
</event>
<event>
 7    1  0.2476315E-009  0.4778727E+02  0.7816164E-02  0.1312668E+00
        -11   -1    0    0    0    0  0.00000000000E+00  0.00000000000E+00  0.45593999997E+02  0.45594000000E+02  0.51100000000E-03 0.  1.
         11   -1    0    0    0    0 -0.00000000000E+00 -0.00000000000E+00 -0.45593999997E+02  0.45594000000E+02  0.51100000000E-03 0. -1.
    9900012    2    1    2    0    0 -0.80148636499E+01 -0.20188229036E+01  0.42606452645E+02  0.47787268528E+02  0.19999988528E+02 0.  0.
         12    1    1    2    0    0  0.80148636499E+01  0.20188229036E+01 -0.42606452645E+02  0.43400731472E+02  0.00000000000E+00 0. -1.
         11    1    3    3    0    0 -0.12943062146E+01 -0.81649233118E+00  0.76560916763E+00  0.17111534012E+01  0.51100000000E-03 0. -1.
        -11    1    3    3    0    0  0.50893096781E+01  0.32740175430E+01  0.19441102848E+02  0.20361157729E+02  0.51100000000E-03 0.  1.
        -12    1    3    3    0    0 -0.11809867113E+02 -0.44763481154E+01  0.22399740630E+02  0.25714957398E+02  0.00000000000E+00 0.  1.
</event>
<event>
 7    1  0.2476315E-009  0.4778727E+02  0.7816164E-02  0.1312668E+00
        -11   -1    0    0    0    0  0.00000000000E+00  0.00000000000E+00  0.45593999997E+02  0.45594000000E+02  0.51100000000E-03 0.  1.
         11   -1    0    0    0    0 -0.00000000000E+00 -0.00000000000E+00 -0.45593999997E+02  0.45594000000E+02  0.51100000000E-03 0. -1.
    9900012    2    1    2    0    0  0.33313873722E+02  0.27807117227E+02 -0.75715000710E+00  0.47787271584E+02  0.20000002462E+02 0.  0.
         12    1    1    2    0    0 -0.33313873722E+02 -0.27807117227E+02  0.75715000710E+00  0.43400728416E+02  0.00000000000E+00 0. -1.
         11    1    3    3    0    0  0.33835806537E+01 -0.19846784925E+01 -0.14328528574E+01  0.41761985502E+01  0.51100000000E-03 0. -1.
        -11    1    3    3    0    0  0.14094485234E+02  0.20600258110E+02  0.30564738941E+01  0.25146911961E+02  0.51100000000E-03 0.  1.
        -12    1    3    3    0    0  0.15835807834E+02  0.91915376092E+01 -0.23807710438E+01  0.18464161074E+02  0.00000000000E+00 0.  1.
</event>
<event>
 7    1  0.2476315E-009  0.4778727E+02  0.7816164E-02  0.1312668E+00
        -11   -1    0    0    0    0  0.00000000000E+00  0.00000000000E+00  0.45593999997E+02  0.45594000000E+02  0.51100000000E-03 0. -1.
         11   -1    0    0    0    0 -0.00000000000E+00 -0.00000000000E+00 -0.45593999997E+02  0.45594000000E+02  0.51100000000E-03 0.  1.
    9900012    2    1    2    0    0  0.33797832238E+02 -0.70827917899E+01 -0.26290000597E+02  0.47787268037E+02  0.19999986289E+02 0.  0.
         12    1    1    2    0    0 -0.33797832238E+02  0.70827917899E+01  0.26290000597E+02  0.43400731963E+02  0.00000000000E+00 0. -1.
         11    1    3    3    0    0  0.27508434523E+02 -0.86467047233E+01 -0.28593937540E+02  0.40609022849E+02  0.51100000000E-03 0.  1.
        -11    1    3    3    0    0  0.33837298419E+01  0.17363908246E+00  0.20199345110E+01  0.39446056664E+01  0.51100000000E-03 0. -1.
        -12    1    3    3    0    0  0.29056678737E+01  0.13902738509E+01  0.28400243288E+00  0.32336395214E+01  0.00000000000E+00 0.  1.
</event>
<event>
 7    1  0.2476315E-009  0.4778727E+02  0.7816164E-02  0.1312668E+00
        -11   -1    0    0    0    0  0.00000000000E+00  0.00000000000E+00  0.45593999997E+02  0.45594000000E+02  0.51100000000E-03 0. -1.
         11   -1    0    0    0    0 -0.00000000000E+00 -0.00000000000E+00 -0.45593999997E+02  0.45594000000E+02  0.51100000000E-03 0.  1.
    9900012    2    1    2    0    0  0.79534539219E+01  0.14871882797E+02 -0.39989912568E+02  0.47787269195E+02  0.19999991568E+02 0.  0.
         12    1    1    2    0    0 -0.79534539219E+01 -0.14871882797E+02  0.39989912568E+02  0.43400730805E+02  0.00000000000E+00 0. -1.
         11    1    3    3    0    0 -0.38443340420E+00  0.31687208886E+01 -0.24114250162E+01  0.40004439731E+01  0.51100000000E-03 0. -1.
        -11    1    3    3    0    0 -0.45024784787E+01 -0.42622572778E+00 -0.51042081428E+01  0.68195983641E+01  0.51100000000E-03 0.  1.
        -12    1    3    3    0    0  0.12840365805E+02  0.12129387636E+02 -0.32474279409E+02  0.36967226858E+02  0.00000000000E+00 0.  1.
</event>
<event>
 7    1  0.2476315E-009  0.4778726E+02  0.7816164E-02  0.1312668E+00
        -11   -1    0    0    0    0  0.00000000000E+00  0.00000000000E+00  0.45593999997E+02  0.45594000000E+02  0.51100000000E-03 0.  1.
         11   -1    0    0    0    0 -0.00000000000E+00 -0.00000000000E+00 -0.45593999997E+02  0.45594000000E+02  0.51100000000E-03 0. -1.
    9900012    2    1    2    0    0 -0.16688280715E+02 -0.16501949910E+02  0.36507681562E+02  0.47787264095E+02  0.19999968313E+02 0.  0.
         12    1    1    2    0    0  0.16688280715E+02  0.16501949910E+02 -0.36507681562E+02  0.43400735905E+02  0.00000000000E+00 0. -1.
         11    1    3    3    0    0 -0.51278211473E+01 -0.87384478870E+01  0.11907852823E+02  0.15634960196E+02  0.51100000000E-03 0. -1.
        -11    1    3    3    0    0  0.21972889989E+01 -0.52025098161E+01  0.12245800508E+02  0.13485318598E+02  0.51100000000E-03 0.  1.
        -12    1    3    3    0    0 -0.13757748567E+02 -0.25609922072E+01  0.12354028231E+02  0.18666985301E+02  0.00000000000E+00 0.  1.
</event>
<event>
 7    1  0.2476315E-009  0.4778727E+02  0.7816164E-02  0.1312668E+00
        -11   -1    0    0    0    0  0.00000000000E+00  0.00000000000E+00  0.45593999997E+02  0.45594000000E+02  0.51100000000E-03 0. -1.
         11   -1    0    0    0    0 -0.00000000000E+00 -0.00000000000E+00 -0.45593999997E+02  0.45594000000E+02  0.51100000000E-03 0.  1.
    9900012    2    1    2    0    0 -0.27508921088E+02  0.33296240731E+02 -0.42711797044E+01  0.47787270026E+02  0.19999995355E+02 0.  0.
         12    1    1    2    0    0  0.27508921088E+02 -0.33296240731E+02  0.42711797044E+01  0.43400729974E+02  0.00000000000E+00 0. -1.
         11    1    3    3    0    0 -0.16230145352E+01  0.12146001985E+02 -0.52144068835E+01  0.13317266228E+02  0.51100000000E-03 0. -1.
        -11    1    3    3    0    0 -0.25906023839E+02  0.21768988263E+02  0.92282553300E+00  0.33850591256E+02  0.51100000000E-03 0.  1.
        -12    1    3    3    0    0  0.20117285951E-01 -0.61874951676E+00  0.20401646066E-01  0.61941254172E+00  0.00000000000E+00 0.  1.
</event>
<event>
 7    1  0.2476315E-009  0.4778728E+02  0.7816164E-02  0.1312668E+00
        -11   -1    0    0    0    0  0.00000000000E+00  0.00000000000E+00  0.45593999997E+02  0.45594000000E+02  0.51100000000E-03 0.  1.
         11   -1    0    0    0    0 -0.00000000000E+00 -0.00000000000E+00 -0.45593999997E+02  0.45594000000E+02  0.51100000000E-03 0. -1.
    9900012    2    1    2    0    0  0.37656392056E+02 -0.36261942408E+01  0.21271332974E+02  0.47787277036E+02  0.20000027317E+02 0.  0.
         12    1    1    2    0    0 -0.37656392056E+02  0.36261942408E+01 -0.21271332974E+02  0.43400722964E+02  0.00000000000E+00 0. -1.
         11    1    3    3    0    0  0.20844424581E+02  0.86889261415E+00  0.18871205260E+02  0.28131253059E+02  0.51100000000E-03 0. -1.
        -11    1    3    3    0    0  0.29518606588E+01 -0.37543870598E+01  0.32069827666E+01  0.57527073861E+01  0.51100000000E-03 0.  1.
         12    1    3    3    0    0  0.13860106816E+02 -0.74069979518E+00 -0.80685505193E+00  0.13903316591E+02  0.00000000000E+00 0. -1.
</event>
<event>
 7    1  0.2476315E-009  0.4778727E+02  0.7816164E-02  0.1312668E+00
        -11   -1    0    0    0    0  0.00000000000E+00  0.00000000000E+00  0.45593999997E+02  0.45594000000E+02  0.51100000000E-03 0. -1.
         11   -1    0    0    0    0 -0.00000000000E+00 -0.00000000000E+00 -0.45593999997E+02  0.45594000000E+02  0.51100000000E-03 0.  1.
    9900012    2    1    2    0    0  0.37372703486E+02 -0.17513514866E+02 -0.13423162458E+02  0.47787268909E+02  0.19999990265E+02 0.  0.
         12    1    1    2    0    0 -0.37372703486E+02  0.17513514866E+02  0.13423162458E+02  0.43400731091E+02  0.00000000000E+00 0. -1.
         11    1    3    3    0    0  0.16852462592E+02 -0.14603130902E+02 -0.36798481269E+01  0.22600845339E+02  0.51100000000E-03 0. -1.
        -11    1    3    3    0    0  0.14521327935E+02 -0.39419104094E+01 -0.11400398807E+02  0.18877942576E+02  0.51100000000E-03 0.  1.
         12    1    3    3    0    0  0.59989129591E+01  0.10315264451E+01  0.16570844751E+01  0.63084809943E+01  0.00000000000E+00 0. -1.
</event>
<event>
 7    1  0.2476315E-009  0.4778727E+02  0.7816164E-02  0.1312668E+00
        -11   -1    0    0    0    0  0.00000000000E+00  0.00000000000E+00  0.45593999997E+02  0.45594000000E+02  0.51100000000E-03 0. -1.
         11   -1    0    0    0    0 -0.00000000000E+00 -0.00000000000E+00 -0.45593999997E+02  0.45594000000E+02  0.51100000000E-03 0.  1.
    9900012    2    1    2    0    0 -0.36677923566E+02 -0.39002329171E+01 -0.22872285772E+02  0.47787270164E+02  0.19999995984E+02 0.  0.
         12    1    1    2    0    0  0.36677923566E+02  0.39002329171E+01  0.22872285772E+02  0.43400729836E+02  0.00000000000E+00 0. -1.
         11    1    3    3    0    0 -0.20284344451E+02 -0.39550749805E+01 -0.31615990588E+01  0.20906768205E+02  0.51100000000E-03 0. -1.
        -11    1    3    3    0    0 -0.16456455497E+02 -0.73344624819E+00 -0.15575717487E+02  0.22670594311E+02  0.51100000000E-03 0.  1.
         12    1    3    3    0    0  0.62876381929E-01  0.78828831161E+00 -0.41349692257E+01  0.42099076474E+01  0.00000000000E+00 0. -1.
</event>
<event>
 7    1  0.2476315E-009  0.4778728E+02  0.7816164E-02  0.1312668E+00
        -11   -1    0    0    0    0  0.00000000000E+00  0.00000000000E+00  0.45593999997E+02  0.45594000000E+02  0.51100000000E-03 0.  1.
         11   -1    0    0    0    0 -0.00000000000E+00 -0.00000000000E+00 -0.45593999997E+02  0.45594000000E+02  0.51100000000E-03 0. -1.
    9900012    2    1    2    0    0  0.42427644190E+02 -0.69382417333E+01  0.59479935394E+01  0.47787276308E+02  0.20000023999E+02 0.  0.
         12    1    1    2    0    0 -0.42427644190E+02  0.69382417333E+01 -0.59479935394E+01  0.43400723692E+02  0.00000000000E+00 0. -1.
         11    1    3    3    0    0  0.26523622781E+02 -0.49666430295E+00  0.93409236843E+01  0.28124759491E+02  0.51100000000E-03 0.  1.
        -11    1    3    3    0    0  0.79868171094E+01 -0.57597367390E+01  0.20141232768E+01  0.10050895864E+02  0.51100000000E-03 0. -1.
         12    1    3    3    0    0  0.79172042990E+01 -0.68184069141E+00 -0.54070534218E+01  0.96116209532E+01  0.00000000000E+00 0. -1.
</event>
<event>
 7    1  0.2476315E-009  0.4778727E+02  0.7816164E-02  0.1312668E+00
        -11   -1    0    0    0    0  0.00000000000E+00  0.00000000000E+00  0.45593999997E+02  0.45594000000E+02  0.51100000000E-03 0.  1.
         11   -1    0    0    0    0 -0.00000000000E+00 -0.00000000000E+00 -0.45593999997E+02  0.45594000000E+02  0.51100000000E-03 0. -1.
    9900012    2    1    2    0    0  0.71953017620E+01  0.24241050711E+02  0.35273536398E+02  0.47787271008E+02  0.19999999834E+02 0.  0.
         12    1    1    2    0    0 -0.71953017620E+01 -0.24241050711E+02 -0.35273536398E+02  0.43400728992E+02  0.00000000000E+00 0. -1.
         11    1    3    3    0    0  0.25411128475E+01 -0.10723691947E+01  0.43584216792E+00  0.27923446868E+01  0.51100000000E-03 0. -1.
        -11    1    3    3    0    0 -0.35214175956E+01  0.13918510393E+02  0.19452241832E+02  0.24176745563E+02  0.51100000000E-03 0.  1.
        -12    1    3    3    0    0  0.81756065101E+01  0.11394909513E+02  0.15385452398E+02  0.20818180758E+02  0.00000000000E+00 0.  1.
</event>
<event>
 7    1  0.2476315E-009  0.4778727E+02  0.7816164E-02  0.1312668E+00
        -11   -1    0    0    0    0  0.00000000000E+00  0.00000000000E+00  0.45593999997E+02  0.45594000000E+02  0.51100000000E-03 0. -1.
         11   -1    0    0    0    0 -0.00000000000E+00 -0.00000000000E+00 -0.45593999997E+02  0.45594000000E+02  0.51100000000E-03 0.  1.
    9900012    2    1    2    0    0 -0.16939837758E+02 -0.37893504610E+02  0.12678617748E+02  0.47787272554E+02  0.20000006881E+02 0.  0.
         12    1    1    2    0    0  0.16939837758E+02  0.37893504610E+02 -0.12678617748E+02  0.43400727446E+02  0.00000000000E+00 0. -1.
         11    1    3    3    0    0 -0.30680177579E+01  0.10814962028E+01  0.77834201725E+00  0.33448742213E+01  0.51100000000E-03 0. -1.
        -11    1    3    3    0    0 -0.15198492117E+02 -0.38524853701E+02  0.11618967046E+02  0.43013473596E+02  0.51100000000E-03 0.  1.
        -12    1    3    3    0    0  0.13266721166E+01 -0.45014711202E+00  0.28130868404E+00  0.14289247367E+01  0.00000000000E+00 0.  1.
</event>
<event>
 7    1  0.2476315E-009  0.4778727E+02  0.7816164E-02  0.1312668E+00
        -11   -1    0    0    0    0  0.00000000000E+00  0.00000000000E+00  0.45593999997E+02  0.45594000000E+02  0.51100000000E-03 0.  1.
         11   -1    0    0    0    0 -0.00000000000E+00 -0.00000000000E+00 -0.45593999997E+02  0.45594000000E+02  0.51100000000E-03 0. -1.
    9900012    2    1    2    0    0 -0.23713132815E+02  0.16651699703E+01  0.36311677052E+02  0.47787270176E+02  0.19999996041E+02 0.  0.
         12    1    1    2    0    0  0.23713132815E+02 -0.16651699703E+01 -0.36311677052E+02  0.43400729824E+02  0.00000000000E+00 0. -1.
         11    1    3    3    0    0 -0.10165134604E+01 -0.41686268796E+00 -0.18276383578E+01  0.21324484388E+01  0.51100000000E-03 0. -1.
        -11    1    3    3    0    0 -0.15845137800E+02  0.11988513682E+01  0.34178202998E+02  0.37691579921E+02  0.51100000000E-03 0.  1.
         12    1    3    3    0    0 -0.68514815549E+01  0.88318129010E+00  0.39611124113E+01  0.79632418162E+01  0.00000000000E+00 0. -1.
</event>
<event>
 7    1  0.2476315E-009  0.4778727E+02  0.7816164E-02  0.1312668E+00
        -11   -1    0    0    0    0  0.00000000000E+00  0.00000000000E+00  0.45593999997E+02  0.45594000000E+02  0.51100000000E-03 0.  1.
         11   -1    0    0    0    0 -0.00000000000E+00 -0.00000000000E+00 -0.45593999997E+02  0.45594000000E+02  0.51100000000E-03 0. -1.
    9900012    2    1    2    0    0 -0.17417976354E+02  0.15607934936E+02  0.36559945055E+02  0.47787272867E+02  0.20000008312E+02 0.  0.
         12    1    1    2    0    0  0.17417976354E+02 -0.15607934936E+02 -0.36559945055E+02  0.43400727133E+02  0.00000000000E+00 0. -1.
         11    1    3    3    0    0 -0.72833824567E+01 -0.32618942412E+01  0.11737304800E+02  0.14193376564E+02  0.51100000000E-03 0. -1.
        -11    1    3    3    0    0 -0.21676449676E+01  0.36285076530E+01  0.10122449876E+02  0.10969445941E+02  0.51100000000E-03 0.  1.
         12    1    3    3    0    0 -0.79669489295E+01  0.15241321524E+02  0.14700190378E+02  0.22624450362E+02  0.00000000000E+00 0. -1.
</event>
<event>
 7    1  0.2476315E-009  0.4778727E+02  0.7816164E-02  0.1312668E+00
        -11   -1    0    0    0    0  0.00000000000E+00  0.00000000000E+00  0.45593999997E+02  0.45594000000E+02  0.51100000000E-03 0.  1.
         11   -1    0    0    0    0 -0.00000000000E+00 -0.00000000000E+00 -0.45593999997E+02  0.45594000000E+02  0.51100000000E-03 0. -1.
    9900012    2    1    2    0    0 -0.34852213146E+02  0.11414764692E+02  0.23208829243E+02  0.47787269949E+02  0.19999995005E+02 0.  0.
         12    1    1    2    0    0  0.34852213146E+02 -0.11414764692E+02 -0.23208829243E+02  0.43400730051E+02  0.00000000000E+00 0. -1.
         11    1    3    3    0    0 -0.10182456448E+02  0.22991264344E+01  0.86156215479E+01  0.13535041064E+02  0.51100000000E-03 0. -1.
        -11    1    3    3    0    0 -0.83263225668E+01 -0.45478123345E+01  0.27451607926E+01  0.98765455780E+01  0.51100000000E-03 0.  1.
        -12    1    3    3    0    0 -0.16343434131E+02  0.13663450592E+02  0.11848046903E+02  0.24375683307E+02  0.00000000000E+00 0.  1.
</event>
<event>
 7    1  0.2476315E-009  0.4778727E+02  0.7816164E-02  0.1312668E+00
        -11   -1    0    0    0    0  0.00000000000E+00  0.00000000000E+00  0.45593999997E+02  0.45594000000E+02  0.51100000000E-03 0.  1.
         11   -1    0    0    0    0 -0.00000000000E+00 -0.00000000000E+00 -0.45593999997E+02  0.45594000000E+02  0.51100000000E-03 0. -1.
    9900012    2    1    2    0    0  0.27482857557E+01 -0.65102479414E+01  0.42821569570E+02  0.47787271627E+02  0.20000002657E+02 0.  0.
         12    1    1    2    0    0 -0.27482857557E+01  0.65102479414E+01 -0.42821569570E+02  0.43400728373E+02  0.00000000000E+00 0. -1.
         11    1    3    3    0    0 -0.16987773224E+01 -0.11161423208E+02  0.31729421249E+02  0.33678173725E+02  0.51100000000E-03 0. -1.
        -11    1    3    3    0    0  0.21399960249E+01  0.57176180489E+01  0.86247875650E+01  0.10566820711E+02  0.51100000000E-03 0.  1.
         12    1    3    3    0    0  0.23070670532E+01 -0.10664427825E+01  0.24673607560E+01  0.35422771908E+01  0.00000000000E+00 0. -1.
</event>
<event>
 7    1  0.2476315E-009  0.4778727E+02  0.7816164E-02  0.1312668E+00
        -11   -1    0    0    0    0  0.00000000000E+00  0.00000000000E+00  0.45593999997E+02  0.45594000000E+02  0.51100000000E-03 0.  1.
         11   -1    0    0    0    0 -0.00000000000E+00 -0.00000000000E+00 -0.45593999997E+02  0.45594000000E+02  0.51100000000E-03 0. -1.
    9900012    2    1    2    0    0  0.32342904785E+01  0.14254789297E+02  0.40865194178E+02  0.47787265582E+02  0.19999975097E+02 0.  0.
         12    1    1    2    0    0 -0.32342904785E+01 -0.14254789297E+02 -0.40865194178E+02  0.43400734418E+02  0.00000000000E+00 0. -1.
         11    1    3    3    0    0  0.67847821114E+01  0.65702607184E-01  0.18186388620E+02  0.19410881392E+02  0.51100000000E-03 0. -1.
        -11    1    3    3    0    0  0.28861078765E+01  0.50733135539E+01  0.89387191555E+01  0.10675618460E+02  0.51100000000E-03 0.  1.
         12    1    3    3    0    0 -0.64365995094E+01  0.91157731358E+01  0.13740086402E+02  0.17700765731E+02  0.00000000000E+00 0. -1.
</event>
<event>
 7    1  0.2476315E-009  0.4778729E+02  0.7816164E-02  0.1312668E+00
        -11   -1    0    0    0    0  0.00000000000E+00  0.00000000000E+00  0.45593999997E+02  0.45594000000E+02  0.51100000000E-03 0.  1.
         11   -1    0    0    0    0 -0.00000000000E+00 -0.00000000000E+00 -0.45593999997E+02  0.45594000000E+02  0.51100000000E-03 0. -1.
    9900012    2    1    2    0    0  0.30224926426E+02 -0.11604648644E+02  0.28903418588E+02  0.47787289710E+02  0.20000085104E+02 0.  0.
         12    1    1    2    0    0 -0.30224926426E+02  0.11604648644E+02 -0.28903418588E+02  0.43400710290E+02  0.00000000000E+00 0. -1.
         11    1    3    3    0    0  0.62386745060E+01  0.23792322896E+00  0.16072983402E+02  0.17242925006E+02  0.51100000000E-03 0. -1.
        -11    1    3    3    0    0  0.23609210081E+02 -0.10130484618E+02  0.10818585667E+02  0.27875855419E+02  0.51100000000E-03 0.  1.
         12    1    3    3    0    0  0.37704183842E+00 -0.17120872553E+01  0.20118495190E+01  0.26685092851E+01  0.00000000000E+00 0. -1.
</event>
<event>
 7    1  0.2476315E-009  0.4778727E+02  0.7816164E-02  0.1312668E+00
        -11   -1    0    0    0    0  0.00000000000E+00  0.00000000000E+00  0.45593999997E+02  0.45594000000E+02  0.51100000000E-03 0.  1.
         11   -1    0    0    0    0 -0.00000000000E+00 -0.00000000000E+00 -0.45593999997E+02  0.45594000000E+02  0.51100000000E-03 0. -1.
    9900012    2    1    2    0    0 -0.27362084028E+02  0.10772419130E+01  0.33671642510E+02  0.47787267267E+02  0.19999982777E+02 0.  0.
         12    1    1    2    0    0  0.27362084028E+02 -0.10772419130E+01 -0.33671642510E+02  0.43400732733E+02  0.00000000000E+00 0. -1.
         11    1    3    3    0    0 -0.18341331390E+02  0.74566879127E+00  0.21391366202E+02  0.28187781171E+02  0.51100000000E-03 0. -1.
        -11    1    3    3    0    0 -0.10714127781E+02  0.63960348831E+00  0.13675038028E+02  0.17384139094E+02  0.51100000000E-03 0.  1.
         12    1    3    3    0    0  0.16933751431E+01 -0.30803036659E+00 -0.13947617201E+01  0.22153470017E+01  0.00000000000E+00 0. -1.
</event>
<event>
 7    1  0.2476315E-009  0.4778727E+02  0.7816164E-02  0.1312668E+00
        -11   -1    0    0    0    0  0.00000000000E+00  0.00000000000E+00  0.45593999997E+02  0.45594000000E+02  0.51100000000E-03 0. -1.
         11   -1    0    0    0    0 -0.00000000000E+00 -0.00000000000E+00 -0.45593999997E+02  0.45594000000E+02  0.51100000000E-03 0.  1.
    9900012    2    1    2    0    0 -0.29560299619E+02  0.28673181278E+02 -0.13698927187E+02  0.47787271386E+02  0.20000001559E+02 0.  0.
         12    1    1    2    0    0  0.29560299619E+02 -0.28673181278E+02  0.13698927187E+02  0.43400728614E+02  0.00000000000E+00 0. -1.
         11    1    3    3    0    0  0.21778870643E+01  0.29683959980E+01 -0.17704435710E+01  0.40852218502E+01  0.51100000000E-03 0. -1.
        -11    1    3    3    0    0 -0.18814479297E+02  0.20317115237E+02 -0.52287609716E+01  0.28179952880E+02  0.51100000000E-03 0.  1.
         12    1    3    3    0    0 -0.12923707386E+02  0.53876700423E+01 -0.66997226443E+01  0.15522096656E+02  0.00000000000E+00 0. -1.
</event>
<event>
 7    1  0.2476315E-009  0.4778730E+02  0.7816164E-02  0.1312668E+00
        -11   -1    0    0    0    0  0.00000000000E+00  0.00000000000E+00  0.45593999997E+02  0.45594000000E+02  0.51100000000E-03 0.  1.
         11   -1    0    0    0    0 -0.00000000000E+00 -0.00000000000E+00 -0.45593999997E+02  0.45594000000E+02  0.51100000000E-03 0. -1.
    9900012    2    1    2    0    0 -0.16413716531E+02  0.29154911055E+02 -0.27644200365E+02  0.47787300203E+02  0.20000132947E+02 0.  0.
         12    1    1    2    0    0  0.16413716531E+02 -0.29154911055E+02  0.27644200365E+02  0.43400699797E+02  0.00000000000E+00 0. -1.
         11    1    3    3    0    0 -0.26795088056E+01 -0.14576029875E+01  0.25805635042E+00  0.30612035622E+01  0.51100000000E-03 0. -1.
        -11    1    3    3    0    0 -0.63536424455E+01  0.19648719800E+02 -0.11415086025E+02  0.23595447682E+02  0.51100000000E-03 0.  1.
         12    1    3    3    0    0 -0.73805652800E+01  0.10963794243E+02 -0.16487170691E+02  0.21130648959E+02  0.00000000000E+00 0. -1.
</event>
<event>
 7    1  0.2476315E-009  0.4778726E+02  0.7816164E-02  0.1312668E+00
        -11   -1    0    0    0    0  0.00000000000E+00  0.00000000000E+00  0.45593999997E+02  0.45594000000E+02  0.51100000000E-03 0.  1.
         11   -1    0    0    0    0 -0.00000000000E+00 -0.00000000000E+00 -0.45593999997E+02  0.45594000000E+02  0.51100000000E-03 0. -1.
    9900012    2    1    2    0    0  0.79165646057E+01  0.94358569648E+00  0.42662185519E+02  0.47787257813E+02  0.19999939673E+02 0.  0.
         12    1    1    2    0    0 -0.79165646057E+01 -0.94358569648E+00 -0.42662185519E+02  0.43400742187E+02  0.00000000000E+00 0. -1.
         11    1    3    3    0    0  0.44184428219E+01 -0.18059156229E+01  0.34551663368E+02  0.34879813789E+02  0.51100000000E-03 0. -1.
        -11    1    3    3    0    0  0.52660060539E+01  0.48934224882E+01  0.65236878150E+01  0.97074665272E+01  0.51100000000E-03 0.  1.
         12    1    3    3    0    0 -0.17678842701E+01 -0.21439211688E+01  0.15868343364E+01  0.31999774971E+01  0.00000000000E+00 0. -1.
</event>
<event>
 7    1  0.2476315E-009  0.4778726E+02  0.7816164E-02  0.1312668E+00
        -11   -1    0    0    0    0  0.00000000000E+00  0.00000000000E+00  0.45593999997E+02  0.45594000000E+02  0.51100000000E-03 0.  1.
         11   -1    0    0    0    0 -0.00000000000E+00 -0.00000000000E+00 -0.45593999997E+02  0.45594000000E+02  0.51100000000E-03 0. -1.
    9900012    2    1    2    0    0 -0.13541267749E+02  0.25444481182E+02  0.32447439043E+02  0.47787264345E+02  0.19999969457E+02 0.  0.
         12    1    1    2    0    0  0.13541267749E+02 -0.25444481182E+02 -0.32447439043E+02  0.43400735655E+02  0.00000000000E+00 0. -1.
         11    1    3    3    0    0 -0.10784747971E+02  0.63425703265E+01  0.21546529159E+02  0.24915695980E+02  0.51100000000E-03 0. -1.
        -11    1    3    3    0    0 -0.37565269111E+01  0.16277548050E+02  0.74210056910E+01  0.18279534750E+02  0.51100000000E-03 0.  1.
         12    1    3    3    0    0  0.10000071329E+01  0.28243628061E+01  0.34799041936E+01  0.45920336152E+01  0.00000000000E+00 0. -1.
</event>
<event>
 7    1  0.2476315E-009  0.4778727E+02  0.7816164E-02  0.1312668E+00
        -11   -1    0    0    0    0  0.00000000000E+00  0.00000000000E+00  0.45593999997E+02  0.45594000000E+02  0.51100000000E-03 0.  1.
         11   -1    0    0    0    0 -0.00000000000E+00 -0.00000000000E+00 -0.45593999997E+02  0.45594000000E+02  0.51100000000E-03 0. -1.
    9900012    2    1    2    0    0 -0.35749600040E+02  0.11865938576E+02  0.21558957580E+02  0.47787273586E+02  0.20000011590E+02 0.  0.
         12    1    1    2    0    0  0.35749600040E+02 -0.11865938576E+02 -0.21558957580E+02  0.43400726414E+02  0.00000000000E+00 0. -1.
         11    1    3    3    0    0 -0.18350697197E+01 -0.37991430338E-01 -0.21317896076E+01  0.28130857465E+01  0.51100000000E-03 0. -1.
        -11    1    3    3    0    0 -0.11815304416E+02  0.76542033514E+01  0.15714838359E+02  0.21098445257E+02  0.51100000000E-03 0.  1.
        -12    1    3    3    0    0 -0.22099225904E+02  0.42497266550E+01  0.79759088290E+01  0.23875742583E+02  0.00000000000E+00 0.  1.
</event>
<event>
 7    1  0.2476315E-009  0.4778727E+02  0.7816164E-02  0.1312668E+00
        -11   -1    0    0    0    0  0.00000000000E+00  0.00000000000E+00  0.45593999997E+02  0.45594000000E+02  0.51100000000E-03 0.  1.
         11   -1    0    0    0    0 -0.00000000000E+00 -0.00000000000E+00 -0.45593999997E+02  0.45594000000E+02  0.51100000000E-03 0. -1.
    9900012    2    1    2    0    0  0.57629372247E+01  0.11412617541E+02  0.41474859077E+02  0.47787271665E+02  0.20000002829E+02 0.  0.
         12    1    1    2    0    0 -0.57629372247E+01 -0.11412617541E+02 -0.41474859077E+02  0.43400728335E+02  0.00000000000E+00 0. -1.
         11    1    3    3    0    0  0.49841935369E+01 -0.12354938834E+01  0.20231737393E+01  0.55192266296E+01  0.51100000000E-03 0. -1.
        -11    1    3    3    0    0  0.21536508831E+01  0.13134099649E+02  0.31705248421E+02  0.34385542942E+02  0.51100000000E-03 0.  1.
         12    1    3    3    0    0 -0.13749071953E+01 -0.48598822502E+00  0.77464369161E+01  0.78825020929E+01  0.00000000000E+00 0. -1.
</event>
<event>
 7    1  0.2476315E-009  0.4778727E+02  0.7816164E-02  0.1312668E+00
        -11   -1    0    0    0    0  0.00000000000E+00  0.00000000000E+00  0.45593999997E+02  0.45594000000E+02  0.51100000000E-03 0.  1.
         11   -1    0    0    0    0 -0.00000000000E+00 -0.00000000000E+00 -0.45593999997E+02  0.45594000000E+02  0.51100000000E-03 0. -1.
    9900012    2    1    2    0    0  0.55520507154E+01  0.10448155068E+02  0.41756844669E+02  0.47787270879E+02  0.19999999246E+02 0.  0.
         12    1    1    2    0    0 -0.55520507154E+01 -0.10448155068E+02 -0.41756844669E+02  0.43400729121E+02  0.00000000000E+00 0. -1.
         11    1    3    3    0    0 -0.30867265084E+01  0.25580951657E+01  0.30952454630E+01  0.50648076125E+01  0.51100000000E-03 0. -1.
        -11    1    3    3    0    0  0.12386966338E+02  0.63594775151E+01  0.32408781459E+02  0.35273346952E+02  0.51100000000E-03 0.  1.
        -12    1    3    3    0    0 -0.37481891139E+01  0.15305823876E+01  0.62528177477E+01  0.74491163143E+01  0.00000000000E+00 0.  1.
</event>
<event>
 7    1  0.2476315E-009  0.4778727E+02  0.7816164E-02  0.1312668E+00
        -11   -1    0    0    0    0  0.00000000000E+00  0.00000000000E+00  0.45593999997E+02  0.45594000000E+02  0.51100000000E-03 0.  1.
         11   -1    0    0    0    0 -0.00000000000E+00 -0.00000000000E+00 -0.45593999997E+02  0.45594000000E+02  0.51100000000E-03 0. -1.
    9900012    2    1    2    0    0  0.37558418996E+02 -0.15532249441E+02  0.15222929273E+02  0.47787272059E+02  0.20000004625E+02 0.  0.
         12    1    1    2    0    0 -0.37558418996E+02  0.15532249441E+02 -0.15222929273E+02  0.43400727941E+02  0.00000000000E+00 0. -1.
         11    1    3    3    0    0  0.14445808111E+02 -0.87279107706E+01 -0.26784338063E+01  0.17088938127E+02  0.51100000000E-03 0. -1.
        -11    1    3    3    0    0  0.12474827533E+02 -0.20895306064E+01  0.12794110875E+02  0.17991018134E+02  0.51100000000E-03 0.  1.
        -12    1    3    3    0    0  0.10637783351E+02 -0.47148080639E+01  0.51072522047E+01  0.12707315798E+02  0.00000000000E+00 0.  1.
</event>
<event>
 7    1  0.2476315E-009  0.4778727E+02  0.7816164E-02  0.1312668E+00
        -11   -1    0    0    0    0  0.00000000000E+00  0.00000000000E+00  0.45593999997E+02  0.45594000000E+02  0.51100000000E-03 0.  1.
         11   -1    0    0    0    0 -0.00000000000E+00 -0.00000000000E+00 -0.45593999997E+02  0.45594000000E+02  0.51100000000E-03 0. -1.
    9900012    2    1    2    0    0  0.14602442813E+02 -0.35346233268E+01  0.40717296037E+02  0.47787273108E+02  0.20000009411E+02 0.  0.
         12    1    1    2    0    0 -0.14602442813E+02  0.35346233268E+01 -0.40717296037E+02  0.43400726892E+02  0.00000000000E+00 0. -1.
         11    1    3    3    0    0  0.12742513595E+02 -0.19863777542E+01  0.11744693656E+02  0.17442911988E+02  0.51100000000E-03 0. -1.
        -11    1    3    3    0    0 -0.62639288910E+00 -0.48045857727E+01  0.17663953958E+02  0.18316432027E+02  0.51100000000E-03 0.  1.
         12    1    3    3    0    0  0.24863221073E+01  0.32563402001E+01  0.11308648423E+02  0.12027929093E+02  0.00000000000E+00 0. -1.
</event>
<event>
 7    1  0.2476315E-009  0.4778726E+02  0.7816164E-02  0.1312668E+00
        -11   -1    0    0    0    0  0.00000000000E+00  0.00000000000E+00  0.45593999997E+02  0.45594000000E+02  0.51100000000E-03 0. -1.
         11   -1    0    0    0    0 -0.00000000000E+00 -0.00000000000E+00 -0.45593999997E+02  0.45594000000E+02  0.51100000000E-03 0.  1.
    9900012    2    1    2    0    0  0.25415970756E+02 -0.17721631247E+02 -0.30390725498E+02  0.47787262912E+02  0.19999962920E+02 0.  0.
         12    1    1    2    0    0 -0.25415970756E+02  0.17721631247E+02  0.30390725498E+02  0.43400737088E+02  0.00000000000E+00 0. -1.
         11    1    3    3    0    0  0.30875629231E+00 -0.80995045488E+01 -0.34251506715E+01  0.87993728053E+01  0.51100000000E-03 0. -1.
        -11    1    3    3    0    0  0.22156991565E+02 -0.52764296013E+01 -0.23297317775E+02  0.32581252283E+02  0.51100000000E-03 0.  1.
        -12    1    3    3    0    0  0.29502228979E+01 -0.43456970966E+01 -0.36682570514E+01  0.64066378232E+01  0.00000000000E+00 0.  1.
</event>
<event>
 7    1  0.2476315E-009  0.4778727E+02  0.7816164E-02  0.1312668E+00
        -11   -1    0    0    0    0  0.00000000000E+00  0.00000000000E+00  0.45593999997E+02  0.45594000000E+02  0.51100000000E-03 0.  1.
         11   -1    0    0    0    0 -0.00000000000E+00 -0.00000000000E+00 -0.45593999997E+02  0.45594000000E+02  0.51100000000E-03 0. -1.
    9900012    2    1    2    0    0 -0.26712833603E+02  0.81365452212E+01  0.33224155619E+02  0.47787270008E+02  0.19999995275E+02 0.  0.
         12    1    1    2    0    0  0.26712833603E+02 -0.81365452212E+01 -0.33224155619E+02  0.43400729992E+02  0.00000000000E+00 0. -1.
         11    1    3    3    0    0 -0.24890804337E+01  0.64407485523E+01  0.79325411168E+00  0.69503967992E+01  0.51100000000E-03 0. -1.
        -11    1    3    3    0    0 -0.19728692690E+02  0.29339954774E+01  0.24034373580E+02  0.31232687338E+02  0.51100000000E-03 0.  1.
         12    1    3    3    0    0 -0.44950604792E+01 -0.12381988085E+01  0.83965279278E+01  0.96041858710E+01  0.00000000000E+00 0. -1.
</event>
<event>
 7    1  0.2476315E-009  0.4778733E+02  0.7816164E-02  0.1312667E+00
        -11   -1    0    0    0    0  0.00000000000E+00  0.00000000000E+00  0.45593999997E+02  0.45594000000E+02  0.51100000000E-03 0. -1.
         11   -1    0    0    0    0 -0.00000000000E+00 -0.00000000000E+00 -0.45593999997E+02  0.45594000000E+02  0.51100000000E-03 0.  1.
    9900012    2    1    2    0    0  0.56297379330E+01 -0.32923458026E+02 -0.27712273286E+02  0.47787330325E+02  0.20000270281E+02 0.  0.
         12    1    1    2    0    0 -0.56297379330E+01  0.32923458026E+02  0.27712273286E+02  0.43400669675E+02  0.00000000000E+00 0. -1.
         11    1    3    3    0    0 -0.29056795220E+01 -0.25784328713E+02 -0.21926789333E+02  0.33971439054E+02  0.51100000000E-03 0. -1.
        -11    1    3    3    0    0  0.47918346099E+01 -0.35111320872E+01 -0.61996265235E+01  0.85863319732E+01  0.51100000000E-03 0.  1.
         12    1    3    3    0    0  0.37435828451E+01 -0.36279972249E+01  0.41414256980E+00  0.52295592979E+01  0.00000000000E+00 0. -1.
</event>
<event>
 7    1  0.2476315E-009  0.4778727E+02  0.7816164E-02  0.1312668E+00
        -11   -1    0    0    0    0  0.00000000000E+00  0.00000000000E+00  0.45593999997E+02  0.45594000000E+02  0.51100000000E-03 0. -1.
         11   -1    0    0    0    0 -0.00000000000E+00 -0.00000000000E+00 -0.45593999997E+02  0.45594000000E+02  0.51100000000E-03 0.  1.
    9900012    2    1    2    0    0 -0.93380404514E+00  0.42691883472E+02  0.77559339697E+01  0.47787269405E+02  0.19999992527E+02 0.  0.
         12    1    1    2    0    0  0.93380404514E+00 -0.42691883472E+02 -0.77559339697E+01  0.43400730595E+02  0.00000000000E+00 0. -1.
         11    1    3    3    0    0  0.47788995485E+01  0.18944523980E+02 -0.62693084430E+00  0.19548041136E+02  0.51100000000E-03 0. -1.
        -11    1    3    3    0    0 -0.83624938722E+01  0.19675896152E+02  0.92676093606E+01  0.23301518763E+02  0.51100000000E-03 0.  1.
        -12    1    3    3    0    0  0.26497902786E+01  0.40714633402E+01 -0.88474454655E+00  0.49377095058E+01  0.00000000000E+00 0.  1.
</event>
<event>
 7    1  0.2476315E-009  0.4778726E+02  0.7816164E-02  0.1312668E+00
        -11   -1    0    0    0    0  0.00000000000E+00  0.00000000000E+00  0.45593999997E+02  0.45594000000E+02  0.51100000000E-03 0.  1.
         11   -1    0    0    0    0 -0.00000000000E+00 -0.00000000000E+00 -0.45593999997E+02  0.45594000000E+02  0.51100000000E-03 0. -1.
    9900012    2    1    2    0    0 -0.31167364919E+02  0.27767955154E+02  0.11881074810E+02  0.47787263738E+02  0.19999966688E+02 0.  0.
         12    1    1    2    0    0  0.31167364919E+02 -0.27767955154E+02 -0.11881074810E+02  0.43400736262E+02  0.00000000000E+00 0. -1.
         11    1    3    3    0    0  0.23659576160E+01 -0.14466820462E+00  0.45501300065E+00  0.24136531279E+01  0.51100000000E-03 0. -1.
        -11    1    3    3    0    0 -0.26011707785E+02  0.20268614299E+02  0.66783432901E+01  0.33645593127E+02  0.51100000000E-03 0.  1.
         12    1    3    3    0    0 -0.75216147500E+01  0.76440090592E+01  0.47477185196E+01  0.11728017483E+02  0.00000000000E+00 0. -1.
</event>
<event>
 7    1  0.2476315E-009  0.4778727E+02  0.7816164E-02  0.1312668E+00
        -11   -1    0    0    0    0  0.00000000000E+00  0.00000000000E+00  0.45593999997E+02  0.45594000000E+02  0.51100000000E-03 0.  1.
         11   -1    0    0    0    0 -0.00000000000E+00 -0.00000000000E+00 -0.45593999997E+02  0.45594000000E+02  0.51100000000E-03 0. -1.
    9900012    2    1    2    0    0  0.13418927776E+02 -0.39171456261E+02  0.13005875937E+02  0.47787269394E+02  0.19999992475E+02 0.  0.
         12    1    1    2    0    0 -0.13418927776E+02  0.39171456261E+02 -0.13005875937E+02  0.43400730606E+02  0.00000000000E+00 0. -1.
         11    1    3    3    0    0  0.55634001369E+01 -0.21862065313E+01  0.66285512304E-01  0.59779021497E+01  0.51100000000E-03 0. -1.
        -11    1    3    3    0    0  0.38436824247E+01 -0.30226775342E+02  0.14582640141E+02  0.33779953166E+02  0.51100000000E-03 0.  1.
        -12    1    3    3    0    0  0.40118452145E+01 -0.67584743873E+01 -0.16430497162E+01  0.80294140782E+01  0.00000000000E+00 0.  1.
</event>
<event>
 7    1  0.2476315E-009  0.4778727E+02  0.7816164E-02  0.1312668E+00
        -11   -1    0    0    0    0  0.00000000000E+00  0.00000000000E+00  0.45593999997E+02  0.45594000000E+02  0.51100000000E-03 0.  1.
         11   -1    0    0    0    0 -0.00000000000E+00 -0.00000000000E+00 -0.45593999997E+02  0.45594000000E+02  0.51100000000E-03 0. -1.
    9900012    2    1    2    0    0  0.40768924982E+02  0.48904366567E+01  0.14057097197E+02  0.47787267328E+02  0.19999983055E+02 0.  0.
         12    1    1    2    0    0 -0.40768924982E+02 -0.48904366567E+01 -0.14057097197E+02  0.43400732672E+02  0.00000000000E+00 0. -1.
         11    1    3    3    0    0  0.62110429554E+01 -0.31937548635E+01 -0.28679075453E+01  0.75499681239E+01  0.51100000000E-03 0. -1.
        -11    1    3    3    0    0  0.20356301858E+02  0.87046879068E+01  0.85127940102E+01  0.23719575861E+02  0.51100000000E-03 0.  1.
         12    1    3    3    0    0  0.14201580168E+02 -0.62049638658E+00  0.84122107323E+01  0.16517723343E+02  0.00000000000E+00 0. -1.
</event>
<event>
 7    1  0.2476315E-009  0.4778727E+02  0.7816164E-02  0.1312668E+00
        -11   -1    0    0    0    0  0.00000000000E+00  0.00000000000E+00  0.45593999997E+02  0.45594000000E+02  0.51100000000E-03 0. -1.
         11   -1    0    0    0    0 -0.00000000000E+00 -0.00000000000E+00 -0.45593999997E+02  0.45594000000E+02  0.51100000000E-03 0.  1.
    9900012    2    1    2    0    0 -0.29180516540E+01  0.41380713886E+02 -0.12757141658E+02  0.47787272235E+02  0.20000005430E+02 0.  0.
         12    1    1    2    0    0  0.29180516540E+01 -0.41380713886E+02  0.12757141658E+02  0.43400727765E+02  0.00000000000E+00 0. -1.
         11    1    3    3    0    0  0.20022686319E+01  0.23525677018E+02 -0.56555202243E+00  0.23617502158E+02  0.51100000000E-03 0. -1.
        -11    1    3    3    0    0  0.55703809720E+00  0.10287540928E+02 -0.22843904218E+01  0.10552830409E+02  0.51100000000E-03 0.  1.
         12    1    3    3    0    0 -0.54773583831E+01  0.75674959408E+01 -0.99071992140E+01  0.13616939669E+02  0.00000000000E+00 0. -1.
</event>
<event>
 7    1  0.2476315E-009  0.4778727E+02  0.7816164E-02  0.1312668E+00
        -11   -1    0    0    0    0  0.00000000000E+00  0.00000000000E+00  0.45593999997E+02  0.45594000000E+02  0.51100000000E-03 0.  1.
         11   -1    0    0    0    0 -0.00000000000E+00 -0.00000000000E+00 -0.45593999997E+02  0.45594000000E+02  0.51100000000E-03 0. -1.
    9900012    2    1    2    0    0 -0.57782336037E+01  0.12391867766E+02  0.41190737394E+02  0.47787271695E+02  0.20000002968E+02 0.  0.
         12    1    1    2    0    0  0.57782336037E+01 -0.12391867766E+02 -0.41190737394E+02  0.43400728305E+02  0.00000000000E+00 0. -1.
         11    1    3    3    0    0 -0.92435144918E+00 -0.48340332845E+01  0.11162212291E+02  0.12199069099E+02  0.51100000000E-03 0. -1.
        -11    1    3    3    0    0 -0.41991902767E+01  0.16865257829E+02  0.30178878379E+02  0.34825778112E+02  0.51100000000E-03 0.  1.
        -12    1    3    3    0    0 -0.65469187784E+00  0.36064322120E+00 -0.15035327517E+00  0.76242448496E+00  0.00000000000E+00 0.  1.
</event>
<event>
 7    1  0.2476315E-009  0.4778728E+02  0.7816164E-02  0.1312668E+00
        -11   -1    0    0    0    0  0.00000000000E+00  0.00000000000E+00  0.45593999997E+02  0.45594000000E+02  0.51100000000E-03 0. -1.
         11   -1    0    0    0    0 -0.00000000000E+00 -0.00000000000E+00 -0.45593999997E+02  0.45594000000E+02  0.51100000000E-03 0.  1.
    9900012    2    1    2    0    0  0.22775637415E+02 -0.32781410357E+02 -0.17037380325E+02  0.47787275893E+02  0.20000022108E+02 0.  0.
         12    1    1    2    0    0 -0.22775637415E+02  0.32781410357E+02  0.17037380325E+02  0.43400724107E+02  0.00000000000E+00 0. -1.
         11    1    3    3    0    0  0.13284391835E+02 -0.13142332408E+02 -0.63898918371E+00  0.18697707746E+02  0.51100000000E-03 0. -1.
        -11    1    3    3    0    0  0.79303774457E+00 -0.12092062730E+02 -0.57821392874E+01  0.13426839722E+02  0.51100000000E-03 0.  1.
         12    1    3    3    0    0  0.86982078360E+01 -0.75470152192E+01 -0.10616251854E+02  0.15662728425E+02  0.00000000000E+00 0. -1.
</event>
<event>
 7    1  0.2476315E-009  0.4778729E+02  0.7816164E-02  0.1312668E+00
        -11   -1    0    0    0    0  0.00000000000E+00  0.00000000000E+00  0.45593999997E+02  0.45594000000E+02  0.51100000000E-03 0.  1.
         11   -1    0    0    0    0 -0.00000000000E+00 -0.00000000000E+00 -0.45593999997E+02  0.45594000000E+02  0.51100000000E-03 0. -1.
    9900012    2    1    2    0    0 -0.42444950265E+02  0.61834241824E+01  0.66191521357E+01  0.47787289031E+02  0.20000082010E+02 0.  0.
         12    1    1    2    0    0  0.42444950265E+02 -0.61834241824E+01 -0.66191521357E+01  0.43400710969E+02  0.00000000000E+00 0. -1.
         11    1    3    3    0    0 -0.98524015284E+01  0.81772436762E+01 -0.26839250835E+01  0.13082071095E+02  0.51100000000E-03 0. -1.
        -11    1    3    3    0    0 -0.21658180606E+02  0.13615791366E+01  0.38721134070E+01  0.22043682709E+02  0.51100000000E-03 0.  1.
         12    1    3    3    0    0 -0.10934368131E+02 -0.33553986304E+01  0.54309638122E+01  0.12661535227E+02  0.00000000000E+00 0. -1.
</event>
<event>
 7    1  0.2476315E-009  0.4778725E+02  0.7816164E-02  0.1312668E+00
        -11   -1    0    0    0    0  0.00000000000E+00  0.00000000000E+00  0.45593999997E+02  0.45594000000E+02  0.51100000000E-03 0.  1.
         11   -1    0    0    0    0 -0.00000000000E+00 -0.00000000000E+00 -0.45593999997E+02  0.45594000000E+02  0.51100000000E-03 0. -1.
    9900012    2    1    2    0    0 -0.20840946222E+02  0.37853865602E+02 -0.40453143451E+01  0.47787254055E+02  0.19999922538E+02 0.  0.
         12    1    1    2    0    0  0.20840946222E+02 -0.37853865602E+02  0.40453143451E+01  0.43400745945E+02  0.00000000000E+00 0. -1.
         11    1    3    3    0    0  0.88775332912E+00  0.17645372267E+01 -0.37048413779E+01  0.41985172971E+01  0.51100000000E-03 0. -1.
        -11    1    3    3    0    0 -0.16983897467E+02  0.34612873112E+02  0.44533861990E+00  0.38557775934E+02  0.51100000000E-03 0.  1.
        -12    1    3    3    0    0 -0.47448020842E+01  0.14764552634E+01 -0.78581158718E+00  0.50309608241E+01  0.00000000000E+00 0.  1.
</event>
<event>
 7    1  0.2476315E-009  0.4778727E+02  0.7816164E-02  0.1312668E+00
        -11   -1    0    0    0    0  0.00000000000E+00  0.00000000000E+00  0.45593999997E+02  0.45594000000E+02  0.51100000000E-03 0. -1.
         11   -1    0    0    0    0 -0.00000000000E+00 -0.00000000000E+00 -0.45593999997E+02  0.45594000000E+02  0.51100000000E-03 0.  1.
    9900012    2    1    2    0    0 -0.12683065545E+02 -0.39853087204E+02 -0.11597177402E+02  0.47787271492E+02  0.20000002041E+02 0.  0.
         12    1    1    2    0    0  0.12683065545E+02  0.39853087204E+02  0.11597177402E+02  0.43400728508E+02  0.00000000000E+00 0. -1.
         11    1    3    3    0    0 -0.37062407722E+00 -0.10696576224E+02  0.13779465670E+01  0.10791331805E+02  0.51100000000E-03 0. -1.
        -11    1    3    3    0    0 -0.73024267242E+01 -0.21786142762E+02 -0.23036568179E+01  0.23092602441E+02  0.51100000000E-03 0.  1.
        -12    1    3    3    0    0 -0.50100147438E+01 -0.73703682178E+01 -0.10671467152E+02  0.13903337246E+02  0.00000000000E+00 0.  1.
</event>
<event>
 7    1  0.2476315E-009  0.4778727E+02  0.7816164E-02  0.1312668E+00
        -11   -1    0    0    0    0  0.00000000000E+00  0.00000000000E+00  0.45593999997E+02  0.45594000000E+02  0.51100000000E-03 0.  1.
         11   -1    0    0    0    0 -0.00000000000E+00 -0.00000000000E+00 -0.45593999997E+02  0.45594000000E+02  0.51100000000E-03 0. -1.
    9900012    2    1    2    0    0 -0.11492993838E+02 -0.41383063870E+02  0.62430990589E+01  0.47787272259E+02  0.20000005536E+02 0.  0.
         12    1    1    2    0    0  0.11492993838E+02  0.41383063870E+02 -0.62430990589E+01  0.43400727741E+02  0.00000000000E+00 0. -1.
         11    1    3    3    0    0 -0.50708284119E+01 -0.11111007677E+02 -0.52318200357E+01  0.13286825563E+02  0.51100000000E-03 0. -1.
        -11    1    3    3    0    0  0.16034044810E+01 -0.14428603220E+02  0.73300244044E+01  0.16262987267E+02  0.51100000000E-03 0.  1.
        -12    1    3    3    0    0 -0.80255699074E+01 -0.15843452973E+02  0.41448946902E+01  0.18237459429E+02  0.00000000000E+00 0.  1.
</event>
<event>
 7    1  0.2476315E-009  0.4778727E+02  0.7816164E-02  0.1312668E+00
        -11   -1    0    0    0    0  0.00000000000E+00  0.00000000000E+00  0.45593999997E+02  0.45594000000E+02  0.51100000000E-03 0. -1.
         11   -1    0    0    0    0 -0.00000000000E+00 -0.00000000000E+00 -0.45593999997E+02  0.45594000000E+02  0.51100000000E-03 0.  1.
    9900012    2    1    2    0    0 -0.18044317590E+02  0.17280730790E+02 -0.35488061750E+02  0.47787267510E+02  0.19999983885E+02 0.  0.
         12    1    1    2    0    0  0.18044317590E+02 -0.17280730790E+02  0.35488061750E+02  0.43400732490E+02  0.00000000000E+00 0. -1.
         11    1    3    3    0    0 -0.34168895668E+01  0.31961158419E+01  0.14767561783E+01  0.49062307179E+01  0.51100000000E-03 0. -1.
        -11    1    3    3    0    0 -0.11321774148E+02  0.13748660252E+02 -0.26727677098E+02  0.32118171678E+02  0.51100000000E-03 0.  1.
         12    1    3    3    0    0 -0.33056538751E+01  0.33595469600E+00 -0.10237140830E+02  0.10762865114E+02  0.00000000000E+00 0. -1.
</event>
<event>
 7    1  0.2476315E-009  0.4778727E+02  0.7816164E-02  0.1312668E+00
        -11   -1    0    0    0    0  0.00000000000E+00  0.00000000000E+00  0.45593999997E+02  0.45594000000E+02  0.51100000000E-03 0. -1.
         11   -1    0    0    0    0 -0.00000000000E+00 -0.00000000000E+00 -0.45593999997E+02  0.45594000000E+02  0.51100000000E-03 0.  1.
    9900012    2    1    2    0    0  0.19727894443E+02 -0.65460739363E+01 -0.38099636856E+02  0.47787271530E+02  0.20000002214E+02 0.  0.
         12    1    1    2    0    0 -0.19727894443E+02  0.65460739363E+01  0.38099636856E+02  0.43400728470E+02  0.00000000000E+00 0. -1.
         11    1    3    3    0    0  0.19317648172E+02 -0.36440239419E+01 -0.22519270641E+02  0.29892607645E+02  0.51100000000E-03 0. -1.
        -11    1    3    3    0    0  0.34565492553E+01 -0.41941415484E+01 -0.10653125300E+02  0.11959416165E+02  0.51100000000E-03 0.  1.
         12    1    3    3    0    0 -0.30463029843E+01  0.12920915541E+01 -0.49272409156E+01  0.59352477199E+01  0.00000000000E+00 0. -1.
</event>
<event>
 7    1  0.2476315E-009  0.4778727E+02  0.7816164E-02  0.1312668E+00
        -11   -1    0    0    0    0  0.00000000000E+00  0.00000000000E+00  0.45593999997E+02  0.45594000000E+02  0.51100000000E-03 0.  1.
         11   -1    0    0    0    0 -0.00000000000E+00 -0.00000000000E+00 -0.45593999997E+02  0.45594000000E+02  0.51100000000E-03 0. -1.
    9900012    2    1    2    0    0 -0.27354375946E+02  0.25430300659E+02  0.22105680763E+02  0.47787271930E+02  0.20000004038E+02 0.  0.
         12    1    1    2    0    0  0.27354375946E+02 -0.25430300659E+02 -0.22105680763E+02  0.43400728070E+02  0.00000000000E+00 0. -1.
         11    1    3    3    0    0 -0.48046041262E+01 -0.67819440594E-01  0.55594377389E+01  0.73482085246E+01  0.51100000000E-03 0. -1.
        -11    1    3    3    0    0 -0.15447486125E+02  0.24827988915E+02  0.10441116954E+02  0.31049489282E+02  0.51100000000E-03 0.  1.
        -12    1    3    3    0    0 -0.71022856952E+01  0.67013118459E+00  0.61051260694E+01  0.93895741237E+01  0.00000000000E+00 0.  1.
</event>
<event>
 7    1  0.2476315E-009  0.4778727E+02  0.7816164E-02  0.1312668E+00
        -11   -1    0    0    0    0  0.00000000000E+00  0.00000000000E+00  0.45593999997E+02  0.45594000000E+02  0.51100000000E-03 0. -1.
         11   -1    0    0    0    0 -0.00000000000E+00 -0.00000000000E+00 -0.45593999997E+02  0.45594000000E+02  0.51100000000E-03 0.  1.
    9900012    2    1    2    0    0  0.34531346509E+02 -0.26062806618E+02 -0.34553767157E+01  0.47787269491E+02  0.19999992917E+02 0.  0.
         12    1    1    2    0    0 -0.34531346509E+02  0.26062806618E+02  0.34553767157E+01  0.43400730509E+02  0.00000000000E+00 0. -1.
         11    1    3    3    0    0  0.93060380152E+01  0.56366504945E+00 -0.35176675834E+01  0.99646398488E+01  0.51100000000E-03 0. -1.
        -11    1    3    3    0    0  0.16288415664E+02 -0.22142628745E+02 -0.21833517070E+01  0.27574907389E+02  0.51100000000E-03 0.  1.
         12    1    3    3    0    0  0.89368928297E+01 -0.44838429216E+01  0.22456425747E+01  0.10247722253E+02  0.00000000000E+00 0. -1.
</event>
<event>
 7    1  0.2476315E-009  0.4778727E+02  0.7816164E-02  0.1312668E+00
        -11   -1    0    0    0    0  0.00000000000E+00  0.00000000000E+00  0.45593999997E+02  0.45594000000E+02  0.51100000000E-03 0.  1.
         11   -1    0    0    0    0 -0.00000000000E+00 -0.00000000000E+00 -0.45593999997E+02  0.45594000000E+02  0.51100000000E-03 0. -1.
    9900012    2    1    2    0    0 -0.30133153739E+01 -0.15000457664E+02  0.40614397602E+02  0.47787273137E+02  0.20000009541E+02 0.  0.
         12    1    1    2    0    0  0.30133153739E+01  0.15000457664E+02 -0.40614397602E+02  0.43400726863E+02  0.00000000000E+00 0. -1.
         11    1    3    3    0    0 -0.12389108653E+01  0.13074049708E+01 -0.11162767321E+01  0.21190285259E+01  0.51100000000E-03 0. -1.
        -11    1    3    3    0    0 -0.47890248533E+01 -0.11179588979E+02  0.23029295764E+02  0.26043548768E+02  0.51100000000E-03 0.  1.
         12    1    3    3    0    0  0.30146203446E+01 -0.51282736555E+01  0.18701378570E+02  0.19624695843E+02  0.00000000000E+00 0. -1.
</event>
<event>
 7    1  0.2476315E-009  0.4778728E+02  0.7816164E-02  0.1312668E+00
        -11   -1    0    0    0    0  0.00000000000E+00  0.00000000000E+00  0.45593999997E+02  0.45594000000E+02  0.51100000000E-03 0. -1.
         11   -1    0    0    0    0 -0.00000000000E+00 -0.00000000000E+00 -0.45593999997E+02  0.45594000000E+02  0.51100000000E-03 0.  1.
    9900012    2    1    2    0    0 -0.35799913331E+02  0.10886830441E+02 -0.21987860041E+02  0.47787275804E+02  0.20000021702E+02 0.  0.
         12    1    1    2    0    0  0.35799913331E+02 -0.10886830441E+02  0.21987860041E+02  0.43400724196E+02  0.00000000000E+00 0. -1.
         11    1    3    3    0    0  0.12515099591E-02 -0.14995342925E+01 -0.18632404286E+01  0.23917085559E+01  0.51100000000E-03 0. -1.
        -11    1    3    3    0    0 -0.31522027197E+02  0.15759648122E+02 -0.17454208775E+02  0.39327523591E+02  0.51100000000E-03 0.  1.
        -12    1    3    3    0    0 -0.42791376431E+01 -0.33732833889E+01 -0.26704108371E+01  0.60680436575E+01  0.00000000000E+00 0.  1.
</event>
<event>
 7    1  0.2476315E-009  0.4778727E+02  0.7816164E-02  0.1312668E+00
        -11   -1    0    0    0    0  0.00000000000E+00  0.00000000000E+00  0.45593999997E+02  0.45594000000E+02  0.51100000000E-03 0.  1.
         11   -1    0    0    0    0 -0.00000000000E+00 -0.00000000000E+00 -0.45593999997E+02  0.45594000000E+02  0.51100000000E-03 0. -1.
    9900012    2    1    2    0    0 -0.25603522991E+02 -0.27794432880E+02  0.21343671659E+02  0.47787271796E+02  0.20000003429E+02 0.  0.
         12    1    1    2    0    0  0.25603522991E+02  0.27794432880E+02 -0.21343671659E+02  0.43400728204E+02  0.00000000000E+00 0. -1.
         11    1    3    3    0    0  0.27326306195E+01 -0.11530150632E+01 -0.13555731976E+00  0.29690217053E+01  0.51100000000E-03 0. -1.
        -11    1    3    3    0    0 -0.20766589008E+02 -0.18834452051E+02  0.12413531142E+02  0.30660782097E+02  0.51100000000E-03 0.  1.
         12    1    3    3    0    0 -0.75695646024E+01 -0.78069657662E+01  0.90656978368E+01  0.14157467994E+02  0.00000000000E+00 0. -1.
</event>
<event>
 7    1  0.2476315E-009  0.4778727E+02  0.7816164E-02  0.1312668E+00
        -11   -1    0    0    0    0  0.00000000000E+00  0.00000000000E+00  0.45593999997E+02  0.45594000000E+02  0.51100000000E-03 0.  1.
         11   -1    0    0    0    0 -0.00000000000E+00 -0.00000000000E+00 -0.45593999997E+02  0.45594000000E+02  0.51100000000E-03 0. -1.
    9900012    2    1    2    0    0 -0.31477617990E+02 -0.79481310872E+01  0.28802956830E+02  0.47787267930E+02  0.19999985799E+02 0.  0.
         12    1    1    2    0    0  0.31477617990E+02  0.79481310872E+01 -0.28802956830E+02  0.43400732070E+02  0.00000000000E+00 0. -1.
         11    1    3    3    0    0 -0.21489337624E+02 -0.41957805018E+01  0.99894874394E+01  0.24066284821E+02  0.51100000000E-03 0. -1.
        -11    1    3    3    0    0 -0.74111773279E+01  0.57530477731E+00  0.16659874211E+02  0.18243024255E+02  0.51100000000E-03 0.  1.
         12    1    3    3    0    0 -0.25771030379E+01 -0.43276553627E+01  0.21535951796E+01  0.54779588538E+01  0.00000000000E+00 0. -1.
</event>
<event>
 7    1  0.2476315E-009  0.4778727E+02  0.7816164E-02  0.1312668E+00
        -11   -1    0    0    0    0  0.00000000000E+00  0.00000000000E+00  0.45593999997E+02  0.45594000000E+02  0.51100000000E-03 0.  1.
         11   -1    0    0    0    0 -0.00000000000E+00 -0.00000000000E+00 -0.45593999997E+02  0.45594000000E+02  0.51100000000E-03 0. -1.
    9900012    2    1    2    0    0  0.30866276419E+02 -0.14663588586E+02  0.26755850471E+02  0.47787269768E+02  0.19999994182E+02 0.  0.
         12    1    1    2    0    0 -0.30866276419E+02  0.14663588586E+02 -0.26755850471E+02  0.43400730232E+02  0.00000000000E+00 0. -1.
         11    1    3    3    0    0  0.85397025199E+00 -0.11246679106E+00 -0.24587934229E+01  0.26052983185E+01  0.51100000000E-03 0. -1.
        -11    1    3    3    0    0  0.26632520523E+02 -0.15456779679E+02  0.24731184867E+02  0.39494742595E+02  0.51100000000E-03 0.  1.
        -12    1    3    3    0    0  0.33797856444E+01  0.90565788343E+00  0.44834590272E+01  0.56872288553E+01  0.00000000000E+00 0.  1.
</event>
<event>
 7    1  0.2476315E-009  0.4778728E+02  0.7816164E-02  0.1312668E+00
        -11   -1    0    0    0    0  0.00000000000E+00  0.00000000000E+00  0.45593999997E+02  0.45594000000E+02  0.51100000000E-03 0.  1.
         11   -1    0    0    0    0 -0.00000000000E+00 -0.00000000000E+00 -0.45593999997E+02  0.45594000000E+02  0.51100000000E-03 0. -1.
    9900012    2    1    2    0    0 -0.20098917383E+02 -0.36462497393E+02 -0.12253245261E+02  0.47787283237E+02  0.20000055590E+02 0.  0.
         12    1    1    2    0    0  0.20098917383E+02  0.36462497393E+02  0.12253245261E+02  0.43400716763E+02  0.00000000000E+00 0. -1.
         11    1    3    3    0    0  0.20615829583E+01 -0.18334602122E+01 -0.13302931134E+01  0.30629039606E+01  0.51100000000E-03 0. -1.
        -11    1    3    3    0    0 -0.20693759268E+02 -0.35673038221E+02 -0.11533847222E+02  0.42823205865E+02  0.51100000000E-03 0.  1.
        -12    1    3    3    0    0 -0.14667410738E+01  0.10440010396E+01  0.61089507480E+00  0.19011734115E+01  0.00000000000E+00 0.  1.
</event>
<event>
 7    1  0.2476315E-009  0.4778727E+02  0.7816164E-02  0.1312668E+00
        -11   -1    0    0    0    0  0.00000000000E+00  0.00000000000E+00  0.45593999997E+02  0.45594000000E+02  0.51100000000E-03 0. -1.
         11   -1    0    0    0    0 -0.00000000000E+00 -0.00000000000E+00 -0.45593999997E+02  0.45594000000E+02  0.51100000000E-03 0.  1.
    9900012    2    1    2    0    0 -0.57619465367E+01  0.38472381653E+02 -0.19243159699E+02  0.47787269901E+02  0.19999994787E+02 0.  0.
         12    1    1    2    0    0  0.57619465367E+01 -0.38472381653E+02  0.19243159699E+02  0.43400730099E+02  0.00000000000E+00 0. -1.
         11    1    3    3    0    0 -0.23313474143E+01  0.60006888604E+01  0.28129266966E+01  0.70253828669E+01  0.51100000000E-03 0. -1.
        -11    1    3    3    0    0 -0.68464862018E+01  0.21626250278E+02 -0.16841568441E+02  0.28252566294E+02  0.51100000000E-03 0.  1.
         12    1    3    3    0    0  0.34158870794E+01  0.10845442514E+02 -0.52145179544E+01  0.12509320740E+02  0.00000000000E+00 0. -1.
</event>
<event>
 7    1  0.2476315E-009  0.4778726E+02  0.7816164E-02  0.1312668E+00
        -11   -1    0    0    0    0  0.00000000000E+00  0.00000000000E+00  0.45593999997E+02  0.45594000000E+02  0.51100000000E-03 0. -1.
         11   -1    0    0    0    0 -0.00000000000E+00 -0.00000000000E+00 -0.45593999997E+02  0.45594000000E+02  0.51100000000E-03 0.  1.
    9900012    2    1    2    0    0  0.39447559440E+02 -0.14733566176E+02 -0.10508875621E+02  0.47787258245E+02  0.19999941644E+02 0.  0.
         12    1    1    2    0    0 -0.39447559440E+02  0.14733566176E+02  0.10508875621E+02  0.43400741755E+02  0.00000000000E+00 0. -1.
         11    1    3    3    0    0  0.23523335753E+02 -0.84943784602E+01 -0.14600611914E+02  0.28959966486E+02  0.51100000000E-03 0. -1.
        -11    1    3    3    0    0  0.13332926736E+02 -0.23404165206E+01  0.19400078456E+01  0.13675091061E+02  0.51100000000E-03 0.  1.
         12    1    3    3    0    0  0.25912969510E+01 -0.38987711954E+01  0.21517284467E+01  0.51522006979E+01  0.00000000000E+00 0. -1.
</event>
<event>
 7    1  0.2476315E-009  0.4778727E+02  0.7816164E-02  0.1312668E+00
        -11   -1    0    0    0    0  0.00000000000E+00  0.00000000000E+00  0.45593999997E+02  0.45594000000E+02  0.51100000000E-03 0. -1.
         11   -1    0    0    0    0 -0.00000000000E+00 -0.00000000000E+00 -0.45593999997E+02  0.45594000000E+02  0.51100000000E-03 0.  1.
    9900012    2    1    2    0    0  0.39192759197E+02 -0.24923301827E+01 -0.18475365219E+02  0.47787271859E+02  0.20000003715E+02 0.  0.
         12    1    1    2    0    0 -0.39192759197E+02  0.24923301827E+01  0.18475365219E+02  0.43400728141E+02  0.00000000000E+00 0. -1.
         11    1    3    3    0    0  0.41321759091E+01 -0.34629049237E+01  0.26215995071E+01  0.59949455787E+01  0.51100000000E-03 0. -1.
        -11    1    3    3    0    0  0.34824356789E+02  0.12036081772E+01 -0.19038010472E+02  0.39706804725E+02  0.51100000000E-03 0.  1.
        -12    1    3    3    0    0  0.23622649792E+00 -0.23303343617E+00 -0.20589542537E+01  0.20855215558E+01  0.00000000000E+00 0.  1.
</event>
<event>
 7    1  0.2476315E-009  0.4778727E+02  0.7816164E-02  0.1312668E+00
        -11   -1    0    0    0    0  0.00000000000E+00  0.00000000000E+00  0.45593999997E+02  0.45594000000E+02  0.51100000000E-03 0. -1.
         11   -1    0    0    0    0 -0.00000000000E+00 -0.00000000000E+00 -0.45593999997E+02  0.45594000000E+02  0.51100000000E-03 0.  1.
    9900012    2    1    2    0    0 -0.11630269823E+02 -0.29543715044E+02 -0.29589334439E+02  0.47787274346E+02  0.20000015051E+02 0.  0.
         12    1    1    2    0    0  0.11630269823E+02  0.29543715044E+02  0.29589334439E+02  0.43400725654E+02  0.00000000000E+00 0. -1.
         11    1    3    3    0    0 -0.96405315033E+00 -0.65099790224E+00 -0.66733824486E+01  0.67740113900E+01  0.51100000000E-03 0. -1.
        -11    1    3    3    0    0  0.13628934223E+01 -0.16934795120E+02 -0.10220826701E+02  0.19827003378E+02  0.51100000000E-03 0.  1.
        -12    1    3    3    0    0 -0.12029110095E+02 -0.11957922021E+02 -0.12695125290E+02  0.21186259577E+02  0.00000000000E+00 0.  1.
</event>
<event>
 7    1  0.2476315E-009  0.4778727E+02  0.7816164E-02  0.1312668E+00
        -11   -1    0    0    0    0  0.00000000000E+00  0.00000000000E+00  0.45593999997E+02  0.45594000000E+02  0.51100000000E-03 0.  1.
         11   -1    0    0    0    0 -0.00000000000E+00 -0.00000000000E+00 -0.45593999997E+02  0.45594000000E+02  0.51100000000E-03 0. -1.
    9900012    2    1    2    0    0 -0.33892527060E+02  0.26896001540E+02 -0.33948702693E+01  0.47787269206E+02  0.19999991617E+02 0.  0.
         12    1    1    2    0    0  0.33892527060E+02 -0.26896001540E+02  0.33948702693E+01  0.43400730794E+02  0.00000000000E+00 0. -1.
         11    1    3    3    0    0 -0.75035367232E+01  0.57035273824E+01 -0.73176262196E+01  0.11932348541E+02  0.51100000000E-03 0. -1.
        -11    1    3    3    0    0 -0.13113928428E+02  0.57978200062E+01  0.57428618048E+01  0.15445721013E+02  0.51100000000E-03 0.  1.
         12    1    3    3    0    0 -0.13275061909E+02  0.15394654151E+02 -0.18201058545E+01  0.20409199652E+02  0.00000000000E+00 0. -1.
</event>
<event>
 7    1  0.2476315E-009  0.4778725E+02  0.7816164E-02  0.1312668E+00
        -11   -1    0    0    0    0  0.00000000000E+00  0.00000000000E+00  0.45593999997E+02  0.45594000000E+02  0.51100000000E-03 0.  1.
         11   -1    0    0    0    0 -0.00000000000E+00 -0.00000000000E+00 -0.45593999997E+02  0.45594000000E+02  0.51100000000E-03 0. -1.
    9900012    2    1    2    0    0  0.96449343430E+01 -0.21646871936E+02  0.36359503438E+02  0.47787247549E+02  0.19999892874E+02 0.  0.
         12    1    1    2    0    0 -0.96449343430E+01  0.21646871936E+02 -0.36359503438E+02  0.43400752451E+02  0.00000000000E+00 0. -1.
         11    1    3    3    0    0  0.94498887477E+01 -0.43736346027E+01  0.19166104671E+02  0.21812121527E+02  0.51100000000E-03 0.  1.
        -11    1    3    3    0    0 -0.30125279958E+01 -0.24601870821E+01  0.59303546859E+01  0.70920344307E+01  0.51100000000E-03 0. -1.
         12    1    3    3    0    0  0.32075735911E+01 -0.14813050251E+02  0.11263044080E+02  0.18883091591E+02  0.00000000000E+00 0. -1.
</event>
<event>
 7    1  0.2476315E-009  0.4778727E+02  0.7816164E-02  0.1312668E+00
        -11   -1    0    0    0    0  0.00000000000E+00  0.00000000000E+00  0.45593999997E+02  0.45594000000E+02  0.51100000000E-03 0. -1.
         11   -1    0    0    0    0 -0.00000000000E+00 -0.00000000000E+00 -0.45593999997E+02  0.45594000000E+02  0.51100000000E-03 0.  1.
    9900012    2    1    2    0    0  0.25003310145E+01 -0.40647791436E+02  0.15004303165E+02  0.47787265936E+02  0.19999976710E+02 0.  0.
         12    1    1    2    0    0 -0.25003310145E+01  0.40647791436E+02 -0.15004303165E+02  0.43400734064E+02  0.00000000000E+00 0. -1.
         11    1    3    3    0    0 -0.43917610896E+01 -0.15238533500E+02 -0.19421764282E-01  0.15858778205E+02  0.51100000000E-03 0. -1.
        -11    1    3    3    0    0 -0.13356701874E+01 -0.14010861871E+02  0.66567890894E+01  0.15569235898E+02  0.51100000000E-03 0.  1.
         12    1    3    3    0    0  0.82277622915E+01 -0.11398396065E+02  0.83669358399E+01  0.16359251833E+02  0.00000000000E+00 0. -1.
</event>
<event>
 7    1  0.2476315E-009  0.4778727E+02  0.7816164E-02  0.1312668E+00
        -11   -1    0    0    0    0  0.00000000000E+00  0.00000000000E+00  0.45593999997E+02  0.45594000000E+02  0.51100000000E-03 0. -1.
         11   -1    0    0    0    0 -0.00000000000E+00 -0.00000000000E+00 -0.45593999997E+02  0.45594000000E+02  0.51100000000E-03 0.  1.
    9900012    2    1    2    0    0  0.16951149631E+02 -0.21976915905E+02 -0.33366104415E+02  0.47787271546E+02  0.20000002287E+02 0.  0.
         12    1    1    2    0    0 -0.16951149631E+02  0.21976915905E+02  0.33366104415E+02  0.43400728454E+02  0.00000000000E+00 0. -1.
         11    1    3    3    0    0  0.79682485480E+01  0.11806708071E+00 -0.19836645407E+01  0.82122987055E+01  0.51100000000E-03 0. -1.
        -11    1    3    3    0    0  0.53591759288E+01 -0.10720567074E+02 -0.13259548272E+02  0.17873638288E+02  0.51100000000E-03 0.  1.
         12    1    3    3    0    0  0.36237251542E+01 -0.11374415912E+02 -0.18122891602E+02  0.21701334552E+02  0.00000000000E+00 0. -1.
</event>
<event>
 7    1  0.2476315E-009  0.4778727E+02  0.7816164E-02  0.1312668E+00
        -11   -1    0    0    0    0  0.00000000000E+00  0.00000000000E+00  0.45593999997E+02  0.45594000000E+02  0.51100000000E-03 0.  1.
         11   -1    0    0    0    0 -0.00000000000E+00 -0.00000000000E+00 -0.45593999997E+02  0.45594000000E+02  0.51100000000E-03 0. -1.
    9900012    2    1    2    0    0  0.21051042119E+02 -0.14509051407E+01  0.37925870576E+02  0.47787272368E+02  0.20000006035E+02 0.  0.
         12    1    1    2    0    0 -0.21051042119E+02  0.14509051407E+01 -0.37925870576E+02  0.43400727632E+02  0.00000000000E+00 0. -1.
         11    1    3    3    0    0  0.84801302430E+01 -0.40629988343E+01  0.11739547275E+02  0.15041194731E+02  0.51100000000E-03 0. -1.
        -11    1    3    3    0    0  0.13466096752E+02  0.63366886588E+01  0.24253023501E+02  0.28455202232E+02  0.51100000000E-03 0.  1.
        -12    1    3    3    0    0 -0.89518487626E+00 -0.37245949651E+01  0.19332998008E+01  0.42908754045E+01  0.00000000000E+00 0.  1.
</event>
<event>
 7    1  0.2476315E-009  0.4778728E+02  0.7816164E-02  0.1312668E+00
        -11   -1    0    0    0    0  0.00000000000E+00  0.00000000000E+00  0.45593999997E+02  0.45594000000E+02  0.51100000000E-03 0. -1.
         11   -1    0    0    0    0 -0.00000000000E+00 -0.00000000000E+00 -0.45593999997E+02  0.45594000000E+02  0.51100000000E-03 0.  1.
    9900012    2    1    2    0    0  0.75757883996E+01  0.14301603637E+02 -0.40270265890E+02  0.47787277065E+02  0.20000027449E+02 0.  0.
         12    1    1    2    0    0 -0.75757883996E+01 -0.14301603637E+02  0.40270265890E+02  0.43400722935E+02  0.00000000000E+00 0. -1.
         11    1    3    3    0    0 -0.20546555822E+01  0.50243813782E+00  0.13243204884E+00  0.21193376684E+01  0.51100000000E-03 0. -1.
        -11    1    3    3    0    0  0.42440366412E+01  0.14854934772E+02 -0.33141670660E+02  0.36565711650E+02  0.51100000000E-03 0.  1.
        -12    1    3    3    0    0  0.53864073406E+01 -0.10557692732E+01 -0.72610272794E+01  0.91022277465E+01  0.00000000000E+00 0.  1.
</event>
<event>
 7    1  0.2476315E-009  0.4778727E+02  0.7816164E-02  0.1312668E+00
        -11   -1    0    0    0    0  0.00000000000E+00  0.00000000000E+00  0.45593999997E+02  0.45594000000E+02  0.51100000000E-03 0. -1.
         11   -1    0    0    0    0 -0.00000000000E+00 -0.00000000000E+00 -0.45593999997E+02  0.45594000000E+02  0.51100000000E-03 0.  1.
    9900012    2    1    2    0    0  0.92105028539E+01  0.21529887786E+01 -0.42357461333E+02  0.47787271273E+02  0.20000001040E+02 0.  0.
         12    1    1    2    0    0 -0.92105028539E+01 -0.21529887786E+01  0.42357461333E+02  0.43400728727E+02  0.00000000000E+00 0. -1.
         11    1    3    3    0    0  0.10339139917E+02  0.68525139012E+01 -0.20734512403E+02  0.24161431370E+02  0.51100000000E-03 0. -1.
        -11    1    3    3    0    0  0.19790214364E+01  0.13094867468E+01 -0.89620987914E+01  0.92709490558E+01  0.51100000000E-03 0.  1.
         12    1    3    3    0    0 -0.31076584996E+01 -0.60090118694E+01 -0.12660850139E+02  0.14354890847E+02  0.00000000000E+00 0. -1.
</event>
<event>
 7    1  0.2476315E-009  0.4778727E+02  0.7816164E-02  0.1312668E+00
        -11   -1    0    0    0    0  0.00000000000E+00  0.00000000000E+00  0.45593999997E+02  0.45594000000E+02  0.51100000000E-03 0.  1.
         11   -1    0    0    0    0 -0.00000000000E+00 -0.00000000000E+00 -0.45593999997E+02  0.45594000000E+02  0.51100000000E-03 0. -1.
    9900012    2    1    2    0    0  0.16576892869E+02  0.35177591252E+02  0.19270888989E+02  0.47787268832E+02  0.19999989912E+02 0.  0.
         12    1    1    2    0    0 -0.16576892869E+02 -0.35177591252E+02 -0.19270888989E+02  0.43400731168E+02  0.00000000000E+00 0. -1.
         11    1    3    3    0    0  0.22869024267E+00  0.94574582083E+00  0.30631868559E+01  0.32140081456E+01  0.51100000000E-03 0. -1.
        -11    1    3    3    0    0  0.14599912691E+02  0.13877242095E+02  0.12788366618E+02  0.23859539387E+02  0.51100000000E-03 0.  1.
        -12    1    3    3    0    0  0.17482899353E+01  0.20354603336E+02  0.34193355147E+01  0.20713721299E+02  0.00000000000E+00 0.  1.
</event>
<event>
 7    1  0.2476315E-009  0.4778727E+02  0.7816164E-02  0.1312668E+00
        -11   -1    0    0    0    0  0.00000000000E+00  0.00000000000E+00  0.45593999997E+02  0.45594000000E+02  0.51100000000E-03 0.  1.
         11   -1    0    0    0    0 -0.00000000000E+00 -0.00000000000E+00 -0.45593999997E+02  0.45594000000E+02  0.51100000000E-03 0. -1.
    9900012    2    1    2    0    0 -0.69142581934E+01  0.40486366117E+02  0.14023941358E+02  0.47787265687E+02  0.19999975573E+02 0.  0.
         12    1    1    2    0    0  0.69142581934E+01 -0.40486366117E+02 -0.14023941358E+02  0.43400734313E+02  0.00000000000E+00 0. -1.
         11    1    3    3    0    0 -0.21050142063E+01  0.65332509694E+00 -0.13545046152E+01  0.25870062823E+01  0.51100000000E-03 0. -1.
        -11    1    3    3    0    0 -0.39576650700E-01  0.33687131931E+02  0.83282759348E+01  0.34701363149E+02  0.51100000000E-03 0.  1.
        -12    1    3    3    0    0 -0.47696673364E+01  0.61459090886E+01  0.70501700384E+01  0.10498896256E+02  0.00000000000E+00 0.  1.
</event>
<event>
 7    1  0.2476315E-009  0.4778727E+02  0.7816164E-02  0.1312668E+00
        -11   -1    0    0    0    0  0.00000000000E+00  0.00000000000E+00  0.45593999997E+02  0.45594000000E+02  0.51100000000E-03 0.  1.
         11   -1    0    0    0    0 -0.00000000000E+00 -0.00000000000E+00 -0.45593999997E+02  0.45594000000E+02  0.51100000000E-03 0. -1.
    9900012    2    1    2    0    0 -0.59567130317E+01 -0.37790287238E+02  0.20494759599E+02  0.47787269468E+02  0.19999992811E+02 0.  0.
         12    1    1    2    0    0  0.59567130317E+01  0.37790287238E+02 -0.20494759599E+02  0.43400730532E+02  0.00000000000E+00 0. -1.
         11    1    3    3    0    0  0.77169844837E+00 -0.89316613931E+00 -0.31696080806E+01  0.33822595839E+01  0.51100000000E-03 0. -1.
        -11    1    3    3    0    0 -0.47463459669E+01 -0.19878251473E+02  0.13152700855E+02  0.24303625690E+02  0.51100000000E-03 0.  1.
         12    1    3    3    0    0 -0.19820655131E+01 -0.17018869626E+02  0.10511666825E+02  0.20101384193E+02  0.00000000000E+00 0. -1.
</event>
<event>
 7    1  0.2476315E-009  0.4778727E+02  0.7816164E-02  0.1312668E+00
        -11   -1    0    0    0    0  0.00000000000E+00  0.00000000000E+00  0.45593999997E+02  0.45594000000E+02  0.51100000000E-03 0.  1.
         11   -1    0    0    0    0 -0.00000000000E+00 -0.00000000000E+00 -0.45593999997E+02  0.45594000000E+02  0.51100000000E-03 0. -1.
    9900012    2    1    2    0    0 -0.95072312020E+01 -0.18398167392E+02  0.38141095025E+02  0.47787272607E+02  0.20000007127E+02 0.  0.
         12    1    1    2    0    0  0.95072312020E+01  0.18398167392E+02 -0.38141095025E+02  0.43400727393E+02  0.00000000000E+00 0. -1.
         11    1    3    3    0    0 -0.11082428025E+02 -0.17428567847E+02  0.19543647508E+02  0.28434650452E+02  0.51100000000E-03 0. -1.
        -11    1    3    3    0    0 -0.87805662795E+00 -0.31816844699E+00  0.14517727010E+02  0.14547735645E+02  0.51100000000E-03 0.  1.
         12    1    3    3    0    0  0.24532534508E+01 -0.65143109777E+00  0.40797205072E+01  0.48048865112E+01  0.00000000000E+00 0. -1.
</event>
<event>
 7    1  0.2476315E-009  0.4778727E+02  0.7816164E-02  0.1312668E+00
        -11   -1    0    0    0    0  0.00000000000E+00  0.00000000000E+00  0.45593999997E+02  0.45594000000E+02  0.51100000000E-03 0.  1.
         11   -1    0    0    0    0 -0.00000000000E+00 -0.00000000000E+00 -0.45593999997E+02  0.45594000000E+02  0.51100000000E-03 0. -1.
    9900012    2    1    2    0    0  0.20039529395E+02  0.80470287369E+01 -0.37646856803E+02  0.47787271469E+02  0.20000001938E+02 0.  0.
         12    1    1    2    0    0 -0.20039529395E+02 -0.80470287369E+01  0.37646856803E+02  0.43400728531E+02  0.00000000000E+00 0. -1.
         11    1    3    3    0    0 -0.24506702889E+01  0.39780667677E+01 -0.12839806821E+02  0.13663507585E+02  0.51100000000E-03 0. -1.
        -11    1    3    3    0    0  0.14514304727E+02  0.48775262383E+01 -0.17766309739E+02  0.23454148160E+02  0.51100000000E-03 0.  1.
         12    1    3    3    0    0  0.79758949562E+01 -0.80856426914E+00 -0.70407402435E+01  0.10669615724E+02  0.00000000000E+00 0. -1.
</event>
<event>
 7    1  0.2476315E-009  0.4778727E+02  0.7816164E-02  0.1312668E+00
        -11   -1    0    0    0    0  0.00000000000E+00  0.00000000000E+00  0.45593999997E+02  0.45594000000E+02  0.51100000000E-03 0.  1.
         11   -1    0    0    0    0 -0.00000000000E+00 -0.00000000000E+00 -0.45593999997E+02  0.45594000000E+02  0.51100000000E-03 0. -1.
    9900012    2    1    2    0    0  0.12612303823E+02  0.40758315470E+02  0.79569306930E+01  0.47787271507E+02  0.20000002108E+02 0.  0.
         12    1    1    2    0    0 -0.12612303823E+02 -0.40758315470E+02 -0.79569306930E+01  0.43400728493E+02  0.00000000000E+00 0. -1.
         11    1    3    3    0    0  0.44323601713E+01  0.14572776354E+02 -0.48318295893E+01  0.15979931314E+02  0.51100000000E-03 0. -1.
        -11    1    3    3    0    0  0.31514983262E+01  0.16245347443E+02  0.26781962510E+01  0.16763531569E+02  0.51100000000E-03 0.  1.
         12    1    3    3    0    0  0.50284453256E+01  0.99401916732E+01  0.10110564031E+02  0.15043808624E+02  0.00000000000E+00 0. -1.
</event>
<event>
 7    1  0.2476315E-009  0.4778728E+02  0.7816164E-02  0.1312668E+00
        -11   -1    0    0    0    0  0.00000000000E+00  0.00000000000E+00  0.45593999997E+02  0.45594000000E+02  0.51100000000E-03 0.  1.
         11   -1    0    0    0    0 -0.00000000000E+00 -0.00000000000E+00 -0.45593999997E+02  0.45594000000E+02  0.51100000000E-03 0. -1.
    9900012    2    1    2    0    0  0.23861343513E+02  0.25422395637E+02  0.25844940864E+02  0.47787275554E+02  0.20000020562E+02 0.  0.
         12    1    1    2    0    0 -0.23861343513E+02 -0.25422395637E+02 -0.25844940864E+02  0.43400724446E+02  0.00000000000E+00 0. -1.
         11    1    3    3    0    0  0.70326946433E+01  0.16631597514E+02  0.12897331571E+02  0.22190313016E+02  0.51100000000E-03 0. -1.
        -11    1    3    3    0    0  0.81893290259E+01  0.93863548630E+00  0.10849604534E+00  0.82436592678E+01  0.51100000000E-03 0.  1.
        -12    1    3    3    0    0  0.86393198434E+01  0.78521626361E+01  0.12839113248E+02  0.17353303271E+02  0.00000000000E+00 0.  1.
</event>
<event>
 7    1  0.2476315E-009  0.4778727E+02  0.7816164E-02  0.1312668E+00
        -11   -1    0    0    0    0  0.00000000000E+00  0.00000000000E+00  0.45593999997E+02  0.45594000000E+02  0.51100000000E-03 0. -1.
         11   -1    0    0    0    0 -0.00000000000E+00 -0.00000000000E+00 -0.45593999997E+02  0.45594000000E+02  0.51100000000E-03 0.  1.
    9900012    2    1    2    0    0 -0.24496214603E+02  0.35198928820E+02 -0.66779112417E+01  0.47787267074E+02  0.19999981899E+02 0.  0.
         12    1    1    2    0    0  0.24496214603E+02 -0.35198928820E+02  0.66779112417E+01  0.43400732926E+02  0.00000000000E+00 0. -1.
         11    1    3    3    0    0 -0.12170590854E+02  0.60588346874E+01  0.26358399226E+01  0.13848480490E+02  0.51100000000E-03 0. -1.
        -11    1    3    3    0    0 -0.58768142011E+01  0.22669085553E+02 -0.77683181257E+01  0.24673288223E+02  0.51100000000E-03 0.  1.
         12    1    3    3    0    0 -0.64488095479E+01  0.64710085793E+01 -0.15454330386E+01  0.92654983620E+01  0.00000000000E+00 0. -1.
</event>
<event>
 7    1  0.2476315E-009  0.4778727E+02  0.7816164E-02  0.1312668E+00
        -11   -1    0    0    0    0  0.00000000000E+00  0.00000000000E+00  0.45593999997E+02  0.45594000000E+02  0.51100000000E-03 0.  1.
         11   -1    0    0    0    0 -0.00000000000E+00 -0.00000000000E+00 -0.45593999997E+02  0.45594000000E+02  0.51100000000E-03 0. -1.
    9900012    2    1    2    0    0 -0.30697147371E+02 -0.18732350260E+02  0.24298304999E+02  0.47787269259E+02  0.19999991861E+02 0.  0.
         12    1    1    2    0    0  0.30697147371E+02  0.18732350260E+02 -0.24298304999E+02  0.43400730741E+02  0.00000000000E+00 0. -1.
         11    1    3    3    0    0 -0.65603010107E+00  0.75504862013E+00 -0.12643797746E+01  0.16121818718E+01  0.51100000000E-03 0. -1.
        -11    1    3    3    0    0 -0.24670876459E+02 -0.13850240847E+02  0.25934224362E+02  0.38380532960E+02  0.51100000000E-03 0.  1.
        -12    1    3    3    0    0 -0.53702408112E+01 -0.56371580329E+01 -0.37153958792E+00  0.77945544275E+01  0.00000000000E+00 0.  1.
</event>
<event>
 7    1  0.2476315E-009  0.4778728E+02  0.7816164E-02  0.1312668E+00
        -11   -1    0    0    0    0  0.00000000000E+00  0.00000000000E+00  0.45593999997E+02  0.45594000000E+02  0.51100000000E-03 0.  1.
         11   -1    0    0    0    0 -0.00000000000E+00 -0.00000000000E+00 -0.45593999997E+02  0.45594000000E+02  0.51100000000E-03 0. -1.
    9900012    2    1    2    0    0 -0.27412945504E+02  0.15530381105E+02  0.29848949422E+02  0.47787284567E+02  0.20000061655E+02 0.  0.
         12    1    1    2    0    0  0.27412945504E+02 -0.15530381105E+02 -0.29848949422E+02  0.43400715433E+02  0.00000000000E+00 0. -1.
         11    1    3    3    0    0 -0.60870556034E+01  0.11522585984E+02  0.13658079853E+02  0.18877642310E+02  0.51100000000E-03 0. -1.
        -11    1    3    3    0    0 -0.23673812009E+01  0.43149471539E+01  0.42435149829E+01  0.64985138580E+01  0.51100000000E-03 0.  1.
         12    1    3    3    0    0 -0.18958508700E+02 -0.30715203289E+00  0.11947354587E+02  0.22411128399E+02  0.00000000000E+00 0. -1.
</event>
<event>
 7    1  0.2476315E-009  0.4778728E+02  0.7816164E-02  0.1312668E+00
        -11   -1    0    0    0    0  0.00000000000E+00  0.00000000000E+00  0.45593999997E+02  0.45594000000E+02  0.51100000000E-03 0.  1.
         11   -1    0    0    0    0 -0.00000000000E+00 -0.00000000000E+00 -0.45593999997E+02  0.45594000000E+02  0.51100000000E-03 0. -1.
    9900012    2    1    2    0    0  0.21628838000E+02 -0.37582354827E+02  0.18392079248E+01  0.47787277502E+02  0.20000029442E+02 0.  0.
         12    1    1    2    0    0 -0.21628838000E+02  0.37582354827E+02 -0.18392079248E+01  0.43400722498E+02  0.00000000000E+00 0. -1.
         11    1    3    3    0    0  0.64946914146E+01 -0.11686635644E+02 -0.70081262892E+01  0.15095439827E+02  0.51100000000E-03 0. -1.
        -11    1    3    3    0    0  0.58607657428E+01 -0.45806917675E+01  0.54017489065E+01  0.91929431452E+01  0.51100000000E-03 0.  1.
         12    1    3    3    0    0  0.92733808425E+01 -0.21315027416E+02  0.34455853075E+01  0.23498894529E+02  0.00000000000E+00 0. -1.
</event>
<event>
 7    1  0.2476315E-009  0.4778727E+02  0.7816164E-02  0.1312668E+00
        -11   -1    0    0    0    0  0.00000000000E+00  0.00000000000E+00  0.45593999997E+02  0.45594000000E+02  0.51100000000E-03 0.  1.
         11   -1    0    0    0    0 -0.00000000000E+00 -0.00000000000E+00 -0.45593999997E+02  0.45594000000E+02  0.51100000000E-03 0. -1.
    9900012    2    1    2    0    0  0.24039821148E+02  0.36086665312E+02  0.18608297019E+01  0.47787273032E+02  0.20000009061E+02 0.  0.
         12    1    1    2    0    0 -0.24039821148E+02 -0.36086665312E+02 -0.18608297019E+01  0.43400726968E+02  0.00000000000E+00 0. -1.
         11    1    3    3    0    0  0.14848587754E+02  0.95365609704E+01  0.55723652613E+01  0.18506155957E+02  0.51100000000E-03 0. -1.
        -11    1    3    3    0    0  0.76853674001E+00  0.51577204846E+01  0.20107680441E+01  0.55889102431E+01  0.51100000000E-03 0.  1.
         12    1    3    3    0    0  0.84226966544E+01  0.21392383857E+02 -0.57223036035E+01  0.23692206832E+02  0.00000000000E+00 0. -1.
</event>
<event>
 7    1  0.2476315E-009  0.4778727E+02  0.7816164E-02  0.1312668E+00
        -11   -1    0    0    0    0  0.00000000000E+00  0.00000000000E+00  0.45593999997E+02  0.45594000000E+02  0.51100000000E-03 0.  1.
         11   -1    0    0    0    0 -0.00000000000E+00 -0.00000000000E+00 -0.45593999997E+02  0.45594000000E+02  0.51100000000E-03 0. -1.
    9900012    2    1    2    0    0 -0.21194728391E+02 -0.72400922187E+01  0.37175097668E+02  0.47787270357E+02  0.19999996867E+02 0.  0.
         12    1    1    2    0    0  0.21194728391E+02  0.72400922187E+01 -0.37175097668E+02  0.43400729643E+02  0.00000000000E+00 0. -1.
         11    1    3    3    0    0 -0.48810239130E+01  0.20306974950E+01  0.36185596642E+01  0.64064109344E+01  0.51100000000E-03 0. -1.
        -11    1    3    3    0    0 -0.10543676444E+01  0.33465256966E+01  0.10058997792E+02  0.10653373278E+02  0.51100000000E-03 0.  1.
        -12    1    3    3    0    0 -0.15259336834E+02 -0.12617315410E+02  0.23497540212E+02  0.30727486145E+02  0.00000000000E+00 0.  1.
</event>
<event>
 7    1  0.2476315E-009  0.4778727E+02  0.7816164E-02  0.1312668E+00
        -11   -1    0    0    0    0  0.00000000000E+00  0.00000000000E+00  0.45593999997E+02  0.45594000000E+02  0.51100000000E-03 0.  1.
         11   -1    0    0    0    0 -0.00000000000E+00 -0.00000000000E+00 -0.45593999997E+02  0.45594000000E+02  0.51100000000E-03 0. -1.
    9900012    2    1    2    0    0 -0.14224029457E+01  0.23859053545E+02  0.36226311461E+02  0.47787270649E+02  0.19999998195E+02 0.  0.
         12    1    1    2    0    0  0.14224029457E+01 -0.23859053545E+02 -0.36226311461E+02  0.43400729351E+02  0.00000000000E+00 0. -1.
         11    1    3    3    0    0 -0.63842078170E+01  0.25034425289E+01  0.60784854536E+01  0.91636957401E+01  0.51100000000E-03 0. -1.
        -11    1    3    3    0    0  0.44333166032E+01  0.16015644882E+02  0.28533538080E+02  0.33019963246E+02  0.51100000000E-03 0.  1.
        -12    1    3    3    0    0  0.52848826818E+00  0.53399661336E+01  0.16142879265E+01  0.56036116628E+01  0.00000000000E+00 0.  1.
</event>
<event>
 7    1  0.2476315E-009  0.4778727E+02  0.7816164E-02  0.1312668E+00
        -11   -1    0    0    0    0  0.00000000000E+00  0.00000000000E+00  0.45593999997E+02  0.45594000000E+02  0.51100000000E-03 0.  1.
         11   -1    0    0    0    0 -0.00000000000E+00 -0.00000000000E+00 -0.45593999997E+02  0.45594000000E+02  0.51100000000E-03 0. -1.
    9900012    2    1    2    0    0  0.57095407369E+01 -0.91723556171E+01  0.42034421723E+02  0.47787267603E+02  0.19999984310E+02 0.  0.
         12    1    1    2    0    0 -0.57095407369E+01  0.91723556171E+01 -0.42034421723E+02  0.43400732397E+02  0.00000000000E+00 0. -1.
         11    1    3    3    0    0 -0.55050753653E+00 -0.51519169496E+00  0.56808040178E+00  0.94403211510E+00  0.51100000000E-03 0. -1.
        -11    1    3    3    0    0 -0.49065360034E+01  0.28244830454E+01  0.88365657366E+01  0.10494603104E+02  0.51100000000E-03 0.  1.
        -12    1    3    3    0    0  0.11166584277E+02 -0.11481646968E+02  0.32629775585E+02  0.36348632384E+02  0.00000000000E+00 0.  1.
</event>
<event>
 7    1  0.2476315E-009  0.4778727E+02  0.7816164E-02  0.1312668E+00
        -11   -1    0    0    0    0  0.00000000000E+00  0.00000000000E+00  0.45593999997E+02  0.45594000000E+02  0.51100000000E-03 0.  1.
         11   -1    0    0    0    0 -0.00000000000E+00 -0.00000000000E+00 -0.45593999997E+02  0.45594000000E+02  0.51100000000E-03 0. -1.
    9900012    2    1    2    0    0  0.42143725069E+02  0.70144791826E+01  0.76371867769E+01  0.47787273016E+02  0.20000008988E+02 0.  0.
         12    1    1    2    0    0 -0.42143725069E+02 -0.70144791826E+01 -0.76371867769E+01  0.43400726984E+02  0.00000000000E+00 0. -1.
         11    1    3    3    0    0  0.77314155914E+00  0.31667522632E+01 -0.14861432894E+01  0.35825535452E+01  0.51100000000E-03 0. -1.
        -11    1    3    3    0    0  0.30009454531E+02 -0.21254283431E+01  0.88760629511E+01  0.31366690942E+02  0.51100000000E-03 0.  1.
        -12    1    3    3    0    0  0.11361128979E+02  0.59731552626E+01  0.24726711515E+00  0.12838028528E+02  0.00000000000E+00 0.  1.
</event>
<event>
 7    1  0.2476315E-009  0.4778727E+02  0.7816164E-02  0.1312668E+00
        -11   -1    0    0    0    0  0.00000000000E+00  0.00000000000E+00  0.45593999997E+02  0.45594000000E+02  0.51100000000E-03 0. -1.
         11   -1    0    0    0    0 -0.00000000000E+00 -0.00000000000E+00 -0.45593999997E+02  0.45594000000E+02  0.51100000000E-03 0.  1.
    9900012    2    1    2    0    0 -0.18716981528E+02 -0.33427056004E+02  0.20394363684E+02  0.47787267971E+02  0.19999985985E+02 0.  0.
         12    1    1    2    0    0  0.18716981528E+02  0.33427056004E+02 -0.20394363684E+02  0.43400732029E+02  0.00000000000E+00 0. -1.
         11    1    3    3    0    0 -0.24642648432E+00 -0.34169842825E+01 -0.17917045122E+01  0.38660978932E+01  0.51100000000E-03 0. -1.
        -11    1    3    3    0    0 -0.20638254558E+02 -0.25574594628E+02  0.18135139063E+02  0.37535059753E+02  0.51100000000E-03 0.  1.
        -12    1    3    3    0    0  0.21676995141E+01 -0.44354770938E+01  0.40509291333E+01  0.63861103245E+01  0.00000000000E+00 0.  1.
</event>
<event>
 7    1  0.2476315E-009  0.4778725E+02  0.7816164E-02  0.1312668E+00
        -11   -1    0    0    0    0  0.00000000000E+00  0.00000000000E+00  0.45593999997E+02  0.45594000000E+02  0.51100000000E-03 0.  1.
         11   -1    0    0    0    0 -0.00000000000E+00 -0.00000000000E+00 -0.45593999997E+02  0.45594000000E+02  0.51100000000E-03 0. -1.
    9900012    2    1    2    0    0 -0.41857104180E+01 -0.24726918528E+02  0.35421519758E+02  0.47787254228E+02  0.19999923328E+02 0.  0.
         12    1    1    2    0    0  0.41857104180E+01  0.24726918528E+02 -0.35421519758E+02  0.43400745772E+02  0.00000000000E+00 0. -1.
         11    1    3    3    0    0  0.17232191399E+01  0.15301671704E+01  0.55457279131E+01  0.60054969920E+01  0.51100000000E-03 0. -1.
        -11    1    3    3    0    0 -0.84245694106E+01 -0.24384251473E+02  0.24618094293E+02  0.35659720365E+02  0.51100000000E-03 0.  1.
        -12    1    3    3    0    0  0.25156398527E+01 -0.18728342251E+01  0.52576975518E+01  0.61220368710E+01  0.00000000000E+00 0.  1.
</event>
<event>
 7    1  0.2476315E-009  0.4778727E+02  0.7816164E-02  0.1312668E+00
        -11   -1    0    0    0    0  0.00000000000E+00  0.00000000000E+00  0.45593999997E+02  0.45594000000E+02  0.51100000000E-03 0.  1.
         11   -1    0    0    0    0 -0.00000000000E+00 -0.00000000000E+00 -0.45593999997E+02  0.45594000000E+02  0.51100000000E-03 0. -1.
    9900012    2    1    2    0    0 -0.49208500285E+01 -0.39805858349E+02  0.16580171458E+02  0.47787271786E+02  0.20000003381E+02 0.  0.
         12    1    1    2    0    0  0.49208500285E+01  0.39805858349E+02 -0.16580171458E+02  0.43400728214E+02  0.00000000000E+00 0. -1.
         11    1    3    3    0    0 -0.50322311864E+01 -0.12211714115E+02  0.12637760297E+02  0.18280106617E+02  0.51100000000E-03 0. -1.
        -11    1    3    3    0    0 -0.42969497697E+01 -0.16084445423E+02  0.28516440685E+00  0.16650960359E+02  0.51100000000E-03 0.  1.
         12    1    3    3    0    0  0.44083309276E+01 -0.11509698811E+02  0.36572467546E+01  0.12856204810E+02  0.00000000000E+00 0. -1.
</event>
<event>
 7    1  0.2476315E-009  0.4778727E+02  0.7816164E-02  0.1312668E+00
        -11   -1    0    0    0    0  0.00000000000E+00  0.00000000000E+00  0.45593999997E+02  0.45594000000E+02  0.51100000000E-03 0.  1.
         11   -1    0    0    0    0 -0.00000000000E+00 -0.00000000000E+00 -0.45593999997E+02  0.45594000000E+02  0.51100000000E-03 0. -1.
    9900012    2    1    2    0    0  0.20024123855E+01  0.33168375967E+02  0.27919030666E+02  0.47787273128E+02  0.20000009501E+02 0.  0.
         12    1    1    2    0    0 -0.20024123855E+01 -0.33168375967E+02 -0.27919030666E+02  0.43400726872E+02  0.00000000000E+00 0. -1.
         11    1    3    3    0    0  0.41014195407E+00  0.21078569459E+02  0.10289123700E+02  0.23459334467E+02  0.51100000000E-03 0.  1.
        -11    1    3    3    0    0  0.45164837091E+00  0.52021154111E+01  0.16435449307E+02  0.17244998845E+02  0.51100000000E-03 0. -1.
         12    1    3    3    0    0  0.11406220605E+01  0.68876910976E+01  0.11944576594E+01  0.70829398163E+01  0.00000000000E+00 0. -1.
</event>
<event>
 7    1  0.2476315E-009  0.4778727E+02  0.7816164E-02  0.1312668E+00
        -11   -1    0    0    0    0  0.00000000000E+00  0.00000000000E+00  0.45593999997E+02  0.45594000000E+02  0.51100000000E-03 0.  1.
         11   -1    0    0    0    0 -0.00000000000E+00 -0.00000000000E+00 -0.45593999997E+02  0.45594000000E+02  0.51100000000E-03 0. -1.
    9900012    2    1    2    0    0  0.21635961164E+02  0.19237056374E+02  0.32333326798E+02  0.47787272180E+02  0.20000005179E+02 0.  0.
         12    1    1    2    0    0 -0.21635961164E+02 -0.19237056374E+02 -0.32333326798E+02  0.43400727820E+02  0.00000000000E+00 0. -1.
         11    1    3    3    0    0  0.15614876066E+01  0.46975205227E+01  0.81961966739E+00  0.50176408069E+01  0.51100000000E-03 0. -1.
        -11    1    3    3    0    0  0.10672649854E+01 -0.15781661516E+01  0.89533401819E+01  0.91537950394E+01  0.51100000000E-03 0.  1.
        -12    1    3    3    0    0  0.19007208572E+02  0.16117702003E+02  0.22560366949E+02  0.33615836334E+02  0.00000000000E+00 0.  1.
</event>
<event>
 7    1  0.2476315E-009  0.4778727E+02  0.7816164E-02  0.1312668E+00
        -11   -1    0    0    0    0  0.00000000000E+00  0.00000000000E+00  0.45593999997E+02  0.45594000000E+02  0.51100000000E-03 0.  1.
         11   -1    0    0    0    0 -0.00000000000E+00 -0.00000000000E+00 -0.45593999997E+02  0.45594000000E+02  0.51100000000E-03 0. -1.
    9900012    2    1    2    0    0 -0.42405125196E+01 -0.39637297406E+02  0.17161763902E+02  0.47787269219E+02  0.19999991679E+02 0.  0.
         12    1    1    2    0    0  0.42405125196E+01  0.39637297406E+02 -0.17161763902E+02  0.43400730781E+02  0.00000000000E+00 0. -1.
         11    1    3    3    0    0 -0.34272632637E+01 -0.69621787361E+00  0.33643996364E+01  0.48528381367E+01  0.51100000000E-03 0. -1.
        -11    1    3    3    0    0 -0.13425821421E+01 -0.34591157808E+02  0.15876371338E+02  0.38084247301E+02  0.51100000000E-03 0.  1.
        -12    1    3    3    0    0  0.52933288623E+00 -0.43499217240E+01 -0.20790070732E+01  0.48501837821E+01  0.00000000000E+00 0.  1.
</event>
<event>
 7    1  0.2476315E-009  0.4778727E+02  0.7816164E-02  0.1312668E+00
        -11   -1    0    0    0    0  0.00000000000E+00  0.00000000000E+00  0.45593999997E+02  0.45594000000E+02  0.51100000000E-03 0. -1.
         11   -1    0    0    0    0 -0.00000000000E+00 -0.00000000000E+00 -0.45593999997E+02  0.45594000000E+02  0.51100000000E-03 0.  1.
    9900012    2    1    2    0    0 -0.51240978691E+01 -0.37917383666E+02  0.20485093775E+02  0.47787269246E+02  0.19999991798E+02 0.  0.
         12    1    1    2    0    0  0.51240978691E+01  0.37917383666E+02 -0.20485093775E+02  0.43400730754E+02  0.00000000000E+00 0. -1.
         11    1    3    3    0    0  0.13879515552E+01 -0.69925017226E+01 -0.24860544832E+01  0.75499640406E+01  0.51100000000E-03 0. -1.
        -11    1    3    3    0    0 -0.49356326637E+00 -0.11189287144E+02  0.31701241410E+01  0.11640164896E+02  0.51100000000E-03 0.  1.
         12    1    3    3    0    0 -0.60184861580E+01 -0.19735594800E+02  0.19801024117E+02  0.28597140309E+02  0.00000000000E+00 0. -1.
</event>
<event>
 7    1  0.2476315E-009  0.4778727E+02  0.7816164E-02  0.1312668E+00
        -11   -1    0    0    0    0  0.00000000000E+00  0.00000000000E+00  0.45593999997E+02  0.45594000000E+02  0.51100000000E-03 0.  1.
         11   -1    0    0    0    0 -0.00000000000E+00 -0.00000000000E+00 -0.45593999997E+02  0.45594000000E+02  0.51100000000E-03 0. -1.
    9900012    2    1    2    0    0  0.10111942449E+02 -0.18450137147E+02 -0.37960042770E+02  0.47787265122E+02  0.19999972998E+02 0.  0.
         12    1    1    2    0    0 -0.10111942449E+02  0.18450137147E+02  0.37960042770E+02  0.43400734878E+02  0.00000000000E+00 0. -1.
         11    1    3    3    0    0 -0.32767869350E+01  0.18314727032E+01 -0.53903107554E+01  0.65686433287E+01  0.51100000000E-03 0. -1.
        -11    1    3    3    0    0  0.95485584057E+01 -0.84380417232E+01 -0.14949205605E+02  0.19643173476E+02  0.51100000000E-03 0.  1.
        -12    1    3    3    0    0  0.38401709782E+01 -0.11843568127E+02 -0.17620526410E+02  0.21575448317E+02  0.00000000000E+00 0.  1.
</event>
<event>
 7    1  0.2476315E-009  0.4778727E+02  0.7816164E-02  0.1312668E+00
        -11   -1    0    0    0    0  0.00000000000E+00  0.00000000000E+00  0.45593999997E+02  0.45594000000E+02  0.51100000000E-03 0. -1.
         11   -1    0    0    0    0 -0.00000000000E+00 -0.00000000000E+00 -0.45593999997E+02  0.45594000000E+02  0.51100000000E-03 0.  1.
    9900012    2    1    2    0    0 -0.51591284521E+01 -0.42231135145E+02  0.85754400550E+01  0.47787267815E+02  0.19999985277E+02 0.  0.
         12    1    1    2    0    0  0.51591284521E+01  0.42231135145E+02 -0.85754400550E+01  0.43400732185E+02  0.00000000000E+00 0. -1.
         11    1    3    3    0    0 -0.52081527145E+01 -0.29120926970E+02 -0.15863025606E+01  0.29625488998E+02  0.51100000000E-03 0.  1.
        -11    1    3    3    0    0  0.27227268515E+01 -0.21442496351E+01  0.40346990111E+01  0.53188198294E+01  0.51100000000E-03 0. -1.
         12    1    3    3    0    0 -0.26737025891E+01 -0.10965958540E+02  0.61270436045E+01  0.12842958988E+02  0.00000000000E+00 0. -1.
</event>
<event>
 7    1  0.2476315E-009  0.4778730E+02  0.7816164E-02  0.1312668E+00
        -11   -1    0    0    0    0  0.00000000000E+00  0.00000000000E+00  0.45593999997E+02  0.45594000000E+02  0.51100000000E-03 0.  1.
         11   -1    0    0    0    0 -0.00000000000E+00 -0.00000000000E+00 -0.45593999997E+02  0.45594000000E+02  0.51100000000E-03 0. -1.
    9900012    2    1    2    0    0  0.18525882780E+02 -0.39177242541E+02  0.23572213781E+01  0.47787295414E+02  0.20000111111E+02 0.  0.
         12    1    1    2    0    0 -0.18525882780E+02  0.39177242541E+02 -0.23572213781E+01  0.43400704586E+02  0.00000000000E+00 0. -1.
         11    1    3    3    0    0 -0.62374752513E+00 -0.99783125708E+01 -0.10660396676E+00  0.99983572352E+01  0.51100000000E-03 0. -1.
        -11    1    3    3    0    0  0.18346282505E+02 -0.18899911685E+02 -0.22462001419E+01  0.26435547257E+02  0.51100000000E-03 0.  1.
        -12    1    3    3    0    0  0.80334780027E+00 -0.10299018286E+02  0.47100254868E+01  0.11353390922E+02  0.00000000000E+00 0.  1.
</event>
<event>
 7    1  0.2476315E-009  0.4778727E+02  0.7816164E-02  0.1312668E+00
        -11   -1    0    0    0    0  0.00000000000E+00  0.00000000000E+00  0.45593999997E+02  0.45594000000E+02  0.51100000000E-03 0.  1.
         11   -1    0    0    0    0 -0.00000000000E+00 -0.00000000000E+00 -0.45593999997E+02  0.45594000000E+02  0.51100000000E-03 0. -1.
    9900012    2    1    2    0    0  0.34857417187E+02  0.17219127467E+02 -0.19289517179E+02  0.47787270090E+02  0.19999995649E+02 0.  0.
         12    1    1    2    0    0 -0.34857417187E+02 -0.17219127467E+02  0.19289517179E+02  0.43400729910E+02  0.00000000000E+00 0. -1.
         11    1    3    3    0    0  0.27752791227E+01  0.92826083200E+01 -0.22183627804E+01  0.99393221659E+01  0.51100000000E-03 0. -1.
        -11    1    3    3    0    0  0.12349490826E+02  0.16680488865E+01 -0.99718038678E+01  0.15960237573E+02  0.51100000000E-03 0.  1.
         12    1    3    3    0    0  0.19732647239E+02  0.62684702602E+01 -0.70993505312E+01  0.21887710351E+02  0.00000000000E+00 0. -1.
</event>
<event>
 7    1  0.2476315E-009  0.4778724E+02  0.7816164E-02  0.1312668E+00
        -11   -1    0    0    0    0  0.00000000000E+00  0.00000000000E+00  0.45593999997E+02  0.45594000000E+02  0.51100000000E-03 0.  1.
         11   -1    0    0    0    0 -0.00000000000E+00 -0.00000000000E+00 -0.45593999997E+02  0.45594000000E+02  0.51100000000E-03 0. -1.
    9900012    2    1    2    0    0  0.21202694908E+02  0.34690756618E+02  0.15186284197E+02  0.47787238558E+02  0.19999851879E+02 0.  0.
         12    1    1    2    0    0 -0.21202694908E+02 -0.34690756618E+02 -0.15186284197E+02  0.43400761442E+02  0.00000000000E+00 0. -1.
         11    1    3    3    0    0 -0.20047409505E+01  0.53499090163E+01 -0.23645358482E+01  0.61831660822E+01  0.51100000000E-03 0. -1.
        -11    1    3    3    0    0  0.18142415875E+02  0.24300429801E+02  0.16016438504E+02  0.34295545555E+02  0.51100000000E-03 0.  1.
         12    1    3    3    0    0  0.50650199831E+01  0.50404177999E+01  0.15343815415E+01  0.73085269201E+01  0.00000000000E+00 0. -1.
</event>
<event>
 7    1  0.2476315E-009  0.4778727E+02  0.7816164E-02  0.1312668E+00
        -11   -1    0    0    0    0  0.00000000000E+00  0.00000000000E+00  0.45593999997E+02  0.45594000000E+02  0.51100000000E-03 0. -1.
         11   -1    0    0    0    0 -0.00000000000E+00 -0.00000000000E+00 -0.45593999997E+02  0.45594000000E+02  0.51100000000E-03 0.  1.
    9900012    2    1    2    0    0  0.14087101178E+00  0.31806164937E+02 -0.29529154570E+02  0.47787274865E+02  0.20000017420E+02 0.  0.
         12    1    1    2    0    0 -0.14087101178E+00 -0.31806164937E+02  0.29529154570E+02  0.43400725135E+02  0.00000000000E+00 0. -1.
         11    1    3    3    0    0 -0.12823536495E+01  0.65434026443E+01  0.12663388525E+01  0.67870585233E+01  0.51100000000E-03 0. -1.
        -11    1    3    3    0    0 -0.29161897491E+01  0.19824126648E+02 -0.24130809453E+02  0.31365524468E+02  0.51100000000E-03 0.  1.
        -12    1    3    3    0    0  0.43394144104E+01  0.54386356447E+01 -0.66646839692E+01  0.96346918741E+01  0.00000000000E+00 0.  1.
</event>
<event>
 7    1  0.2476315E-009  0.4778727E+02  0.7816164E-02  0.1312668E+00
        -11   -1    0    0    0    0  0.00000000000E+00  0.00000000000E+00  0.45593999997E+02  0.45594000000E+02  0.51100000000E-03 0. -1.
         11   -1    0    0    0    0 -0.00000000000E+00 -0.00000000000E+00 -0.45593999997E+02  0.45594000000E+02  0.51100000000E-03 0.  1.
    9900012    2    1    2    0    0  0.30000538779E+02  0.83339898843E+01 -0.30234675221E+02  0.47787270742E+02  0.19999998622E+02 0.  0.
         12    1    1    2    0    0 -0.30000538779E+02 -0.83339898843E+01  0.30234675221E+02  0.43400729258E+02  0.00000000000E+00 0. -1.
         11    1    3    3    0    0  0.24210454347E+02  0.11433416730E+02 -0.19749444684E+02  0.33270252229E+02  0.51100000000E-03 0. -1.
        -11    1    3    3    0    0  0.65097004876E+01 -0.77065396957E+00 -0.10112508167E+02  0.12051262575E+02  0.51100000000E-03 0.  1.
         12    1    3    3    0    0 -0.71961605622E+00 -0.23287728764E+01 -0.37272237073E+00  0.24657559376E+01  0.00000000000E+00 0. -1.
</event>
<event>
 7    1  0.2476315E-009  0.4778726E+02  0.7816164E-02  0.1312668E+00
        -11   -1    0    0    0    0  0.00000000000E+00  0.00000000000E+00  0.45593999997E+02  0.45594000000E+02  0.51100000000E-03 0.  1.
         11   -1    0    0    0    0 -0.00000000000E+00 -0.00000000000E+00 -0.45593999997E+02  0.45594000000E+02  0.51100000000E-03 0. -1.
    9900012    2    1    2    0    0 -0.24565726333E+02  0.11810466986E+02  0.33773685222E+02  0.47787264359E+02  0.19999969518E+02 0.  0.
         12    1    1    2    0    0  0.24565726333E+02 -0.11810466986E+02 -0.33773685222E+02  0.43400735641E+02  0.00000000000E+00 0. -1.
         11    1    3    3    0    0 -0.20898834443E+01  0.17785681952E+00  0.52037334617E+01  0.56105336699E+01  0.51100000000E-03 0. -1.
        -11    1    3    3    0    0 -0.23344644832E+02  0.14849496954E+02  0.24934905183E+02  0.37245529918E+02  0.51100000000E-03 0.  1.
        -12    1    3    3    0    0  0.86880194404E+00 -0.32168867873E+01  0.36350465778E+01  0.49312007709E+01  0.00000000000E+00 0.  1.
</event>
<event>
 7    1  0.2476315E-009  0.4778727E+02  0.7816164E-02  0.1312668E+00
        -11   -1    0    0    0    0  0.00000000000E+00  0.00000000000E+00  0.45593999997E+02  0.45594000000E+02  0.51100000000E-03 0.  1.
         11   -1    0    0    0    0 -0.00000000000E+00 -0.00000000000E+00 -0.45593999997E+02  0.45594000000E+02  0.51100000000E-03 0. -1.
    9900012    2    1    2    0    0 -0.74094696481E+01  0.24150912627E+02  0.35291025216E+02  0.47787270951E+02  0.19999999573E+02 0.  0.
         12    1    1    2    0    0  0.74094696481E+01 -0.24150912627E+02 -0.35291025216E+02  0.43400729049E+02  0.00000000000E+00 0. -1.
         11    1    3    3    0    0  0.43331723431E+01  0.19174896632E+01  0.18476108013E+01  0.50859428917E+01  0.51100000000E-03 0. -1.
        -11    1    3    3    0    0 -0.10121900410E+02  0.21313920650E+02  0.26363799437E+02  0.35380587932E+02  0.51100000000E-03 0.  1.
         12    1    3    3    0    0 -0.16207415815E+01  0.91950231397E+00  0.70796149777E+01  0.73207401273E+01  0.00000000000E+00 0. -1.
</event>
<event>
 7    1  0.2476315E-009  0.4778728E+02  0.7816164E-02  0.1312668E+00
        -11   -1    0    0    0    0  0.00000000000E+00  0.00000000000E+00  0.45593999997E+02  0.45594000000E+02  0.51100000000E-03 0.  1.
         11   -1    0    0    0    0 -0.00000000000E+00 -0.00000000000E+00 -0.45593999997E+02  0.45594000000E+02  0.51100000000E-03 0. -1.
    9900012    2    1    2    0    0 -0.41194529151E+02 -0.13642700629E+02  0.71439167600E+00  0.47787275722E+02  0.20000021325E+02 0.  0.
         12    1    1    2    0    0  0.41194529151E+02  0.13642700629E+02 -0.71439167600E+00  0.43400724278E+02  0.00000000000E+00 0. -1.
         11    1    3    3    0    0 -0.12310737486E+02  0.10342088298E+01 -0.44745320151E+01  0.13139455178E+02  0.51100000000E-03 0. -1.
        -11    1    3    3    0    0 -0.21305467040E+02 -0.14535984769E+02  0.62333348863E+00  0.25799347354E+02  0.51100000000E-03 0.  1.
         12    1    3    3    0    0 -0.75783246246E+01 -0.14092468950E+00  0.45655902025E+01  0.88484731893E+01  0.00000000000E+00 0. -1.
</event>
<event>
 7    1  0.2476315E-009  0.4778727E+02  0.7816164E-02  0.1312668E+00
        -11   -1    0    0    0    0  0.00000000000E+00  0.00000000000E+00  0.45593999997E+02  0.45594000000E+02  0.51100000000E-03 0.  1.
         11   -1    0    0    0    0 -0.00000000000E+00 -0.00000000000E+00 -0.45593999997E+02  0.45594000000E+02  0.51100000000E-03 0. -1.
    9900012    2    1    2    0    0  0.30107030151E+02 -0.17076857674E+00  0.31259571528E+02  0.47787271452E+02  0.20000001858E+02 0.  0.
         12    1    1    2    0    0 -0.30107030151E+02  0.17076857674E+00 -0.31259571528E+02  0.43400728548E+02  0.00000000000E+00 0. -1.
         11    1    3    3    0    0  0.47045795223E+01 -0.53935889928E+01  0.13327879311E+02  0.15127995171E+02  0.51100000000E-03 0. -1.
        -11    1    3    3    0    0  0.20649061238E+02  0.77149041274E+00  0.14904209925E+02  0.25477723627E+02  0.51100000000E-03 0.  1.
        -12    1    3    3    0    0  0.47533893907E+01  0.44513300033E+01  0.30274822919E+01  0.71815526543E+01  0.00000000000E+00 0.  1.
</event>
<event>
 7    1  0.2476315E-009  0.4778727E+02  0.7816164E-02  0.1312668E+00
        -11   -1    0    0    0    0  0.00000000000E+00  0.00000000000E+00  0.45593999997E+02  0.45594000000E+02  0.51100000000E-03 0. -1.
         11   -1    0    0    0    0 -0.00000000000E+00 -0.00000000000E+00 -0.45593999997E+02  0.45594000000E+02  0.51100000000E-03 0.  1.
    9900012    2    1    2    0    0  0.41103762551E+02  0.29329360505E+01 -0.13619913780E+02  0.47787268888E+02  0.19999990167E+02 0.  0.
         12    1    1    2    0    0 -0.41103762551E+02 -0.29329360505E+01  0.13619913780E+02  0.43400731112E+02  0.00000000000E+00 0. -1.
         11    1    3    3    0    0 -0.16529665409E+00 -0.81614022451E-01 -0.50903141941E+01  0.50936512138E+01  0.51100000000E-03 0. -1.
        -11    1    3    3    0    0  0.23188129969E+02  0.47152800907E+01 -0.43756892258E+01  0.24063871141E+02  0.51100000000E-03 0.  1.
         12    1    3    3    0    0  0.18080929236E+02 -0.17007300177E+01 -0.41539103596E+01  0.18629746533E+02  0.00000000000E+00 0. -1.
</event>
<event>
 7    1  0.2476315E-009  0.4778727E+02  0.7816164E-02  0.1312668E+00
        -11   -1    0    0    0    0  0.00000000000E+00  0.00000000000E+00  0.45593999997E+02  0.45594000000E+02  0.51100000000E-03 0.  1.
         11   -1    0    0    0    0 -0.00000000000E+00 -0.00000000000E+00 -0.45593999997E+02  0.45594000000E+02  0.51100000000E-03 0. -1.
    9900012    2    1    2    0    0  0.30875516869E+02 -0.15632799869E+02  0.26190483078E+02  0.47787269850E+02  0.19999994554E+02 0.  0.
         12    1    1    2    0    0 -0.30875516869E+02  0.15632799869E+02 -0.26190483078E+02  0.43400730150E+02  0.00000000000E+00 0. -1.
         11    1    3    3    0    0  0.38595762263E+01 -0.57378508798E+01 -0.88007028063E+00  0.69709242805E+01  0.51100000000E-03 0. -1.
        -11    1    3    3    0    0  0.24374089553E+02 -0.11805068727E+02  0.25498033256E+02  0.37196849186E+02  0.51100000000E-03 0.  1.
        -12    1    3    3    0    0  0.26418510894E+01  0.19101197384E+01  0.15725201034E+01  0.36194963833E+01  0.00000000000E+00 0.  1.
</event>
<event>
 7    1  0.2476315E-009  0.4778727E+02  0.7816164E-02  0.1312668E+00
        -11   -1    0    0    0    0  0.00000000000E+00  0.00000000000E+00  0.45593999997E+02  0.45594000000E+02  0.51100000000E-03 0.  1.
         11   -1    0    0    0    0 -0.00000000000E+00 -0.00000000000E+00 -0.45593999997E+02  0.45594000000E+02  0.51100000000E-03 0. -1.
    9900012    2    1    2    0    0 -0.20954993250E+02  0.37981063817E+02  0.13966320325E+01  0.47787268073E+02  0.19999986452E+02 0.  0.
         12    1    1    2    0    0  0.20954993250E+02 -0.37981063817E+02 -0.13966320325E+01  0.43400731927E+02  0.00000000000E+00 0. -1.
         11    1    3    3    0    0 -0.11108164479E+02  0.19662163733E+02  0.39728668253E+01  0.22929798774E+02  0.51100000000E-03 0. -1.
        -11    1    3    3    0    0 -0.86162455247E+01  0.20279787744E+02 -0.10003721470E+01  0.22056976732E+02  0.51100000000E-03 0.  1.
         12    1    3    3    0    0 -0.12305832456E+01 -0.19608876594E+01 -0.15758626457E+01  0.28004925665E+01  0.00000000000E+00 0. -1.
</event>
<event>
 7    1  0.2476315E-009  0.4778727E+02  0.7816164E-02  0.1312668E+00
        -11   -1    0    0    0    0  0.00000000000E+00  0.00000000000E+00  0.45593999997E+02  0.45594000000E+02  0.51100000000E-03 0. -1.
         11   -1    0    0    0    0 -0.00000000000E+00 -0.00000000000E+00 -0.45593999997E+02  0.45594000000E+02  0.51100000000E-03 0.  1.
    9900012    2    1    2    0    0 -0.26933063980E+02 -0.33965605052E+02 -0.21379924929E+01  0.47787271046E+02  0.20000000005E+02 0.  0.
         12    1    1    2    0    0  0.26933063980E+02  0.33965605052E+02  0.21379924929E+01  0.43400728954E+02  0.00000000000E+00 0. -1.
         11    1    3    3    0    0 -0.45160043308E-01  0.16080904358E+01  0.23789729744E+01  0.28718473067E+01  0.51100000000E-03 0. -1.
        -11    1    3    3    0    0 -0.11787446328E+02 -0.16551007215E+02 -0.71459033671E+00  0.20332003600E+02  0.51100000000E-03 0.  1.
         12    1    3    3    0    0 -0.15100457608E+02 -0.19022688273E+02 -0.38023751305E+01  0.24583420139E+02  0.00000000000E+00 0. -1.
</event>
<event>
 7    1  0.2476315E-009  0.4778726E+02  0.7816164E-02  0.1312668E+00
        -11   -1    0    0    0    0  0.00000000000E+00  0.00000000000E+00  0.45593999997E+02  0.45594000000E+02  0.51100000000E-03 0.  1.
         11   -1    0    0    0    0 -0.00000000000E+00 -0.00000000000E+00 -0.45593999997E+02  0.45594000000E+02  0.51100000000E-03 0. -1.
    9900012    2    1    2    0    0 -0.24605705119E+02  0.19286389186E+00  0.35751173064E+02  0.47787259265E+02  0.19999946293E+02 0.  0.
         12    1    1    2    0    0  0.24605705119E+02 -0.19286389186E+00 -0.35751173064E+02  0.43400740735E+02  0.00000000000E+00 0. -1.
         11    1    3    3    0    0 -0.85041684985E+01  0.54643259051E+01  0.21107569297E+02  0.23403188272E+02  0.51100000000E-03 0. -1.
        -11    1    3    3    0    0 -0.89572076417E+01  0.44598152948E+00  0.11761140979E+02  0.14790365298E+02  0.51100000000E-03 0.  1.
         12    1    3    3    0    0 -0.71443289787E+01 -0.57174435427E+01  0.28824627882E+01  0.95937056941E+01  0.00000000000E+00 0. -1.
</event>
<event>
 7    1  0.2476315E-009  0.4778727E+02  0.7816164E-02  0.1312668E+00
        -11   -1    0    0    0    0  0.00000000000E+00  0.00000000000E+00  0.45593999997E+02  0.45594000000E+02  0.51100000000E-03 0.  1.
         11   -1    0    0    0    0 -0.00000000000E+00 -0.00000000000E+00 -0.45593999997E+02  0.45594000000E+02  0.51100000000E-03 0. -1.
    9900012    2    1    2    0    0  0.11894385021E+02 -0.13970117747E+02  0.39331704920E+02  0.47787267324E+02  0.19999983035E+02 0.  0.
         12    1    1    2    0    0 -0.11894385021E+02  0.13970117747E+02 -0.39331704920E+02  0.43400732676E+02  0.00000000000E+00 0. -1.
         11    1    3    3    0    0  0.83577231350E+01 -0.13752861495E+02  0.15371033220E+02  0.22254469165E+02  0.51100000000E-03 0.  1.
        -11    1    3    3    0    0  0.16413023165E+01  0.38371463983E+01  0.90706467575E+01  0.99846982246E+01  0.51100000000E-03 0. -1.
         12    1    3    3    0    0  0.18953595694E+01 -0.40544026504E+01  0.14890024943E+02  0.15548099934E+02  0.00000000000E+00 0. -1.
</event>
<event>
 7    1  0.2476315E-009  0.4778727E+02  0.7816164E-02  0.1312668E+00
        -11   -1    0    0    0    0  0.00000000000E+00  0.00000000000E+00  0.45593999997E+02  0.45594000000E+02  0.51100000000E-03 0.  1.
         11   -1    0    0    0    0 -0.00000000000E+00 -0.00000000000E+00 -0.45593999997E+02  0.45594000000E+02  0.51100000000E-03 0. -1.
    9900012    2    1    2    0    0  0.12487248526E+02 -0.21054226217E+02  0.35838687755E+02  0.47787270083E+02  0.19999995614E+02 0.  0.
         12    1    1    2    0    0 -0.12487248526E+02  0.21054226217E+02 -0.35838687755E+02  0.43400729917E+02  0.00000000000E+00 0. -1.
         11    1    3    3    0    0  0.43916244123E+01 -0.22414024774E+02  0.25137581650E+02  0.33964288348E+02  0.51100000000E-03 0. -1.
        -11    1    3    3    0    0  0.70508426743E+01  0.96841038541E+00  0.70998550906E+01  0.10052867435E+02  0.51100000000E-03 0.  1.
         12    1    3    3    0    0  0.10447814399E+01  0.39138817181E+00  0.36012510150E+01  0.37701142995E+01  0.00000000000E+00 0. -1.
</event>
<event>
 7    1  0.2476315E-009  0.4778726E+02  0.7816164E-02  0.1312668E+00
        -11   -1    0    0    0    0  0.00000000000E+00  0.00000000000E+00  0.45593999997E+02  0.45594000000E+02  0.51100000000E-03 0. -1.
         11   -1    0    0    0    0 -0.00000000000E+00 -0.00000000000E+00 -0.45593999997E+02  0.45594000000E+02  0.51100000000E-03 0.  1.
    9900012    2    1    2    0    0 -0.25082794280E+02 -0.16825073029E+02 -0.31167208766E+02  0.47787256302E+02  0.19999932783E+02 0.  0.
         12    1    1    2    0    0  0.25082794280E+02  0.16825073029E+02  0.31167208766E+02  0.43400743698E+02  0.00000000000E+00 0. -1.
         11    1    3    3    0    0 -0.18471816568E+02 -0.80231651823E+01 -0.21446127406E+02  0.29419645950E+02  0.51100000000E-03 0. -1.
        -11    1    3    3    0    0 -0.95725516426E-01 -0.13368370532E+01  0.23776334295E+01  0.27293657995E+01  0.51100000000E-03 0.  1.
        -12    1    3    3    0    0 -0.65152521953E+01 -0.74650707933E+01 -0.12098714789E+02  0.15638244552E+02  0.00000000000E+00 0.  1.
</event>
<event>
 7    1  0.2476315E-009  0.4778727E+02  0.7816164E-02  0.1312668E+00
        -11   -1    0    0    0    0  0.00000000000E+00  0.00000000000E+00  0.45593999997E+02  0.45594000000E+02  0.51100000000E-03 0. -1.
         11   -1    0    0    0    0 -0.00000000000E+00 -0.00000000000E+00 -0.45593999997E+02  0.45594000000E+02  0.51100000000E-03 0.  1.
    9900012    2    1    2    0    0  0.15761923464E+02  0.17479730189E+02 -0.36464291191E+02  0.47787265780E+02  0.19999975997E+02 0.  0.
         12    1    1    2    0    0 -0.15761923464E+02 -0.17479730189E+02  0.36464291191E+02  0.43400734220E+02  0.00000000000E+00 0. -1.
         11    1    3    3    0    0  0.12387514180E+02  0.11796743327E+02 -0.30096587651E+02  0.34618178016E+02  0.51100000000E-03 0. -1.
        -11    1    3    3    0    0  0.40159003876E+01  0.79021873000E+01 -0.36082464790E+01  0.95703428863E+01  0.51100000000E-03 0.  1.
         12    1    3    3    0    0 -0.64149110325E+00 -0.22192004381E+01 -0.27594570611E+01  0.35987448773E+01  0.00000000000E+00 0. -1.
</event>
<event>
 7    1  0.2476315E-009  0.4778728E+02  0.7816164E-02  0.1312668E+00
        -11   -1    0    0    0    0  0.00000000000E+00  0.00000000000E+00  0.45593999997E+02  0.45594000000E+02  0.51100000000E-03 0.  1.
         11   -1    0    0    0    0 -0.00000000000E+00 -0.00000000000E+00 -0.45593999997E+02  0.45594000000E+02  0.51100000000E-03 0. -1.
    9900012    2    1    2    0    0  0.15775728339E+02  0.16856337846E+02  0.36750686091E+02  0.47787278136E+02  0.20000032331E+02 0.  0.
         12    1    1    2    0    0 -0.15775728339E+02 -0.16856337846E+02 -0.36750686091E+02  0.43400721864E+02  0.00000000000E+00 0. -1.
         11    1    3    3    0    0  0.11575470796E+02  0.10080140835E+02  0.12462712298E+02  0.19771695969E+02  0.51100000000E-03 0. -1.
        -11    1    3    3    0    0  0.58550720698E+01  0.47241206397E+01  0.62348587967E+01  0.97710106558E+01  0.51100000000E-03 0.  1.
         12    1    3    3    0    0 -0.16548145269E+01  0.20520763718E+01  0.18053114996E+02  0.18244571511E+02  0.00000000000E+00 0. -1.
</event>
<event>
 7    1  0.2476315E-009  0.4778727E+02  0.7816164E-02  0.1312668E+00
        -11   -1    0    0    0    0  0.00000000000E+00  0.00000000000E+00  0.45593999997E+02  0.45594000000E+02  0.51100000000E-03 0.  1.
         11   -1    0    0    0    0 -0.00000000000E+00 -0.00000000000E+00 -0.45593999997E+02  0.45594000000E+02  0.51100000000E-03 0. -1.
    9900012    2    1    2    0    0  0.39117179258E+02 -0.16513458751E+02  0.89875088212E+01  0.47787270192E+02  0.19999996113E+02 0.  0.
         12    1    1    2    0    0 -0.39117179258E+02  0.16513458751E+02 -0.89875088212E+01  0.43400729808E+02  0.00000000000E+00 0. -1.
         11    1    3    3    0    0  0.22417398132E+02 -0.19337070604E+02  0.83093246859E+01  0.30749096174E+02  0.51100000000E-03 0. -1.
        -11    1    3    3    0    0  0.10310335177E+02  0.89280761863E+00  0.50003504538E+00  0.10360991855E+02  0.51100000000E-03 0.  1.
         12    1    3    3    0    0  0.63894459494E+01  0.19308042346E+01  0.17814908997E+00  0.66771821625E+01  0.00000000000E+00 0. -1.
</event>
<event>
 7    1  0.2476315E-009  0.4778727E+02  0.7816164E-02  0.1312668E+00
        -11   -1    0    0    0    0  0.00000000000E+00  0.00000000000E+00  0.45593999997E+02  0.45594000000E+02  0.51100000000E-03 0.  1.
         11   -1    0    0    0    0 -0.00000000000E+00 -0.00000000000E+00 -0.45593999997E+02  0.45594000000E+02  0.51100000000E-03 0. -1.
    9900012    2    1    2    0    0  0.13879377183E+02 -0.14658799046E+02  0.38420127659E+02  0.47787266023E+02  0.19999977104E+02 0.  0.
         12    1    1    2    0    0 -0.13879377183E+02  0.14658799046E+02 -0.38420127659E+02  0.43400733977E+02  0.00000000000E+00 0. -1.
         11    1    3    3    0    0 -0.27616960656E+01 -0.20983060381E+01  0.10639671925E+02  0.11190731536E+02  0.51100000000E-03 0. -1.
        -11    1    3    3    0    0  0.10107887146E+02 -0.70074351198E+00  0.98796814105E+01  0.14151626375E+02  0.51100000000E-03 0.  1.
        -12    1    3    3    0    0  0.65331861028E+01 -0.11859749496E+02  0.17900774323E+02  0.22444908112E+02  0.00000000000E+00 0.  1.
</event>
<event>
 7    1  0.2476315E-009  0.4778728E+02  0.7816164E-02  0.1312668E+00
        -11   -1    0    0    0    0  0.00000000000E+00  0.00000000000E+00  0.45593999997E+02  0.45594000000E+02  0.51100000000E-03 0.  1.
         11   -1    0    0    0    0 -0.00000000000E+00 -0.00000000000E+00 -0.45593999997E+02  0.45594000000E+02  0.51100000000E-03 0. -1.
    9900012    2    1    2    0    0 -0.17137571082E+02  0.35129401999E+02  0.18864027495E+02  0.47787276956E+02  0.20000026954E+02 0.  0.
         12    1    1    2    0    0  0.17137571082E+02 -0.35129401999E+02 -0.18864027495E+02  0.43400723044E+02  0.00000000000E+00 0. -1.
         11    1    3    3    0    0  0.38385031048E+01  0.88397463697E+01  0.72189453403E+01  0.12041112658E+02  0.51100000000E-03 0. -1.
        -11    1    3    3    0    0 -0.10884605810E+02  0.15481574900E+02  0.52815054074E+01  0.19648106897E+02  0.51100000000E-03 0.  1.
         12    1    3    3    0    0 -0.10091468377E+02  0.10808080729E+02  0.63635767472E+01  0.16098057400E+02  0.00000000000E+00 0. -1.
</event>
<event>
 7    1  0.2476315E-009  0.4778727E+02  0.7816164E-02  0.1312668E+00
        -11   -1    0    0    0    0  0.00000000000E+00  0.00000000000E+00  0.45593999997E+02  0.45594000000E+02  0.51100000000E-03 0.  1.
         11   -1    0    0    0    0 -0.00000000000E+00 -0.00000000000E+00 -0.45593999997E+02  0.45594000000E+02  0.51100000000E-03 0. -1.
    9900012    2    1    2    0    0 -0.54427684283E+01 -0.25240774704E+02  0.34884135024E+02  0.47787270603E+02  0.19999997986E+02 0.  0.
         12    1    1    2    0    0  0.54427684283E+01  0.25240774704E+02 -0.34884135024E+02  0.43400729397E+02  0.00000000000E+00 0. -1.
         11    1    3    3    0    0 -0.13539841564E+01 -0.69999966541E+01 -0.31346837142E+00  0.71366300824E+01  0.51100000000E-03 0. -1.
        -11    1    3    3    0    0 -0.29235408739E-03 -0.15267479773E+02  0.25767393653E+02  0.29950868345E+02  0.51100000000E-03 0.  1.
         12    1    3    3    0    0 -0.40884919177E+01 -0.29732982768E+01  0.94302097432E+01  0.10699772175E+02  0.00000000000E+00 0. -1.
</event>
<event>
 7    1  0.2476315E-009  0.4778727E+02  0.7816164E-02  0.1312668E+00
        -11   -1    0    0    0    0  0.00000000000E+00  0.00000000000E+00  0.45593999997E+02  0.45594000000E+02  0.51100000000E-03 0.  1.
         11   -1    0    0    0    0 -0.00000000000E+00 -0.00000000000E+00 -0.45593999997E+02  0.45594000000E+02  0.51100000000E-03 0. -1.
    9900012    2    1    2    0    0 -0.27660234306E+02 -0.32208223139E+02  0.90091513820E+01  0.47787274104E+02  0.20000013951E+02 0.  0.
         12    1    1    2    0    0  0.27660234306E+02  0.32208223139E+02 -0.90091513820E+01  0.43400725896E+02  0.00000000000E+00 0. -1.
         11    1    3    3    0    0 -0.26792909806E+01 -0.12990956123E+02  0.80722511242E+01  0.15527549054E+02  0.51100000000E-03 0. -1.
        -11    1    3    3    0    0 -0.97828272846E+01 -0.35265690942E+01  0.49341536683E+00  0.10410756853E+02  0.51100000000E-03 0.  1.
        -12    1    3    3    0    0 -0.15198116040E+02 -0.15690697923E+02  0.44348489098E+00  0.21848968198E+02  0.00000000000E+00 0.  1.
</event>
<event>
 7    1  0.2476315E-009  0.4778727E+02  0.7816164E-02  0.1312668E+00
        -11   -1    0    0    0    0  0.00000000000E+00  0.00000000000E+00  0.45593999997E+02  0.45594000000E+02  0.51100000000E-03 0.  1.
         11   -1    0    0    0    0 -0.00000000000E+00 -0.00000000000E+00 -0.45593999997E+02  0.45594000000E+02  0.51100000000E-03 0. -1.
    9900012    2    1    2    0    0  0.22954701344E+01 -0.43336770709E+02  0.52759736567E+00  0.47787271462E+02  0.20000001905E+02 0.  0.
         12    1    1    2    0    0 -0.22954701344E+01  0.43336770709E+02 -0.52759736567E+00  0.43400728538E+02  0.00000000000E+00 0. -1.
         11    1    3    3    0    0 -0.38039802268E+01 -0.27506687926E+01 -0.17043011997E+01  0.49941052464E+01  0.51100000000E-03 0. -1.
        -11    1    3    3    0    0  0.36673796746E+01 -0.37386721132E+02  0.50225683689E+01  0.37900432503E+02  0.51100000000E-03 0.  1.
         12    1    3    3    0    0  0.24320706865E+01 -0.31993807847E+01 -0.27906698035E+01  0.48927337125E+01  0.00000000000E+00 0. -1.
</event>
<event>
 7    1  0.2476315E-009  0.4778722E+02  0.7816164E-02  0.1312668E+00
        -11   -1    0    0    0    0  0.00000000000E+00  0.00000000000E+00  0.45593999997E+02  0.45594000000E+02  0.51100000000E-03 0. -1.
         11   -1    0    0    0    0 -0.00000000000E+00 -0.00000000000E+00 -0.45593999997E+02  0.45594000000E+02  0.51100000000E-03 0.  1.
    9900012    2    1    2    0    0  0.67205347235E+01 -0.11412332253E+01 -0.42862103403E+02  0.47787217652E+02  0.19999756563E+02 0.  0.
         12    1    1    2    0    0 -0.67205347235E+01  0.11412332253E+01  0.42862103403E+02  0.43400782348E+02  0.00000000000E+00 0. -1.
         11    1    3    3    0    0  0.14598947810E+01  0.12107082859E+01 -0.22174643882E+01  0.29179197897E+01  0.51100000000E-03 0. -1.
        -11    1    3    3    0    0  0.30730801377E+01  0.73359299395E+01 -0.25883641970E+02  0.27078083601E+02  0.51100000000E-03 0.  1.
        -12    1    3    3    0    0  0.21875598048E+01 -0.96878714507E+01 -0.14760997045E+02  0.17791214262E+02  0.00000000000E+00 0.  1.
</event>
<event>
 7    1  0.2476315E-009  0.4778729E+02  0.7816164E-02  0.1312668E+00
        -11   -1    0    0    0    0  0.00000000000E+00  0.00000000000E+00  0.45593999997E+02  0.45594000000E+02  0.51100000000E-03 0.  1.
         11   -1    0    0    0    0 -0.00000000000E+00 -0.00000000000E+00 -0.45593999997E+02  0.45594000000E+02  0.51100000000E-03 0. -1.
    9900012    2    1    2    0    0  0.46123240708E+01  0.41919913025E+02  0.10250333849E+02  0.47787285889E+02  0.20000067682E+02 0.  0.
         12    1    1    2    0    0 -0.46123240708E+01 -0.41919913025E+02 -0.10250333849E+02  0.43400714111E+02  0.00000000000E+00 0. -1.
         11    1    3    3    0    0  0.46006961819E+01  0.18667368939E+02  0.13345798612E+02  0.23404004130E+02  0.51100000000E-03 0. -1.
        -11    1    3    3    0    0  0.22258133654E+01  0.56960163815E+01  0.10591690012E+01  0.62065036043E+01  0.51100000000E-03 0.  1.
         12    1    3    3    0    0 -0.22141854766E+01  0.17556527705E+02 -0.41546337647E+01  0.18176778155E+02  0.00000000000E+00 0. -1.
</event>
<event>
 7    1  0.2476315E-009  0.4778727E+02  0.7816164E-02  0.1312668E+00
        -11   -1    0    0    0    0  0.00000000000E+00  0.00000000000E+00  0.45593999997E+02  0.45594000000E+02  0.51100000000E-03 0. -1.
         11   -1    0    0    0    0 -0.00000000000E+00 -0.00000000000E+00 -0.45593999997E+02  0.45594000000E+02  0.51100000000E-03 0.  1.
    9900012    2    1    2    0    0 -0.30368182932E+02 -0.21572653318E+02 -0.22271453835E+02  0.47787267728E+02  0.19999984880E+02 0.  0.
         12    1    1    2    0    0  0.30368182932E+02  0.21572653318E+02  0.22271453835E+02  0.43400732272E+02  0.00000000000E+00 0. -1.
         11    1    3    3    0    0 -0.21947229596E+02 -0.24168891705E+02 -0.14682739938E+02  0.35796634835E+02  0.51100000000E-03 0.  1.
        -11    1    3    3    0    0 -0.43335728073E+01  0.16058181501E+01 -0.58109526610E+01  0.74246667465E+01  0.51100000000E-03 0. -1.
        -12    1    3    3    0    0 -0.40873805293E+01  0.99042023694E+00 -0.17777612368E+01  0.45659661466E+01  0.00000000000E+00 0.  1.
</event>
<event>
 7    1  0.2476315E-009  0.4778727E+02  0.7816164E-02  0.1312668E+00
        -11   -1    0    0    0    0  0.00000000000E+00  0.00000000000E+00  0.45593999997E+02  0.45594000000E+02  0.51100000000E-03 0.  1.
         11   -1    0    0    0    0 -0.00000000000E+00 -0.00000000000E+00 -0.45593999997E+02  0.45594000000E+02  0.51100000000E-03 0. -1.
    9900012    2    1    2    0    0 -0.12714848953E+02  0.15069840459E+02  0.38663366315E+02  0.47787269935E+02  0.19999994940E+02 0.  0.
         12    1    1    2    0    0  0.12714848953E+02 -0.15069840459E+02 -0.38663366315E+02  0.43400730065E+02  0.00000000000E+00 0. -1.
         11    1    3    3    0    0 -0.85333482740E+01  0.13628710886E+02  0.15503302376E+02  0.22336342091E+02  0.51100000000E-03 0. -1.
        -11    1    3    3    0    0 -0.44766730890E+01  0.46147135303E+01  0.98354647387E+01  0.11750427643E+02  0.51100000000E-03 0.  1.
         12    1    3    3    0    0  0.29517240960E+00 -0.31735839575E+01  0.13324599201E+02  0.13700500201E+02  0.00000000000E+00 0. -1.
</event>
<event>
 7    1  0.2476315E-009  0.4778727E+02  0.7816164E-02  0.1312668E+00
        -11   -1    0    0    0    0  0.00000000000E+00  0.00000000000E+00  0.45593999997E+02  0.45594000000E+02  0.51100000000E-03 0.  1.
         11   -1    0    0    0    0 -0.00000000000E+00 -0.00000000000E+00 -0.45593999997E+02  0.45594000000E+02  0.51100000000E-03 0. -1.
    9900012    2    1    2    0    0  0.14507632189E+02  0.30045460286E+02  0.27756481221E+02  0.47787270452E+02  0.19999997300E+02 0.  0.
         12    1    1    2    0    0 -0.14507632189E+02 -0.30045460286E+02 -0.27756481221E+02  0.43400729548E+02  0.00000000000E+00 0. -1.
         11    1    3    3    0    0  0.31266173908E+01  0.44366105951E+01  0.17984023199E+01  0.57178231038E+01  0.51100000000E-03 0. -1.
        -11    1    3    3    0    0 -0.92047434217E+00 -0.42473183910E+00 -0.18056215402E+01  0.20707340625E+01  0.51100000000E-03 0.  1.
        -12    1    3    3    0    0  0.12301489141E+02  0.26033581530E+02  0.27763700441E+02  0.39998713286E+02  0.00000000000E+00 0.  1.
</event>
<event>
 7    1  0.2476315E-009  0.4778729E+02  0.7816164E-02  0.1312668E+00
        -11   -1    0    0    0    0  0.00000000000E+00  0.00000000000E+00  0.45593999997E+02  0.45594000000E+02  0.51100000000E-03 0.  1.
         11   -1    0    0    0    0 -0.00000000000E+00 -0.00000000000E+00 -0.45593999997E+02  0.45594000000E+02  0.51100000000E-03 0. -1.
    9900012    2    1    2    0    0  0.17296953352E+02  0.10767001906E+02  0.38321126194E+02  0.47787289889E+02  0.20000085922E+02 0.  0.
         12    1    1    2    0    0 -0.17296953352E+02 -0.10767001906E+02 -0.38321126194E+02  0.43400710111E+02  0.00000000000E+00 0. -1.
         11    1    3    3    0    0  0.16654606549E-01  0.39992787056E+00  0.37010486238E+01  0.37226309050E+01  0.51100000000E-03 0. -1.
        -11    1    3    3    0    0  0.15647914663E+02  0.14271898571E+02  0.33589120198E+02  0.39708605088E+02  0.51100000000E-03 0.  1.
        -12    1    3    3    0    0  0.16323840828E+01 -0.39048245355E+01  0.10309573727E+01  0.43560538967E+01  0.00000000000E+00 0.  1.
</event>
<event>
 7    1  0.2476315E-009  0.4778727E+02  0.7816164E-02  0.1312668E+00
        -11   -1    0    0    0    0  0.00000000000E+00  0.00000000000E+00  0.45593999997E+02  0.45594000000E+02  0.51100000000E-03 0.  1.
         11   -1    0    0    0    0 -0.00000000000E+00 -0.00000000000E+00 -0.45593999997E+02  0.45594000000E+02  0.51100000000E-03 0. -1.
    9900012    2    1    2    0    0  0.20730252529E+02 -0.25526434616E+02  0.28324564167E+02  0.47787272248E+02  0.20000005490E+02 0.  0.
         12    1    1    2    0    0 -0.20730252529E+02  0.25526434616E+02 -0.28324564167E+02  0.43400727752E+02  0.00000000000E+00 0. -1.
         11    1    3    3    0    0  0.18429019980E+02 -0.18977344441E+02  0.13168046553E+02  0.29549379515E+02  0.51100000000E-03 0. -1.
        -11    1    3    3    0    0  0.34086934701E+01 -0.14151956417E+01  0.22969358188E+01  0.43471696878E+01  0.51100000000E-03 0.  1.
         12    1    3    3    0    0 -0.11074609211E+01 -0.51338945327E+01  0.12859581796E+02  0.13890723046E+02  0.00000000000E+00 0. -1.
</event>
<event>
 7    1  0.2476315E-009  0.4778729E+02  0.7816164E-02  0.1312668E+00
        -11   -1    0    0    0    0  0.00000000000E+00  0.00000000000E+00  0.45593999997E+02  0.45594000000E+02  0.51100000000E-03 0.  1.
         11   -1    0    0    0    0 -0.00000000000E+00 -0.00000000000E+00 -0.45593999997E+02  0.45594000000E+02  0.51100000000E-03 0. -1.
    9900012    2    1    2    0    0  0.37478226924E+02 -0.10858903955E+02  0.19002327676E+02  0.47787288651E+02  0.20000080275E+02 0.  0.
         12    1    1    2    0    0 -0.37478226924E+02  0.10858903955E+02 -0.19002327676E+02  0.43400711349E+02  0.00000000000E+00 0. -1.
         11    1    3    3    0    0 -0.94725555585E+00 -0.39698619706E+00  0.23232465468E+01  0.25401507646E+01  0.51100000000E-03 0. -1.
        -11    1    3    3    0    0  0.34126197123E+02 -0.42660063810E+01  0.12291823070E+02  0.36522391148E+02  0.51100000000E-03 0.  1.
        -12    1    3    3    0    0  0.42992853571E+01 -0.61959113766E+01  0.43872580599E+01  0.87247467386E+01  0.00000000000E+00 0.  1.
</event>
<event>
 7    1  0.2476315E-009  0.4778727E+02  0.7816164E-02  0.1312668E+00
        -11   -1    0    0    0    0  0.00000000000E+00  0.00000000000E+00  0.45593999997E+02  0.45594000000E+02  0.51100000000E-03 0.  1.
         11   -1    0    0    0    0 -0.00000000000E+00 -0.00000000000E+00 -0.45593999997E+02  0.45594000000E+02  0.51100000000E-03 0. -1.
    9900012    2    1    2    0    0  0.30860495924E+02  0.15151771143E+02  0.26489189699E+02  0.47787267882E+02  0.19999985582E+02 0.  0.
         12    1    1    2    0    0 -0.30860495924E+02 -0.15151771143E+02 -0.26489189699E+02  0.43400732118E+02  0.00000000000E+00 0. -1.
         11    1    3    3    0    0  0.49548946378E+01  0.47375672286E-01  0.14167059638E+02  0.15008624333E+02  0.51100000000E-03 0. -1.
        -11    1    3    3    0    0  0.13933670854E+02  0.53872244008E+01  0.55254066095E+01  0.15927946782E+02  0.51100000000E-03 0.  1.
         12    1    3    3    0    0  0.11971930432E+02  0.97171710697E+01  0.67967234517E+01  0.16850696768E+02  0.00000000000E+00 0. -1.
</event>
<event>
 7    1  0.2476315E-009  0.4778726E+02  0.7816164E-02  0.1312668E+00
        -11   -1    0    0    0    0  0.00000000000E+00  0.00000000000E+00  0.45593999997E+02  0.45594000000E+02  0.51100000000E-03 0.  1.
         11   -1    0    0    0    0 -0.00000000000E+00 -0.00000000000E+00 -0.45593999997E+02  0.45594000000E+02  0.51100000000E-03 0. -1.
    9900012    2    1    2    0    0  0.10324731249E+02  0.40573975551E+02  0.11435768453E+02  0.47787258446E+02  0.19999942558E+02 0.  0.
         12    1    1    2    0    0 -0.10324731249E+02 -0.40573975551E+02 -0.11435768453E+02  0.43400741554E+02  0.00000000000E+00 0. -1.
         11    1    3    3    0    0 -0.15783364832E+01  0.53898119638E+01 -0.34471420557E+01  0.65896894975E+01  0.51100000000E-03 0. -1.
        -11    1    3    3    0    0 -0.79218048785E+00  0.10820345877E+02  0.29373154937E+01  0.11239895791E+02  0.51100000000E-03 0.  1.
         12    1    3    3    0    0  0.12695248220E+02  0.24363817710E+02  0.11945595015E+02  0.29957673158E+02  0.00000000000E+00 0. -1.
</event>
<event>
 7    1  0.2476315E-009  0.4778727E+02  0.7816164E-02  0.1312668E+00
        -11   -1    0    0    0    0  0.00000000000E+00  0.00000000000E+00  0.45593999997E+02  0.45594000000E+02  0.51100000000E-03 0. -1.
         11   -1    0    0    0    0 -0.00000000000E+00 -0.00000000000E+00 -0.45593999997E+02  0.45594000000E+02  0.51100000000E-03 0.  1.
    9900012    2    1    2    0    0 -0.36434031193E+01 -0.43104460597E+02  0.35148728092E+01  0.47787271429E+02  0.20000001753E+02 0.  0.
         12    1    1    2    0    0  0.36434031193E+01  0.43104460597E+02 -0.35148728092E+01  0.43400728571E+02  0.00000000000E+00 0. -1.
         11    1    3    3    0    0  0.37289658021E+01 -0.50255901612E+01  0.35056839912E+01  0.71729744826E+01  0.51100000000E-03 0. -1.
        -11    1    3    3    0    0 -0.67766926161E+01 -0.32345707628E+02 -0.44238140121E+01  0.33342742771E+02  0.51100000000E-03 0.  1.
        -12    1    3    3    0    0 -0.59567630525E+00 -0.57331628075E+01  0.44330028301E+01  0.72715541757E+01  0.00000000000E+00 0.  1.
</event>
<event>
 7    1  0.2476315E-009  0.4778727E+02  0.7816164E-02  0.1312668E+00
        -11   -1    0    0    0    0  0.00000000000E+00  0.00000000000E+00  0.45593999997E+02  0.45594000000E+02  0.51100000000E-03 0.  1.
         11   -1    0    0    0    0 -0.00000000000E+00 -0.00000000000E+00 -0.45593999997E+02  0.45594000000E+02  0.51100000000E-03 0. -1.
    9900012    2    1    2    0    0  0.21798013983E+02 -0.23114974289E+02  0.29566324517E+02  0.47787274252E+02  0.20000014625E+02 0.  0.
         12    1    1    2    0    0 -0.21798013983E+02  0.23114974289E+02 -0.29566324517E+02  0.43400725748E+02  0.00000000000E+00 0. -1.
         11    1    3    3    0    0  0.54611268443E+00 -0.89278645997E+01  0.67946244924E+01  0.11232627815E+02  0.51100000000E-03 0. -1.
        -11    1    3    3    0    0  0.21196762031E+02 -0.13802357493E+02  0.24241031921E+02  0.35034774465E+02  0.51100000000E-03 0.  1.
         12    1    3    3    0    0  0.55139267666E-01 -0.38475219587E+00 -0.14693318960E+01  0.15198719721E+01  0.00000000000E+00 0. -1.
</event>
<event>
 7    1  0.2476315E-009  0.4778727E+02  0.7816164E-02  0.1312668E+00
        -11   -1    0    0    0    0  0.00000000000E+00  0.00000000000E+00  0.45593999997E+02  0.45594000000E+02  0.51100000000E-03 0.  1.
         11   -1    0    0    0    0 -0.00000000000E+00 -0.00000000000E+00 -0.45593999997E+02  0.45594000000E+02  0.51100000000E-03 0. -1.
    9900012    2    1    2    0    0 -0.25350907043E+02  0.25515611754E+02  0.24288037485E+02  0.47787266182E+02  0.19999977830E+02 0.  0.
         12    1    1    2    0    0  0.25350907043E+02 -0.25515611754E+02 -0.24288037485E+02  0.43400733818E+02  0.00000000000E+00 0. -1.
         11    1    3    3    0    0 -0.44637813665E+01  0.17659843219E+01 -0.25204912058E+01  0.54218927407E+01  0.51100000000E-03 0. -1.
        -11    1    3    3    0    0 -0.18061826097E+02  0.23753009902E+02  0.25500875513E+02  0.39252129797E+02  0.51100000000E-03 0.  1.
        -12    1    3    3    0    0 -0.28252995800E+01 -0.33824708091E-02  0.13076531774E+01  0.31132436445E+01  0.00000000000E+00 0.  1.
</event>
<event>
 7    1  0.2476315E-009  0.4778727E+02  0.7816164E-02  0.1312668E+00
        -11   -1    0    0    0    0  0.00000000000E+00  0.00000000000E+00  0.45593999997E+02  0.45594000000E+02  0.51100000000E-03 0. -1.
         11   -1    0    0    0    0 -0.00000000000E+00 -0.00000000000E+00 -0.45593999997E+02  0.45594000000E+02  0.51100000000E-03 0.  1.
    9900012    2    1    2    0    0  0.33441453932E+02  0.17562419417E+02 -0.21374132565E+02  0.47787274663E+02  0.20000016499E+02 0.  0.
         12    1    1    2    0    0 -0.33441453932E+02 -0.17562419417E+02  0.21374132565E+02  0.43400725337E+02  0.00000000000E+00 0. -1.
         11    1    3    3    0    0  0.13996894321E+02  0.14825206990E+02 -0.14580122839E+02  0.25065510072E+02  0.51100000000E-03 0. -1.
        -11    1    3    3    0    0  0.91153253125E+00  0.28206737314E+01 -0.20085435349E+01  0.35806897726E+01  0.51100000000E-03 0.  1.
         12    1    3    3    0    0  0.18533027080E+02 -0.83461304205E-01 -0.47854661914E+01  0.19141074818E+02  0.00000000000E+00 0. -1.
</event>
<event>
 7    1  0.2476315E-009  0.4778727E+02  0.7816164E-02  0.1312668E+00
        -11   -1    0    0    0    0  0.00000000000E+00  0.00000000000E+00  0.45593999997E+02  0.45594000000E+02  0.51100000000E-03 0.  1.
         11   -1    0    0    0    0 -0.00000000000E+00 -0.00000000000E+00 -0.45593999997E+02  0.45594000000E+02  0.51100000000E-03 0. -1.
    9900012    2    1    2    0    0  0.77121050677E+01 -0.10106264765E+02  0.41497109449E+02  0.47787271380E+02  0.20000001530E+02 0.  0.
         12    1    1    2    0    0 -0.77121050677E+01  0.10106264765E+02 -0.41497109449E+02  0.43400728620E+02  0.00000000000E+00 0. -1.
         11    1    3    3    0    0 -0.47844871425E+01 -0.66034262522E+01  0.23877934808E+02  0.25231970324E+02  0.51100000000E-03 0. -1.
        -11    1    3    3    0    0  0.82920443855E+01 -0.16304623729E+00  0.79137101387E+01  0.11463480823E+02  0.51100000000E-03 0.  1.
         12    1    3    3    0    0  0.42045478247E+01 -0.33397922758E+01  0.97054645032E+01  0.11091820233E+02  0.00000000000E+00 0. -1.
</event>
<event>
 7    1  0.2476315E-009  0.4778727E+02  0.7816164E-02  0.1312668E+00
        -11   -1    0    0    0    0  0.00000000000E+00  0.00000000000E+00  0.45593999997E+02  0.45594000000E+02  0.51100000000E-03 0.  1.
         11   -1    0    0    0    0 -0.00000000000E+00 -0.00000000000E+00 -0.45593999997E+02  0.45594000000E+02  0.51100000000E-03 0. -1.
    9900012    2    1    2    0    0  0.40118693562E+02 -0.16441952394E+02  0.19431509632E+01  0.47787271811E+02  0.20000003493E+02 0.  0.
         12    1    1    2    0    0 -0.40118693562E+02  0.16441952394E+02 -0.19431509632E+01  0.43400728189E+02  0.00000000000E+00 0. -1.
         11    1    3    3    0    0  0.93848421056E+01 -0.21988112087E+01 -0.15588847310E+01  0.97642282820E+01  0.51100000000E-03 0. -1.
        -11    1    3    3    0    0  0.17221228772E+02  0.53819540697E-01  0.59029675066E+01  0.18204907103E+02  0.51100000000E-03 0.  1.
        -12    1    3    3    0    0  0.13512622685E+02 -0.14296960726E+02 -0.24009318124E+01  0.19818136426E+02  0.00000000000E+00 0.  1.
</event>
<event>
 7    1  0.2476315E-009  0.4778727E+02  0.7816164E-02  0.1312668E+00
        -11   -1    0    0    0    0  0.00000000000E+00  0.00000000000E+00  0.45593999997E+02  0.45594000000E+02  0.51100000000E-03 0.  1.
         11   -1    0    0    0    0 -0.00000000000E+00 -0.00000000000E+00 -0.45593999997E+02  0.45594000000E+02  0.51100000000E-03 0. -1.
    9900012    2    1    2    0    0  0.40730226230E+02 -0.12754995905E+02  0.78728610676E+01  0.47787272003E+02  0.20000004372E+02 0.  0.
         12    1    1    2    0    0 -0.40730226230E+02  0.12754995905E+02 -0.78728610676E+01  0.43400727997E+02  0.00000000000E+00 0. -1.
         11    1    3    3    0    0  0.11682101549E+02  0.46027134336E+01  0.55759805246E+01  0.13738559845E+02  0.51100000000E-03 0. -1.
        -11    1    3    3    0    0  0.17074124500E+02 -0.10350940003E+02 -0.11621846908E+00  0.19967002614E+02  0.51100000000E-03 0.  1.
        -12    1    3    3    0    0  0.11974000181E+02 -0.70067693353E+01  0.24130990122E+01  0.14081709544E+02  0.00000000000E+00 0.  1.
</event>
<event>
 7    1  0.2476315E-009  0.4778726E+02  0.7816164E-02  0.1312668E+00
        -11   -1    0    0    0    0  0.00000000000E+00  0.00000000000E+00  0.45593999997E+02  0.45594000000E+02  0.51100000000E-03 0. -1.
         11   -1    0    0    0    0 -0.00000000000E+00 -0.00000000000E+00 -0.45593999997E+02  0.45594000000E+02  0.51100000000E-03 0.  1.
    9900012    2    1    2    0    0  0.14434483539E+02 -0.34984868484E+02 -0.21244503703E+02  0.47787259506E+02  0.19999947389E+02 0.  0.
         12    1    1    2    0    0 -0.14434483539E+02  0.34984868484E+02  0.21244503703E+02  0.43400740494E+02  0.00000000000E+00 0. -1.
         11    1    3    3    0    0  0.72244844121E+01 -0.94677353895E+01  0.73235178985E+00  0.11931786448E+02  0.51100000000E-03 0. -1.
        -11    1    3    3    0    0  0.57070461614E+01 -0.55258770104E+01 -0.38493117173E+01  0.88273944955E+01  0.51100000000E-03 0.  1.
         12    1    3    3    0    0  0.15029529657E+01 -0.19991256084E+02 -0.18127543776E+02  0.27028078562E+02  0.00000000000E+00 0. -1.
</event>
<event>
 7    1  0.2476315E-009  0.4778725E+02  0.7816164E-02  0.1312668E+00
        -11   -1    0    0    0    0  0.00000000000E+00  0.00000000000E+00  0.45593999997E+02  0.45594000000E+02  0.51100000000E-03 0.  1.
         11   -1    0    0    0    0 -0.00000000000E+00 -0.00000000000E+00 -0.45593999997E+02  0.45594000000E+02  0.51100000000E-03 0. -1.
    9900012    2    1    2    0    0  0.38567305218E+02 -0.86861634799E+01  0.17909165862E+02  0.47787254734E+02  0.19999925634E+02 0.  0.
         12    1    1    2    0    0 -0.38567305218E+02  0.86861634799E+01 -0.17909165862E+02  0.43400745266E+02  0.00000000000E+00 0. -1.
         11    1    3    3    0    0  0.23243582293E+02  0.18132356638E+01  0.23020165000E+01  0.23427573959E+02  0.51100000000E-03 0. -1.
        -11    1    3    3    0    0  0.11096009822E+02 -0.87066100235E+01  0.11484445912E+02  0.18188430120E+02  0.51100000000E-03 0.  1.
         12    1    3    3    0    0  0.42277131031E+01 -0.17927891202E+01  0.41227034499E+01  0.61712506550E+01  0.00000000000E+00 0. -1.
</event>
<event>
 7    1  0.2476315E-009  0.4778727E+02  0.7816164E-02  0.1312668E+00
        -11   -1    0    0    0    0  0.00000000000E+00  0.00000000000E+00  0.45593999997E+02  0.45594000000E+02  0.51100000000E-03 0.  1.
         11   -1    0    0    0    0 -0.00000000000E+00 -0.00000000000E+00 -0.45593999997E+02  0.45594000000E+02  0.51100000000E-03 0. -1.
    9900012    2    1    2    0    0 -0.12611171437E+02  0.41485731196E+02 -0.18750251132E+01  0.47787271238E+02  0.20000000884E+02 0.  0.
         12    1    1    2    0    0  0.12611171437E+02 -0.41485731196E+02  0.18750251132E+01  0.43400728762E+02  0.00000000000E+00 0. -1.
         11    1    3    3    0    0 -0.11154645906E+01  0.76461423113E+01 -0.26506303435E+01  0.81690632864E+01  0.51100000000E-03 0. -1.
        -11    1    3    3    0    0 -0.40381755107E+01  0.30761131272E+02 -0.19915649619E+01  0.31088911043E+02  0.51100000000E-03 0.  1.
        -12    1    3    3    0    0 -0.74575313352E+01  0.30784576130E+01  0.27671701921E+01  0.85292969090E+01  0.00000000000E+00 0.  1.
</event>
<event>
 7    1 -0.2476315E-009  0.4778727E+02  0.7816164E-02  0.1312668E+00
        -11   -1    0    0    0    0  0.00000000000E+00  0.00000000000E+00  0.45593999997E+02  0.45594000000E+02  0.51100000000E-03 0.  1.
         11   -1    0    0    0    0 -0.00000000000E+00 -0.00000000000E+00 -0.45593999997E+02  0.45594000000E+02  0.51100000000E-03 0. -1.
    9900012    2    1    2    0    0  0.25451755825E+02 -0.33178288305E+02  0.11620355416E+02  0.47787270174E+02  0.19999996031E+02 0.  0.
         12    1    1    2    0    0 -0.25451755825E+02  0.33178288305E+02 -0.11620355416E+02  0.43400729826E+02  0.00000000000E+00 0. -1.
         11    1    3    3    0    0  0.25944153219E+01  0.58639637086E+00 -0.39976153282E+00  0.26897325351E+01  0.51100000000E-03 0. -1.
        -11    1    3    3    0    0  0.20711245531E+02 -0.23228513927E+02  0.33805674921E+01  0.31304117740E+02  0.51100000000E-03 0.  1.
        -12    1    3    3    0    0  0.21460949728E+01 -0.10536170749E+02  0.86395494565E+01  0.13793419899E+02  0.00000000000E+00 0.  1.
</event>
<event>
 7    1  0.2476315E-009  0.4778727E+02  0.7816164E-02  0.1312668E+00
        -11   -1    0    0    0    0  0.00000000000E+00  0.00000000000E+00  0.45593999997E+02  0.45594000000E+02  0.51100000000E-03 0.  1.
         11   -1    0    0    0    0 -0.00000000000E+00 -0.00000000000E+00 -0.45593999997E+02  0.45594000000E+02  0.51100000000E-03 0. -1.
    9900012    2    1    2    0    0  0.17317772959E+02 -0.11646784010E+02  0.38053519055E+02  0.47787272466E+02  0.20000006482E+02 0.  0.
         12    1    1    2    0    0 -0.17317772959E+02  0.11646784010E+02 -0.38053519055E+02  0.43400727534E+02  0.00000000000E+00 0. -1.
         11    1    3    3    0    0  0.16740073076E+02 -0.30015027385E+01  0.13809845390E+02  0.21907781614E+02  0.51100000000E-03 0. -1.
        -11    1    3    3    0    0  0.87699024625E-01 -0.55144309576E+01  0.11593818830E+02  0.12838741185E+02  0.51100000000E-03 0.  1.
         12    1    3    3    0    0  0.49000085836E+00 -0.31308503134E+01  0.12649854835E+02  0.13040749667E+02  0.00000000000E+00 0. -1.
</event>
<event>
 7    1  0.2476315E-009  0.4778727E+02  0.7816164E-02  0.1312668E+00
        -11   -1    0    0    0    0  0.00000000000E+00  0.00000000000E+00  0.45593999997E+02  0.45594000000E+02  0.51100000000E-03 0. -1.
         11   -1    0    0    0    0 -0.00000000000E+00 -0.00000000000E+00 -0.45593999997E+02  0.45594000000E+02  0.51100000000E-03 0.  1.
    9900012    2    1    2    0    0 -0.47970010081E+01  0.42323284436E+02 -0.83277812493E+01  0.47787267695E+02  0.19999984728E+02 0.  0.
         12    1    1    2    0    0  0.47970010081E+01 -0.42323284436E+02  0.83277812493E+01  0.43400732305E+02  0.00000000000E+00 0. -1.
         11    1    3    3    0    0 -0.15521134878E+01  0.17638130164E+01 -0.53405262878E+01  0.58344934594E+01  0.51100000000E-03 0. -1.
        -11    1    3    3    0    0 -0.26609860340E+01  0.24705843120E+02 -0.65410370363E+01  0.25695227119E+02  0.51100000000E-03 0.  1.
         12    1    3    3    0    0 -0.58390148630E+00  0.15853628299E+02  0.35537820748E+01  0.16257547116E+02  0.00000000000E+00 0. -1.
</event>
<event>
 7    1  0.2476315E-009  0.4778727E+02  0.7816164E-02  0.1312668E+00
        -11   -1    0    0    0    0  0.00000000000E+00  0.00000000000E+00  0.45593999997E+02  0.45594000000E+02  0.51100000000E-03 0. -1.
         11   -1    0    0    0    0 -0.00000000000E+00 -0.00000000000E+00 -0.45593999997E+02  0.45594000000E+02  0.51100000000E-03 0.  1.
    9900012    2    1    2    0    0 -0.26928173540E+02 -0.35499182240E+01 -0.33851070140E+02  0.47787269600E+02  0.19999993416E+02 0.  0.
         12    1    1    2    0    0  0.26928173540E+02  0.35499182240E+01  0.33851070140E+02  0.43400730400E+02  0.00000000000E+00 0. -1.
         11    1    3    3    0    0  0.15772634338E+01  0.48791792166E+00  0.84789619510E+00  0.18560043256E+01  0.51100000000E-03 0. -1.
        -11    1    3    3    0    0 -0.17891408842E+02 -0.61004789623E+01 -0.18456351843E+02  0.26418843228E+02  0.51100000000E-03 0.  1.
        -12    1    3    3    0    0 -0.10614028132E+02  0.20626428166E+01 -0.16242614492E+02  0.19512422046E+02  0.00000000000E+00 0.  1.
</event>
<event>
 7    1  0.2476315E-009  0.4778727E+02  0.7816164E-02  0.1312668E+00
        -11   -1    0    0    0    0  0.00000000000E+00  0.00000000000E+00  0.45593999997E+02  0.45594000000E+02  0.51100000000E-03 0.  1.
         11   -1    0    0    0    0 -0.00000000000E+00 -0.00000000000E+00 -0.45593999997E+02  0.45594000000E+02  0.51100000000E-03 0. -1.
    9900012    2    1    2    0    0  0.25010902692E+02  0.34482632992E+02 -0.83082045973E+01  0.47787268495E+02  0.19999988375E+02 0.  0.
         12    1    1    2    0    0 -0.25010902692E+02 -0.34482632992E+02  0.83082045973E+01  0.43400731505E+02  0.00000000000E+00 0. -1.
         11    1    3    3    0    0 -0.67303321251E+00  0.14142163850E+02 -0.22608875177E+01  0.14337551559E+02  0.51100000000E-03 0. -1.
        -11    1    3    3    0    0  0.13773032632E+02  0.10468379643E+02 -0.46656666753E+01  0.17917919690E+02  0.51100000000E-03 0.  1.
         12    1    3    3    0    0  0.11910903273E+02  0.98720894989E+01 -0.13816504043E+01  0.15531797246E+02  0.00000000000E+00 0. -1.
</event>
<event>
 7    1  0.2476315E-009  0.4778726E+02  0.7816164E-02  0.1312668E+00
        -11   -1    0    0    0    0  0.00000000000E+00  0.00000000000E+00  0.45593999997E+02  0.45594000000E+02  0.51100000000E-03 0. -1.
         11   -1    0    0    0    0 -0.00000000000E+00 -0.00000000000E+00 -0.45593999997E+02  0.45594000000E+02  0.51100000000E-03 0.  1.
    9900012    2    1    2    0    0 -0.15331853024E+02  0.86711750711E+00 -0.40593184273E+02  0.47787260152E+02  0.19999950337E+02 0.  0.
         12    1    1    2    0    0  0.15331853024E+02 -0.86711750711E+00  0.40593184273E+02  0.43400739848E+02  0.00000000000E+00 0. -1.
         11    1    3    3    0    0 -0.11335124536E+02 -0.51381878097E+01 -0.15626178262E+02  0.19976573018E+02  0.51100000000E-03 0. -1.
        -11    1    3    3    0    0 -0.36537748769E+01  0.59531559136E+01 -0.71687524222E+01  0.10009053289E+02  0.51100000000E-03 0.  1.
         12    1    3    3    0    0 -0.34295361116E+00  0.52149403160E-01 -0.17798253589E+02  0.17801633845E+02  0.00000000000E+00 0. -1.
</event>
<event>
 7    1  0.2476315E-009  0.4778727E+02  0.7816164E-02  0.1312668E+00
        -11   -1    0    0    0    0  0.00000000000E+00  0.00000000000E+00  0.45593999997E+02  0.45594000000E+02  0.51100000000E-03 0.  1.
         11   -1    0    0    0    0 -0.00000000000E+00 -0.00000000000E+00 -0.45593999997E+02  0.45594000000E+02  0.51100000000E-03 0. -1.
    9900012    2    1    2    0    0  0.18461655951E+02 -0.22663014498E+02  0.32080809008E+02  0.47787271052E+02  0.20000000035E+02 0.  0.
         12    1    1    2    0    0 -0.18461655951E+02  0.22663014498E+02 -0.32080809008E+02  0.43400728948E+02  0.00000000000E+00 0. -1.
         11    1    3    3    0    0  0.81165091967E+01 -0.23549703703E+01  0.41154068003E+01  0.94000095946E+01  0.51100000000E-03 0. -1.
        -11    1    3    3    0    0  0.12372703883E+02 -0.18462504719E+02  0.27866276471E+02  0.35643754663E+02  0.51100000000E-03 0.  1.
        -12    1    3    3    0    0 -0.20275571285E+01 -0.18455394087E+01  0.99125736574E-01  0.27435067943E+01  0.00000000000E+00 0.  1.
</event>
<event>
 7    1  0.2476315E-009  0.4778727E+02  0.7816164E-02  0.1312668E+00
        -11   -1    0    0    0    0  0.00000000000E+00  0.00000000000E+00  0.45593999997E+02  0.45594000000E+02  0.51100000000E-03 0. -1.
         11   -1    0    0    0    0 -0.00000000000E+00 -0.00000000000E+00 -0.45593999997E+02  0.45594000000E+02  0.51100000000E-03 0.  1.
    9900012    2    1    2    0    0 -0.42753887664E+02 -0.51401695040E+01 -0.54135996624E+01  0.47787270580E+02  0.19999997882E+02 0.  0.
         12    1    1    2    0    0  0.42753887664E+02  0.51401695040E+01  0.54135996624E+01  0.43400729420E+02  0.00000000000E+00 0. -1.
         11    1    3    3    0    0 -0.20725587676E+01 -0.18678577552E+01 -0.37489808541E+01  0.46732483504E+01  0.51100000000E-03 0. -1.
        -11    1    3    3    0    0 -0.24678884579E+02  0.37984814578E+01 -0.45559387638E+01  0.25381733269E+02  0.51100000000E-03 0.  1.
        -12    1    3    3    0    0 -0.16002444317E+02 -0.70707932066E+01  0.28913199555E+01  0.17732288960E+02  0.00000000000E+00 0.  1.
</event>
<event>
 7    1  0.2476315E-009  0.4778727E+02  0.7816164E-02  0.1312668E+00
        -11   -1    0    0    0    0  0.00000000000E+00  0.00000000000E+00  0.45593999997E+02  0.45594000000E+02  0.51100000000E-03 0.  1.
         11   -1    0    0    0    0 -0.00000000000E+00 -0.00000000000E+00 -0.45593999997E+02  0.45594000000E+02  0.51100000000E-03 0. -1.
    9900012    2    1    2    0    0 -0.41946951588E+02 -0.46621935890E+01 -0.10116345977E+02  0.47787271290E+02  0.20000001120E+02 0.  0.
         12    1    1    2    0    0  0.41946951588E+02  0.46621935890E+01  0.10116345977E+02  0.43400728710E+02  0.00000000000E+00 0. -1.
         11    1    3    3    0    0 -0.28401687598E+01  0.27308775202E+01 -0.56564633823E+01  0.68934627635E+01  0.51100000000E-03 0. -1.
        -11    1    3    3    0    0 -0.32705559740E+02 -0.43677925402E+01 -0.99400110619E+00  0.33010896505E+02  0.51100000000E-03 0.  1.
        -12    1    3    3    0    0 -0.64012230886E+01 -0.30252785690E+01 -0.34658814886E+01  0.78829120218E+01  0.00000000000E+00 0.  1.
</event>
<event>
 7    1  0.2476315E-009  0.4778727E+02  0.7816164E-02  0.1312668E+00
        -11   -1    0    0    0    0  0.00000000000E+00  0.00000000000E+00  0.45593999997E+02  0.45594000000E+02  0.51100000000E-03 0.  1.
         11   -1    0    0    0    0 -0.00000000000E+00 -0.00000000000E+00 -0.45593999997E+02  0.45594000000E+02  0.51100000000E-03 0. -1.
    9900012    2    1    2    0    0 -0.42856546243E+02 -0.32320837496E+01  0.60409762991E+01  0.47787270561E+02  0.19999997794E+02 0.  0.
         12    1    1    2    0    0  0.42856546243E+02  0.32320837496E+01 -0.60409762991E+01  0.43400729439E+02  0.00000000000E+00 0. -1.
         11    1    3    3    0    0 -0.12013586486E+02  0.13067858729E+01  0.90766642453E+01  0.15113562904E+02  0.51100000000E-03 0. -1.
        -11    1    3    3    0    0 -0.31236912241E+02 -0.35909766430E+01 -0.32954072877E+01  0.31614862155E+02  0.51100000000E-03 0.  1.
        -12    1    3    3    0    0  0.39395248408E+00 -0.94789297951E+00  0.25971934146E+00  0.10588455018E+01  0.00000000000E+00 0.  1.
</event>
<event>
 7    1  0.2476315E-009  0.4778727E+02  0.7816164E-02  0.1312668E+00
        -11   -1    0    0    0    0  0.00000000000E+00  0.00000000000E+00  0.45593999997E+02  0.45594000000E+02  0.51100000000E-03 0.  1.
         11   -1    0    0    0    0 -0.00000000000E+00 -0.00000000000E+00 -0.45593999997E+02  0.45594000000E+02  0.51100000000E-03 0. -1.
    9900012    2    1    2    0    0  0.55927192968E+00  0.10005807362E+01  0.43385588039E+02  0.47787271937E+02  0.20000004070E+02 0.  0.
         12    1    1    2    0    0 -0.55927192968E+00 -0.10005807362E+01 -0.43385588039E+02  0.43400728063E+02  0.00000000000E+00 0. -1.
         11    1    3    3    0    0 -0.77700930261E+01  0.21342398268E+01  0.26785973651E+02  0.27971730550E+02  0.51100000000E-03 0. -1.
        -11    1    3    3    0    0  0.27970350897E+00 -0.50632723274E+00 -0.58869007840E+00  0.82532271814E+00  0.51100000000E-03 0.  1.
         12    1    3    3    0    0  0.80496614468E+01 -0.62733185779E+00  0.17188304467E+02  0.18990218669E+02  0.00000000000E+00 0. -1.
</event>
<event>
 7    1  0.2476315E-009  0.4778727E+02  0.7816164E-02  0.1312668E+00
        -11   -1    0    0    0    0  0.00000000000E+00  0.00000000000E+00  0.45593999997E+02  0.45594000000E+02  0.51100000000E-03 0. -1.
         11   -1    0    0    0    0 -0.00000000000E+00 -0.00000000000E+00 -0.45593999997E+02  0.45594000000E+02  0.51100000000E-03 0.  1.
    9900012    2    1    2    0    0  0.36587902396E+02 -0.17910414915E+02 -0.14972173488E+02  0.47787267943E+02  0.19999985858E+02 0.  0.
         12    1    1    2    0    0 -0.36587902396E+02  0.17910414915E+02  0.14972173488E+02  0.43400732057E+02  0.00000000000E+00 0. -1.
         11    1    3    3    0    0  0.50807371913E+01  0.15507731245E+01 -0.82924355073E+01  0.98480086614E+01  0.51100000000E-03 0. -1.
        -11    1    3    3    0    0  0.15131734077E+02 -0.12157682699E+02 -0.37977005765E+01  0.19778805695E+02  0.51100000000E-03 0.  1.
         12    1    3    3    0    0  0.16375431128E+02 -0.73035053401E+01 -0.28820374045E+01  0.18160453587E+02  0.00000000000E+00 0. -1.
</event>
<event>
 7    1  0.2476315E-009  0.4778727E+02  0.7816164E-02  0.1312668E+00
        -11   -1    0    0    0    0  0.00000000000E+00  0.00000000000E+00  0.45593999997E+02  0.45594000000E+02  0.51100000000E-03 0. -1.
         11   -1    0    0    0    0 -0.00000000000E+00 -0.00000000000E+00 -0.45593999997E+02  0.45594000000E+02  0.51100000000E-03 0.  1.
    9900012    2    1    2    0    0  0.24324223509E+02  0.15042934040E+02 -0.32644536095E+02  0.47787269008E+02  0.19999990713E+02 0.  0.
         12    1    1    2    0    0 -0.24324223509E+02 -0.15042934040E+02  0.32644536095E+02  0.43400730992E+02  0.00000000000E+00 0. -1.
         11    1    3    3    0    0 -0.11580617253E+00 -0.16850507597E-01  0.13478319633E+01  0.13529029054E+01  0.51100000000E-03 0. -1.
        -11    1    3    3    0    0  0.12360622186E+02  0.57286754249E+01 -0.25640395322E+02  0.29035023257E+02  0.51100000000E-03 0.  1.
        -12    1    3    3    0    0  0.12079407495E+02  0.93311091222E+01 -0.83519727356E+01  0.17399342846E+02  0.00000000000E+00 0.  1.
</event>
<event>
 7    1  0.2476315E-009  0.4778728E+02  0.7816164E-02  0.1312668E+00
        -11   -1    0    0    0    0  0.00000000000E+00  0.00000000000E+00  0.45593999997E+02  0.45594000000E+02  0.51100000000E-03 0. -1.
         11   -1    0    0    0    0 -0.00000000000E+00 -0.00000000000E+00 -0.45593999997E+02  0.45594000000E+02  0.51100000000E-03 0.  1.
    9900012    2    1    2    0    0  0.26208616646E+02  0.26690444760E+02 -0.22007982392E+02  0.47787277460E+02  0.20000029252E+02 0.  0.
         12    1    1    2    0    0 -0.26208616646E+02 -0.26690444760E+02  0.22007982392E+02  0.43400722540E+02  0.00000000000E+00 0. -1.
         11    1    3    3    0    0  0.20180544370E+02  0.15089654665E+02 -0.15211216171E+02  0.29433537787E+02  0.51100000000E-03 0.  1.
        -11    1    3    3    0    0  0.29520461806E+01  0.62965981922E+01  0.23511756097E+01  0.73409640004E+01  0.51100000000E-03 0. -1.
        -12    1    3    3    0    0  0.30760260956E+01  0.53041919028E+01 -0.91479418312E+01  0.11012775673E+02  0.00000000000E+00 0.  1.
</event>
<event>
 7    1  0.2476315E-009  0.4778727E+02  0.7816164E-02  0.1312668E+00
        -11   -1    0    0    0    0  0.00000000000E+00  0.00000000000E+00  0.45593999997E+02  0.45594000000E+02  0.51100000000E-03 0.  1.
         11   -1    0    0    0    0 -0.00000000000E+00 -0.00000000000E+00 -0.45593999997E+02  0.45594000000E+02  0.51100000000E-03 0. -1.
    9900012    2    1    2    0    0 -0.41063978223E+02 -0.98450032035E+01  0.10022434039E+02  0.47787267522E+02  0.19999983938E+02 0.  0.
         12    1    1    2    0    0  0.41063978223E+02  0.98450032035E+01 -0.10022434039E+02  0.43400732478E+02  0.00000000000E+00 0. -1.
         11    1    3    3    0    0 -0.22982848093E+02 -0.11298234107E+02  0.44775989467E+01  0.25998274808E+02  0.51100000000E-03 0. -1.
        -11    1    3    3    0    0 -0.14927236023E+00  0.30459572773E+01  0.47589966490E+00  0.30865221082E+01  0.51100000000E-03 0.  1.
        -12    1    3    3    0    0 -0.17931857770E+02 -0.15927263743E+01  0.50689354275E+01  0.18702470605E+02  0.00000000000E+00 0.  1.
</event>
<event>
 7    1  0.2476315E-009  0.4778727E+02  0.7816164E-02  0.1312668E+00
        -11   -1    0    0    0    0  0.00000000000E+00  0.00000000000E+00  0.45593999997E+02  0.45594000000E+02  0.51100000000E-03 0. -1.
         11   -1    0    0    0    0 -0.00000000000E+00 -0.00000000000E+00 -0.45593999997E+02  0.45594000000E+02  0.51100000000E-03 0.  1.
    9900012    2    1    2    0    0 -0.13204327927E+01 -0.32755607025E+02 -0.28442050662E+02  0.47787267515E+02  0.19999983907E+02 0.  0.
         12    1    1    2    0    0  0.13204327927E+01  0.32755607025E+02  0.28442050662E+02  0.43400732485E+02  0.00000000000E+00 0. -1.
         11    1    3    3    0    0  0.53681438050E+00 -0.65155791843E+01 -0.90278009341E+00  0.65996934735E+01  0.51100000000E-03 0. -1.
        -11    1    3    3    0    0  0.15010991070E+01 -0.10162678368E+02 -0.14725571464E+01  0.10377945604E+02  0.51100000000E-03 0.  1.
        -12    1    3    3    0    0 -0.33583462801E+01 -0.16077349473E+02 -0.26066713423E+02  0.30809628438E+02  0.00000000000E+00 0.  1.
</event>
<event>
 7    1  0.2476315E-009  0.4778727E+02  0.7816164E-02  0.1312668E+00
        -11   -1    0    0    0    0  0.00000000000E+00  0.00000000000E+00  0.45593999997E+02  0.45594000000E+02  0.51100000000E-03 0.  1.
         11   -1    0    0    0    0 -0.00000000000E+00 -0.00000000000E+00 -0.45593999997E+02  0.45594000000E+02  0.51100000000E-03 0. -1.
    9900012    2    1    2    0    0  0.69636488272E+01 -0.36562862731E+02  0.22322366481E+02  0.47787269806E+02  0.19999994354E+02 0.  0.
         12    1    1    2    0    0 -0.69636488272E+01  0.36562862731E+02 -0.22322366481E+02  0.43400730194E+02  0.00000000000E+00 0. -1.
         11    1    3    3    0    0  0.54355268984E+01 -0.89890576750E+00  0.50903445520E+01  0.75009727476E+01  0.51100000000E-03 0.  1.
        -11    1    3    3    0    0  0.43284229195E+01 -0.23668819597E+02  0.10545927292E+02  0.26270988729E+02  0.51100000000E-03 0. -1.
         12    1    3    3    0    0 -0.28003009907E+01 -0.11995137366E+02  0.66860946365E+01  0.14015308329E+02  0.00000000000E+00 0. -1.
</event>
<event>
 7    1  0.2476315E-009  0.4778725E+02  0.7816164E-02  0.1312668E+00
        -11   -1    0    0    0    0  0.00000000000E+00  0.00000000000E+00  0.45593999997E+02  0.45594000000E+02  0.51100000000E-03 0. -1.
         11   -1    0    0    0    0 -0.00000000000E+00 -0.00000000000E+00 -0.45593999997E+02  0.45594000000E+02  0.51100000000E-03 0.  1.
    9900012    2    1    2    0    0 -0.19832004205E+02  0.11824784526E+02 -0.36749028453E+02  0.47787251019E+02  0.19999908694E+02 0.  0.
         12    1    1    2    0    0  0.19832004205E+02 -0.11824784526E+02  0.36749028453E+02  0.43400748981E+02  0.00000000000E+00 0. -1.
         11    1    3    3    0    0 -0.64915411033E+01  0.21711546616E+00 -0.46601368476E+01  0.79940052991E+01  0.51100000000E-03 0. -1.
        -11    1    3    3    0    0  0.57465220378E+00 -0.28434869031E+01 -0.16484999763E+01  0.33366443258E+01  0.51100000000E-03 0.  1.
        -12    1    3    3    0    0 -0.13915115305E+02  0.14451155963E+02 -0.30440391629E+02  0.36456601394E+02  0.00000000000E+00 0.  1.
</event>
<event>
 7    1  0.2476315E-009  0.4778724E+02  0.7816164E-02  0.1312668E+00
        -11   -1    0    0    0    0  0.00000000000E+00  0.00000000000E+00  0.45593999997E+02  0.45594000000E+02  0.51100000000E-03 0. -1.
         11   -1    0    0    0    0 -0.00000000000E+00 -0.00000000000E+00 -0.45593999997E+02  0.45594000000E+02  0.51100000000E-03 0.  1.
    9900012    2    1    2    0    0 -0.15999516512E+02  0.39903785037E+02 -0.59438465462E+01  0.47787240782E+02  0.19999862023E+02 0.  0.
         12    1    1    2    0    0  0.15999516512E+02 -0.39903785037E+02  0.59438465462E+01  0.43400759218E+02  0.00000000000E+00 0. -1.
         11    1    3    3    0    0  0.23941760630E+01  0.56716290237E+00  0.11622633801E+01  0.27211411585E+01  0.51100000000E-03 0. -1.
        -11    1    3    3    0    0 -0.68954258309E+01  0.16056651227E+02 -0.76969262788E+01  0.19094648999E+02  0.51100000000E-03 0.  1.
         12    1    3    3    0    0 -0.11498266744E+02  0.23279970908E+02  0.59081635244E+00  0.25971450625E+02  0.00000000000E+00 0. -1.
</event>
<event>
 7    1  0.2476315E-009  0.4778727E+02  0.7816164E-02  0.1312668E+00
        -11   -1    0    0    0    0  0.00000000000E+00  0.00000000000E+00  0.45593999997E+02  0.45594000000E+02  0.51100000000E-03 0. -1.
         11   -1    0    0    0    0 -0.00000000000E+00 -0.00000000000E+00 -0.45593999997E+02  0.45594000000E+02  0.51100000000E-03 0.  1.
    9900012    2    1    2    0    0  0.28669924629E+02  0.23404192136E+02 -0.22669416102E+02  0.47787271732E+02  0.20000003134E+02 0.  0.
         12    1    1    2    0    0 -0.28669924629E+02 -0.23404192136E+02  0.22669416102E+02  0.43400728268E+02  0.00000000000E+00 0. -1.
         11    1    3    3    0    0  0.27015121506E+02  0.12958965907E+02 -0.17895254123E+02  0.34899737932E+02  0.51100000000E-03 0. -1.
        -11    1    3    3    0    0  0.10615739045E+01  0.40081033635E+01 -0.49038856126E+01  0.64218319886E+01  0.51100000000E-03 0.  1.
         12    1    3    3    0    0  0.59322921900E+00  0.64371228651E+01  0.12972363291E+00  0.64657018109E+01  0.00000000000E+00 0. -1.
</event>
<event>
 7    1  0.2476315E-009  0.4778727E+02  0.7816164E-02  0.1312668E+00
        -11   -1    0    0    0    0  0.00000000000E+00  0.00000000000E+00  0.45593999997E+02  0.45594000000E+02  0.51100000000E-03 0.  1.
         11   -1    0    0    0    0 -0.00000000000E+00 -0.00000000000E+00 -0.45593999997E+02  0.45594000000E+02  0.51100000000E-03 0. -1.
    9900012    2    1    2    0    0  0.10761058190E+02 -0.30806325688E+01  0.41932476503E+02  0.47787271249E+02  0.20000000935E+02 0.  0.
         12    1    1    2    0    0 -0.10761058190E+02  0.30806325688E+01 -0.41932476503E+02  0.43400728751E+02  0.00000000000E+00 0. -1.
         11    1    3    3    0    0  0.52015609350E+01 -0.46915950530E+01  0.47098662682E+01  0.84409798499E+01  0.51100000000E-03 0. -1.
        -11    1    3    3    0    0  0.41070505762E+01  0.38087287830E+01  0.36015654290E+02  0.36448616347E+02  0.51100000000E-03 0.  1.
        -12    1    3    3    0    0  0.14524466788E+01 -0.21977662988E+01  0.12069559448E+01  0.28976750527E+01  0.00000000000E+00 0.  1.
</event>
<event>
 7    1  0.2476315E-009  0.4778727E+02  0.7816164E-02  0.1312668E+00
        -11   -1    0    0    0    0  0.00000000000E+00  0.00000000000E+00  0.45593999997E+02  0.45594000000E+02  0.51100000000E-03 0. -1.
         11   -1    0    0    0    0 -0.00000000000E+00 -0.00000000000E+00 -0.45593999997E+02  0.45594000000E+02  0.51100000000E-03 0.  1.
    9900012    2    1    2    0    0 -0.72462810808E+01 -0.16896596644E+02 -0.39314368400E+02  0.47787272698E+02  0.20000007538E+02 0.  0.
         12    1    1    2    0    0  0.72462810808E+01  0.16896596644E+02  0.39314368400E+02  0.43400727302E+02  0.00000000000E+00 0. -1.
         11    1    3    3    0    0 -0.93688191491E+01 -0.10426210231E+02 -0.17433909039E+02  0.22370109894E+02  0.51100000000E-03 0. -1.
        -11    1    3    3    0    0 -0.37848489186E+01 -0.28279307025E+01 -0.38416635491E+01  0.60893885145E+01  0.51100000000E-03 0.  1.
         12    1    3    3    0    0  0.59073869869E+01 -0.36424557108E+01 -0.18038795813E+02  0.19327774290E+02  0.00000000000E+00 0. -1.
</event>
<event>
 7    1  0.2476315E-009  0.4778727E+02  0.7816164E-02  0.1312668E+00
        -11   -1    0    0    0    0  0.00000000000E+00  0.00000000000E+00  0.45593999997E+02  0.45594000000E+02  0.51100000000E-03 0.  1.
         11   -1    0    0    0    0 -0.00000000000E+00 -0.00000000000E+00 -0.45593999997E+02  0.45594000000E+02  0.51100000000E-03 0. -1.
    9900012    2    1    2    0    0  0.27015496187E+02  0.32578348264E+01  0.33810835818E+02  0.47787272578E+02  0.20000006994E+02 0.  0.
         12    1    1    2    0    0 -0.27015496187E+02 -0.32578348264E+01 -0.33810835818E+02  0.43400727422E+02  0.00000000000E+00 0. -1.
         11    1    3    3    0    0 -0.22504991863E+01  0.28740136700E+01  0.40093097133E+01  0.54221089809E+01  0.51100000000E-03 0. -1.
        -11    1    3    3    0    0  0.24744001213E+02  0.16039307758E+01  0.27856268732E+02  0.37293563760E+02  0.51100000000E-03 0.  1.
         12    1    3    3    0    0  0.45219941601E+01 -0.12201096194E+01  0.19452573728E+01  0.50715998377E+01  0.00000000000E+00 0. -1.
</event>
<event>
 7    1  0.2476315E-009  0.4778731E+02  0.7816164E-02  0.1312668E+00
        -11   -1    0    0    0    0  0.00000000000E+00  0.00000000000E+00  0.45593999997E+02  0.45594000000E+02  0.51100000000E-03 0.  1.
         11   -1    0    0    0    0 -0.00000000000E+00 -0.00000000000E+00 -0.45593999997E+02  0.45594000000E+02  0.51100000000E-03 0. -1.
    9900012    2    1    2    0    0 -0.12700483661E+02 -0.36137504206E+01  0.41343181192E+02  0.47787307512E+02  0.20000166270E+02 0.  0.
         12    1    1    2    0    0  0.12700483661E+02  0.36137504206E+01 -0.41343181192E+02  0.43400692488E+02  0.00000000000E+00 0. -1.
         11    1    3    3    0    0 -0.55615490509E+01 -0.21116837078E+01  0.41137798113E+01  0.72327878805E+01  0.51100000000E-03 0. -1.
        -11    1    3    3    0    0  0.30442077506E+01  0.33180464704E+01  0.73266207651E+01  0.85997677472E+01  0.51100000000E-03 0.  1.
        -12    1    3    3    0    0 -0.10183142361E+02 -0.48201131832E+01  0.29902780616E+02  0.31954751884E+02  0.00000000000E+00 0.  1.
</event>
<event>
 7    1  0.2476315E-009  0.4778727E+02  0.7816164E-02  0.1312668E+00
        -11   -1    0    0    0    0  0.00000000000E+00  0.00000000000E+00  0.45593999997E+02  0.45594000000E+02  0.51100000000E-03 0. -1.
         11   -1    0    0    0    0 -0.00000000000E+00 -0.00000000000E+00 -0.45593999997E+02  0.45594000000E+02  0.51100000000E-03 0.  1.
    9900012    2    1    2    0    0 -0.23113181679E+02 -0.11735947905E+00 -0.36734050666E+02  0.47787269373E+02  0.19999992380E+02 0.  0.
         12    1    1    2    0    0  0.23113181679E+02  0.11735947905E+00  0.36734050666E+02  0.43400730627E+02  0.00000000000E+00 0. -1.
         11    1    3    3    0    0 -0.36575208022E+01 -0.62102413310E+01 -0.94845845069E+01  0.11912258364E+02  0.51100000000E-03 0. -1.
        -11    1    3    3    0    0 -0.18662498312E+02  0.26196916092E+01 -0.25974989699E+02  0.32091302832E+02  0.51100000000E-03 0.  1.
        -12    1    3    3    0    0 -0.79316256518E+00  0.34731902428E+01 -0.12744764608E+01  0.37837081768E+01  0.00000000000E+00 0.  1.
</event>
<event>
 7    1  0.2476315E-009  0.4778727E+02  0.7816164E-02  0.1312668E+00
        -11   -1    0    0    0    0  0.00000000000E+00  0.00000000000E+00  0.45593999997E+02  0.45594000000E+02  0.51100000000E-03 0.  1.
         11   -1    0    0    0    0 -0.00000000000E+00 -0.00000000000E+00 -0.45593999997E+02  0.45594000000E+02  0.51100000000E-03 0. -1.
    9900012    2    1    2    0    0 -0.26556192180E+02  0.31780462268E+02 -0.12976681241E+02  0.47787269809E+02  0.19999994368E+02 0.  0.
         12    1    1    2    0    0  0.26556192180E+02 -0.31780462268E+02  0.12976681241E+02  0.43400730191E+02  0.00000000000E+00 0. -1.
         11    1    3    3    0    0 -0.50433032912E+00  0.14531276159E+01 -0.65730184983E+01  0.67505926695E+01  0.51100000000E-03 0. -1.
        -11    1    3    3    0    0 -0.20010522475E+02  0.19326472422E+02 -0.61097322405E+01  0.28482667964E+02  0.51100000000E-03 0.  1.
         12    1    3    3    0    0 -0.60413393755E+01  0.11000862230E+02 -0.29393050258E+00  0.12554009176E+02  0.00000000000E+00 0. -1.
</event>
<event>
 7    1  0.2476315E-009  0.4778727E+02  0.7816164E-02  0.1312668E+00
        -11   -1    0    0    0    0  0.00000000000E+00  0.00000000000E+00  0.45593999997E+02  0.45594000000E+02  0.51100000000E-03 0.  1.
         11   -1    0    0    0    0 -0.00000000000E+00 -0.00000000000E+00 -0.45593999997E+02  0.45594000000E+02  0.51100000000E-03 0. -1.
    9900012    2    1    2    0    0 -0.21518600075E+02  0.22121679464E+02  0.30515640957E+02  0.47787271959E+02  0.20000004169E+02 0.  0.
         12    1    1    2    0    0  0.21518600075E+02 -0.22121679464E+02 -0.30515640957E+02  0.43400728041E+02  0.00000000000E+00 0. -1.
         11    1    3    3    0    0 -0.12747830604E+02  0.18141992003E+02  0.10757126317E+02  0.24644569905E+02  0.51100000000E-03 0. -1.
        -11    1    3    3    0    0 -0.94665263461E+01  0.45828318128E+01  0.15148648448E+02  0.18441773736E+02  0.51100000000E-03 0.  1.
         12    1    3    3    0    0  0.69575687515E+00 -0.60314435144E+00  0.46098661920E+01  0.47009283175E+01  0.00000000000E+00 0. -1.
</event>
<event>
 7    1  0.2476315E-009  0.4778726E+02  0.7816164E-02  0.1312668E+00
        -11   -1    0    0    0    0  0.00000000000E+00  0.00000000000E+00  0.45593999997E+02  0.45594000000E+02  0.51100000000E-03 0.  1.
         11   -1    0    0    0    0 -0.00000000000E+00 -0.00000000000E+00 -0.45593999997E+02  0.45594000000E+02  0.51100000000E-03 0. -1.
    9900012    2    1    2    0    0 -0.34245445027E+02  0.26654291121E+02  0.64997825509E+00  0.47787260237E+02  0.19999950724E+02 0.  0.
         12    1    1    2    0    0  0.34245445027E+02 -0.26654291121E+02 -0.64997825509E+00  0.43400739763E+02  0.00000000000E+00 0. -1.
         11    1    3    3    0    0 -0.23677511105E+02  0.97273008372E+01  0.39979886247E+01  0.25908084202E+02  0.51100000000E-03 0. -1.
        -11    1    3    3    0    0 -0.11461334237E+02  0.16487655814E+02 -0.42624355241E+01  0.20527380095E+02  0.51100000000E-03 0.  1.
         12    1    3    3    0    0  0.89340031475E+00  0.43933446977E+00  0.91442515449E+00  0.13517959394E+01  0.00000000000E+00 0. -1.
</event>
<event>
 7    1  0.2476315E-009  0.4778727E+02  0.7816164E-02  0.1312668E+00
        -11   -1    0    0    0    0  0.00000000000E+00  0.00000000000E+00  0.45593999997E+02  0.45594000000E+02  0.51100000000E-03 0.  1.
         11   -1    0    0    0    0 -0.00000000000E+00 -0.00000000000E+00 -0.45593999997E+02  0.45594000000E+02  0.51100000000E-03 0. -1.
    9900012    2    1    2    0    0 -0.28185191861E+01  0.17587557582E+02  0.39577227322E+02  0.47787272419E+02  0.20000006266E+02 0.  0.
         12    1    1    2    0    0  0.28185191861E+01 -0.17587557582E+02 -0.39577227322E+02  0.43400727581E+02  0.00000000000E+00 0. -1.
         11    1    3    3    0    0 -0.81331502622E+01  0.15425261048E+02  0.35369525466E+02  0.39434631271E+02  0.51100000000E-03 0. -1.
        -11    1    3    3    0    0  0.11246279933E+01 -0.10824225502E+01  0.21740621980E+01  0.26763731807E+01  0.51100000000E-03 0.  1.
         12    1    3    3    0    0  0.41900030829E+01  0.32447190848E+01  0.20336396579E+01  0.56762679669E+01  0.00000000000E+00 0. -1.
</event>
<event>
 7    1  0.2476315E-009  0.4778727E+02  0.7816164E-02  0.1312668E+00
        -11   -1    0    0    0    0  0.00000000000E+00  0.00000000000E+00  0.45593999997E+02  0.45594000000E+02  0.51100000000E-03 0.  1.
         11   -1    0    0    0    0 -0.00000000000E+00 -0.00000000000E+00 -0.45593999997E+02  0.45594000000E+02  0.51100000000E-03 0. -1.
    9900012    2    1    2    0    0  0.21691008709E+02  0.14203333226E+02  0.34805009685E+02  0.47787271518E+02  0.20000002161E+02 0.  0.
         12    1    1    2    0    0 -0.21691008709E+02 -0.14203333226E+02 -0.34805009685E+02  0.43400728482E+02  0.00000000000E+00 0. -1.
         11    1    3    3    0    0  0.71560973670E+01 -0.22008755172E+01  0.29084691157E+01  0.80319845260E+01  0.51100000000E-03 0. -1.
        -11    1    3    3    0    0  0.15014974398E+02  0.11870630559E+02  0.24946306109E+02  0.31443274556E+02  0.51100000000E-03 0.  1.
         12    1    3    3    0    0 -0.48006305572E+00  0.45335781849E+01  0.69502344600E+01  0.83120124365E+01  0.00000000000E+00 0. -1.
</event>
<event>
 7    1  0.2476315E-009  0.4778727E+02  0.7816164E-02  0.1312668E+00
        -11   -1    0    0    0    0  0.00000000000E+00  0.00000000000E+00  0.45593999997E+02  0.45594000000E+02  0.51100000000E-03 0.  1.
         11   -1    0    0    0    0 -0.00000000000E+00 -0.00000000000E+00 -0.45593999997E+02  0.45594000000E+02  0.51100000000E-03 0. -1.
    9900012    2    1    2    0    0  0.33655203688E+02  0.20772012705E+02  0.17873836393E+02  0.47787271037E+02  0.19999999968E+02 0.  0.
         12    1    1    2    0    0 -0.33655203688E+02 -0.20772012705E+02 -0.17873836393E+02  0.43400728963E+02  0.00000000000E+00 0. -1.
         11    1    3    3    0    0  0.45978394278E+01  0.83735005605E+01  0.13081791666E+01  0.96419381887E+01  0.51100000000E-03 0. -1.
        -11    1    3    3    0    0  0.11512806095E+02  0.12097804852E+02  0.96247088479E+01  0.19275284877E+02  0.51100000000E-03 0.  1.
        -12    1    3    3    0    0  0.17544558165E+02  0.30070729283E+00  0.69409483781E+01  0.18870047972E+02  0.00000000000E+00 0.  1.
</event>
<event>
 7    1  0.2476315E-009  0.4778727E+02  0.7816164E-02  0.1312668E+00
        -11   -1    0    0    0    0  0.00000000000E+00  0.00000000000E+00  0.45593999997E+02  0.45594000000E+02  0.51100000000E-03 0. -1.
         11   -1    0    0    0    0 -0.00000000000E+00 -0.00000000000E+00 -0.45593999997E+02  0.45594000000E+02  0.51100000000E-03 0.  1.
    9900012    2    1    2    0    0  0.33347088970E+01 -0.38595529324E+02 -0.19567530964E+02  0.47787269185E+02  0.19999991522E+02 0.  0.
         12    1    1    2    0    0 -0.33347088970E+01  0.38595529324E+02  0.19567530964E+02  0.43400730815E+02  0.00000000000E+00 0. -1.
         11    1    3    3    0    0 -0.70156007455E+00 -0.12860007760E+02  0.63375850560E+00  0.12894713499E+02  0.51100000000E-03 0. -1.
        -11    1    3    3    0    0 -0.30302426056E+01 -0.86374943924E+01 -0.10744360365E+02  0.14114884326E+02  0.51100000000E-03 0.  1.
        -12    1    3    3    0    0  0.70665115771E+01 -0.17098027172E+02 -0.94569291044E+01  0.20777671360E+02  0.00000000000E+00 0.  1.
</event>
<event>
 7    1  0.2476315E-009  0.4778727E+02  0.7816164E-02  0.1312668E+00
        -11   -1    0    0    0    0  0.00000000000E+00  0.00000000000E+00  0.45593999997E+02  0.45594000000E+02  0.51100000000E-03 0. -1.
         11   -1    0    0    0    0 -0.00000000000E+00 -0.00000000000E+00 -0.45593999997E+02  0.45594000000E+02  0.51100000000E-03 0.  1.
    9900012    2    1    2    0    0  0.75212644290E+00  0.23364102864E+02 -0.36567421852E+02  0.47787270309E+02  0.19999996647E+02 0.  0.
         12    1    1    2    0    0 -0.75212644290E+00 -0.23364102864E+02  0.36567421852E+02  0.43400729691E+02  0.00000000000E+00 0. -1.
         11    1    3    3    0    0  0.35508551403E+01  0.35047158336E+01 -0.23069271321E+02  0.23602603349E+02  0.51100000000E-03 0. -1.
        -11    1    3    3    0    0 -0.14108731265E+01  0.77798482227E+01 -0.54677714449E+01  0.96131746152E+01  0.51100000000E-03 0.  1.
         12    1    3    3    0    0 -0.13878555708E+01  0.12079538808E+02 -0.80303790859E+01  0.14571492345E+02  0.00000000000E+00 0. -1.
</event>
<event>
 7    1  0.2476315E-009  0.4778729E+02  0.7816164E-02  0.1312668E+00
        -11   -1    0    0    0    0  0.00000000000E+00  0.00000000000E+00  0.45593999997E+02  0.45594000000E+02  0.51100000000E-03 0.  1.
         11   -1    0    0    0    0 -0.00000000000E+00 -0.00000000000E+00 -0.45593999997E+02  0.45594000000E+02  0.51100000000E-03 0. -1.
    9900012    2    1    2    0    0  0.34791492090E+02 -0.10847234449E+02  0.23569294184E+02  0.47787285197E+02  0.20000064528E+02 0.  0.
         12    1    1    2    0    0 -0.34791492090E+02  0.10847234449E+02 -0.23569294184E+02  0.43400714803E+02  0.00000000000E+00 0. -1.
         11    1    3    3    0    0  0.16234517530E+02 -0.28840982007E+00  0.60489934521E+01  0.17327234681E+02  0.51100000000E-03 0. -1.
        -11    1    3    3    0    0  0.17288442943E+02 -0.12983911034E+02  0.13157617047E+02  0.25309980082E+02  0.51100000000E-03 0.  1.
        -12    1    3    3    0    0  0.12685316165E+01  0.24250864048E+01  0.43626836855E+01  0.51500704337E+01  0.00000000000E+00 0.  1.
</event>
<event>
 7    1  0.2476315E-009  0.4778727E+02  0.7816164E-02  0.1312668E+00
        -11   -1    0    0    0    0  0.00000000000E+00  0.00000000000E+00  0.45593999997E+02  0.45594000000E+02  0.51100000000E-03 0.  1.
         11   -1    0    0    0    0 -0.00000000000E+00 -0.00000000000E+00 -0.45593999997E+02  0.45594000000E+02  0.51100000000E-03 0. -1.
    9900012    2    1    2    0    0 -0.15202232644E+02  0.31528144568E+02  0.25661084956E+02  0.47787273528E+02  0.20000011321E+02 0.  0.
         12    1    1    2    0    0  0.15202232644E+02 -0.31528144568E+02 -0.25661084956E+02  0.43400726472E+02  0.00000000000E+00 0. -1.
         11    1    3    3    0    0  0.19665880722E+01  0.62507506656E-01  0.56597873071E+01  0.59920420940E+01  0.51100000000E-03 0. -1.
        -11    1    3    3    0    0 -0.13957629382E+02  0.29914066127E+02  0.19014438205E+02  0.38094824198E+02  0.51100000000E-03 0.  1.
        -12    1    3    3    0    0 -0.32111913333E+01  0.15515709345E+01  0.98685944397E+00  0.37004072351E+01  0.00000000000E+00 0.  1.
</event>
<event>
 7    1  0.2476315E-009  0.4778727E+02  0.7816164E-02  0.1312668E+00
        -11   -1    0    0    0    0  0.00000000000E+00  0.00000000000E+00  0.45593999997E+02  0.45594000000E+02  0.51100000000E-03 0.  1.
         11   -1    0    0    0    0 -0.00000000000E+00 -0.00000000000E+00 -0.45593999997E+02  0.45594000000E+02  0.51100000000E-03 0. -1.
    9900012    2    1    2    0    0 -0.76776693711E+01 -0.27621314233E+02  0.32584346817E+02  0.47787271153E+02  0.20000000496E+02 0.  0.
         12    1    1    2    0    0  0.76776693711E+01  0.27621314233E+02 -0.32584346817E+02  0.43400728847E+02  0.00000000000E+00 0. -1.
         11    1    3    3    0    0 -0.57750966945E+01 -0.20509004633E+01  0.12123926057E+01  0.62472258349E+01  0.51100000000E-03 0. -1.
        -11    1    3    3    0    0 -0.31303671154E+01 -0.22486833264E+02  0.30650886390E+02  0.38143593240E+02  0.51100000000E-03 0.  1.
        -12    1    3    3    0    0  0.12277944388E+01 -0.30835805053E+01  0.72106782196E+00  0.33964520783E+01  0.00000000000E+00 0.  1.
</event>
<event>
 7    1  0.2476315E-009  0.4778726E+02  0.7816164E-02  0.1312668E+00
        -11   -1    0    0    0    0  0.00000000000E+00  0.00000000000E+00  0.45593999997E+02  0.45594000000E+02  0.51100000000E-03 0.  1.
         11   -1    0    0    0    0 -0.00000000000E+00 -0.00000000000E+00 -0.45593999997E+02  0.45594000000E+02  0.51100000000E-03 0. -1.
    9900012    2    1    2    0    0 -0.40344514618E+02  0.35000730185E+01  0.15610710598E+02  0.47787255119E+02  0.19999927388E+02 0.  0.
         12    1    1    2    0    0  0.40344514618E+02 -0.35000730185E+01 -0.15610710598E+02  0.43400744881E+02  0.00000000000E+00 0. -1.
         11    1    3    3    0    0 -0.16090709509E+02  0.94164106618E+01  0.11428513997E+02  0.21867570846E+02  0.51100000000E-03 0. -1.
        -11    1    3    3    0    0 -0.14671719056E+02 -0.39439833062E+01  0.52603330243E+01  0.16077482644E+02  0.51100000000E-03 0.  1.
         12    1    3    3    0    0 -0.95820860531E+01 -0.19723543370E+01 -0.10781364233E+01  0.98422016291E+01  0.00000000000E+00 0. -1.
</event>
<event>
 7    1  0.2476315E-009  0.4778727E+02  0.7816164E-02  0.1312668E+00
        -11   -1    0    0    0    0  0.00000000000E+00  0.00000000000E+00  0.45593999997E+02  0.45594000000E+02  0.51100000000E-03 0. -1.
         11   -1    0    0    0    0 -0.00000000000E+00 -0.00000000000E+00 -0.45593999997E+02  0.45594000000E+02  0.51100000000E-03 0.  1.
    9900012    2    1    2    0    0  0.34810889867E+02 -0.13758046336E+01 -0.25883049643E+02  0.47787272465E+02  0.20000006478E+02 0.  0.
         12    1    1    2    0    0 -0.34810889867E+02  0.13758046336E+01  0.25883049643E+02  0.43400727535E+02  0.00000000000E+00 0. -1.
         11    1    3    3    0    0  0.11869728966E+01 -0.25476096419E+01 -0.59478714379E+00  0.28728020385E+01  0.51100000000E-03 0. -1.
        -11    1    3    3    0    0  0.10150630817E+01  0.37457060056E+01 -0.58629843620E+00  0.39248455584E+01  0.51100000000E-03 0.  1.
        -12    1    3    3    0    0  0.32608853889E+02 -0.25739009972E+01 -0.24701964063E+02  0.40989624868E+02  0.00000000000E+00 0.  1.
</event>
<event>
 7    1  0.2476315E-009  0.4778728E+02  0.7816164E-02  0.1312668E+00
        -11   -1    0    0    0    0  0.00000000000E+00  0.00000000000E+00  0.45593999997E+02  0.45594000000E+02  0.51100000000E-03 0. -1.
         11   -1    0    0    0    0 -0.00000000000E+00 -0.00000000000E+00 -0.45593999997E+02  0.45594000000E+02  0.51100000000E-03 0.  1.
    9900012    2    1    2    0    0 -0.33396209628E+02  0.25589476726E+02  0.10653380157E+02  0.47787278285E+02  0.20000033011E+02 0.  0.
         12    1    1    2    0    0  0.33396209628E+02 -0.25589476726E+02 -0.10653380157E+02  0.43400721715E+02  0.00000000000E+00 0. -1.
         11    1    3    3    0    0 -0.32027832231E+02  0.22444442659E+02  0.11218482299E+02  0.40686476734E+02  0.51100000000E-03 0. -1.
        -11    1    3    3    0    0 -0.10161022538E+01 -0.12947222976E+01 -0.18395422057E+01  0.24683365666E+01  0.51100000000E-03 0.  1.
         12    1    3    3    0    0 -0.35227514402E+00  0.44397563649E+01  0.12744400632E+01  0.46324649843E+01  0.00000000000E+00 0. -1.
</event>
<event>
 7    1  0.2476315E-009  0.4778727E+02  0.7816164E-02  0.1312668E+00
        -11   -1    0    0    0    0  0.00000000000E+00  0.00000000000E+00  0.45593999997E+02  0.45594000000E+02  0.51100000000E-03 0.  1.
         11   -1    0    0    0    0 -0.00000000000E+00 -0.00000000000E+00 -0.45593999997E+02  0.45594000000E+02  0.51100000000E-03 0. -1.
    9900012    2    1    2    0    0  0.15561717034E+02 -0.22556356177E+02  0.33655120662E+02  0.47787269732E+02  0.19999994014E+02 0.  0.
         12    1    1    2    0    0 -0.15561717034E+02  0.22556356177E+02 -0.33655120662E+02  0.43400730268E+02  0.00000000000E+00 0. -1.
         11    1    3    3    0    0  0.25631399438E+01 -0.10491840942E+02  0.48586086079E+01  0.11842908874E+02  0.51100000000E-03 0. -1.
        -11    1    3    3    0    0  0.80523924572E+01 -0.79235125596E+01  0.26969267264E+02  0.29239775180E+02  0.51100000000E-03 0.  1.
        -12    1    3    3    0    0  0.49461846328E+01 -0.41410026754E+01  0.18272447903E+01  0.67045856772E+01  0.00000000000E+00 0.  1.
</event>
<event>
 7    1  0.2476315E-009  0.4778727E+02  0.7816164E-02  0.1312668E+00
        -11   -1    0    0    0    0  0.00000000000E+00  0.00000000000E+00  0.45593999997E+02  0.45594000000E+02  0.51100000000E-03 0.  1.
         11   -1    0    0    0    0 -0.00000000000E+00 -0.00000000000E+00 -0.45593999997E+02  0.45594000000E+02  0.51100000000E-03 0. -1.
    9900012    2    1    2    0    0  0.35999077013E+02 -0.77144973590E+01  0.22982085657E+02  0.47787271015E+02  0.19999999865E+02 0.  0.
         12    1    1    2    0    0 -0.35999077013E+02  0.77144973590E+01 -0.22982085657E+02  0.43400728985E+02  0.00000000000E+00 0. -1.
         11    1    3    3    0    0  0.12635961297E+02 -0.50051750432E+01  0.13180430355E+01  0.13654908745E+02  0.51100000000E-03 0. -1.
        -11    1    3    3    0    0  0.17478528440E+02  0.33908470717E+01  0.16007123585E+02  0.23942113650E+02  0.51100000000E-03 0.  1.
         12    1    3    3    0    0  0.58845872762E+01 -0.61001693875E+01  0.56569190360E+01  0.10190248620E+02  0.00000000000E+00 0. -1.
</event>
<event>
 7    1  0.2476315E-009  0.4778727E+02  0.7816164E-02  0.1312668E+00
        -11   -1    0    0    0    0  0.00000000000E+00  0.00000000000E+00  0.45593999997E+02  0.45594000000E+02  0.51100000000E-03 0. -1.
         11   -1    0    0    0    0 -0.00000000000E+00 -0.00000000000E+00 -0.45593999997E+02  0.45594000000E+02  0.51100000000E-03 0.  1.
    9900012    2    1    2    0    0 -0.35863674417E+02  0.24408057494E+02 -0.12910740891E+01  0.47787270909E+02  0.19999999381E+02 0.  0.
         12    1    1    2    0    0  0.35863674417E+02 -0.24408057494E+02  0.12910740891E+01  0.43400729091E+02  0.00000000000E+00 0. -1.
         11    1    3    3    0    0 -0.16608108716E+02  0.18151278148E+02 -0.37307870054E+01  0.24884070115E+02  0.51100000000E-03 0. -1.
        -11    1    3    3    0    0 -0.13135749123E+02 -0.10975535410E+01  0.19299881554E+01  0.13322063779E+02  0.51100000000E-03 0.  1.
        -12    1    3    3    0    0 -0.61198165780E+01  0.73543328874E+01  0.50972476083E+00  0.95811370149E+01  0.00000000000E+00 0.  1.
</event>
<event>
 7    1  0.2476315E-009  0.4778728E+02  0.7816164E-02  0.1312668E+00
        -11   -1    0    0    0    0  0.00000000000E+00  0.00000000000E+00  0.45593999997E+02  0.45594000000E+02  0.51100000000E-03 0.  1.
         11   -1    0    0    0    0 -0.00000000000E+00 -0.00000000000E+00 -0.45593999997E+02  0.45594000000E+02  0.51100000000E-03 0. -1.
    9900012    2    1    2    0    0  0.66145656290E+01 -0.25413868600E+02  0.34554376105E+02  0.47787284526E+02  0.20000061468E+02 0.  0.
         12    1    1    2    0    0 -0.66145656290E+01  0.25413868600E+02 -0.34554376105E+02  0.43400715474E+02  0.00000000000E+00 0. -1.
         11    1    3    3    0    0  0.15188769128E+01  0.26347191060E+00 -0.15992460285E+01  0.22212592475E+01  0.51100000000E-03 0. -1.
        -11    1    3    3    0    0  0.41691700867E+01 -0.16867761478E+02  0.16292697982E+02  0.23819222580E+02  0.51100000000E-03 0.  1.
         12    1    3    3    0    0  0.92651862947E+00 -0.88095790321E+01  0.19860924151E+02  0.21746802699E+02  0.00000000000E+00 0. -1.
</event>
<event>
 7    1  0.2476315E-009  0.4778727E+02  0.7816164E-02  0.1312668E+00
        -11   -1    0    0    0    0  0.00000000000E+00  0.00000000000E+00  0.45593999997E+02  0.45594000000E+02  0.51100000000E-03 0.  1.
         11   -1    0    0    0    0 -0.00000000000E+00 -0.00000000000E+00 -0.45593999997E+02  0.45594000000E+02  0.51100000000E-03 0. -1.
    9900012    2    1    2    0    0 -0.12230754597E+02 -0.30362778935E+02  0.28497958821E+02  0.47787270056E+02  0.19999995494E+02 0.  0.
         12    1    1    2    0    0  0.12230754597E+02  0.30362778935E+02 -0.28497958821E+02  0.43400729944E+02  0.00000000000E+00 0. -1.
         11    1    3    3    0    0  0.18435843467E+00 -0.19198524361E+00  0.14460487788E+01  0.14703413542E+01  0.51100000000E-03 0. -1.
        -11    1    3    3    0    0 -0.15941650540E+02 -0.14976070333E+02  0.13918869510E+02  0.25925929747E+02  0.51100000000E-03 0.  1.
        -12    1    3    3    0    0  0.35265375087E+01 -0.15194723359E+02  0.13133040532E+02  0.20390998955E+02  0.00000000000E+00 0.  1.
</event>
<event>
 7    1  0.2476315E-009  0.4778728E+02  0.7816164E-02  0.1312668E+00
        -11   -1    0    0    0    0  0.00000000000E+00  0.00000000000E+00  0.45593999997E+02  0.45594000000E+02  0.51100000000E-03 0.  1.
         11   -1    0    0    0    0 -0.00000000000E+00 -0.00000000000E+00 -0.45593999997E+02  0.45594000000E+02  0.51100000000E-03 0. -1.
    9900012    2    1    2    0    0 -0.90241307122E+01  0.20061810426E+02  0.37412721681E+02  0.47787275164E+02  0.20000018782E+02 0.  0.
         12    1    1    2    0    0  0.90241307122E+01 -0.20061810426E+02 -0.37412721681E+02  0.43400724836E+02  0.00000000000E+00 0. -1.
         11    1    3    3    0    0 -0.28574277570E+01  0.19618952210E+02  0.21007548472E+02  0.28885727830E+02  0.51100000000E-03 0. -1.
        -11    1    3    3    0    0 -0.48526550076E+01  0.71052918615E+00  0.16801904932E+02  0.17503060360E+02  0.51100000000E-03 0.  1.
         12    1    3    3    0    0 -0.13140479476E+01 -0.26767096964E+00 -0.39673172306E+00  0.13984869740E+01  0.00000000000E+00 0. -1.
</event>
<event>
 7    1  0.2476315E-009  0.4778727E+02  0.7816164E-02  0.1312668E+00
        -11   -1    0    0    0    0  0.00000000000E+00  0.00000000000E+00  0.45593999997E+02  0.45594000000E+02  0.51100000000E-03 0.  1.
         11   -1    0    0    0    0 -0.00000000000E+00 -0.00000000000E+00 -0.45593999997E+02  0.45594000000E+02  0.51100000000E-03 0. -1.
    9900012    2    1    2    0    0 -0.72038124878E+01 -0.41726604046E+02  0.95194007079E+01  0.47787269713E+02  0.19999993930E+02 0.  0.
         12    1    1    2    0    0  0.72038124878E+01  0.41726604046E+02 -0.95194007079E+01  0.43400730287E+02  0.00000000000E+00 0. -1.
         11    1    3    3    0    0 -0.59282386672E+01 -0.75470916158E+01  0.54464129133E+01  0.11034764131E+02  0.51100000000E-03 0. -1.
        -11    1    3    3    0    0  0.34448866216E+01 -0.25489291213E+02  0.65816603709E+01  0.26549754497E+02  0.51100000000E-03 0.  1.
        -12    1    3    3    0    0 -0.47204604422E+01 -0.86902212176E+01 -0.25086725763E+01  0.10202751084E+02  0.00000000000E+00 0.  1.
</event>
<event>
 7    1  0.2476315E-009  0.4778730E+02  0.7816164E-02  0.1312668E+00
        -11   -1    0    0    0    0  0.00000000000E+00  0.00000000000E+00  0.45593999997E+02  0.45594000000E+02  0.51100000000E-03 0.  1.
         11   -1    0    0    0    0 -0.00000000000E+00 -0.00000000000E+00 -0.45593999997E+02  0.45594000000E+02  0.51100000000E-03 0. -1.
    9900012    2    1    2    0    0 -0.15376167382E+02 -0.22855473420E+02  0.33538358395E+02  0.47787301015E+02  0.20000136646E+02 0.  0.
         12    1    1    2    0    0  0.15376167382E+02  0.22855473420E+02 -0.33538358395E+02  0.43400698985E+02  0.00000000000E+00 0. -1.
         11    1    3    3    0    0  0.14320189271E+00 -0.53364470836E-01  0.12781228704E+02  0.12782142308E+02  0.51100000000E-03 0. -1.
        -11    1    3    3    0    0 -0.16310371766E+01 -0.38608041243E+01  0.58137571811E+01  0.71669982265E+01  0.51100000000E-03 0.  1.
         12    1    3    3    0    0 -0.13888332099E+02 -0.18941304825E+02  0.14943372510E+02  0.27838160480E+02  0.00000000000E+00 0. -1.
</event>
<event>
 7    1  0.2476315E-009  0.4778727E+02  0.7816164E-02  0.1312668E+00
        -11   -1    0    0    0    0  0.00000000000E+00  0.00000000000E+00  0.45593999997E+02  0.45594000000E+02  0.51100000000E-03 0.  1.
         11   -1    0    0    0    0 -0.00000000000E+00 -0.00000000000E+00 -0.45593999997E+02  0.45594000000E+02  0.51100000000E-03 0. -1.
    9900012    2    1    2    0    0 -0.28078794628E+02 -0.11789473783E+02  0.30922691261E+02  0.47787271496E+02  0.20000002060E+02 0.  0.
         12    1    1    2    0    0  0.28078794628E+02  0.11789473783E+02 -0.30922691261E+02  0.43400728504E+02  0.00000000000E+00 0. -1.
         11    1    3    3    0    0 -0.16818282995E+02 -0.28696018256E+01  0.50541188515E+01  0.17794194985E+02  0.51100000000E-03 0. -1.
        -11    1    3    3    0    0 -0.10350300369E+02 -0.86937780004E+01  0.20580633757E+02  0.24622611148E+02  0.51100000000E-03 0.  1.
         12    1    3    3    0    0 -0.91021126385E+00 -0.22609395750E+00  0.52879386527E+01  0.53704653632E+01  0.00000000000E+00 0. -1.
</event>
<event>
 7    1  0.2476315E-009  0.4778727E+02  0.7816164E-02  0.1312668E+00
        -11   -1    0    0    0    0  0.00000000000E+00  0.00000000000E+00  0.45593999997E+02  0.45594000000E+02  0.51100000000E-03 0. -1.
         11   -1    0    0    0    0 -0.00000000000E+00 -0.00000000000E+00 -0.45593999997E+02  0.45594000000E+02  0.51100000000E-03 0.  1.
    9900012    2    1    2    0    0 -0.37977089270E+02 -0.20377182116E+02 -0.51121739089E+01  0.47787272097E+02  0.20000004798E+02 0.  0.
         12    1    1    2    0    0  0.37977089270E+02  0.20377182116E+02  0.51121739089E+01  0.43400727903E+02  0.00000000000E+00 0. -1.
         11    1    3    3    0    0 -0.15899775543E+02 -0.78172032470E+01 -0.65214961760E+01  0.18879656817E+02  0.51100000000E-03 0. -1.
        -11    1    3    3    0    0 -0.13470079221E+02 -0.39002761046E+01  0.67711675054E+01  0.15572536645E+02  0.51100000000E-03 0.  1.
        -12    1    3    3    0    0 -0.86072345073E+01 -0.86597027648E+01 -0.53618452384E+01  0.13335078635E+02  0.00000000000E+00 0.  1.
</event>
<event>
 7    1  0.2476315E-009  0.4778729E+02  0.7816164E-02  0.1312668E+00
        -11   -1    0    0    0    0  0.00000000000E+00  0.00000000000E+00  0.45593999997E+02  0.45594000000E+02  0.51100000000E-03 0.  1.
         11   -1    0    0    0    0 -0.00000000000E+00 -0.00000000000E+00 -0.45593999997E+02  0.45594000000E+02  0.51100000000E-03 0. -1.
    9900012    2    1    2    0    0  0.17999558710E+02  0.39182067603E+02 -0.49399505158E+01  0.47787289793E+02  0.20000085480E+02 0.  0.
         12    1    1    2    0    0 -0.17999558710E+02 -0.39182067603E+02  0.49399505158E+01  0.43400710207E+02  0.00000000000E+00 0. -1.
         11    1    3    3    0    0  0.10910185207E+02  0.34281493976E+02 -0.41909401131E+01  0.36219013650E+02  0.51100000000E-03 0.  1.
        -11    1    3    3    0    0  0.70563637184E+00  0.46046150533E+01 -0.19774178832E+01  0.50606900937E+01  0.51100000000E-03 0. -1.
         12    1    3    3    0    0  0.63837371317E+01  0.29595857328E+00  0.12284074805E+01  0.65075860487E+01  0.00000000000E+00 0. -1.
</event>
<event>
 7    1  0.2476315E-009  0.4778727E+02  0.7816164E-02  0.1312668E+00
        -11   -1    0    0    0    0  0.00000000000E+00  0.00000000000E+00  0.45593999997E+02  0.45594000000E+02  0.51100000000E-03 0.  1.
         11   -1    0    0    0    0 -0.00000000000E+00 -0.00000000000E+00 -0.45593999997E+02  0.45594000000E+02  0.51100000000E-03 0. -1.
    9900012    2    1    2    0    0  0.20215154532E+01  0.31574352079E+02  0.29708534211E+02  0.47787271447E+02  0.20000001837E+02 0.  0.
         12    1    1    2    0    0 -0.20215154532E+01 -0.31574352079E+02 -0.29708534211E+02  0.43400728553E+02  0.00000000000E+00 0. -1.
         11    1    3    3    0    0  0.46531981516E+01  0.25603053212E+02  0.12395632420E+02  0.28823953410E+02  0.51100000000E-03 0. -1.
        -11    1    3    3    0    0 -0.33462914989E+01  0.61493608819E+01  0.15712552554E+02  0.17201645679E+02  0.51100000000E-03 0.  1.
         12    1    3    3    0    0  0.71460880051E+00 -0.17806201470E+00  0.16003492365E+01  0.17616723582E+01  0.00000000000E+00 0. -1.
</event>
<event>
 7    1  0.2476315E-009  0.4778727E+02  0.7816164E-02  0.1312668E+00
        -11   -1    0    0    0    0  0.00000000000E+00  0.00000000000E+00  0.45593999997E+02  0.45594000000E+02  0.51100000000E-03 0.  1.
         11   -1    0    0    0    0 -0.00000000000E+00 -0.00000000000E+00 -0.45593999997E+02  0.45594000000E+02  0.51100000000E-03 0. -1.
    9900012    2    1    2    0    0  0.28581078548E+02 -0.25337765711E+02  0.20609288972E+02  0.47787271733E+02  0.20000003138E+02 0.  0.
         12    1    1    2    0    0 -0.28581078548E+02  0.25337765711E+02 -0.20609288972E+02  0.43400728267E+02  0.00000000000E+00 0. -1.
         11    1    3    3    0    0  0.11068400267E+02 -0.19788241809E+02  0.86282046068E+01  0.24259635474E+02  0.51100000000E-03 0. -1.
        -11    1    3    3    0    0  0.74327834925E+01 -0.47470934319E+01  0.14676630048E+01  0.89406488274E+01  0.51100000000E-03 0.  1.
         12    1    3    3    0    0  0.10079894789E+02 -0.80243047019E+00  0.10513421360E+02  0.14586987431E+02  0.00000000000E+00 0. -1.
</event>
<event>
 7    1  0.2476315E-009  0.4778727E+02  0.7816164E-02  0.1312668E+00
        -11   -1    0    0    0    0  0.00000000000E+00  0.00000000000E+00  0.45593999997E+02  0.45594000000E+02  0.51100000000E-03 0.  1.
         11   -1    0    0    0    0 -0.00000000000E+00 -0.00000000000E+00 -0.45593999997E+02  0.45594000000E+02  0.51100000000E-03 0. -1.
    9900012    2    1    2    0    0 -0.14652958783E+02  0.37438172864E+02  0.16349228648E+02  0.47787271136E+02  0.20000000418E+02 0.  0.
         12    1    1    2    0    0  0.14652958783E+02 -0.37438172864E+02 -0.16349228648E+02  0.43400728864E+02  0.00000000000E+00 0. -1.
         11    1    3    3    0    0 -0.94232327097E+01  0.87566715828E+01  0.10720591479E+02  0.16745378283E+02  0.51100000000E-03 0.  1.
        -11    1    3    3    0    0  0.10827314201E+01  0.13401942773E+02 -0.38188836483E+00  0.13451030310E+02  0.51100000000E-03 0. -1.
         12    1    3    3    0    0 -0.63124574938E+01  0.15279558509E+02  0.60105255336E+01  0.17590862544E+02  0.00000000000E+00 0. -1.
</event>
<event>
 7    1  0.2476315E-009  0.4778727E+02  0.7816164E-02  0.1312668E+00
        -11   -1    0    0    0    0  0.00000000000E+00  0.00000000000E+00  0.45593999997E+02  0.45594000000E+02  0.51100000000E-03 0.  1.
         11   -1    0    0    0    0 -0.00000000000E+00 -0.00000000000E+00 -0.45593999997E+02  0.45594000000E+02  0.51100000000E-03 0. -1.
    9900012    2    1    2    0    0  0.30519408732E+02  0.37152752479E+00  0.30855321805E+02  0.47787271599E+02  0.20000002529E+02 0.  0.
         12    1    1    2    0    0 -0.30519408732E+02 -0.37152752479E+00 -0.30855321805E+02  0.43400728401E+02  0.00000000000E+00 0. -1.
         11    1    3    3    0    0  0.12838371975E+01  0.53533296713E+01  0.41424544104E+01  0.68895794736E+01  0.51100000000E-03 0. -1.
        -11    1    3    3    0    0  0.24411210351E+02 -0.74775473481E+01  0.22328686249E+02  0.33917416397E+02  0.51100000000E-03 0.  1.
        -12    1    3    3    0    0  0.48243611829E+01  0.24957452016E+01  0.43841811455E+01  0.69802757289E+01  0.00000000000E+00 0.  1.
</event>
<event>
 7    1  0.2476315E-009  0.4778727E+02  0.7816164E-02  0.1312668E+00
        -11   -1    0    0    0    0  0.00000000000E+00  0.00000000000E+00  0.45593999997E+02  0.45594000000E+02  0.51100000000E-03 0.  1.
         11   -1    0    0    0    0 -0.00000000000E+00 -0.00000000000E+00 -0.45593999997E+02  0.45594000000E+02  0.51100000000E-03 0. -1.
    9900012    2    1    2    0    0 -0.65563670742E+01  0.18664390234E+01  0.42862034103E+02  0.47787268310E+02  0.19999987531E+02 0.  0.
         12    1    1    2    0    0  0.65563670742E+01 -0.18664390234E+01 -0.42862034103E+02  0.43400731690E+02  0.00000000000E+00 0. -1.
         11    1    3    3    0    0 -0.51901650669E+01  0.41257598067E-01  0.29060619217E+01  0.59485050025E+01  0.51100000000E-03 0. -1.
        -11    1    3    3    0    0  0.49546472821E+01 -0.59644422324E+00  0.23880047078E+02  0.24395920235E+02  0.51100000000E-03 0.  1.
        -12    1    3    3    0    0 -0.63208492895E+01  0.24216256485E+01  0.16075925103E+02  0.17442843072E+02  0.00000000000E+00 0.  1.
</event>
<event>
 7    1  0.2476315E-009  0.4778727E+02  0.7816164E-02  0.1312668E+00
        -11   -1    0    0    0    0  0.00000000000E+00  0.00000000000E+00  0.45593999997E+02  0.45594000000E+02  0.51100000000E-03 0.  1.
         11   -1    0    0    0    0 -0.00000000000E+00 -0.00000000000E+00 -0.45593999997E+02  0.45594000000E+02  0.51100000000E-03 0. -1.
    9900012    2    1    2    0    0  0.98089910810E-01  0.10446015930E+02  0.42124745451E+02  0.47787273626E+02  0.20000011772E+02 0.  0.
         12    1    1    2    0    0 -0.98089910810E-01 -0.10446015930E+02 -0.42124745451E+02  0.43400726374E+02  0.00000000000E+00 0. -1.
         11    1    3    3    0    0  0.68619707284E+01  0.24260450553E+01  0.14089188651E+02  0.15858044457E+02  0.51100000000E-03 0. -1.
        -11    1    3    3    0    0 -0.28267102448E+01  0.98964803555E+01  0.15066025138E+02  0.18245978405E+02  0.51100000000E-03 0.  1.
        -12    1    3    3    0    0 -0.39371705728E+01 -0.18765094805E+01  0.12969531662E+02  0.13683250764E+02  0.00000000000E+00 0.  1.
</event>
<event>
 7    1  0.2476315E-009  0.4778727E+02  0.7816164E-02  0.1312668E+00
        -11   -1    0    0    0    0  0.00000000000E+00  0.00000000000E+00  0.45593999997E+02  0.45594000000E+02  0.51100000000E-03 0.  1.
         11   -1    0    0    0    0 -0.00000000000E+00 -0.00000000000E+00 -0.45593999997E+02  0.45594000000E+02  0.51100000000E-03 0. -1.
    9900012    2    1    2    0    0 -0.17061467628E+02  0.19110580788E+02  0.35033062109E+02  0.47787269402E+02  0.19999992512E+02 0.  0.
         12    1    1    2    0    0  0.17061467628E+02 -0.19110580788E+02 -0.35033062109E+02  0.43400730598E+02  0.00000000000E+00 0. -1.
         11    1    3    3    0    0  0.50973199019E+00  0.26522167569E+01  0.52598500733E+00  0.27514979405E+01  0.51100000000E-03 0. -1.
        -11    1    3    3    0    0 -0.73150883049E+01  0.17079054583E+02  0.20540926681E+02  0.27697189235E+02  0.51100000000E-03 0.  1.
        -12    1    3    3    0    0 -0.10256111313E+02 -0.62069055223E+00  0.13966150421E+02  0.17338582227E+02  0.00000000000E+00 0.  1.
</event>
<event>
 7    1  0.2476315E-009  0.4778727E+02  0.7816164E-02  0.1312668E+00
        -11   -1    0    0    0    0  0.00000000000E+00  0.00000000000E+00  0.45593999997E+02  0.45594000000E+02  0.51100000000E-03 0. -1.
         11   -1    0    0    0    0 -0.00000000000E+00 -0.00000000000E+00 -0.45593999997E+02  0.45594000000E+02  0.51100000000E-03 0.  1.
    9900012    2    1    2    0    0  0.40319266141E+02 -0.10021515075E+02  0.12551867148E+02  0.47787270105E+02  0.19999995715E+02 0.  0.
         12    1    1    2    0    0 -0.40319266141E+02  0.10021515075E+02 -0.12551867148E+02  0.43400729895E+02  0.00000000000E+00 0. -1.
         11    1    3    3    0    0  0.85672469121E+01 -0.16527424212E+01 -0.47183034795E+01  0.99192572882E+01  0.51100000000E-03 0. -1.
        -11    1    3    3    0    0  0.25539892510E+02 -0.52238226092E+01  0.10340862702E+02  0.28044747704E+02  0.51100000000E-03 0.  1.
        -12    1    3    3    0    0  0.62121267190E+01 -0.31449500445E+01  0.69293079250E+01  0.98232651127E+01  0.00000000000E+00 0.  1.
</event>
<event>
 7    1  0.2476315E-009  0.4778727E+02  0.7816164E-02  0.1312668E+00
        -11   -1    0    0    0    0  0.00000000000E+00  0.00000000000E+00  0.45593999997E+02  0.45594000000E+02  0.51100000000E-03 0.  1.
         11   -1    0    0    0    0 -0.00000000000E+00 -0.00000000000E+00 -0.45593999997E+02  0.45594000000E+02  0.51100000000E-03 0. -1.
    9900012    2    1    2    0    0  0.22472346623E+02 -0.14833273109E+02  0.34038075962E+02  0.47787274556E+02  0.20000016011E+02 0.  0.
         12    1    1    2    0    0 -0.22472346623E+02  0.14833273109E+02 -0.34038075962E+02  0.43400725444E+02  0.00000000000E+00 0. -1.
         11    1    3    3    0    0  0.64707850877E+01 -0.24037463957E+01  0.25449303050E+01  0.73570188870E+01  0.51100000000E-03 0. -1.
        -11    1    3    3    0    0  0.12742159868E+02 -0.18616493785E+01  0.23458535786E+02  0.26760629253E+02  0.51100000000E-03 0.  1.
        -12    1    3    3    0    0  0.32594016673E+01 -0.10567877334E+02  0.80346098705E+01  0.13669626416E+02  0.00000000000E+00 0.  1.
</event>
<event>
 7    1  0.2476315E-009  0.4778727E+02  0.7816164E-02  0.1312668E+00
        -11   -1    0    0    0    0  0.00000000000E+00  0.00000000000E+00  0.45593999997E+02  0.45594000000E+02  0.51100000000E-03 0.  1.
         11   -1    0    0    0    0 -0.00000000000E+00 -0.00000000000E+00 -0.45593999997E+02  0.45594000000E+02  0.51100000000E-03 0. -1.
    9900012    2    1    2    0    0 -0.57582936796E+01  0.25945112500E+02  0.34312051184E+02  0.47787266536E+02  0.19999979443E+02 0.  0.
         12    1    1    2    0    0  0.57582936796E+01 -0.25945112500E+02 -0.34312051184E+02  0.43400733464E+02  0.00000000000E+00 0. -1.
         11    1    3    3    0    0 -0.82184362550E+01  0.62827796076E+01  0.90889279438E+01  0.13770425756E+02  0.51100000000E-03 0. -1.
        -11    1    3    3    0    0  0.51362878210E+01  0.18656917622E+02  0.24188655464E+02  0.30976653808E+02  0.51100000000E-03 0.  1.
         12    1    3    3    0    0 -0.26761452457E+01  0.10054152710E+01  0.10344677769E+01  0.30401869720E+01  0.00000000000E+00 0. -1.
</event>
<event>
 7    1  0.2476315E-009  0.4778727E+02  0.7816164E-02  0.1312668E+00
        -11   -1    0    0    0    0  0.00000000000E+00  0.00000000000E+00  0.45593999997E+02  0.45594000000E+02  0.51100000000E-03 0.  1.
         11   -1    0    0    0    0 -0.00000000000E+00 -0.00000000000E+00 -0.45593999997E+02  0.45594000000E+02  0.51100000000E-03 0. -1.
    9900012    2    1    2    0    0 -0.10680862363E+02 -0.34477142434E+02 -0.24101228537E+02  0.47787269727E+02  0.19999993993E+02 0.  0.
         12    1    1    2    0    0  0.10680862363E+02  0.34477142434E+02  0.24101228537E+02  0.43400730273E+02  0.00000000000E+00 0. -1.
         11    1    3    3    0    0 -0.30121934919E+01 -0.15160738879E+02 -0.18967687420E+02  0.24468234086E+02  0.51100000000E-03 0. -1.
        -11    1    3    3    0    0 -0.98088512854E+01 -0.15668437147E+02 -0.36911011605E+01  0.18850403556E+02  0.51100000000E-03 0.  1.
        -12    1    3    3    0    0  0.21401824141E+01 -0.36479664080E+01 -0.14424399567E+01  0.44686320847E+01  0.00000000000E+00 0.  1.
</event>
<event>
 7    1  0.2476315E-009  0.4778727E+02  0.7816164E-02  0.1312668E+00
        -11   -1    0    0    0    0  0.00000000000E+00  0.00000000000E+00  0.45593999997E+02  0.45594000000E+02  0.51100000000E-03 0.  1.
         11   -1    0    0    0    0 -0.00000000000E+00 -0.00000000000E+00 -0.45593999997E+02  0.45594000000E+02  0.51100000000E-03 0. -1.
    9900012    2    1    2    0    0  0.21265586138E+02  0.37665559445E+02  0.35642374001E+01  0.47787270624E+02  0.19999998084E+02 0.  0.
         12    1    1    2    0    0 -0.21265586138E+02 -0.37665559445E+02 -0.35642374001E+01  0.43400729376E+02  0.00000000000E+00 0. -1.
         11    1    3    3    0    0 -0.20399610742E+01  0.31874714907E+01 -0.25788576326E+01  0.45795111790E+01  0.51100000000E-03 0. -1.
        -11    1    3    3    0    0  0.10698455114E+02  0.15658730684E+02  0.77766902698E+01  0.20497065650E+02  0.51100000000E-03 0.  1.
        -12    1    3    3    0    0  0.12607092098E+02  0.18819357270E+02 -0.16335952371E+01  0.22710693795E+02  0.00000000000E+00 0.  1.
</event>
<event>
 7    1  0.2476315E-009  0.4778727E+02  0.7816164E-02  0.1312668E+00
        -11   -1    0    0    0    0  0.00000000000E+00  0.00000000000E+00  0.45593999997E+02  0.45594000000E+02  0.51100000000E-03 0.  1.
         11   -1    0    0    0    0 -0.00000000000E+00 -0.00000000000E+00 -0.45593999997E+02  0.45594000000E+02  0.51100000000E-03 0. -1.
    9900012    2    1    2    0    0  0.38907244297E+02 -0.74501619256E+01  0.17729765143E+02  0.47787272546E+02  0.20000006847E+02 0.  0.
         12    1    1    2    0    0 -0.38907244297E+02  0.74501619256E+01 -0.17729765143E+02  0.43400727454E+02  0.00000000000E+00 0. -1.
         11    1    3    3    0    0  0.59406955339E+00 -0.12186698639E+01 -0.52953466462E+00  0.14555006333E+01  0.51100000000E-03 0. -1.
        -11    1    3    3    0    0  0.55078070790E+01  0.54596637475E+01  0.34073148072E+01  0.84707533025E+01  0.51100000000E-03 0.  1.
        -12    1    3    3    0    0  0.32805367664E+02 -0.11691155809E+02  0.14851985001E+02  0.37861018610E+02  0.00000000000E+00 0.  1.
</event>
<event>
 7    1  0.2476315E-009  0.4778727E+02  0.7816164E-02  0.1312668E+00
        -11   -1    0    0    0    0  0.00000000000E+00  0.00000000000E+00  0.45593999997E+02  0.45594000000E+02  0.51100000000E-03 0.  1.
         11   -1    0    0    0    0 -0.00000000000E+00 -0.00000000000E+00 -0.45593999997E+02  0.45594000000E+02  0.51100000000E-03 0. -1.
    9900012    2    1    2    0    0 -0.25324214872E+01 -0.10299709979E+02  0.42084749516E+02  0.47787270443E+02  0.19999997257E+02 0.  0.
         12    1    1    2    0    0  0.25324214872E+01  0.10299709979E+02 -0.42084749516E+02  0.43400729557E+02  0.00000000000E+00 0. -1.
         11    1    3    3    0    0  0.58338248492E+00 -0.80010093371E+01  0.54673228333E+01  0.97081463092E+01  0.51100000000E-03 0. -1.
        -11    1    3    3    0    0 -0.53258071009E+01 -0.86112944490E+00  0.33771424716E+02  0.34199632933E+02  0.51100000000E-03 0.  1.
        -12    1    3    3    0    0  0.22100031288E+01 -0.14375711967E+01  0.28460019674E+01  0.38794912003E+01  0.00000000000E+00 0.  1.
</event>
<event>
 7    1  0.2476315E-009  0.4778727E+02  0.7816164E-02  0.1312668E+00
        -11   -1    0    0    0    0  0.00000000000E+00  0.00000000000E+00  0.45593999997E+02  0.45594000000E+02  0.51100000000E-03 0. -1.
         11   -1    0    0    0    0 -0.00000000000E+00 -0.00000000000E+00 -0.45593999997E+02  0.45594000000E+02  0.51100000000E-03 0.  1.
    9900012    2    1    2    0    0  0.36311109480E+02 -0.23017178767E+02  0.59444150746E+01  0.47787271197E+02  0.20000000695E+02 0.  0.
         12    1    1    2    0    0 -0.36311109480E+02  0.23017178767E+02 -0.59444150746E+01  0.43400728803E+02  0.00000000000E+00 0. -1.
         11    1    3    3    0    0  0.20996007693E+02 -0.18861868608E+02  0.20712891966E+01  0.28300047096E+02  0.51100000000E-03 0. -1.
        -11    1    3    3    0    0  0.49820117914E+01 -0.67982851454E+01  0.15031045674E+01  0.85613343591E+01  0.51100000000E-03 0.  1.
         12    1    3    3    0    0  0.10333089996E+02  0.26429749865E+01  0.23700213106E+01  0.10925889742E+02  0.00000000000E+00 0. -1.
</event>
<event>
 7    1  0.2476315E-009  0.4778728E+02  0.7816164E-02  0.1312668E+00
        -11   -1    0    0    0    0  0.00000000000E+00  0.00000000000E+00  0.45593999997E+02  0.45594000000E+02  0.51100000000E-03 0.  1.
         11   -1    0    0    0    0 -0.00000000000E+00 -0.00000000000E+00 -0.45593999997E+02  0.45594000000E+02  0.51100000000E-03 0. -1.
    9900012    2    1    2    0    0  0.10106074917E+02 -0.56962216929E+01  0.41821559189E+02  0.47787279905E+02  0.20000040398E+02 0.  0.
         12    1    1    2    0    0 -0.10106074917E+02  0.56962216929E+01 -0.41821559189E+02  0.43400720095E+02  0.00000000000E+00 0. -1.
         11    1    3    3    0    0 -0.49600675120E+01  0.25666140215E+01  0.80509411413E+01  0.97983381643E+01  0.51100000000E-03 0. -1.
        -11    1    3    3    0    0  0.76628732259E+01 -0.47110862063E+01  0.20449288383E+02  0.22340263090E+02  0.51100000000E-03 0.  1.
         12    1    3    3    0    0  0.74032692036E+01 -0.35517495080E+01  0.13321329665E+02  0.15648678650E+02  0.00000000000E+00 0. -1.
</event>
<event>
 7    1  0.2476315E-009  0.4778727E+02  0.7816164E-02  0.1312668E+00
        -11   -1    0    0    0    0  0.00000000000E+00  0.00000000000E+00  0.45593999997E+02  0.45594000000E+02  0.51100000000E-03 0. -1.
         11   -1    0    0    0    0 -0.00000000000E+00 -0.00000000000E+00 -0.45593999997E+02  0.45594000000E+02  0.51100000000E-03 0.  1.
    9900012    2    1    2    0    0  0.29126495791E+02  0.16629149492E+02 -0.27545268229E+02  0.47787272222E+02  0.20000005368E+02 0.  0.
         12    1    1    2    0    0 -0.29126495791E+02 -0.16629149492E+02  0.27545268229E+02  0.43400727778E+02  0.00000000000E+00 0. -1.
         11    1    3    3    0    0  0.15715507788E+00  0.15807327409E+01 -0.17436414793E+01  0.23587495811E+01  0.51100000000E-03 0. -1.
        -11    1    3    3    0    0  0.14307370663E+02  0.17349287808E+02 -0.16804731906E+02  0.28073077093E+02  0.51100000000E-03 0.  1.
        -12    1    3    3    0    0  0.14661970049E+02 -0.23008710572E+01 -0.89968948437E+01  0.17355445548E+02  0.00000000000E+00 0.  1.
</event>
<event>
 7    1  0.2476315E-009  0.4778726E+02  0.7816164E-02  0.1312668E+00
        -11   -1    0    0    0    0  0.00000000000E+00  0.00000000000E+00  0.45593999997E+02  0.45594000000E+02  0.51100000000E-03 0.  1.
         11   -1    0    0    0    0 -0.00000000000E+00 -0.00000000000E+00 -0.45593999997E+02  0.45594000000E+02  0.51100000000E-03 0. -1.
    9900012    2    1    2    0    0  0.59461794045E+01 -0.18733228162E+02  0.38695387086E+02  0.47787264192E+02  0.19999968758E+02 0.  0.
         12    1    1    2    0    0 -0.59461794045E+01  0.18733228162E+02 -0.38695387086E+02  0.43400735808E+02  0.00000000000E+00 0. -1.
         11    1    3    3    0    0  0.56209124199E+00 -0.31848940980E+01  0.11235196069E+02  0.11691412573E+02  0.51100000000E-03 0. -1.
        -11    1    3    3    0    0 -0.15811964438E+01 -0.94846264704E+01  0.24624634173E+02  0.26435410530E+02  0.51100000000E-03 0.  1.
        -12    1    3    3    0    0  0.69652846063E+01 -0.60637075937E+01  0.28355568450E+01  0.96604410898E+01  0.00000000000E+00 0.  1.
</event>
<event>
 7    1  0.2476315E-009  0.4778727E+02  0.7816164E-02  0.1312668E+00
        -11   -1    0    0    0    0  0.00000000000E+00  0.00000000000E+00  0.45593999997E+02  0.45594000000E+02  0.51100000000E-03 0.  1.
         11   -1    0    0    0    0 -0.00000000000E+00 -0.00000000000E+00 -0.45593999997E+02  0.45594000000E+02  0.51100000000E-03 0. -1.
    9900012    2    1    2    0    0 -0.35095705369E+02  0.23460161854E+02 -0.10076484491E+02  0.47787271097E+02  0.20000000240E+02 0.  0.
         12    1    1    2    0    0  0.35095705369E+02 -0.23460161854E+02  0.10076484491E+02  0.43400728903E+02  0.00000000000E+00 0. -1.
         11    1    3    3    0    0 -0.14754022800E+02  0.11793065151E+01 -0.22035066625E+01  0.14964203771E+02  0.51100000000E-03 0. -1.
        -11    1    3    3    0    0 -0.15171800307E+01  0.72006205214E+01  0.27535426630E+00  0.73638706787E+01  0.51100000000E-03 0.  1.
        -12    1    3    3    0    0 -0.18824502539E+02  0.15080234818E+02 -0.81483320950E+01  0.25459196647E+02  0.00000000000E+00 0.  1.
</event>
<event>
 7    1  0.2476315E-009  0.4778727E+02  0.7816164E-02  0.1312668E+00
        -11   -1    0    0    0    0  0.00000000000E+00  0.00000000000E+00  0.45593999997E+02  0.45594000000E+02  0.51100000000E-03 0. -1.
         11   -1    0    0    0    0 -0.00000000000E+00 -0.00000000000E+00 -0.45593999997E+02  0.45594000000E+02  0.51100000000E-03 0.  1.
    9900012    2    1    2    0    0 -0.16458034143E+02  0.33348176006E+02  0.22375344403E+02  0.47787265353E+02  0.19999974049E+02 0.  0.
         12    1    1    2    0    0  0.16458034143E+02 -0.33348176006E+02 -0.22375344403E+02  0.43400734647E+02  0.00000000000E+00 0. -1.
         11    1    3    3    0    0 -0.75392254080E+01  0.21905794515E+02  0.21382188411E+02  0.31526207107E+02  0.51100000000E-03 0. -1.
        -11    1    3    3    0    0 -0.99628136802E+01  0.91416864539E+01 -0.65964473186E-01  0.13521554616E+02  0.51100000000E-03 0.  1.
        -12    1    3    3    0    0  0.10440049449E+01  0.23006950370E+01  0.10591204650E+01  0.27395036298E+01  0.00000000000E+00 0.  1.
</event>
<event>
 7    1  0.2476315E-009  0.4778727E+02  0.7816164E-02  0.1312668E+00
        -11   -1    0    0    0    0  0.00000000000E+00  0.00000000000E+00  0.45593999997E+02  0.45594000000E+02  0.51100000000E-03 0.  1.
         11   -1    0    0    0    0 -0.00000000000E+00 -0.00000000000E+00 -0.45593999997E+02  0.45594000000E+02  0.51100000000E-03 0. -1.
    9900012    2    1    2    0    0 -0.19148662018E+02 -0.19994580288E+02  0.33424074092E+02  0.47787271585E+02  0.20000002466E+02 0.  0.
         12    1    1    2    0    0  0.19148662018E+02  0.19994580288E+02 -0.33424074092E+02  0.43400728415E+02  0.00000000000E+00 0. -1.
         11    1    3    3    0    0  0.25351466527E+01 -0.40603354474E+01  0.11566612786E+02  0.12517980033E+02  0.51100000000E-03 0. -1.
        -11    1    3    3    0    0 -0.13026884049E+02 -0.70743042297E+01  0.86548450870E+01  0.17165425485E+02  0.51100000000E-03 0.  1.
        -12    1    3    3    0    0 -0.86569246223E+01 -0.88599406111E+01  0.13202616219E+02  0.18103866067E+02  0.00000000000E+00 0.  1.
</event>
<event>
 7    1  0.2476315E-009  0.4778727E+02  0.7816164E-02  0.1312668E+00
        -11   -1    0    0    0    0  0.00000000000E+00  0.00000000000E+00  0.45593999997E+02  0.45594000000E+02  0.51100000000E-03 0.  1.
         11   -1    0    0    0    0 -0.00000000000E+00 -0.00000000000E+00 -0.45593999997E+02  0.45594000000E+02  0.51100000000E-03 0. -1.
    9900012    2    1    2    0    0  0.16908539744E+02  0.13445849263E+02  0.37642177303E+02  0.47787273154E+02  0.20000009618E+02 0.  0.
         12    1    1    2    0    0 -0.16908539744E+02 -0.13445849263E+02 -0.37642177303E+02  0.43400726846E+02  0.00000000000E+00 0. -1.
         11    1    3    3    0    0  0.64199175966E+01  0.88769842612E+01  0.33655573276E+02  0.35393697240E+02  0.51100000000E-03 0.  1.
        -11    1    3    3    0    0  0.10446652139E+02  0.43452941710E+01  0.42124152467E+01  0.12073051181E+02  0.51100000000E-03 0. -1.
        -12    1    3    3    0    0  0.41970008304E-01  0.22357083047E+00 -0.22581121949E+00  0.32052473334E+00  0.00000000000E+00 0.  1.
</event>
<event>
 7    1  0.2476315E-009  0.4778727E+02  0.7816164E-02  0.1312668E+00
        -11   -1    0    0    0    0  0.00000000000E+00  0.00000000000E+00  0.45593999997E+02  0.45594000000E+02  0.51100000000E-03 0.  1.
         11   -1    0    0    0    0 -0.00000000000E+00 -0.00000000000E+00 -0.45593999997E+02  0.45594000000E+02  0.51100000000E-03 0. -1.
    9900012    2    1    2    0    0 -0.20411488487E+02  0.11830483303E+02  0.36428475635E+02  0.47787273802E+02  0.20000012574E+02 0.  0.
         12    1    1    2    0    0  0.20411488487E+02 -0.11830483303E+02 -0.36428475635E+02  0.43400726198E+02  0.00000000000E+00 0. -1.
         11    1    3    3    0    0 -0.26768836890E+01  0.50182408655E+01  0.18106631092E+02  0.18978897161E+02  0.51100000000E-03 0. -1.
        -11    1    3    3    0    0 -0.46275985778E+01 -0.13068000290E+01 -0.69829456051E-01  0.48090821710E+01  0.51100000000E-03 0.  1.
         12    1    3    3    0    0 -0.13107006220E+02  0.81190424663E+01  0.18391673999E+02  0.23999294471E+02  0.00000000000E+00 0. -1.
</event>
<event>
 7    1  0.2476315E-009  0.4778727E+02  0.7816164E-02  0.1312668E+00
        -11   -1    0    0    0    0  0.00000000000E+00  0.00000000000E+00  0.45593999997E+02  0.45594000000E+02  0.51100000000E-03 0. -1.
         11   -1    0    0    0    0 -0.00000000000E+00 -0.00000000000E+00 -0.45593999997E+02  0.45594000000E+02  0.51100000000E-03 0.  1.
    9900012    2    1    2    0    0  0.32210871691E+02 -0.22343273552E+02 -0.18624208739E+02  0.47787270982E+02  0.19999999716E+02 0.  0.
         12    1    1    2    0    0 -0.32210871691E+02  0.22343273552E+02  0.18624208739E+02  0.43400729018E+02  0.00000000000E+00 0. -1.
         11    1    3    3    0    0  0.10559465520E+02 -0.86218634858E-01 -0.21436852694E+01  0.10775209164E+02  0.51100000000E-03 0. -1.
        -11    1    3    3    0    0  0.19729052855E+02 -0.19015973450E+02 -0.93602714444E+01  0.28956129827E+02  0.51100000000E-03 0.  1.
         12    1    3    3    0    0  0.19223533163E+01 -0.32410814676E+01 -0.71202520247E+01  0.80559319913E+01  0.00000000000E+00 0. -1.
</event>
<event>
 7    1  0.2476315E-009  0.4778727E+02  0.7816164E-02  0.1312668E+00
        -11   -1    0    0    0    0  0.00000000000E+00  0.00000000000E+00  0.45593999997E+02  0.45594000000E+02  0.51100000000E-03 0. -1.
         11   -1    0    0    0    0 -0.00000000000E+00 -0.00000000000E+00 -0.45593999997E+02  0.45594000000E+02  0.51100000000E-03 0.  1.
    9900012    2    1    2    0    0 -0.42530131190E+01  0.32696397813E+02 -0.28221988607E+02  0.47787271994E+02  0.20000004330E+02 0.  0.
         12    1    1    2    0    0  0.42530131190E+01 -0.32696397813E+02  0.28221988607E+02  0.43400728006E+02  0.00000000000E+00 0. -1.
         11    1    3    3    0    0  0.47483633517E+01  0.17146885121E+02 -0.11963150476E+02  0.21440139772E+02  0.51100000000E-03 0.  1.
        -11    1    3    3    0    0 -0.93541721505E+01  0.91728745263E+01 -0.14857559877E+02  0.19808817468E+02  0.51100000000E-03 0. -1.
         12    1    3    3    0    0  0.35279567974E+00  0.63766381659E+01 -0.14012782538E+01  0.65383147550E+01  0.00000000000E+00 0. -1.
</event>
<event>
 7    1  0.2476315E-009  0.4778727E+02  0.7816164E-02  0.1312668E+00
        -11   -1    0    0    0    0  0.00000000000E+00  0.00000000000E+00  0.45593999997E+02  0.45594000000E+02  0.51100000000E-03 0.  1.
         11   -1    0    0    0    0 -0.00000000000E+00 -0.00000000000E+00 -0.45593999997E+02  0.45594000000E+02  0.51100000000E-03 0. -1.
    9900012    2    1    2    0    0  0.11454316368E+02 -0.41861036659E+02  0.27434244946E+00  0.47787273999E+02  0.20000013471E+02 0.  0.
         12    1    1    2    0    0 -0.11454316368E+02  0.41861036659E+02 -0.27434244946E+00  0.43400726001E+02  0.00000000000E+00 0. -1.
         11    1    3    3    0    0  0.33476646827E+01 -0.80256067900E+00 -0.13229420562E+01  0.36879721280E+01  0.51100000000E-03 0. -1.
        -11    1    3    3    0    0  0.39550552095E+01 -0.29644359409E+02 -0.49302115693E+01  0.30310682818E+02  0.51100000000E-03 0.  1.
        -12    1    3    3    0    0  0.41515964755E+01 -0.11414116571E+02  0.65274960749E+01  0.13788619053E+02  0.00000000000E+00 0.  1.
</event>
<event>
 7    1  0.2476315E-009  0.4778728E+02  0.7816164E-02  0.1312668E+00
        -11   -1    0    0    0    0  0.00000000000E+00  0.00000000000E+00  0.45593999997E+02  0.45594000000E+02  0.51100000000E-03 0. -1.
         11   -1    0    0    0    0 -0.00000000000E+00 -0.00000000000E+00 -0.45593999997E+02  0.45594000000E+02  0.51100000000E-03 0.  1.
    9900012    2    1    2    0    0 -0.20716289896E+01  0.18138181999E+01 -0.43313291708E+02  0.47787276254E+02  0.20000023752E+02 0.  0.
         12    1    1    2    0    0  0.20716289896E+01 -0.18138181999E+01  0.43313291708E+02  0.43400723746E+02  0.00000000000E+00 0. -1.
         11    1    3    3    0    0 -0.15146659244E+01 -0.24772676588E+01 -0.28372160599E+02  0.28520353526E+02  0.51100000000E-03 0.  1.
        -11    1    3    3    0    0  0.45258551390E+01  0.99506198766E+00 -0.11264879232E+02  0.12180764240E+02  0.51100000000E-03 0. -1.
        -12    1    3    3    0    0 -0.50828182042E+01  0.32960238711E+01 -0.36762518765E+01  0.70861584879E+01  0.00000000000E+00 0.  1.
</event>
<event>
 7    1  0.2476315E-009  0.4778727E+02  0.7816164E-02  0.1312668E+00
        -11   -1    0    0    0    0  0.00000000000E+00  0.00000000000E+00  0.45593999997E+02  0.45594000000E+02  0.51100000000E-03 0. -1.
         11   -1    0    0    0    0 -0.00000000000E+00 -0.00000000000E+00 -0.45593999997E+02  0.45594000000E+02  0.51100000000E-03 0.  1.
    9900012    2    1    2    0    0 -0.37718943565E+02 -0.29795131219E+01 -0.21260924559E+02  0.47787272872E+02  0.20000008333E+02 0.  0.
         12    1    1    2    0    0  0.37718943565E+02  0.29795131219E+01  0.21260924559E+02  0.43400727128E+02  0.00000000000E+00 0. -1.
         11    1    3    3    0    0 -0.71143561750E+01 -0.75418535286E+01 -0.73281674335E+01  0.12696285151E+02  0.51100000000E-03 0. -1.
        -11    1    3    3    0    0 -0.21924938962E+02  0.95738076083E+00 -0.58939593940E+01  0.22723518302E+02  0.51100000000E-03 0.  1.
         12    1    3    3    0    0 -0.86796484285E+01  0.36049596459E+01 -0.80387977310E+01  0.12367469420E+02  0.00000000000E+00 0. -1.
</event>
<event>
 7    1  0.2476315E-009  0.4778727E+02  0.7816164E-02  0.1312668E+00
        -11   -1    0    0    0    0  0.00000000000E+00  0.00000000000E+00  0.45593999997E+02  0.45594000000E+02  0.51100000000E-03 0.  1.
         11   -1    0    0    0    0 -0.00000000000E+00 -0.00000000000E+00 -0.45593999997E+02  0.45594000000E+02  0.51100000000E-03 0. -1.
    9900012    2    1    2    0    0 -0.37429177918E+02  0.20335405083E+01  0.21875669858E+02  0.47787267536E+02  0.19999984005E+02 0.  0.
         12    1    1    2    0    0  0.37429177918E+02 -0.20335405083E+01 -0.21875669858E+02  0.43400732464E+02  0.00000000000E+00 0. -1.
         11    1    3    3    0    0 -0.19887337555E+01  0.23908180123E+01  0.68302104221E+01  0.75048549213E+01  0.51100000000E-03 0. -1.
        -11    1    3    3    0    0 -0.36088395115E+02 -0.14255022491E+01  0.14601744539E+02  0.38956581761E+02  0.51100000000E-03 0.  1.
         12    1    3    3    0    0  0.64795095266E+00  0.10682247452E+01  0.44371489692E+00  0.13258308538E+01  0.00000000000E+00 0. -1.
</event>
<event>
 7    1  0.2476315E-009  0.4778727E+02  0.7816164E-02  0.1312668E+00
        -11   -1    0    0    0    0  0.00000000000E+00  0.00000000000E+00  0.45593999997E+02  0.45594000000E+02  0.51100000000E-03 0.  1.
         11   -1    0    0    0    0 -0.00000000000E+00 -0.00000000000E+00 -0.45593999997E+02  0.45594000000E+02  0.51100000000E-03 0. -1.
    9900012    2    1    2    0    0 -0.38389246726E+02 -0.11755032876E+02 -0.16483574528E+02  0.47787270844E+02  0.19999999086E+02 0.  0.
         12    1    1    2    0    0  0.38389246726E+02  0.11755032876E+02  0.16483574528E+02  0.43400729156E+02  0.00000000000E+00 0. -1.
         11    1    3    3    0    0 -0.16117731858E+01 -0.15739316011E-01 -0.34510291397E+01  0.38088926097E+01  0.51100000000E-03 0. -1.
        -11    1    3    3    0    0 -0.28981972573E+02 -0.22308183163E+01 -0.12583740949E+02  0.31674624246E+02  0.51100000000E-03 0.  1.
        -12    1    3    3    0    0 -0.77955009663E+01 -0.95084752437E+01 -0.44880443937E+00  0.12303753988E+02  0.00000000000E+00 0.  1.
</event>
<event>
 7    1  0.2476315E-009  0.4778727E+02  0.7816164E-02  0.1312668E+00
        -11   -1    0    0    0    0  0.00000000000E+00  0.00000000000E+00  0.45593999997E+02  0.45594000000E+02  0.51100000000E-03 0. -1.
         11   -1    0    0    0    0 -0.00000000000E+00 -0.00000000000E+00 -0.45593999997E+02  0.45594000000E+02  0.51100000000E-03 0.  1.
    9900012    2    1    2    0    0 -0.34303995163E+02 -0.18995836148E+02 -0.18601545206E+02  0.47787270062E+02  0.19999995522E+02 0.  0.
         12    1    1    2    0    0  0.34303995163E+02  0.18995836148E+02  0.18601545206E+02  0.43400729938E+02  0.00000000000E+00 0. -1.
         11    1    3    3    0    0 -0.16422462486E+02 -0.11299468611E+02 -0.33784225826E+01  0.20218531213E+02  0.51100000000E-03 0. -1.
        -11    1    3    3    0    0  0.14257343842E+01 -0.16789028419E+01 -0.36640399846E+01  0.42751166717E+01  0.51100000000E-03 0.  1.
        -12    1    3    3    0    0 -0.19307267061E+02 -0.60174646955E+01 -0.11559082639E+02  0.23293622178E+02  0.00000000000E+00 0.  1.
</event>
<event>
 7    1  0.2476315E-009  0.4778727E+02  0.7816164E-02  0.1312668E+00
        -11   -1    0    0    0    0  0.00000000000E+00  0.00000000000E+00  0.45593999997E+02  0.45594000000E+02  0.51100000000E-03 0.  1.
         11   -1    0    0    0    0 -0.00000000000E+00 -0.00000000000E+00 -0.45593999997E+02  0.45594000000E+02  0.51100000000E-03 0. -1.
    9900012    2    1    2    0    0  0.21676270623E+01  0.34574730331E+02  0.26144077442E+02  0.47787269939E+02  0.19999994960E+02 0.  0.
         12    1    1    2    0    0 -0.21676270623E+01 -0.34574730331E+02 -0.26144077442E+02  0.43400730061E+02  0.00000000000E+00 0. -1.
         11    1    3    3    0    0 -0.24544589852E+01  0.10043685768E+02  0.15881040312E+01  0.10460500341E+02  0.51100000000E-03 0. -1.
        -11    1    3    3    0    0  0.27792074538E+01  0.10849029426E+02  0.19757817852E+02  0.22711160254E+02  0.51100000000E-03 0.  1.
        -12    1    3    3    0    0  0.18428785937E+01  0.13682015138E+02  0.47981555587E+01  0.14615609344E+02  0.00000000000E+00 0.  1.
</event>
<event>
 7    1  0.2476315E-009  0.4778727E+02  0.7816164E-02  0.1312668E+00
        -11   -1    0    0    0    0  0.00000000000E+00  0.00000000000E+00  0.45593999997E+02  0.45594000000E+02  0.51100000000E-03 0. -1.
         11   -1    0    0    0    0 -0.00000000000E+00 -0.00000000000E+00 -0.45593999997E+02  0.45594000000E+02  0.51100000000E-03 0.  1.
    9900012    2    1    2    0    0 -0.26219524707E+02  0.23695858765E+02 -0.25192578982E+02  0.47787271501E+02  0.20000002082E+02 0.  0.
         12    1    1    2    0    0  0.26219524707E+02 -0.23695858765E+02  0.25192578982E+02  0.43400728499E+02  0.00000000000E+00 0. -1.
         11    1    3    3    0    0 -0.11839314174E+02  0.34842711110E+01 -0.16916697667E+02  0.20940013503E+02  0.51100000000E-03 0. -1.
        -11    1    3    3    0    0 -0.11897819688E+02  0.17217921004E+02 -0.91814984923E+01  0.22854208186E+02  0.51100000000E-03 0.  1.
         12    1    3    3    0    0 -0.24823908459E+01  0.29936666503E+01  0.90561717768E+00  0.39930498115E+01  0.00000000000E+00 0. -1.
</event>
<event>
 7    1  0.2476315E-009  0.4778726E+02  0.7816164E-02  0.1312668E+00
        -11   -1    0    0    0    0  0.00000000000E+00  0.00000000000E+00  0.45593999997E+02  0.45594000000E+02  0.51100000000E-03 0.  1.
         11   -1    0    0    0    0 -0.00000000000E+00 -0.00000000000E+00 -0.45593999997E+02  0.45594000000E+02  0.51100000000E-03 0. -1.
    9900012    2    1    2    0    0  0.30955571164E+02  0.84212802685E+01  0.29231127133E+02  0.47787261056E+02  0.19999954459E+02 0.  0.
         12    1    1    2    0    0 -0.30955571164E+02 -0.84212802685E+01 -0.29231127133E+02  0.43400738944E+02  0.00000000000E+00 0. -1.
         11    1    3    3    0    0  0.17824047107E+02  0.24916382014E+01  0.23249027064E+02  0.29401057394E+02  0.51100000000E-03 0. -1.
        -11    1    3    3    0    0  0.10846221832E+02  0.60794919407E+01  0.84391523647E+01  0.15027309912E+02  0.51100000000E-03 0.  1.
         12    1    3    3    0    0  0.22853022248E+01 -0.14984987367E+00 -0.24570522957E+01  0.33588937505E+01  0.00000000000E+00 0. -1.
</event>
<event>
 7    1  0.2476315E-009  0.4778727E+02  0.7816164E-02  0.1312668E+00
        -11   -1    0    0    0    0  0.00000000000E+00  0.00000000000E+00  0.45593999997E+02  0.45594000000E+02  0.51100000000E-03 0.  1.
         11   -1    0    0    0    0 -0.00000000000E+00 -0.00000000000E+00 -0.45593999997E+02  0.45594000000E+02  0.51100000000E-03 0. -1.
    9900012    2    1    2    0    0 -0.25742662881E+01 -0.37239040738E+02  0.22141595371E+02  0.47787271348E+02  0.20000001383E+02 0.  0.
         12    1    1    2    0    0  0.25742662881E+01  0.37239040738E+02 -0.22141595371E+02  0.43400728652E+02  0.00000000000E+00 0. -1.
         11    1    3    3    0    0 -0.64966681972E+01 -0.68322788607E+01  0.17127928481E+00  0.94295317461E+01  0.51100000000E-03 0. -1.
        -11    1    3    3    0    0  0.29795810590E+01 -0.25090366905E+02  0.14472043057E+02  0.29117768549E+02  0.51100000000E-03 0.  1.
        -12    1    3    3    0    0  0.94282085013E+00 -0.53163949716E+01  0.74982730287E+01  0.92399710531E+01  0.00000000000E+00 0.  1.
</event>
<event>
 7    1  0.2476315E-009  0.4778727E+02  0.7816164E-02  0.1312668E+00
        -11   -1    0    0    0    0  0.00000000000E+00  0.00000000000E+00  0.45593999997E+02  0.45594000000E+02  0.51100000000E-03 0.  1.
         11   -1    0    0    0    0 -0.00000000000E+00 -0.00000000000E+00 -0.45593999997E+02  0.45594000000E+02  0.51100000000E-03 0. -1.
    9900012    2    1    2    0    0  0.11081056743E+02  0.35844361702E+02  0.21817774199E+02  0.47787270105E+02  0.19999995718E+02 0.  0.
         12    1    1    2    0    0 -0.11081056743E+02 -0.35844361702E+02 -0.21817774199E+02  0.43400729895E+02  0.00000000000E+00 0. -1.
         11    1    3    3    0    0  0.71927941274E+01  0.16101149206E+01  0.18233296102E+01  0.75929762640E+01  0.51100000000E-03 0. -1.
        -11    1    3    3    0    0  0.51529418638E+01  0.27742329743E+02  0.16916639968E+02  0.32899276246E+02  0.51100000000E-03 0.  1.
         12    1    3    3    0    0 -0.12646792483E+01  0.64919170382E+01  0.30778046211E+01  0.72950175955E+01  0.00000000000E+00 0. -1.
</event>
<event>
 7    1  0.2476315E-009  0.4778727E+02  0.7816164E-02  0.1312668E+00
        -11   -1    0    0    0    0  0.00000000000E+00  0.00000000000E+00  0.45593999997E+02  0.45594000000E+02  0.51100000000E-03 0.  1.
         11   -1    0    0    0    0 -0.00000000000E+00 -0.00000000000E+00 -0.45593999997E+02  0.45594000000E+02  0.51100000000E-03 0. -1.
    9900012    2    1    2    0    0 -0.29956402780E+02 -0.19590862941E+02  0.24544555091E+02  0.47787272323E+02  0.20000005829E+02 0.  0.
         12    1    1    2    0    0  0.29956402780E+02  0.19590862941E+02 -0.24544555091E+02  0.43400727677E+02  0.00000000000E+00 0. -1.
         11    1    3    3    0    0 -0.47551406455E+01 -0.12778972521E+02  0.12928798607E+02  0.18790086082E+02  0.51100000000E-03 0. -1.
        -11    1    3    3    0    0 -0.18647306927E+02 -0.40765286860E+01  0.62115623243E+01  0.20072958141E+02  0.51100000000E-03 0.  1.
         12    1    3    3    0    0 -0.65539552077E+01 -0.27353617334E+01  0.54041941590E+01  0.89242281002E+01  0.00000000000E+00 0. -1.
</event>
<event>
 7    1  0.2476315E-009  0.4778727E+02  0.7816164E-02  0.1312668E+00
        -11   -1    0    0    0    0  0.00000000000E+00  0.00000000000E+00  0.45593999997E+02  0.45594000000E+02  0.51100000000E-03 0.  1.
         11   -1    0    0    0    0 -0.00000000000E+00 -0.00000000000E+00 -0.45593999997E+02  0.45594000000E+02  0.51100000000E-03 0. -1.
    9900012    2    1    2    0    0  0.14064339210E+02 -0.26764364555E+02  0.31136575801E+02  0.47787271896E+02  0.20000003881E+02 0.  0.
         12    1    1    2    0    0 -0.14064339210E+02  0.26764364555E+02 -0.31136575801E+02  0.43400728104E+02  0.00000000000E+00 0. -1.
         11    1    3    3    0    0  0.19545796589E+01 -0.19241013936E+02  0.10335842476E+02  0.21928671617E+02  0.51100000000E-03 0. -1.
        -11    1    3    3    0    0  0.52989419276E+01 -0.41082369402E+01  0.14487352114E+02  0.15963701571E+02  0.51100000000E-03 0.  1.
         12    1    3    3    0    0  0.68108176230E+01 -0.34151136785E+01  0.63133812102E+01  0.98948987077E+01  0.00000000000E+00 0. -1.
</event>
<event>
 7    1  0.2476315E-009  0.4778727E+02  0.7816164E-02  0.1312668E+00
        -11   -1    0    0    0    0  0.00000000000E+00  0.00000000000E+00  0.45593999997E+02  0.45594000000E+02  0.51100000000E-03 0.  1.
         11   -1    0    0    0    0 -0.00000000000E+00 -0.00000000000E+00 -0.45593999997E+02  0.45594000000E+02  0.51100000000E-03 0. -1.
    9900012    2    1    2    0    0  0.31338184675E+02  0.17279489298E+02  0.24555257231E+02  0.47787271586E+02  0.20000002470E+02 0.  0.
         12    1    1    2    0    0 -0.31338184675E+02 -0.17279489298E+02 -0.24555257231E+02  0.43400728414E+02  0.00000000000E+00 0. -1.
         11    1    3    3    0    0  0.71957032059E+00  0.62752007137E+01  0.41366523165E+01  0.75503521833E+01  0.51100000000E-03 0. -1.
        -11    1    3    3    0    0  0.25478938534E+02  0.59625207812E+01  0.20159934158E+02  0.33032573445E+02  0.51100000000E-03 0.  1.
        -12    1    3    3    0    0  0.51396758213E+01  0.50417678027E+01  0.25867075684E+00  0.72043459582E+01  0.00000000000E+00 0.  1.
</event>
<event>
 7    1  0.2476315E-009  0.4778727E+02  0.7816164E-02  0.1312668E+00
        -11   -1    0    0    0    0  0.00000000000E+00  0.00000000000E+00  0.45593999997E+02  0.45594000000E+02  0.51100000000E-03 0.  1.
         11   -1    0    0    0    0 -0.00000000000E+00 -0.00000000000E+00 -0.45593999997E+02  0.45594000000E+02  0.51100000000E-03 0. -1.
    9900012    2    1    2    0    0  0.79436725675E+01  0.22486195534E+02  0.36261443362E+02  0.47787271917E+02  0.20000003977E+02 0.  0.
         12    1    1    2    0    0 -0.79436725675E+01 -0.22486195534E+02 -0.36261443362E+02  0.43400728083E+02  0.00000000000E+00 0. -1.
         11    1    3    3    0    0  0.48196063823E+01 -0.82286606806E-01  0.25268816213E+01  0.54424725773E+01  0.51100000000E-03 0. -1.
        -11    1    3    3    0    0  0.43009140353E+01  0.21967231316E+02  0.25189669150E+02  0.33698316655E+02  0.51100000000E-03 0.  1.
        -12    1    3    3    0    0 -0.11768478501E+01  0.60125082402E+00  0.85448925914E+01  0.86464826846E+01  0.00000000000E+00 0.  1.
</event>
<event>
 7    1  0.2476315E-009  0.4778727E+02  0.7816164E-02  0.1312668E+00
        -11   -1    0    0    0    0  0.00000000000E+00  0.00000000000E+00  0.45593999997E+02  0.45594000000E+02  0.51100000000E-03 0. -1.
         11   -1    0    0    0    0 -0.00000000000E+00 -0.00000000000E+00 -0.45593999997E+02  0.45594000000E+02  0.51100000000E-03 0.  1.
    9900012    2    1    2    0    0  0.29901748949E+02  0.68753882517E+01  0.30695892201E+02  0.47787270146E+02  0.19999995903E+02 0.  0.
         12    1    1    2    0    0 -0.29901748949E+02 -0.68753882517E+01 -0.30695892201E+02  0.43400729854E+02  0.00000000000E+00 0. -1.
         11    1    3    3    0    0  0.23677334753E+02  0.13226129958E+02  0.23586698701E+02  0.35942719020E+02  0.51100000000E-03 0. -1.
        -11    1    3    3    0    0  0.61350566724E+01 -0.50890828217E+01  0.69392032569E+01  0.10568359685E+02  0.51100000000E-03 0.  1.
         12    1    3    3    0    0  0.89357523665E-01 -0.12616588850E+01  0.16999024326E+00  0.12761914402E+01  0.00000000000E+00 0. -1.
</event>
<event>
 7    1  0.2476315E-009  0.4778727E+02  0.7816164E-02  0.1312668E+00
        -11   -1    0    0    0    0  0.00000000000E+00  0.00000000000E+00  0.45593999997E+02  0.45594000000E+02  0.51100000000E-03 0.  1.
         11   -1    0    0    0    0 -0.00000000000E+00 -0.00000000000E+00 -0.45593999997E+02  0.45594000000E+02  0.51100000000E-03 0. -1.
    9900012    2    1    2    0    0 -0.24938006986E+02 -0.18570690370E+02  0.30279504136E+02  0.47787273002E+02  0.20000008926E+02 0.  0.
         12    1    1    2    0    0  0.24938006986E+02  0.18570690370E+02 -0.30279504136E+02  0.43400726998E+02  0.00000000000E+00 0. -1.
         11    1    3    3    0    0 -0.75153963050E+01 -0.10625472618E+02  0.54075178335E+01  0.14093370760E+02  0.51100000000E-03 0. -1.
        -11    1    3    3    0    0 -0.93042533861E+00  0.34661672447E+00  0.98353797420E+01  0.98853694617E+01  0.51100000000E-03 0.  1.
        -12    1    3    3    0    0 -0.16492185342E+02 -0.82918344762E+01  0.15036606560E+02  0.23808532781E+02  0.00000000000E+00 0.  1.
</event>
<event>
 7    1  0.2476315E-009  0.4778726E+02  0.7816164E-02  0.1312668E+00
        -11   -1    0    0    0    0  0.00000000000E+00  0.00000000000E+00  0.45593999997E+02  0.45594000000E+02  0.51100000000E-03 0.  1.
         11   -1    0    0    0    0 -0.00000000000E+00 -0.00000000000E+00 -0.45593999997E+02  0.45594000000E+02  0.51100000000E-03 0. -1.
    9900012    2    1    2    0    0  0.37249157771E+01 -0.14111257459E+02  0.40873240315E+02  0.47787258549E+02  0.19999943030E+02 0.  0.
         12    1    1    2    0    0 -0.37249157771E+01  0.14111257459E+02 -0.40873240315E+02  0.43400741451E+02  0.00000000000E+00 0. -1.
         11    1    3    3    0    0 -0.40927707796E+01  0.18657605503E+01  0.38510505163E+01  0.59213533441E+01  0.51100000000E-03 0. -1.
        -11    1    3    3    0    0  0.77176950360E+01 -0.16305386486E+02  0.31246924288E+02  0.36080447930E+02  0.51100000000E-03 0.  1.
         12    1    3    3    0    0  0.99991520732E-01  0.32836847689E+00  0.57752655108E+01  0.57854572751E+01  0.00000000000E+00 0. -1.
</event>
<event>
 7    1  0.2476315E-009  0.4778731E+02  0.7816164E-02  0.1312668E+00
        -11   -1    0    0    0    0  0.00000000000E+00  0.00000000000E+00  0.45593999997E+02  0.45594000000E+02  0.51100000000E-03 0.  1.
         11   -1    0    0    0    0 -0.00000000000E+00 -0.00000000000E+00 -0.45593999997E+02  0.45594000000E+02  0.51100000000E-03 0. -1.
    9900012    2    1    2    0    0  0.38268911791E+02 -0.90165886857E+01  0.18379654073E+02  0.47787306860E+02  0.20000163297E+02 0.  0.
         12    1    1    2    0    0 -0.38268911791E+02  0.90165886857E+01 -0.18379654073E+02  0.43400693140E+02  0.00000000000E+00 0. -1.
         11    1    3    3    0    0  0.26703059916E+02 -0.10824948457E+02  0.16913459819E+02  0.33411046695E+02  0.51100000000E-03 0. -1.
        -11    1    3    3    0    0  0.32204187348E+01 -0.28404064282E+01  0.21436521598E+01  0.47994010406E+01  0.51100000000E-03 0.  1.
         12    1    3    3    0    0  0.83454331400E+01  0.46487661992E+01 -0.67745790582E+00  0.95768591241E+01  0.00000000000E+00 0. -1.
</event>
<event>
 7    1  0.2476315E-009  0.4778727E+02  0.7816164E-02  0.1312668E+00
        -11   -1    0    0    0    0  0.00000000000E+00  0.00000000000E+00  0.45593999997E+02  0.45594000000E+02  0.51100000000E-03 0. -1.
         11   -1    0    0    0    0 -0.00000000000E+00 -0.00000000000E+00 -0.45593999997E+02  0.45594000000E+02  0.51100000000E-03 0.  1.
    9900012    2    1    2    0    0  0.18534912648E+02 -0.39147572884E+02  0.27473805937E+01  0.47787267867E+02  0.19999985511E+02 0.  0.
         12    1    1    2    0    0 -0.18534912648E+02  0.39147572884E+02 -0.27473805937E+01  0.43400732133E+02  0.00000000000E+00 0. -1.
         11    1    3    3    0    0  0.93114269416E+01 -0.13396746955E+02  0.85240514265E+01  0.18407470050E+02  0.51100000000E-03 0. -1.
        -11    1    3    3    0    0  0.83243564174E+00 -0.14562791926E+02 -0.10772991951E+01  0.14626292476E+02  0.51100000000E-03 0.  1.
         12    1    3    3    0    0  0.83910500643E+01 -0.11188034003E+02 -0.46993716378E+01  0.14753505340E+02  0.00000000000E+00 0. -1.
</event>
<event>
 7    1  0.2476315E-009  0.4778727E+02  0.7816164E-02  0.1312668E+00
        -11   -1    0    0    0    0  0.00000000000E+00  0.00000000000E+00  0.45593999997E+02  0.45594000000E+02  0.51100000000E-03 0. -1.
         11   -1    0    0    0    0 -0.00000000000E+00 -0.00000000000E+00 -0.45593999997E+02  0.45594000000E+02  0.51100000000E-03 0.  1.
    9900012    2    1    2    0    0 -0.15638250723E+02  0.34527965935E+02 -0.21139720786E+02  0.47787272907E+02  0.20000008490E+02 0.  0.
         12    1    1    2    0    0  0.15638250723E+02 -0.34527965935E+02  0.21139720786E+02  0.43400727093E+02  0.00000000000E+00 0. -1.
         11    1    3    3    0    0  0.16854167052E+01  0.18538267474E+01  0.14654199449E+01  0.29025435321E+01  0.51100000000E-03 0. -1.
        -11    1    3    3    0    0 -0.98814895157E+01  0.28312961806E+02 -0.15786252895E+02  0.33889134277E+02  0.51100000000E-03 0.  1.
        -12    1    3    3    0    0 -0.74421779123E+01  0.43611773818E+01 -0.68188878359E+01  0.10995595098E+02  0.00000000000E+00 0.  1.
</event>
<event>
 7    1  0.2476315E-009  0.4778727E+02  0.7816164E-02  0.1312668E+00
        -11   -1    0    0    0    0  0.00000000000E+00  0.00000000000E+00  0.45593999997E+02  0.45594000000E+02  0.51100000000E-03 0.  1.
         11   -1    0    0    0    0 -0.00000000000E+00 -0.00000000000E+00 -0.45593999997E+02  0.45594000000E+02  0.51100000000E-03 0. -1.
    9900012    2    1    2    0    0 -0.12082441748E+02 -0.28191179878E+02  0.30706598067E+02  0.47787272053E+02  0.20000004599E+02 0.  0.
         12    1    1    2    0    0  0.12082441748E+02  0.28191179878E+02 -0.30706598067E+02  0.43400727947E+02  0.00000000000E+00 0. -1.
         11    1    3    3    0    0 -0.59432812620E+01 -0.14596253092E+02  0.73844588399E+01  0.17404121038E+02  0.51100000000E-03 0. -1.
        -11    1    3    3    0    0 -0.56509518844E+01 -0.61481211493E+01  0.20949171817E+02  0.22552171756E+02  0.51100000000E-03 0.  1.
        -12    1    3    3    0    0 -0.48820860182E+00 -0.74468056365E+01  0.23729674100E+01  0.78309792591E+01  0.00000000000E+00 0.  1.
</event>
<event>
 7    1  0.2476315E-009  0.4778724E+02  0.7816164E-02  0.1312668E+00
        -11   -1    0    0    0    0  0.00000000000E+00  0.00000000000E+00  0.45593999997E+02  0.45594000000E+02  0.51100000000E-03 0. -1.
         11   -1    0    0    0    0 -0.00000000000E+00 -0.00000000000E+00 -0.45593999997E+02  0.45594000000E+02  0.51100000000E-03 0.  1.
    9900012    2    1    2    0    0  0.52352552479E+00 -0.28737843964E+02 -0.32519047806E+02  0.47787237047E+02  0.19999844990E+02 0.  0.
         12    1    1    2    0    0 -0.52352552479E+00  0.28737843964E+02  0.32519047806E+02  0.43400762953E+02  0.00000000000E+00 0. -1.
         11    1    3    3    0    0  0.23450043819E+01 -0.12214120614E+01  0.17032212046E+01  0.31451320652E+01  0.51100000000E-03 0. -1.
        -11    1    3    3    0    0 -0.34700508546E+01 -0.10079927263E+02 -0.90939844291E+01  0.14012378085E+02  0.51100000000E-03 0.  1.
         12    1    3    3    0    0  0.16485719974E+01 -0.17436504640E+02 -0.25128284582E+02  0.30629726896E+02  0.00000000000E+00 0. -1.
</event>
<event>
 7    1  0.2476315E-009  0.4778727E+02  0.7816164E-02  0.1312668E+00
        -11   -1    0    0    0    0  0.00000000000E+00  0.00000000000E+00  0.45593999997E+02  0.45594000000E+02  0.51100000000E-03 0. -1.
         11   -1    0    0    0    0 -0.00000000000E+00 -0.00000000000E+00 -0.45593999997E+02  0.45594000000E+02  0.51100000000E-03 0.  1.
    9900012    2    1    2    0    0 -0.17430595285E+02 -0.29729407573E+02  0.26381049803E+02  0.47787272871E+02  0.20000008328E+02 0.  0.
         12    1    1    2    0    0  0.17430595285E+02  0.29729407573E+02 -0.26381049803E+02  0.43400727129E+02  0.00000000000E+00 0. -1.
         11    1    3    3    0    0  0.24762925059E+01 -0.10861193159E+02  0.99271293312E+01  0.14921308201E+02  0.51100000000E-03 0. -1.
        -11    1    3    3    0    0 -0.26484994541E+01 -0.70496808461E+01  0.41575043861E+01  0.86021737004E+01  0.51100000000E-03 0.  1.
         12    1    3    3    0    0 -0.17258388336E+02 -0.11818533568E+02  0.12296416085E+02  0.24263790970E+02  0.00000000000E+00 0. -1.
</event>
<event>
 7    1  0.2476315E-009  0.4778728E+02  0.7816164E-02  0.1312668E+00
        -11   -1    0    0    0    0  0.00000000000E+00  0.00000000000E+00  0.45593999997E+02  0.45594000000E+02  0.51100000000E-03 0.  1.
         11   -1    0    0    0    0 -0.00000000000E+00 -0.00000000000E+00 -0.45593999997E+02  0.45594000000E+02  0.51100000000E-03 0. -1.
    9900012    2    1    2    0    0  0.84347805414E+01 -0.17228221333E+02  0.38931549417E+02  0.47787277965E+02  0.20000031556E+02 0.  0.
         12    1    1    2    0    0 -0.84347805414E+01  0.17228221333E+02 -0.38931549417E+02  0.43400722035E+02  0.00000000000E+00 0. -1.
         11    1    3    3    0    0 -0.34643730620E+01 -0.98927564305E+00  0.97875223652E+01  0.10429580112E+02  0.51100000000E-03 0. -1.
        -11    1    3    3    0    0  0.82181157341E+01 -0.10392680214E+02  0.88839720270E+01  0.15952121723E+02  0.51100000000E-03 0.  1.
        -12    1    3    3    0    0  0.36810378693E+01 -0.58462654763E+01  0.20260055025E+02  0.21405576130E+02  0.00000000000E+00 0.  1.
</event>
<event>
 7    1  0.2476315E-009  0.4778727E+02  0.7816164E-02  0.1312668E+00
        -11   -1    0    0    0    0  0.00000000000E+00  0.00000000000E+00  0.45593999997E+02  0.45594000000E+02  0.51100000000E-03 0. -1.
         11   -1    0    0    0    0 -0.00000000000E+00 -0.00000000000E+00 -0.45593999997E+02  0.45594000000E+02  0.51100000000E-03 0.  1.
    9900012    2    1    2    0    0  0.31644635859E+02  0.24591856755E+02  0.16657754168E+02  0.47787272227E+02  0.20000005391E+02 0.  0.
         12    1    1    2    0    0 -0.31644635859E+02 -0.24591856755E+02 -0.16657754168E+02  0.43400727773E+02  0.00000000000E+00 0. -1.
         11    1    3    3    0    0  0.56239371990E+01  0.94714285828E+01  0.11374332772E+02  0.15833890087E+02  0.51100000000E-03 0. -1.
        -11    1    3    3    0    0  0.55890432544E+01  0.21232208021E+01 -0.25539314000E+01  0.65013873082E+01  0.51100000000E-03 0.  1.
         12    1    3    3    0    0  0.20431655406E+02  0.12997207370E+02  0.78373527951E+01  0.25451994831E+02  0.00000000000E+00 0. -1.
</event>
<event>
 7    1  0.2476315E-009  0.4778727E+02  0.7816164E-02  0.1312668E+00
        -11   -1    0    0    0    0  0.00000000000E+00  0.00000000000E+00  0.45593999997E+02  0.45594000000E+02  0.51100000000E-03 0.  1.
         11   -1    0    0    0    0 -0.00000000000E+00 -0.00000000000E+00 -0.45593999997E+02  0.45594000000E+02  0.51100000000E-03 0. -1.
    9900012    2    1    2    0    0 -0.39808371811E+02  0.16990155246E+02 -0.32017496124E+01  0.47787273715E+02  0.20000012175E+02 0.  0.
         12    1    1    2    0    0  0.39808371811E+02 -0.16990155246E+02  0.32017496124E+01  0.43400726285E+02  0.00000000000E+00 0. -1.
         11    1    3    3    0    0 -0.47512102421E+01 -0.13528760772E+01 -0.57543413115E+01  0.75839776262E+01  0.51100000000E-03 0. -1.
        -11    1    3    3    0    0 -0.10956457429E+02  0.93018513505E+01  0.13214367249E+01  0.14433107539E+02  0.51100000000E-03 0.  1.
         12    1    3    3    0    0 -0.24100704140E+02  0.90411799726E+01  0.12311549742E+01  0.25770188550E+02  0.00000000000E+00 0. -1.
</event>
<event>
 7    1  0.2476315E-009  0.4778727E+02  0.7816164E-02  0.1312668E+00
        -11   -1    0    0    0    0  0.00000000000E+00  0.00000000000E+00  0.45593999997E+02  0.45594000000E+02  0.51100000000E-03 0.  1.
         11   -1    0    0    0    0 -0.00000000000E+00 -0.00000000000E+00 -0.45593999997E+02  0.45594000000E+02  0.51100000000E-03 0. -1.
    9900012    2    1    2    0    0  0.26854017958E+02 -0.21820752112E+02  0.26198085063E+02  0.47787272308E+02  0.20000005762E+02 0.  0.
         12    1    1    2    0    0 -0.26854017958E+02  0.21820752112E+02 -0.26198085063E+02  0.43400727692E+02  0.00000000000E+00 0. -1.
         11    1    3    3    0    0  0.10682348410E+02 -0.12717265308E+02  0.35745181819E+01  0.16988778207E+02  0.51100000000E-03 0. -1.
        -11    1    3    3    0    0  0.15789013697E+02 -0.72631383944E+01  0.23053177265E+02  0.28870315466E+02  0.51100000000E-03 0.  1.
        -12    1    3    3    0    0  0.38265585098E+00 -0.18403484094E+01 -0.42961038312E+00  0.19281786353E+01  0.00000000000E+00 0.  1.
</event>
<event>
 7    1  0.2476315E-009  0.4778727E+02  0.7816164E-02  0.1312668E+00
        -11   -1    0    0    0    0  0.00000000000E+00  0.00000000000E+00  0.45593999997E+02  0.45594000000E+02  0.51100000000E-03 0.  1.
         11   -1    0    0    0    0 -0.00000000000E+00 -0.00000000000E+00 -0.45593999997E+02  0.45594000000E+02  0.51100000000E-03 0. -1.
    9900012    2    1    2    0    0 -0.27311876748E+02  0.32878872470E+02  0.75275677876E+01  0.47787272550E+02  0.20000006865E+02 0.  0.
         12    1    1    2    0    0  0.27311876748E+02 -0.32878872470E+02 -0.75275677876E+01  0.43400727450E+02  0.00000000000E+00 0. -1.
         11    1    3    3    0    0 -0.14805679695E+01  0.51147457906E+01  0.10679491024E+01  0.54307662038E+01  0.51100000000E-03 0. -1.
        -11    1    3    3    0    0 -0.10335638581E+02  0.18432846921E+02 -0.39322772107E+01  0.21495536160E+02  0.51100000000E-03 0.  1.
        -12    1    3    3    0    0 -0.15495670197E+02  0.93312797588E+01  0.10391895896E+02  0.20860970186E+02  0.00000000000E+00 0.  1.
</event>
<event>
 7    1  0.2476315E-009  0.4778727E+02  0.7816164E-02  0.1312668E+00
        -11   -1    0    0    0    0  0.00000000000E+00  0.00000000000E+00  0.45593999997E+02  0.45594000000E+02  0.51100000000E-03 0. -1.
         11   -1    0    0    0    0 -0.00000000000E+00 -0.00000000000E+00 -0.45593999997E+02  0.45594000000E+02  0.51100000000E-03 0.  1.
    9900012    2    1    2    0    0 -0.29211553663E+02 -0.21531573344E+02 -0.23805452606E+02  0.47787273141E+02  0.20000009560E+02 0.  0.
         12    1    1    2    0    0  0.29211553663E+02  0.21531573344E+02  0.23805452606E+02  0.43400726859E+02  0.00000000000E+00 0. -1.
         11    1    3    3    0    0 -0.47684566818E+01  0.68452871268E-01  0.80979932815E-01  0.47696355135E+01  0.51100000000E-03 0. -1.
        -11    1    3    3    0    0 -0.18600946894E+02 -0.23136438632E+02 -0.18980333940E+02  0.35235537383E+02  0.51100000000E-03 0.  1.
        -12    1    3    3    0    0 -0.58421500869E+01  0.15364124167E+01 -0.49060985995E+01  0.77821002448E+01  0.00000000000E+00 0.  1.
</event>
<event>
 7    1  0.2476315E-009  0.4778726E+02  0.7816164E-02  0.1312668E+00
        -11   -1    0    0    0    0  0.00000000000E+00  0.00000000000E+00  0.45593999997E+02  0.45594000000E+02  0.51100000000E-03 0. -1.
         11   -1    0    0    0    0 -0.00000000000E+00 -0.00000000000E+00 -0.45593999997E+02  0.45594000000E+02  0.51100000000E-03 0.  1.
    9900012    2    1    2    0    0  0.21238862293E+02 -0.24074228240E+02 -0.29205585081E+02  0.47787263407E+02  0.19999965179E+02 0.  0.
         12    1    1    2    0    0 -0.21238862293E+02  0.24074228240E+02  0.29205585081E+02  0.43400736593E+02  0.00000000000E+00 0. -1.
         11    1    3    3    0    0  0.13146746699E+02 -0.95386211610E+01 -0.14850633010E+02  0.22008260801E+02  0.51100000000E-03 0. -1.
        -11    1    3    3    0    0 -0.19529842797E+01  0.55862779148E+00  0.76509573794E+00  0.21706184270E+01  0.51100000000E-03 0.  1.
         12    1    3    3    0    0  0.10045099874E+02 -0.15094234871E+02 -0.15120047810E+02  0.23608384180E+02  0.00000000000E+00 0. -1.
</event>
<event>
 7    1  0.2476315E-009  0.4778722E+02  0.7816164E-02  0.1312668E+00
        -11   -1    0    0    0    0  0.00000000000E+00  0.00000000000E+00  0.45593999997E+02  0.45594000000E+02  0.51100000000E-03 0.  1.
         11   -1    0    0    0    0 -0.00000000000E+00 -0.00000000000E+00 -0.45593999997E+02  0.45594000000E+02  0.51100000000E-03 0. -1.
    9900012    2    1    2    0    0 -0.41125126406E+02  0.43967671874E+01  0.13153700680E+02  0.47787223219E+02  0.19999781943E+02 0.  0.
         12    1    1    2    0    0  0.41125126406E+02 -0.43967671874E+01 -0.13153700680E+02  0.43400776781E+02  0.00000000000E+00 0. -1.
         11    1    3    3    0    0 -0.15053302451E+02  0.39210447690E+01  0.42879723159E+01  0.16135774342E+02  0.51100000000E-03 0. -1.
        -11    1    3    3    0    0  0.28541592395E+00 -0.27672529749E+01  0.36480138492E+01  0.45877180147E+01  0.51100000000E-03 0.  1.
        -12    1    3    3    0    0 -0.26357239879E+02  0.32429753934E+01  0.52177145152E+01  0.27063730863E+02  0.00000000000E+00 0.  1.
</event>
<event>
 7    1  0.2476315E-009  0.4778727E+02  0.7816164E-02  0.1312668E+00
        -11   -1    0    0    0    0  0.00000000000E+00  0.00000000000E+00  0.45593999997E+02  0.45594000000E+02  0.51100000000E-03 0. -1.
         11   -1    0    0    0    0 -0.00000000000E+00 -0.00000000000E+00 -0.45593999997E+02  0.45594000000E+02  0.51100000000E-03 0.  1.
    9900012    2    1    2    0    0 -0.25302588037E+02 -0.12981969943E+02 -0.32785224632E+02  0.47787268910E+02  0.19999990268E+02 0.  0.
         12    1    1    2    0    0  0.25302588037E+02  0.12981969943E+02  0.32785224632E+02  0.43400731090E+02  0.00000000000E+00 0. -1.
         11    1    3    3    0    0 -0.69772874711E+01  0.16264102646E+01 -0.15097993711E+01  0.73216968802E+01  0.51100000000E-03 0. -1.
        -11    1    3    3    0    0 -0.57698112784E+01 -0.47283943430E+01 -0.31054541388E+01  0.80803639101E+01  0.51100000000E-03 0.  1.
         12    1    3    3    0    0 -0.12555489288E+02 -0.98799858644E+01 -0.28169971122E+02  0.32385208120E+02  0.00000000000E+00 0. -1.
</event>
<event>
 7    1  0.2476315E-009  0.4778727E+02  0.7816164E-02  0.1312668E+00
        -11   -1    0    0    0    0  0.00000000000E+00  0.00000000000E+00  0.45593999997E+02  0.45594000000E+02  0.51100000000E-03 0.  1.
         11   -1    0    0    0    0 -0.00000000000E+00 -0.00000000000E+00 -0.45593999997E+02  0.45594000000E+02  0.51100000000E-03 0. -1.
    9900012    2    1    2    0    0  0.18085895893E+02  0.25139741920E+02  0.30405871349E+02  0.47787271128E+02  0.20000000383E+02 0.  0.
         12    1    1    2    0    0 -0.18085895893E+02 -0.25139741920E+02 -0.30405871349E+02  0.43400728872E+02  0.00000000000E+00 0. -1.
         11    1    3    3    0    0  0.22468061186E+00 -0.76548255513E+00  0.43192016297E+00  0.90719358896E+00  0.51100000000E-03 0. -1.
        -11    1    3    3    0    0  0.28578933444E+01  0.49150354776E+01 -0.17873216391E+01  0.59598361569E+01  0.51100000000E-03 0.  1.
        -12    1    3    3    0    0  0.15003321937E+02  0.20990188998E+02  0.31761272826E+02  0.40920241382E+02  0.00000000000E+00 0.  1.
</event>
<event>
 7    1  0.2476315E-009  0.4778727E+02  0.7816164E-02  0.1312668E+00
        -11   -1    0    0    0    0  0.00000000000E+00  0.00000000000E+00  0.45593999997E+02  0.45594000000E+02  0.51100000000E-03 0.  1.
         11   -1    0    0    0    0 -0.00000000000E+00 -0.00000000000E+00 -0.45593999997E+02  0.45594000000E+02  0.51100000000E-03 0. -1.
    9900012    2    1    2    0    0 -0.33259710713E+02 -0.22278399279E+02  0.16765677969E+02  0.47787269719E+02  0.19999993958E+02 0.  0.
         12    1    1    2    0    0  0.33259710713E+02  0.22278399279E+02 -0.16765677969E+02  0.43400730281E+02  0.00000000000E+00 0. -1.
         11    1    3    3    0    0 -0.21137465717E+02 -0.98121096803E+01  0.12924482795E+02  0.26647930672E+02  0.51100000000E-03 0.  1.
        -11    1    3    3    0    0 -0.37221331653E+01 -0.63142950916E+01 -0.37696779062E+01  0.82422733261E+01  0.51100000000E-03 0. -1.
         12    1    3    3    0    0 -0.84001118304E+01 -0.61519945074E+01  0.76108730799E+01  0.12897065721E+02  0.00000000000E+00 0. -1.
</event>
<event>
 7    1  0.2476315E-009  0.4778727E+02  0.7816164E-02  0.1312668E+00
        -11   -1    0    0    0    0  0.00000000000E+00  0.00000000000E+00  0.45593999997E+02  0.45594000000E+02  0.51100000000E-03 0.  1.
         11   -1    0    0    0    0 -0.00000000000E+00 -0.00000000000E+00 -0.45593999997E+02  0.45594000000E+02  0.51100000000E-03 0. -1.
    9900012    2    1    2    0    0  0.28812294809E+02 -0.27059463196E+02  0.17923743634E+02  0.47787268825E+02  0.19999989883E+02 0.  0.
         12    1    1    2    0    0 -0.28812294809E+02  0.27059463196E+02 -0.17923743634E+02  0.43400731175E+02  0.00000000000E+00 0. -1.
         11    1    3    3    0    0  0.78901186162E+01 -0.91343847628E+01  0.14226377644E+02  0.18656923056E+02  0.51100000000E-03 0. -1.
        -11    1    3    3    0    0  0.11068683247E+02 -0.14528691544E+02  0.40244316401E+01  0.18702798643E+02  0.51100000000E-03 0.  1.
         12    1    3    3    0    0  0.98534929459E+01 -0.33963868894E+01 -0.32706565024E+00  0.10427547127E+02  0.00000000000E+00 0. -1.
</event>
<event>
 7    1  0.2476315E-009  0.4778727E+02  0.7816164E-02  0.1312668E+00
        -11   -1    0    0    0    0  0.00000000000E+00  0.00000000000E+00  0.45593999997E+02  0.45594000000E+02  0.51100000000E-03 0.  1.
         11   -1    0    0    0    0 -0.00000000000E+00 -0.00000000000E+00 -0.45593999997E+02  0.45594000000E+02  0.51100000000E-03 0. -1.
    9900012    2    1    2    0    0  0.26607431558E+02  0.28290206152E+02  0.19373488900E+02  0.47787271315E+02  0.20000001236E+02 0.  0.
         12    1    1    2    0    0 -0.26607431558E+02 -0.28290206152E+02 -0.19373488900E+02  0.43400728685E+02  0.00000000000E+00 0. -1.
         11    1    3    3    0    0  0.15349901653E+01  0.18084788837E+01 -0.37088671414E+01  0.44025545328E+01  0.51100000000E-03 0. -1.
        -11    1    3    3    0    0  0.18486014599E+02  0.18021688584E+02  0.14217511008E+02  0.29472896273E+02  0.51100000000E-03 0.  1.
         12    1    3    3    0    0  0.65864267932E+01  0.84600386837E+01  0.88648450334E+01  0.13911820510E+02  0.00000000000E+00 0. -1.
</event>
<event>
 7    1  0.2476315E-009  0.4778727E+02  0.7816164E-02  0.1312668E+00
        -11   -1    0    0    0    0  0.00000000000E+00  0.00000000000E+00  0.45593999997E+02  0.45594000000E+02  0.51100000000E-03 0.  1.
         11   -1    0    0    0    0 -0.00000000000E+00 -0.00000000000E+00 -0.45593999997E+02  0.45594000000E+02  0.51100000000E-03 0. -1.
    9900012    2    1    2    0    0  0.34006519949E+02  0.59673215378E+01  0.26297737835E+02  0.47787270276E+02  0.19999996494E+02 0.  0.
         12    1    1    2    0    0 -0.34006519949E+02 -0.59673215378E+01 -0.26297737835E+02  0.43400729724E+02  0.00000000000E+00 0. -1.
         11    1    3    3    0    0  0.57733277800E+01 -0.16256635011E+01  0.96940045840E+01  0.11399465804E+02  0.51100000000E-03 0. -1.
        -11    1    3    3    0    0  0.19934837158E+02  0.11596944600E+02  0.13147974897E+02  0.26547242808E+02  0.51100000000E-03 0.  1.
        -12    1    3    3    0    0  0.82983550113E+01 -0.40039595609E+01  0.34557583546E+01  0.98405616640E+01  0.00000000000E+00 0.  1.
</event>
<event>
 7    1  0.2476315E-009  0.4778727E+02  0.7816164E-02  0.1312668E+00
        -11   -1    0    0    0    0  0.00000000000E+00  0.00000000000E+00  0.45593999997E+02  0.45594000000E+02  0.51100000000E-03 0.  1.
         11   -1    0    0    0    0 -0.00000000000E+00 -0.00000000000E+00 -0.45593999997E+02  0.45594000000E+02  0.51100000000E-03 0. -1.
    9900012    2    1    2    0    0 -0.29230830399E+00  0.23020824255E+02  0.36791026085E+02  0.47787269662E+02  0.19999993695E+02 0.  0.
         12    1    1    2    0    0  0.29230830399E+00 -0.23020824255E+02 -0.36791026085E+02  0.43400730338E+02  0.00000000000E+00 0. -1.
         11    1    3    3    0    0 -0.69523042378E+01  0.11772530119E+02  0.21584912339E+02  0.25550644621E+02  0.51100000000E-03 0. -1.
        -11    1    3    3    0    0 -0.13883294390E+00  0.59568599007E+01  0.11305217181E+02  0.12779334499E+02  0.51100000000E-03 0.  1.
         12    1    3    3    0    0  0.67988288777E+01  0.52914342354E+01  0.39008965651E+01  0.94572905416E+01  0.00000000000E+00 0. -1.
</event>
<event>
 7    1  0.2476315E-009  0.4778727E+02  0.7816164E-02  0.1312668E+00
        -11   -1    0    0    0    0  0.00000000000E+00  0.00000000000E+00  0.45593999997E+02  0.45594000000E+02  0.51100000000E-03 0. -1.
         11   -1    0    0    0    0 -0.00000000000E+00 -0.00000000000E+00 -0.45593999997E+02  0.45594000000E+02  0.51100000000E-03 0.  1.
    9900012    2    1    2    0    0  0.14475812004E+02  0.30436151675E+02  0.27344377071E+02  0.47787269368E+02  0.19999992356E+02 0.  0.
         12    1    1    2    0    0 -0.14475812004E+02 -0.30436151675E+02 -0.27344377071E+02  0.43400730632E+02  0.00000000000E+00 0. -1.
         11    1    3    3    0    0  0.10728357273E+02  0.10583082923E+02  0.14807579459E+02  0.21127321260E+02  0.51100000000E-03 0. -1.
        -11    1    3    3    0    0  0.37482972445E+01  0.20913830274E+02  0.13544327358E+02  0.25196960785E+02  0.51100000000E-03 0.  1.
        -12    1    3    3    0    0 -0.84251354716E-03 -0.10607615223E+01 -0.10075297457E+01  0.14629873224E+01  0.00000000000E+00 0.  1.
</event>
<event>
 7    1  0.2476315E-009  0.4778726E+02  0.7816164E-02  0.1312668E+00
        -11   -1    0    0    0    0  0.00000000000E+00  0.00000000000E+00  0.45593999997E+02  0.45594000000E+02  0.51100000000E-03 0. -1.
         11   -1    0    0    0    0 -0.00000000000E+00 -0.00000000000E+00 -0.45593999997E+02  0.45594000000E+02  0.51100000000E-03 0.  1.
    9900012    2    1    2    0    0 -0.38979766164E+02 -0.10733581299E+02 -0.15779489817E+02  0.47787259954E+02  0.19999949433E+02 0.  0.
         12    1    1    2    0    0  0.38979766164E+02  0.10733581299E+02  0.15779489817E+02  0.43400740046E+02  0.00000000000E+00 0. -1.
         11    1    3    3    0    0  0.16294672880E+01  0.61466467376E+00 -0.20987219474E+01  0.27271982651E+01  0.51100000000E-03 0. -1.
        -11    1    3    3    0    0 -0.35360631310E+02 -0.74632357629E+01 -0.13333365759E+02  0.38520809667E+02  0.51100000000E-03 0.  1.
        -12    1    3    3    0    0 -0.52486021416E+01 -0.38850102100E+01 -0.34740211031E+00  0.65392520214E+01  0.00000000000E+00 0.  1.
</event>
<event>
 7    1  0.2476315E-009  0.4778727E+02  0.7816164E-02  0.1312668E+00
        -11   -1    0    0    0    0  0.00000000000E+00  0.00000000000E+00  0.45593999997E+02  0.45594000000E+02  0.51100000000E-03 0. -1.
         11   -1    0    0    0    0 -0.00000000000E+00 -0.00000000000E+00 -0.45593999997E+02  0.45594000000E+02  0.51100000000E-03 0.  1.
    9900012    2    1    2    0    0  0.21533050807E+02 -0.37677719920E+02 -0.58389721664E+00  0.47787265082E+02  0.19999972816E+02 0.  0.
         12    1    1    2    0    0 -0.21533050807E+02  0.37677719920E+02  0.58389721664E+00  0.43400734918E+02  0.00000000000E+00 0. -1.
         11    1    3    3    0    0  0.29157776074E+01 -0.16718380316E+02 -0.13995850905E+01  0.17028353947E+02  0.51100000000E-03 0. -1.
        -11    1    3    3    0    0  0.14058786065E+02 -0.13765914339E+02  0.62638774535E+01  0.20649116790E+02  0.51100000000E-03 0.  1.
        -12    1    3    3    0    0  0.45584871350E+01 -0.71934252643E+01 -0.54481895796E+01  0.10109794345E+02  0.00000000000E+00 0.  1.
</event>
<event>
 7    1  0.2476315E-009  0.4778727E+02  0.7816164E-02  0.1312668E+00
        -11   -1    0    0    0    0  0.00000000000E+00  0.00000000000E+00  0.45593999997E+02  0.45594000000E+02  0.51100000000E-03 0.  1.
         11   -1    0    0    0    0 -0.00000000000E+00 -0.00000000000E+00 -0.45593999997E+02  0.45594000000E+02  0.51100000000E-03 0. -1.
    9900012    2    1    2    0    0  0.42478878027E+02  0.27543552092E+01  0.84606131648E+01  0.47787268138E+02  0.19999986749E+02 0.  0.
         12    1    1    2    0    0 -0.42478878027E+02 -0.27543552092E+01 -0.84606131648E+01  0.43400731862E+02  0.00000000000E+00 0. -1.
         11    1    3    3    0    0  0.40719824062E+01  0.11303877027E+01 -0.43668792246E+01  0.60768784338E+01  0.51100000000E-03 0. -1.
        -11    1    3    3    0    0  0.15549125939E+02 -0.34110158879E+01  0.24462657000E+01  0.16105730750E+02  0.51100000000E-03 0.  1.
         12    1    3    3    0    0  0.22857769682E+02  0.50349833943E+01  0.10381226689E+02  0.25604658954E+02  0.00000000000E+00 0. -1.
</event>
<event>
 7    1  0.2476315E-009  0.4778727E+02  0.7816164E-02  0.1312668E+00
        -11   -1    0    0    0    0  0.00000000000E+00  0.00000000000E+00  0.45593999997E+02  0.45594000000E+02  0.51100000000E-03 0.  1.
         11   -1    0    0    0    0 -0.00000000000E+00 -0.00000000000E+00 -0.45593999997E+02  0.45594000000E+02  0.51100000000E-03 0. -1.
    9900012    2    1    2    0    0 -0.31677720620E+02  0.15712779368E+02  0.25164540231E+02  0.47787268391E+02  0.19999987904E+02 0.  0.
         12    1    1    2    0    0  0.31677720620E+02 -0.15712779368E+02 -0.25164540231E+02  0.43400731609E+02  0.00000000000E+00 0. -1.
         11    1    3    3    0    0 -0.62711392739E+00  0.59711666167E+01  0.78006695205E+00  0.60544700308E+01  0.51100000000E-03 0. -1.
        -11    1    3    3    0    0 -0.19244388215E+02  0.62093396726E+01  0.20540591956E+02  0.28823918802E+02  0.51100000000E-03 0.  1.
        -12    1    3    3    0    0 -0.11806218477E+02  0.35322730786E+01  0.38438813228E+01  0.12908879558E+02  0.00000000000E+00 0.  1.
</event>
<event>
 7    1  0.2476315E-009  0.4778727E+02  0.7816164E-02  0.1312668E+00
        -11   -1    0    0    0    0  0.00000000000E+00  0.00000000000E+00  0.45593999997E+02  0.45594000000E+02  0.51100000000E-03 0.  1.
         11   -1    0    0    0    0 -0.00000000000E+00 -0.00000000000E+00 -0.45593999997E+02  0.45594000000E+02  0.51100000000E-03 0. -1.
    9900012    2    1    2    0    0  0.17136445970E+02 -0.58011378587E+01  0.39450123979E+02  0.47787271171E+02  0.20000000578E+02 0.  0.
         12    1    1    2    0    0 -0.17136445970E+02  0.58011378587E+01 -0.39450123979E+02  0.43400728829E+02  0.00000000000E+00 0. -1.
         11    1    3    3    0    0 -0.15925985982E+01  0.31736516349E+00  0.15236577212E+02  0.15322871022E+02  0.51100000000E-03 0. -1.
        -11    1    3    3    0    0  0.12972789617E+01 -0.28733995418E+01  0.73363983797E+01  0.79851173490E+01  0.51100000000E-03 0.  1.
         12    1    3    3    0    0  0.17431765607E+02 -0.32451034805E+01  0.16877148387E+02  0.24479282801E+02  0.00000000000E+00 0. -1.
</event>
<event>
 7    1  0.2476315E-009  0.4778727E+02  0.7816164E-02  0.1312668E+00
        -11   -1    0    0    0    0  0.00000000000E+00  0.00000000000E+00  0.45593999997E+02  0.45594000000E+02  0.51100000000E-03 0.  1.
         11   -1    0    0    0    0 -0.00000000000E+00 -0.00000000000E+00 -0.45593999997E+02  0.45594000000E+02  0.51100000000E-03 0. -1.
    9900012    2    1    2    0    0 -0.21697946089E+02  0.37520670460E+02 -0.22409635071E+01  0.47787268512E+02  0.19999988452E+02 0.  0.
         12    1    1    2    0    0  0.21697946089E+02 -0.37520670460E+02  0.22409635071E+01  0.43400731488E+02  0.00000000000E+00 0. -1.
         11    1    3    3    0    0 -0.65046903576E+01  0.21151399611E+01  0.16598780377E+01  0.70384663858E+01  0.51100000000E-03 0. -1.
        -11    1    3    3    0    0 -0.93271910972E+01  0.30256397210E+02 -0.68692054255E+01  0.32398025393E+02  0.51100000000E-03 0.  1.
        -12    1    3    3    0    0 -0.58660646343E+01  0.51491332890E+01  0.29683638806E+01  0.83507767334E+01  0.00000000000E+00 0.  1.
</event>
<event>
 7    1  0.2476315E-009  0.4778727E+02  0.7816164E-02  0.1312668E+00
        -11   -1    0    0    0    0  0.00000000000E+00  0.00000000000E+00  0.45593999997E+02  0.45594000000E+02  0.51100000000E-03 0. -1.
         11   -1    0    0    0    0 -0.00000000000E+00 -0.00000000000E+00 -0.45593999997E+02  0.45594000000E+02  0.51100000000E-03 0.  1.
    9900012    2    1    2    0    0 -0.21606704556E+02 -0.16221989900E+02 -0.33964991185E+02  0.47787271155E+02  0.20000000503E+02 0.  0.
         12    1    1    2    0    0  0.21606704556E+02  0.16221989900E+02  0.33964991185E+02  0.43400728845E+02  0.00000000000E+00 0. -1.
         11    1    3    3    0    0 -0.34337846561E+01 -0.54403482210E-01 -0.76437809985E+01  0.83798105598E+01  0.51100000000E-03 0. -1.
        -11    1    3    3    0    0 -0.17157660461E+02 -0.17425903535E+02 -0.27932329791E+02  0.37124957567E+02  0.51100000000E-03 0.  1.
        -12    1    3    3    0    0 -0.10152594384E+01  0.12583171173E+01  0.16111196042E+01  0.22825030283E+01  0.00000000000E+00 0.  1.
</event>
<event>
 7    1  0.2476315E-009  0.4778729E+02  0.7816164E-02  0.1312668E+00
        -11   -1    0    0    0    0  0.00000000000E+00  0.00000000000E+00  0.45593999997E+02  0.45594000000E+02  0.51100000000E-03 0.  1.
         11   -1    0    0    0    0 -0.00000000000E+00 -0.00000000000E+00 -0.45593999997E+02  0.45594000000E+02  0.51100000000E-03 0. -1.
    9900012    2    1    2    0    0  0.23910101994E+01 -0.44653070961E+01  0.43104125805E+02  0.47787290805E+02  0.20000090094E+02 0.  0.
         12    1    1    2    0    0 -0.23910101994E+01  0.44653070961E+01 -0.43104125805E+02  0.43400709195E+02  0.00000000000E+00 0. -1.
         11    1    3    3    0    0  0.92514474518E+00  0.16294119864E+00 -0.17721235329E+01  0.20057080322E+01  0.51100000000E-03 0. -1.
        -11    1    3    3    0    0  0.58581897245E+00 -0.57176584702E+01  0.18594201057E+02  0.19462248469E+02  0.51100000000E-03 0.  1.
         12    1    3    3    0    0  0.88004648178E+00  0.10894101755E+01  0.26282048281E+02  0.26319334303E+02  0.00000000000E+00 0. -1.
</event>
<event>
 7    1  0.2476315E-009  0.4778727E+02  0.7816164E-02  0.1312668E+00
        -11   -1    0    0    0    0  0.00000000000E+00  0.00000000000E+00  0.45593999997E+02  0.45594000000E+02  0.51100000000E-03 0.  1.
         11   -1    0    0    0    0 -0.00000000000E+00 -0.00000000000E+00 -0.45593999997E+02  0.45594000000E+02  0.51100000000E-03 0. -1.
    9900012    2    1    2    0    0  0.13133781828E+01  0.38621337423E+02  0.19755771961E+02  0.47787271983E+02  0.20000004279E+02 0.  0.
         12    1    1    2    0    0 -0.13133781828E+01 -0.38621337423E+02 -0.19755771961E+02  0.43400728017E+02  0.00000000000E+00 0. -1.
         11    1    3    3    0    0  0.32784653484E+01  0.35744397948E+01  0.10800243700E+01  0.49690449574E+01  0.51100000000E-03 0. -1.
        -11    1    3    3    0    0  0.20819555050E+01  0.30724825537E+02  0.10124023356E+02  0.32416744009E+02  0.51100000000E-03 0.  1.
        -12    1    3    3    0    0 -0.40470426707E+01  0.43220720920E+01  0.85517242354E+01  0.10401483017E+02  0.00000000000E+00 0.  1.
</event>
<event>
 7    1  0.2476315E-009  0.4778722E+02  0.7816164E-02  0.1312668E+00
        -11   -1    0    0    0    0  0.00000000000E+00  0.00000000000E+00  0.45593999997E+02  0.45594000000E+02  0.51100000000E-03 0.  1.
         11   -1    0    0    0    0 -0.00000000000E+00 -0.00000000000E+00 -0.45593999997E+02  0.45594000000E+02  0.51100000000E-03 0. -1.
    9900012    2    1    2    0    0  0.31919969198E+02 -0.10429685001E+02  0.27494810215E+02  0.47787224067E+02  0.19999785808E+02 0.  0.
         12    1    1    2    0    0 -0.31919969198E+02  0.10429685001E+02 -0.27494810215E+02  0.43400775933E+02  0.00000000000E+00 0. -1.
         11    1    3    3    0    0  0.21105918471E+02 -0.14564222528E+02  0.13589307320E+02  0.29021468709E+02  0.51100000000E-03 0. -1.
        -11    1    3    3    0    0  0.86671526910E+01  0.26508089962E+01  0.72159482356E+01  0.11585172994E+02  0.51100000000E-03 0.  1.
         12    1    3    3    0    0  0.21468980364E+01  0.14837285306E+01  0.66895546596E+01  0.71805823632E+01  0.00000000000E+00 0. -1.
</event>
<event>
 7    1  0.2476315E-009  0.4778727E+02  0.7816164E-02  0.1312668E+00
        -11   -1    0    0    0    0  0.00000000000E+00  0.00000000000E+00  0.45593999997E+02  0.45594000000E+02  0.51100000000E-03 0.  1.
         11   -1    0    0    0    0 -0.00000000000E+00 -0.00000000000E+00 -0.45593999997E+02  0.45594000000E+02  0.51100000000E-03 0. -1.
    9900012    2    1    2    0    0 -0.38717865086E+02 -0.18951336160E+02 -0.50395629488E+01  0.47787269432E+02  0.19999992651E+02 0.  0.
         12    1    1    2    0    0  0.38717865086E+02  0.18951336160E+02  0.50395629488E+01  0.43400730568E+02  0.00000000000E+00 0. -1.
         11    1    3    3    0    0  0.86891721623E+00  0.16616455400E+01 -0.46168391298E+00  0.19311228148E+01  0.51100000000E-03 0. -1.
        -11    1    3    3    0    0 -0.18267395001E+02 -0.12536705354E+02 -0.61822856045E+01  0.23001898983E+02  0.51100000000E-03 0.  1.
         12    1    3    3    0    0 -0.21319387301E+02 -0.80762763462E+01  0.16044065687E+01  0.22854247635E+02  0.00000000000E+00 0. -1.
</event>
<event>
 7    1  0.2476315E-009  0.4778728E+02  0.7816164E-02  0.1312668E+00
        -11   -1    0    0    0    0  0.00000000000E+00  0.00000000000E+00  0.45593999997E+02  0.45594000000E+02  0.51100000000E-03 0.  1.
         11   -1    0    0    0    0 -0.00000000000E+00 -0.00000000000E+00 -0.45593999997E+02  0.45594000000E+02  0.51100000000E-03 0. -1.
    9900012    2    1    2    0    0  0.42245135421E+02 -0.93927164116E+00  0.99039841149E+01  0.47787278815E+02  0.20000035431E+02 0.  0.
         12    1    1    2    0    0 -0.42245135421E+02  0.93927164116E+00 -0.99039841149E+01  0.43400721185E+02  0.00000000000E+00 0. -1.
         11    1    3    3    0    0  0.77164842605E+01 -0.20025619047E+01 -0.86714238296E+00  0.80191221276E+01  0.51100000000E-03 0. -1.
        -11    1    3    3    0    0  0.29981896998E+02 -0.51620525134E+01  0.99827675355E+01  0.32019003446E+02  0.51100000000E-03 0.  1.
        -12    1    3    3    0    0  0.45467541627E+01  0.62253427769E+01  0.78835896237E+00  0.77491532415E+01  0.00000000000E+00 0.  1.
</event>
<event>
 7    1  0.2476315E-009  0.4778726E+02  0.7816164E-02  0.1312668E+00
        -11   -1    0    0    0    0  0.00000000000E+00  0.00000000000E+00  0.45593999997E+02  0.45594000000E+02  0.51100000000E-03 0.  1.
         11   -1    0    0    0    0 -0.00000000000E+00 -0.00000000000E+00 -0.45593999997E+02  0.45594000000E+02  0.51100000000E-03 0. -1.
    9900012    2    1    2    0    0  0.11865741389E+02 -0.28011438157E+02  0.30954602888E+02  0.47787263528E+02  0.19999965730E+02 0.  0.
         12    1    1    2    0    0 -0.11865741389E+02  0.28011438157E+02 -0.30954602888E+02  0.43400736472E+02  0.00000000000E+00 0. -1.
         11    1    3    3    0    0 -0.26639784649E+01 -0.60781534183E+01  0.12251824895E+02  0.13933698136E+02  0.51100000000E-03 0. -1.
        -11    1    3    3    0    0  0.13025090117E+02 -0.22942851609E+02  0.17143860572E+02  0.31463301926E+02  0.51100000000E-03 0.  1.
        -12    1    3    3    0    0  0.15046297365E+01  0.10095668701E+01  0.15589174215E+01  0.23902634659E+01  0.00000000000E+00 0.  1.
</event>
<event>
 7    1  0.2476315E-009  0.4778728E+02  0.7816164E-02  0.1312668E+00
        -11   -1    0    0    0    0  0.00000000000E+00  0.00000000000E+00  0.45593999997E+02  0.45594000000E+02  0.51100000000E-03 0.  1.
         11   -1    0    0    0    0 -0.00000000000E+00 -0.00000000000E+00 -0.45593999997E+02  0.45594000000E+02  0.51100000000E-03 0. -1.
    9900012    2    1    2    0    0 -0.21367400002E+02  0.98851807836E+01  0.36460119319E+02  0.47787275551E+02  0.20000020546E+02 0.  0.
         12    1    1    2    0    0  0.21367400002E+02 -0.98851807836E+01 -0.36460119319E+02  0.43400724449E+02  0.00000000000E+00 0. -1.
         11    1    3    3    0    0 -0.10667829661E+02 -0.39014236659E+01  0.21261821656E+02  0.24105782641E+02  0.51100000000E-03 0. -1.
        -11    1    3    3    0    0 -0.92167559354E+01  0.98080002746E+01  0.90848598872E+01  0.16238230778E+02  0.51100000000E-03 0.  1.
        -12    1    3    3    0    0 -0.14828144050E+01  0.39786041749E+01  0.61134377755E+01  0.74432621326E+01  0.00000000000E+00 0.  1.
</event>
<event>
 7    1  0.2476315E-009  0.4778727E+02  0.7816164E-02  0.1312668E+00
        -11   -1    0    0    0    0  0.00000000000E+00  0.00000000000E+00  0.45593999997E+02  0.45594000000E+02  0.51100000000E-03 0. -1.
         11   -1    0    0    0    0 -0.00000000000E+00 -0.00000000000E+00 -0.45593999997E+02  0.45594000000E+02  0.51100000000E-03 0.  1.
    9900012    2    1    2    0    0  0.14995890247E+02 -0.10576573537E+02 -0.39330428733E+02  0.47787271245E+02  0.20000000917E+02 0.  0.
         12    1    1    2    0    0 -0.14995890247E+02  0.10576573537E+02  0.39330428733E+02  0.43400728755E+02  0.00000000000E+00 0. -1.
         11    1    3    3    0    0 -0.27786803633E+01  0.29157318502E+01 -0.63067663875E+01  0.74831717414E+01  0.51100000000E-03 0. -1.
        -11    1    3    3    0    0  0.84395205720E+01 -0.64790209877E+01 -0.21014710636E+02  0.23554644634E+02  0.51100000000E-03 0.  1.
         12    1    3    3    0    0  0.93350500384E+01 -0.70132843992E+01 -0.12008951709E+02  0.16749454870E+02  0.00000000000E+00 0. -1.
</event>
<event>
 7    1  0.2476315E-009  0.4778727E+02  0.7816164E-02  0.1312668E+00
        -11   -1    0    0    0    0  0.00000000000E+00  0.00000000000E+00  0.45593999997E+02  0.45594000000E+02  0.51100000000E-03 0.  1.
         11   -1    0    0    0    0 -0.00000000000E+00 -0.00000000000E+00 -0.45593999997E+02  0.45594000000E+02  0.51100000000E-03 0. -1.
    9900012    2    1    2    0    0 -0.19988182900E+02 -0.17583075115E+02  0.34277268713E+02  0.47787272626E+02  0.20000007212E+02 0.  0.
         12    1    1    2    0    0  0.19988182900E+02  0.17583075115E+02 -0.34277268713E+02  0.43400727374E+02  0.00000000000E+00 0. -1.
         11    1    3    3    0    0 -0.82901970071E+01 -0.53977269743E+00  0.12497717893E+02  0.15007054134E+02  0.51100000000E-03 0.  1.
        -11    1    3    3    0    0 -0.54767961757E+01 -0.82001752837E+01  0.17447959284E+01  0.10014114246E+02  0.51100000000E-03 0. -1.
         12    1    3    3    0    0 -0.62211897169E+01 -0.88431271339E+01  0.20034754892E+02  0.22766104247E+02  0.00000000000E+00 0. -1.
</event>
<event>
 7    1  0.2476315E-009  0.4778727E+02  0.7816164E-02  0.1312668E+00
        -11   -1    0    0    0    0  0.00000000000E+00  0.00000000000E+00  0.45593999997E+02  0.45594000000E+02  0.51100000000E-03 0.  1.
         11   -1    0    0    0    0 -0.00000000000E+00 -0.00000000000E+00 -0.45593999997E+02  0.45594000000E+02  0.51100000000E-03 0. -1.
    9900012    2    1    2    0    0 -0.51367828238E+01 -0.40888111917E+02  0.13616128861E+02  0.47787271906E+02  0.20000003928E+02 0.  0.
         12    1    1    2    0    0  0.51367828238E+01  0.40888111917E+02 -0.13616128861E+02  0.43400728094E+02  0.00000000000E+00 0. -1.
         11    1    3    3    0    0  0.19303272266E+00 -0.75606822721E+01 -0.42885448605E+01  0.86944117301E+01  0.51100000000E-03 0. -1.
        -11    1    3    3    0    0 -0.26384058348E+01 -0.15259908666E+02  0.12893359135E+02  0.20151047315E+02  0.51100000000E-03 0.  1.
        -12    1    3    3    0    0 -0.26914097116E+01 -0.18067520979E+02  0.50113145863E+01  0.18941812861E+02  0.00000000000E+00 0.  1.
</event>
<event>
 7    1  0.2476315E-009  0.4778727E+02  0.7816164E-02  0.1312668E+00
        -11   -1    0    0    0    0  0.00000000000E+00  0.00000000000E+00  0.45593999997E+02  0.45594000000E+02  0.51100000000E-03 0. -1.
         11   -1    0    0    0    0 -0.00000000000E+00 -0.00000000000E+00 -0.45593999997E+02  0.45594000000E+02  0.51100000000E-03 0.  1.
    9900012    2    1    2    0    0  0.26099375423E+02 -0.31022063959E+02 -0.15494426997E+02  0.47787272843E+02  0.20000008203E+02 0.  0.
         12    1    1    2    0    0 -0.26099375423E+02  0.31022063959E+02  0.15494426997E+02  0.43400727157E+02  0.00000000000E+00 0. -1.
         11    1    3    3    0    0 -0.16986002735E+01  0.40018254852E-01 -0.21539620558E+01  0.27434279923E+01  0.51100000000E-03 0. -1.
        -11    1    3    3    0    0  0.10899234436E+02 -0.17336331180E+02 -0.22211898459E+01  0.20597945884E+02  0.51100000000E-03 0.  1.
        -12    1    3    3    0    0  0.16898741261E+02 -0.13725751034E+02 -0.11119275095E+02  0.24445898967E+02  0.00000000000E+00 0.  1.
</event>
<event>
 7    1  0.2476315E-009  0.4778727E+02  0.7816164E-02  0.1312668E+00
        -11   -1    0    0    0    0  0.00000000000E+00  0.00000000000E+00  0.45593999997E+02  0.45594000000E+02  0.51100000000E-03 0.  1.
         11   -1    0    0    0    0 -0.00000000000E+00 -0.00000000000E+00 -0.45593999997E+02  0.45594000000E+02  0.51100000000E-03 0. -1.
    9900012    2    1    2    0    0  0.12640309881E+02 -0.15052460123E+02  0.38694562773E+02  0.47787272151E+02  0.20000005045E+02 0.  0.
         12    1    1    2    0    0 -0.12640309881E+02  0.15052460123E+02 -0.38694562773E+02  0.43400727849E+02  0.00000000000E+00 0. -1.
         11    1    3    3    0    0 -0.37482031849E+01 -0.48350111210E+01  0.22099805095E+01  0.65046424782E+01  0.51100000000E-03 0. -1.
        -11    1    3    3    0    0  0.10843035046E+02 -0.66962302902E+01  0.23696669086E+02  0.26906189532E+02  0.51100000000E-03 0.  1.
         12    1    3    3    0    0  0.55454780199E+01 -0.35212187116E+01  0.12787913177E+02  0.14376440140E+02  0.00000000000E+00 0. -1.
</event>
<event>
 7    1  0.2476315E-009  0.4778727E+02  0.7816164E-02  0.1312668E+00
        -11   -1    0    0    0    0  0.00000000000E+00  0.00000000000E+00  0.45593999997E+02  0.45594000000E+02  0.51100000000E-03 0.  1.
         11   -1    0    0    0    0 -0.00000000000E+00 -0.00000000000E+00 -0.45593999997E+02  0.45594000000E+02  0.51100000000E-03 0. -1.
    9900012    2    1    2    0    0  0.22524299826E+02  0.26721550658E+02  0.25733982464E+02  0.47787271830E+02  0.20000003581E+02 0.  0.
         12    1    1    2    0    0 -0.22524299826E+02 -0.26721550658E+02 -0.25733982464E+02  0.43400728170E+02  0.00000000000E+00 0. -1.
         11    1    3    3    0    0  0.17765321163E+01 -0.19441966360E+01  0.70588779059E+01  0.75341704567E+01  0.51100000000E-03 0. -1.
        -11    1    3    3    0    0  0.92699954160E+01  0.16039447491E+02  0.10977083444E+02  0.21533533199E+02  0.51100000000E-03 0.  1.
         12    1    3    3    0    0  0.11477772294E+02  0.12626299803E+02  0.76980211138E+01  0.18719568174E+02  0.00000000000E+00 0. -1.
</event>
<event>
 7    1  0.2476315E-009  0.4778726E+02  0.7816164E-02  0.1312668E+00
        -11   -1    0    0    0    0  0.00000000000E+00  0.00000000000E+00  0.45593999997E+02  0.45594000000E+02  0.51100000000E-03 0. -1.
         11   -1    0    0    0    0 -0.00000000000E+00 -0.00000000000E+00 -0.45593999997E+02  0.45594000000E+02  0.51100000000E-03 0.  1.
    9900012    2    1    2    0    0 -0.34196589482E+02 -0.15450681435E+02  0.21805814298E+02  0.47787264682E+02  0.19999970989E+02 0.  0.
         12    1    1    2    0    0  0.34196589482E+02  0.15450681435E+02 -0.21805814298E+02  0.43400735318E+02  0.00000000000E+00 0. -1.
         11    1    3    3    0    0 -0.23548280501E+02 -0.56983045405E+01  0.14722898096E+02  0.28350589373E+02  0.51100000000E-03 0.  1.
        -11    1    3    3    0    0 -0.94479329968E+01 -0.12151857958E+02  0.56639474771E+01  0.16401566725E+02  0.51100000000E-03 0. -1.
         12    1    3    3    0    0 -0.12003759837E+01  0.23994810629E+01  0.14189687245E+01  0.30351085837E+01  0.00000000000E+00 0. -1.
</event>
<event>
 7    1  0.2476315E-009  0.4778727E+02  0.7816164E-02  0.1312668E+00
        -11   -1    0    0    0    0  0.00000000000E+00  0.00000000000E+00  0.45593999997E+02  0.45594000000E+02  0.51100000000E-03 0.  1.
         11   -1    0    0    0    0 -0.00000000000E+00 -0.00000000000E+00 -0.45593999997E+02  0.45594000000E+02  0.51100000000E-03 0. -1.
    9900012    2    1    2    0    0  0.31507564881E+02  0.11784229716E+02  0.27423146021E+02  0.47787266683E+02  0.19999980116E+02 0.  0.
         12    1    1    2    0    0 -0.31507564881E+02 -0.11784229716E+02 -0.27423146021E+02  0.43400733317E+02  0.00000000000E+00 0. -1.
         11    1    3    3    0    0  0.18061398668E+02  0.12791153507E+02  0.17657895858E+02  0.28313053815E+02  0.51100000000E-03 0. -1.
        -11    1    3    3    0    0  0.11475540301E+02 -0.42239993918E+01  0.98478556308E+01  0.15700651479E+02  0.51100000000E-03 0.  1.
         12    1    3    3    0    0  0.19706259114E+01  0.32170756006E+01 -0.82605467824E-01  0.37735613902E+01  0.00000000000E+00 0. -1.
</event>
<event>
 7    1  0.2476315E-009  0.4778722E+02  0.7816164E-02  0.1312668E+00
        -11   -1    0    0    0    0  0.00000000000E+00  0.00000000000E+00  0.45593999997E+02  0.45594000000E+02  0.51100000000E-03 0. -1.
         11   -1    0    0    0    0 -0.00000000000E+00 -0.00000000000E+00 -0.45593999997E+02  0.45594000000E+02  0.51100000000E-03 0.  1.
    9900012    2    1    2    0    0  0.16702903838E+02  0.39460351451E+02  0.68935555188E+01  0.47787223037E+02  0.19999781114E+02 0.  0.
         12    1    1    2    0    0 -0.16702903838E+02 -0.39460351451E+02 -0.68935555188E+01  0.43400776963E+02  0.00000000000E+00 0. -1.
         11    1    3    3    0    0  0.31588577902E+01  0.53787995727E+01 -0.18951115743E+00  0.62406555843E+01  0.51100000000E-03 0. -1.
        -11    1    3    3    0    0  0.77668999313E+01  0.27853342052E+02  0.12467061625E+02  0.31489061971E+02  0.51100000000E-03 0.  1.
        -12    1    3    3    0    0  0.57771461167E+01  0.62282098271E+01 -0.53839949491E+01  0.10057505482E+02  0.00000000000E+00 0.  1.
</event>
<event>
 7    1  0.2476315E-009  0.4778727E+02  0.7816164E-02  0.1312668E+00
        -11   -1    0    0    0    0  0.00000000000E+00  0.00000000000E+00  0.45593999997E+02  0.45594000000E+02  0.51100000000E-03 0.  1.
         11   -1    0    0    0    0 -0.00000000000E+00 -0.00000000000E+00 -0.45593999997E+02  0.45594000000E+02  0.51100000000E-03 0. -1.
    9900012    2    1    2    0    0  0.99492555939E+01 -0.32226991377E+02  0.27314032559E+02  0.47787273800E+02  0.20000012563E+02 0.  0.
         12    1    1    2    0    0 -0.99492555939E+01  0.32226991377E+02 -0.27314032559E+02  0.43400726200E+02  0.00000000000E+00 0. -1.
         11    1    3    3    0    0 -0.21933494892E+01  0.74243044639E-02  0.66312267888E+01  0.69845548238E+01  0.51100000000E-03 0. -1.
        -11    1    3    3    0    0  0.61822573949E+01 -0.16589086560E+02  0.64950547376E+01  0.18857461009E+02  0.51100000000E-03 0.  1.
         12    1    3    3    0    0  0.59603476882E+01 -0.15645329121E+02  0.14187751033E+02  0.21945257967E+02  0.00000000000E+00 0. -1.
</event>
<event>
 7    1  0.2476315E-009  0.4778728E+02  0.7816164E-02  0.1312668E+00
        -11   -1    0    0    0    0  0.00000000000E+00  0.00000000000E+00  0.45593999997E+02  0.45594000000E+02  0.51100000000E-03 0.  1.
         11   -1    0    0    0    0 -0.00000000000E+00 -0.00000000000E+00 -0.45593999997E+02  0.45594000000E+02  0.51100000000E-03 0. -1.
    9900012    2    1    2    0    0  0.43193196603E+02  0.15508213052E+01 -0.39452572177E+01  0.47787281872E+02  0.20000049367E+02 0.  0.
         12    1    1    2    0    0 -0.43193196603E+02 -0.15508213052E+01  0.39452572177E+01  0.43400718128E+02  0.00000000000E+00 0. -1.
         11    1    3    3    0    0  0.13566295067E+02  0.45385620367E+01 -0.67167386194E+01  0.15803717447E+02  0.51100000000E-03 0. -1.
        -11    1    3    3    0    0  0.18702475558E+02  0.20757256902E+01  0.55649274813E+01  0.19622936765E+02  0.51100000000E-03 0.  1.
        -12    1    3    3    0    0  0.10924425978E+02 -0.50634664218E+01 -0.27934460797E+01  0.12360627660E+02  0.00000000000E+00 0.  1.
</event>
<event>
 7    1  0.2476315E-009  0.4778726E+02  0.7816164E-02  0.1312668E+00
        -11   -1    0    0    0    0  0.00000000000E+00  0.00000000000E+00  0.45593999997E+02  0.45594000000E+02  0.51100000000E-03 0.  1.
         11   -1    0    0    0    0 -0.00000000000E+00 -0.00000000000E+00 -0.45593999997E+02  0.45594000000E+02  0.51100000000E-03 0. -1.
    9900012    2    1    2    0    0  0.31185909003E+02 -0.23382030881E+02  0.19087790246E+02  0.47787262392E+02  0.19999960549E+02 0.  0.
         12    1    1    2    0    0 -0.31185909003E+02  0.23382030881E+02 -0.19087790246E+02  0.43400737608E+02  0.00000000000E+00 0. -1.
         11    1    3    3    0    0  0.22139639903E+02 -0.20822853806E+02  0.17898100386E+02  0.35271757730E+02  0.51100000000E-03 0. -1.
        -11    1    3    3    0    0  0.43520977853E+00 -0.32212599337E+01  0.20394064197E+01  0.38373300507E+01  0.51100000000E-03 0.  1.
         12    1    3    3    0    0  0.86110593212E+01  0.66208285954E+00 -0.84971655908E+00  0.86781746109E+01  0.00000000000E+00 0. -1.
</event>
<event>
 7    1  0.2476315E-009  0.4778727E+02  0.7816164E-02  0.1312668E+00
        -11   -1    0    0    0    0  0.00000000000E+00  0.00000000000E+00  0.45593999997E+02  0.45594000000E+02  0.51100000000E-03 0. -1.
         11   -1    0    0    0    0 -0.00000000000E+00 -0.00000000000E+00 -0.45593999997E+02  0.45594000000E+02  0.51100000000E-03 0.  1.
    9900012    2    1    2    0    0 -0.39831434046E+02  0.14061117556E+02 -0.99682025782E+01  0.47787271576E+02  0.20000002422E+02 0.  0.
         12    1    1    2    0    0  0.39831434046E+02 -0.14061117556E+02  0.99682025782E+01  0.43400728424E+02  0.00000000000E+00 0. -1.
         11    1    3    3    0    0 -0.11168044817E+01  0.82110731448E+00  0.12841167228E+01  0.18895569562E+01  0.51100000000E-03 0. -1.
        -11    1    3    3    0    0 -0.21223784273E+02  0.32882631271E+00 -0.11530449075E+02  0.24155918566E+02  0.51100000000E-03 0.  1.
        -12    1    3    3    0    0 -0.17490845291E+02  0.12911183929E+02  0.27812977406E+00  0.21741796053E+02  0.00000000000E+00 0.  1.
</event>
<event>
 7    1  0.2476315E-009  0.4778727E+02  0.7816164E-02  0.1312668E+00
        -11   -1    0    0    0    0  0.00000000000E+00  0.00000000000E+00  0.45593999997E+02  0.45594000000E+02  0.51100000000E-03 0.  1.
         11   -1    0    0    0    0 -0.00000000000E+00 -0.00000000000E+00 -0.45593999997E+02  0.45594000000E+02  0.51100000000E-03 0. -1.
    9900012    2    1    2    0    0  0.92902674315E+01 -0.13168931287E+02  0.40297561502E+02  0.47787270937E+02  0.19999999511E+02 0.  0.
         12    1    1    2    0    0 -0.92902674315E+01  0.13168931287E+02 -0.40297561502E+02  0.43400729063E+02  0.00000000000E+00 0. -1.
         11    1    3    3    0    0 -0.34467770344E+01 -0.49192595210E+01  0.86106631628E+01  0.10498709755E+02  0.51100000000E-03 0.  1.
        -11    1    3    3    0    0  0.14517869697E+02 -0.40985816566E+01  0.25504886875E+02  0.29632181271E+02  0.51100000000E-03 0. -1.
         12    1    3    3    0    0 -0.17808252309E+01 -0.41510901090E+01  0.61820114640E+01  0.76563799107E+01  0.00000000000E+00 0. -1.
</event>
<event>
 7    1  0.2476315E-009  0.4778727E+02  0.7816164E-02  0.1312668E+00
        -11   -1    0    0    0    0  0.00000000000E+00  0.00000000000E+00  0.45593999997E+02  0.45594000000E+02  0.51100000000E-03 0.  1.
         11   -1    0    0    0    0 -0.00000000000E+00 -0.00000000000E+00 -0.45593999997E+02  0.45594000000E+02  0.51100000000E-03 0. -1.
    9900012    2    1    2    0    0 -0.14390852686E+01  0.35060171870E+02 -0.25540888345E+02  0.47787267340E+02  0.19999983108E+02 0.  0.
         12    1    1    2    0    0  0.14390852686E+01 -0.35060171870E+02  0.25540888345E+02  0.43400732660E+02  0.00000000000E+00 0. -1.
         11    1    3    3    0    0  0.81168121038E+01  0.11003698624E+02 -0.76427495835E+01  0.15664470741E+02  0.51100000000E-03 0.  1.
        -11    1    3    3    0    0 -0.99197590781E+01  0.17887569180E+02 -0.12979663588E+02  0.24224748058E+02  0.51100000000E-03 0. -1.
        -12    1    3    3    0    0  0.36386170570E+00  0.61689040663E+01 -0.49184751737E+01  0.78980485409E+01  0.00000000000E+00 0.  1.
</event>
<event>
 7    1  0.2476315E-009  0.4778727E+02  0.7816164E-02  0.1312668E+00
        -11   -1    0    0    0    0  0.00000000000E+00  0.00000000000E+00  0.45593999997E+02  0.45594000000E+02  0.51100000000E-03 0. -1.
         11   -1    0    0    0    0 -0.00000000000E+00 -0.00000000000E+00 -0.45593999997E+02  0.45594000000E+02  0.51100000000E-03 0.  1.
    9900012    2    1    2    0    0  0.24937871728E+02 -0.18829033765E+02 -0.30119653011E+02  0.47787268942E+02  0.19999990412E+02 0.  0.
         12    1    1    2    0    0 -0.24937871728E+02  0.18829033765E+02  0.30119653011E+02  0.43400731058E+02  0.00000000000E+00 0. -1.
         11    1    3    3    0    0  0.13666832133E+02 -0.15139258759E+02 -0.94051755965E+01  0.22459670179E+02  0.51100000000E-03 0. -1.
        -11    1    3    3    0    0  0.23330121280E+00 -0.28364918176E+01 -0.16719136772E+01  0.33008197303E+01  0.51100000000E-03 0.  1.
         12    1    3    3    0    0  0.11037738383E+02 -0.85328318886E+00 -0.19042563738E+02  0.22026779032E+02  0.00000000000E+00 0. -1.
</event>
<event>
 7    1  0.2476315E-009  0.4778727E+02  0.7816164E-02  0.1312668E+00
        -11   -1    0    0    0    0  0.00000000000E+00  0.00000000000E+00  0.45593999997E+02  0.45594000000E+02  0.51100000000E-03 0.  1.
         11   -1    0    0    0    0 -0.00000000000E+00 -0.00000000000E+00 -0.45593999997E+02  0.45594000000E+02  0.51100000000E-03 0. -1.
    9900012    2    1    2    0    0 -0.87017570773E+01  0.34919715360E+02  0.24259356602E+02  0.47787268672E+02  0.19999989184E+02 0.  0.
         12    1    1    2    0    0  0.87017570773E+01 -0.34919715360E+02 -0.24259356602E+02  0.43400731328E+02  0.00000000000E+00 0. -1.
         11    1    3    3    0    0  0.17641332145E+01 -0.86405498026E+00  0.42354851733E+01  0.46688426748E+01  0.51100000000E-03 0. -1.
        -11    1    3    3    0    0 -0.97184365853E+01  0.25384428026E+02  0.17700645376E+02  0.32436554115E+02  0.51100000000E-03 0.  1.
        -12    1    3    3    0    0 -0.74745370659E+00  0.10399342315E+02  0.23232260520E+01  0.10681871882E+02  0.00000000000E+00 0.  1.
</event>
<event>
 7    1  0.2476315E-009  0.4778727E+02  0.7816164E-02  0.1312668E+00
        -11   -1    0    0    0    0  0.00000000000E+00  0.00000000000E+00  0.45593999997E+02  0.45594000000E+02  0.51100000000E-03 0. -1.
         11   -1    0    0    0    0 -0.00000000000E+00 -0.00000000000E+00 -0.45593999997E+02  0.45594000000E+02  0.51100000000E-03 0.  1.
    9900012    2    1    2    0    0  0.41896799591E+02  0.10454880814E+02 -0.43562564096E+01  0.47787270528E+02  0.19999997646E+02 0.  0.
         12    1    1    2    0    0 -0.41896799591E+02 -0.10454880814E+02  0.43562564096E+01  0.43400729472E+02  0.00000000000E+00 0. -1.
         11    1    3    3    0    0  0.22708704683E+01 -0.34439654461E+01 -0.57132464983E+00  0.41646323720E+01  0.51100000000E-03 0. -1.
        -11    1    3    3    0    0  0.31418940882E+02  0.12367534197E+02 -0.73310041008E+01  0.34552125400E+02  0.51100000000E-03 0.  1.
        -12    1    3    3    0    0  0.82069882402E+01  0.15313120630E+01  0.35460723411E+01  0.90705127561E+01  0.00000000000E+00 0.  1.
</event>
<event>
 7    1  0.2476315E-009  0.4778726E+02  0.7816164E-02  0.1312668E+00
        -11   -1    0    0    0    0  0.00000000000E+00  0.00000000000E+00  0.45593999997E+02  0.45594000000E+02  0.51100000000E-03 0.  1.
         11   -1    0    0    0    0 -0.00000000000E+00 -0.00000000000E+00 -0.45593999997E+02  0.45594000000E+02  0.51100000000E-03 0. -1.
    9900012    2    1    2    0    0 -0.28207938430E+02 -0.11861640129E+01  0.32962550924E+02  0.47787256470E+02  0.19999933549E+02 0.  0.
         12    1    1    2    0    0  0.28207938430E+02  0.11861640129E+01 -0.32962550924E+02  0.43400743530E+02  0.00000000000E+00 0. -1.
         11    1    3    3    0    0 -0.23388544372E+02 -0.14274442695E+01  0.13383731637E+02  0.26984919451E+02  0.51100000000E-03 0. -1.
        -11    1    3    3    0    0  0.38989225637E+00  0.68630713369E+00  0.86646365178E+01  0.87005149101E+01  0.51100000000E-03 0.  1.
         12    1    3    3    0    0 -0.52092863139E+01 -0.44502687711E+00  0.10914182769E+02  0.12101822109E+02  0.00000000000E+00 0. -1.
</event>
<event>
 7    1  0.2476315E-009  0.4778727E+02  0.7816164E-02  0.1312668E+00
        -11   -1    0    0    0    0  0.00000000000E+00  0.00000000000E+00  0.45593999997E+02  0.45594000000E+02  0.51100000000E-03 0. -1.
         11   -1    0    0    0    0 -0.00000000000E+00 -0.00000000000E+00 -0.45593999997E+02  0.45594000000E+02  0.51100000000E-03 0.  1.
    9900012    2    1    2    0    0  0.40650532554E+02 -0.13366064564E+02 -0.72460861501E+01  0.47787271396E+02  0.20000001603E+02 0.  0.
         12    1    1    2    0    0 -0.40650532554E+02  0.13366064564E+02  0.72460861501E+01  0.43400728604E+02  0.00000000000E+00 0. -1.
         11    1    3    3    0    0  0.18392943995E+02  0.20606511906E+01 -0.63508618922E+01  0.19567322739E+02  0.51100000000E-03 0. -1.
        -11    1    3    3    0    0  0.18089440080E+02 -0.12214172643E+02 -0.38812597020E+01  0.22169303843E+02  0.51100000000E-03 0.  1.
         12    1    3    3    0    0  0.41681484792E+01 -0.32125431118E+01  0.29860354441E+01  0.60506448138E+01  0.00000000000E+00 0. -1.
</event>
<event>
 7    1  0.2476315E-009  0.4778726E+02  0.7816164E-02  0.1312668E+00
        -11   -1    0    0    0    0  0.00000000000E+00  0.00000000000E+00  0.45593999997E+02  0.45594000000E+02  0.51100000000E-03 0. -1.
         11   -1    0    0    0    0 -0.00000000000E+00 -0.00000000000E+00 -0.45593999997E+02  0.45594000000E+02  0.51100000000E-03 0.  1.
    9900012    2    1    2    0    0  0.35091014157E+02  0.97246074463E+01 -0.23615190609E+02  0.47787257010E+02  0.19999936012E+02 0.  0.
         12    1    1    2    0    0 -0.35091014157E+02 -0.97246074463E+01  0.23615190609E+02  0.43400742990E+02  0.00000000000E+00 0. -1.
         11    1    3    3    0    0  0.15954711679E+01 -0.39873411141E+01 -0.48222783946E+00  0.43216850137E+01  0.51100000000E-03 0. -1.
        -11    1    3    3    0    0  0.14695530449E+02  0.56868267310E+01 -0.13994048608E+02  0.21074439736E+02  0.51100000000E-03 0.  1.
         12    1    3    3    0    0  0.18800012540E+02  0.80251218294E+01 -0.91389141610E+01  0.22391132261E+02  0.00000000000E+00 0. -1.
</event>
<event>
 7    1  0.2476315E-009  0.4778727E+02  0.7816164E-02  0.1312668E+00
        -11   -1    0    0    0    0  0.00000000000E+00  0.00000000000E+00  0.45593999997E+02  0.45594000000E+02  0.51100000000E-03 0.  1.
         11   -1    0    0    0    0 -0.00000000000E+00 -0.00000000000E+00 -0.45593999997E+02  0.45594000000E+02  0.51100000000E-03 0. -1.
    9900012    2    1    2    0    0  0.38550003172E+02  0.75189535201E+01 -0.18465802652E+02  0.47787271041E+02  0.19999999982E+02 0.  0.
         12    1    1    2    0    0 -0.38550003172E+02 -0.75189535201E+01  0.18465802652E+02  0.43400728959E+02  0.00000000000E+00 0. -1.
         11    1    3    3    0    0  0.59955587846E+01 -0.49512759968E+01 -0.40113355125E+01  0.87494383814E+01  0.51100000000E-03 0. -1.
        -11    1    3    3    0    0  0.15586185918E+02  0.78668811465E+00 -0.51633315685E+01  0.16438006655E+02  0.51100000000E-03 0.  1.
         12    1    3    3    0    0  0.16968258470E+02  0.11683541402E+02 -0.92911355711E+01  0.22599826004E+02  0.00000000000E+00 0. -1.
</event>
<event>
 7    1  0.2476315E-009  0.4778727E+02  0.7816164E-02  0.1312668E+00
        -11   -1    0    0    0    0  0.00000000000E+00  0.00000000000E+00  0.45593999997E+02  0.45594000000E+02  0.51100000000E-03 0. -1.
         11   -1    0    0    0    0 -0.00000000000E+00 -0.00000000000E+00 -0.45593999997E+02  0.45594000000E+02  0.51100000000E-03 0.  1.
    9900012    2    1    2    0    0 -0.95362158054E+01 -0.35416640722E+02 -0.23202278968E+02  0.47787267273E+02  0.19999982806E+02 0.  0.
         12    1    1    2    0    0  0.95362158054E+01  0.35416640722E+02  0.23202278968E+02  0.43400732727E+02  0.00000000000E+00 0. -1.
         11    1    3    3    0    0  0.83133896743E+00  0.70768626269E+00  0.46046964114E+00  0.11848953020E+01  0.51100000000E-03 0. -1.
        -11    1    3    3    0    0 -0.53613537663E+01 -0.31345275706E+02 -0.14071380208E+02  0.34774619546E+02  0.51100000000E-03 0.  1.
        -12    1    3    3    0    0 -0.50062010065E+01 -0.47790512778E+01 -0.95913684012E+01  0.11827752426E+02  0.00000000000E+00 0.  1.
</event>
<event>
 7    1  0.2476315E-009  0.4778728E+02  0.7816164E-02  0.1312668E+00
        -11   -1    0    0    0    0  0.00000000000E+00  0.00000000000E+00  0.45593999997E+02  0.45594000000E+02  0.51100000000E-03 0.  1.
         11   -1    0    0    0    0 -0.00000000000E+00 -0.00000000000E+00 -0.45593999997E+02  0.45594000000E+02  0.51100000000E-03 0. -1.
    9900012    2    1    2    0    0  0.28333083739E+02  0.10891200417E+02  0.31020008498E+02  0.47787276413E+02  0.20000024478E+02 0.  0.
         12    1    1    2    0    0 -0.28333083739E+02 -0.10891200417E+02 -0.31020008498E+02  0.43400723587E+02  0.00000000000E+00 0. -1.
         11    1    3    3    0    0  0.14110300374E+01 -0.28755655979E+01  0.38520539014E+01  0.50098106546E+01  0.51100000000E-03 0. -1.
        -11    1    3    3    0    0  0.25447012118E+02  0.97342937814E+01  0.27178775181E+02  0.38483668247E+02  0.51100000000E-03 0.  1.
        -12    1    3    3    0    0  0.14750415842E+01  0.40324722331E+01 -0.10820584835E-01  0.42937975116E+01  0.00000000000E+00 0.  1.
</event>
<event>
 7    1  0.2476315E-009  0.4778727E+02  0.7816164E-02  0.1312668E+00
        -11   -1    0    0    0    0  0.00000000000E+00  0.00000000000E+00  0.45593999997E+02  0.45594000000E+02  0.51100000000E-03 0.  1.
         11   -1    0    0    0    0 -0.00000000000E+00 -0.00000000000E+00 -0.45593999997E+02  0.45594000000E+02  0.51100000000E-03 0. -1.
    9900012    2    1    2    0    0 -0.13943013211E+02  0.31965516250E+02  0.25834497743E+02  0.47787272815E+02  0.20000008073E+02 0.  0.
         12    1    1    2    0    0  0.13943013211E+02 -0.31965516250E+02 -0.25834497743E+02  0.43400727185E+02  0.00000000000E+00 0. -1.
         11    1    3    3    0    0  0.20495079048E+01  0.16823120271E+01 -0.15886066458E+01  0.30910075614E+01  0.51100000000E-03 0. -1.
        -11    1    3    3    0    0 -0.25261023960E+01  0.11202243993E+01  0.43226415794E+01  0.51304314151E+01  0.51100000000E-03 0.  1.
         12    1    3    3    0    0 -0.13466418720E+02  0.29162979823E+02  0.23100462810E+02  0.39565833839E+02  0.00000000000E+00 0. -1.
</event>
<event>
 7    1  0.2476315E-009  0.4778728E+02  0.7816164E-02  0.1312668E+00
        -11   -1    0    0    0    0  0.00000000000E+00  0.00000000000E+00  0.45593999997E+02  0.45594000000E+02  0.51100000000E-03 0.  1.
         11   -1    0    0    0    0 -0.00000000000E+00 -0.00000000000E+00 -0.45593999997E+02  0.45594000000E+02  0.51100000000E-03 0. -1.
    9900012    2    1    2    0    0  0.20606369752E+02 -0.31631313511E+02  0.21411685478E+02  0.47787277152E+02  0.20000027845E+02 0.  0.
         12    1    1    2    0    0 -0.20606369752E+02  0.31631313511E+02 -0.21411685478E+02  0.43400722848E+02  0.00000000000E+00 0. -1.
         11    1    3    3    0    0  0.98709375092E+01 -0.77758698436E+01  0.13548262453E+01  0.12638635747E+02  0.51100000000E-03 0. -1.
        -11    1    3    3    0    0 -0.27063723809E+00 -0.13755669337E+02  0.11513687281E+02  0.17940364502E+02  0.51100000000E-03 0.  1.
        -12    1    3    3    0    0  0.11006069480E+02 -0.10099774331E+02  0.85431719514E+01  0.17208276902E+02  0.00000000000E+00 0.  1.
</event>
<event>
 7    1  0.2476315E-009  0.4778728E+02  0.7816164E-02  0.1312668E+00
        -11   -1    0    0    0    0  0.00000000000E+00  0.00000000000E+00  0.45593999997E+02  0.45594000000E+02  0.51100000000E-03 0.  1.
         11   -1    0    0    0    0 -0.00000000000E+00 -0.00000000000E+00 -0.45593999997E+02  0.45594000000E+02  0.51100000000E-03 0. -1.
    9900012    2    1    2    0    0 -0.14046862408E+02  0.82415140061E+01  0.40229159933E+02  0.47787283352E+02  0.20000056115E+02 0.  0.
         12    1    1    2    0    0  0.14046862408E+02 -0.82415140061E+01 -0.40229159933E+02  0.43400716648E+02  0.00000000000E+00 0. -1.
         11    1    3    3    0    0 -0.40766056424E+01  0.97013133065E+01  0.33009891918E+02  0.34646603847E+02  0.51100000000E-03 0. -1.
        -11    1    3    3    0    0 -0.86919361606E+01  0.21026691195E-01  0.44912386782E+01  0.97837324916E+01  0.51100000000E-03 0.  1.
         12    1    3    3    0    0 -0.12783206049E+01 -0.14808259915E+01  0.27280293369E+01  0.33569470132E+01  0.00000000000E+00 0. -1.
</event>
<event>
 7    1  0.2476315E-009  0.4778726E+02  0.7816164E-02  0.1312668E+00
        -11   -1    0    0    0    0  0.00000000000E+00  0.00000000000E+00  0.45593999997E+02  0.45594000000E+02  0.51100000000E-03 0.  1.
         11   -1    0    0    0    0 -0.00000000000E+00 -0.00000000000E+00 -0.45593999997E+02  0.45594000000E+02  0.51100000000E-03 0. -1.
    9900012    2    1    2    0    0 -0.28962579753E+02 -0.16226961608E+02  0.27954938708E+02  0.47787263749E+02  0.19999966738E+02 0.  0.
         12    1    1    2    0    0  0.28962579753E+02  0.16226961608E+02 -0.27954938708E+02  0.43400736251E+02  0.00000000000E+00 0. -1.
         11    1    3    3    0    0 -0.27903067908E+02 -0.16905867289E+02  0.21117051835E+02  0.38862828331E+02  0.51100000000E-03 0. -1.
        -11    1    3    3    0    0 -0.61563000393E+00  0.24862933379E+01  0.92128060070E+00  0.27220237086E+01  0.51100000000E-03 0.  1.
         12    1    3    3    0    0 -0.44388184089E+00 -0.18073876569E+01  0.59166062724E+01  0.62024117095E+01  0.00000000000E+00 0. -1.
</event>
<event>
 7    1  0.2476315E-009  0.4778727E+02  0.7816164E-02  0.1312668E+00
        -11   -1    0    0    0    0  0.00000000000E+00  0.00000000000E+00  0.45593999997E+02  0.45594000000E+02  0.51100000000E-03 0.  1.
         11   -1    0    0    0    0 -0.00000000000E+00 -0.00000000000E+00 -0.45593999997E+02  0.45594000000E+02  0.51100000000E-03 0. -1.
    9900012    2    1    2    0    0  0.39771144883E+02 -0.15874365316E+02  0.70628833522E+01  0.47787265436E+02  0.19999974428E+02 0.  0.
         12    1    1    2    0    0 -0.39771144883E+02  0.15874365316E+02 -0.70628833522E+01  0.43400734564E+02  0.00000000000E+00 0. -1.
         11    1    3    3    0    0 -0.18427398512E+01 -0.76164218416E+00  0.13829455010E+00  0.19987282506E+01  0.51100000000E-03 0. -1.
        -11    1    3    3    0    0  0.13281487693E+02 -0.35647603704E+00  0.28055463493E+01  0.13579251860E+02  0.51100000000E-03 0.  1.
         12    1    3    3    0    0  0.28332397041E+02 -0.14756247095E+02  0.41190424528E+01  0.32209285325E+02  0.00000000000E+00 0. -1.
</event>
<event>
 7    1  0.2476315E-009  0.4778729E+02  0.7816164E-02  0.1312668E+00
        -11   -1    0    0    0    0  0.00000000000E+00  0.00000000000E+00  0.45593999997E+02  0.45594000000E+02  0.51100000000E-03 0.  1.
         11   -1    0    0    0    0 -0.00000000000E+00 -0.00000000000E+00 -0.45593999997E+02  0.45594000000E+02  0.51100000000E-03 0. -1.
    9900012    2    1    2    0    0 -0.52431795371E+01 -0.12590020714E+01  0.43064434981E+02  0.47787290581E+02  0.20000089073E+02 0.  0.
         12    1    1    2    0    0  0.52431795371E+01  0.12590020714E+01 -0.43064434981E+02  0.43400709419E+02  0.00000000000E+00 0. -1.
         11    1    3    3    0    0 -0.11819614797E+01  0.43044219670E+01  0.88543894087E+01  0.99159111266E+01  0.51100000000E-03 0. -1.
        -11    1    3    3    0    0 -0.95426638012E+01 -0.48653315507E+01  0.23136699750E+02  0.25495896907E+02  0.51100000000E-03 0.  1.
        -12    1    3    3    0    0  0.54814457438E+01 -0.69809248772E+00  0.11073345822E+02  0.12375482547E+02  0.00000000000E+00 0.  1.
</event>
<event>
 7    1  0.2476315E-009  0.4778727E+02  0.7816164E-02  0.1312668E+00
        -11   -1    0    0    0    0  0.00000000000E+00  0.00000000000E+00  0.45593999997E+02  0.45594000000E+02  0.51100000000E-03 0.  1.
         11   -1    0    0    0    0 -0.00000000000E+00 -0.00000000000E+00 -0.45593999997E+02  0.45594000000E+02  0.51100000000E-03 0. -1.
    9900012    2    1    2    0    0 -0.32789328799E+02  0.35532245708E+01  0.28210951754E+02  0.47787270895E+02  0.19999999319E+02 0.  0.
         12    1    1    2    0    0  0.32789328799E+02 -0.35532245708E+01 -0.28210951754E+02  0.43400729105E+02  0.00000000000E+00 0. -1.
         11    1    3    3    0    0 -0.20981464839E+02 -0.63176595465E+01  0.10571222408E+02  0.24328695658E+02  0.51100000000E-03 0. -1.
        -11    1    3    3    0    0 -0.57182073585E+01  0.44739237657E+01  0.94097671670E+01  0.11885184376E+02  0.51100000000E-03 0.  1.
         12    1    3    3    0    0 -0.60896566018E+01  0.53969603516E+01  0.82299621787E+01  0.11573390861E+02  0.00000000000E+00 0. -1.
</event>
<event>
 7    1  0.2476315E-009  0.4778727E+02  0.7816164E-02  0.1312668E+00
        -11   -1    0    0    0    0  0.00000000000E+00  0.00000000000E+00  0.45593999997E+02  0.45594000000E+02  0.51100000000E-03 0.  1.
         11   -1    0    0    0    0 -0.00000000000E+00 -0.00000000000E+00 -0.45593999997E+02  0.45594000000E+02  0.51100000000E-03 0. -1.
    9900012    2    1    2    0    0  0.23630061357E+01 -0.31065942693E+02  0.30215005987E+02  0.47787272124E+02  0.20000004921E+02 0.  0.
         12    1    1    2    0    0 -0.23630061357E+01  0.31065942693E+02 -0.30215005987E+02  0.43400727876E+02  0.00000000000E+00 0. -1.
         11    1    3    3    0    0  0.78026776789E+01 -0.86288449024E+01  0.39858116817E+01  0.12297375262E+02  0.51100000000E-03 0. -1.
        -11    1    3    3    0    0 -0.36562008326E+01 -0.91029185981E+01  0.15215332655E+02  0.18103515669E+02  0.51100000000E-03 0.  1.
        -12    1    3    3    0    0 -0.17834707105E+01 -0.13334179192E+02  0.11013861651E+02  0.17386381193E+02  0.00000000000E+00 0.  1.
</event>
<event>
 7    1  0.2476315E-009  0.4778728E+02  0.7816164E-02  0.1312668E+00
        -11   -1    0    0    0    0  0.00000000000E+00  0.00000000000E+00  0.45593999997E+02  0.45594000000E+02  0.51100000000E-03 0. -1.
         11   -1    0    0    0    0 -0.00000000000E+00 -0.00000000000E+00 -0.45593999997E+02  0.45594000000E+02  0.51100000000E-03 0.  1.
    9900012    2    1    2    0    0  0.10270548352E+02  0.39306985994E+02 -0.15267593776E+02  0.47787277297E+02  0.20000028508E+02 0.  0.
         12    1    1    2    0    0 -0.10270548352E+02 -0.39306985994E+02  0.15267593776E+02  0.43400722703E+02  0.00000000000E+00 0. -1.
         11    1    3    3    0    0 -0.29912606041E+01  0.15463457509E+02  0.81585456971E+00  0.15771232579E+02  0.51100000000E-03 0. -1.
        -11    1    3    3    0    0  0.11320651463E+02  0.21661757640E+02 -0.12691656940E+02  0.27540280495E+02  0.51100000000E-03 0.  1.
        -12    1    3    3    0    0  0.19411574936E+01  0.21817708455E+01 -0.33917914056E+01  0.44757642226E+01  0.00000000000E+00 0.  1.
</event>
<event>
 7    1  0.2476315E-009  0.4778727E+02  0.7816164E-02  0.1312668E+00
        -11   -1    0    0    0    0  0.00000000000E+00  0.00000000000E+00  0.45593999997E+02  0.45594000000E+02  0.51100000000E-03 0. -1.
         11   -1    0    0    0    0 -0.00000000000E+00 -0.00000000000E+00 -0.45593999997E+02  0.45594000000E+02  0.51100000000E-03 0.  1.
    9900012    2    1    2    0    0  0.20376719378E+02 -0.21469409348E+02 -0.31740781726E+02  0.47787268958E+02  0.19999990487E+02 0.  0.
         12    1    1    2    0    0 -0.20376719378E+02  0.21469409348E+02  0.31740781726E+02  0.43400731042E+02  0.00000000000E+00 0. -1.
         11    1    3    3    0    0  0.16571019385E+01  0.87676053636E+00 -0.24269556997E+01  0.30667262842E+01  0.51100000000E-03 0. -1.
        -11    1    3    3    0    0  0.20610495674E+02 -0.17145428750E+02 -0.28498460699E+02  0.39126979457E+02  0.51100000000E-03 0.  1.
        -12    1    3    3    0    0 -0.18908782347E+01 -0.52007411343E+01 -0.81536532817E+00  0.55935632170E+01  0.00000000000E+00 0.  1.
</event>
<event>
 7    1  0.2476315E-009  0.4778728E+02  0.7816164E-02  0.1312668E+00
        -11   -1    0    0    0    0  0.00000000000E+00  0.00000000000E+00  0.45593999997E+02  0.45594000000E+02  0.51100000000E-03 0. -1.
         11   -1    0    0    0    0 -0.00000000000E+00 -0.00000000000E+00 -0.45593999997E+02  0.45594000000E+02  0.51100000000E-03 0.  1.
    9900012    2    1    2    0    0  0.30418217753E+02 -0.16130342876E+02 -0.26422838724E+02  0.47787281817E+02  0.20000049117E+02 0.  0.
         12    1    1    2    0    0 -0.30418217753E+02  0.16130342876E+02  0.26422838724E+02  0.43400718183E+02  0.00000000000E+00 0. -1.
         11    1    3    3    0    0  0.11945291634E+01 -0.21045945696E+01 -0.69917342334E+01  0.73986867805E+01  0.51100000000E-03 0. -1.
        -11    1    3    3    0    0  0.28516761040E+02 -0.16092891040E+02 -0.16316972129E+02  0.36584564805E+02  0.51100000000E-03 0.  1.
        -12    1    3    3    0    0  0.70692754949E+00  0.20671427331E+01 -0.31141323617E+01  0.38040302319E+01  0.00000000000E+00 0.  1.
</event>
<event>
 7    1  0.2476315E-009  0.4778727E+02  0.7816164E-02  0.1312668E+00
        -11   -1    0    0    0    0  0.00000000000E+00  0.00000000000E+00  0.45593999997E+02  0.45594000000E+02  0.51100000000E-03 0. -1.
         11   -1    0    0    0    0 -0.00000000000E+00 -0.00000000000E+00 -0.45593999997E+02  0.45594000000E+02  0.51100000000E-03 0.  1.
    9900012    2    1    2    0    0 -0.16430748946E+02 -0.30407047539E+02 -0.26250050885E+02  0.47787271637E+02  0.20000002700E+02 0.  0.
         12    1    1    2    0    0  0.16430748946E+02  0.30407047539E+02  0.26250050885E+02  0.43400728363E+02  0.00000000000E+00 0. -1.
         11    1    3    3    0    0 -0.10443611840E+02 -0.17750551121E+02 -0.42407201968E+01  0.21027001722E+02  0.51100000000E-03 0. -1.
        -11    1    3    3    0    0 -0.21388861806E+01 -0.10108652945E+02 -0.17405938814E+02  0.20241699649E+02  0.51100000000E-03 0.  1.
        -12    1    3    3    0    0 -0.38482509252E+01 -0.25478434737E+01 -0.46033918750E+01  0.65185702654E+01  0.00000000000E+00 0.  1.
</event>
<event>
 7    1  0.2476315E-009  0.4778727E+02  0.7816164E-02  0.1312668E+00
        -11   -1    0    0    0    0  0.00000000000E+00  0.00000000000E+00  0.45593999997E+02  0.45594000000E+02  0.51100000000E-03 0.  1.
         11   -1    0    0    0    0 -0.00000000000E+00 -0.00000000000E+00 -0.45593999997E+02  0.45594000000E+02  0.51100000000E-03 0. -1.
    9900012    2    1    2    0    0  0.40572313208E+02  0.88978389068E+01  0.12583276349E+02  0.47787274431E+02  0.20000015440E+02 0.  0.
         12    1    1    2    0    0 -0.40572313208E+02 -0.88978389068E+01 -0.12583276349E+02  0.43400725569E+02  0.00000000000E+00 0. -1.
         11    1    3    3    0    0  0.13828882849E+02  0.13409158510E+01 -0.37966432029E+00  0.13898928067E+02  0.51100000000E-03 0. -1.
        -11    1    3    3    0    0  0.16630117887E+02  0.11342004727E+02  0.10911515460E+02  0.22896791523E+02  0.51100000000E-03 0.  1.
        -12    1    3    3    0    0  0.10113312473E+02 -0.37850816711E+01  0.20514252091E+01  0.10991554841E+02  0.00000000000E+00 0.  1.
</event>
<event>
 7    1  0.2476315E-009  0.4778727E+02  0.7816164E-02  0.1312668E+00
        -11   -1    0    0    0    0  0.00000000000E+00  0.00000000000E+00  0.45593999997E+02  0.45594000000E+02  0.51100000000E-03 0.  1.
         11   -1    0    0    0    0 -0.00000000000E+00 -0.00000000000E+00 -0.45593999997E+02  0.45594000000E+02  0.51100000000E-03 0. -1.
    9900012    2    1    2    0    0 -0.85370218745E+01 -0.42282072151E+02  0.47926163704E+01  0.47787267984E+02  0.19999986047E+02 0.  0.
         12    1    1    2    0    0  0.85370218745E+01  0.42282072151E+02 -0.47926163704E+01  0.43400732016E+02  0.00000000000E+00 0. -1.
         11    1    3    3    0    0  0.99423768773E+00 -0.19496421008E+02 -0.11660970549E+01  0.19556551928E+02  0.51100000000E-03 0. -1.
        -11    1    3    3    0    0 -0.82177419893E+01 -0.19897131007E+02  0.94523462840E+01  0.23511145362E+02  0.51100000000E-03 0.  1.
        -12    1    3    3    0    0 -0.13135175730E+01 -0.28885201360E+01 -0.34936328587E+01  0.47195706946E+01  0.00000000000E+00 0.  1.
</event>
<event>
 7    1  0.2476315E-009  0.4778726E+02  0.7816164E-02  0.1312668E+00
        -11   -1    0    0    0    0  0.00000000000E+00  0.00000000000E+00  0.45593999997E+02  0.45594000000E+02  0.51100000000E-03 0.  1.
         11   -1    0    0    0    0 -0.00000000000E+00 -0.00000000000E+00 -0.45593999997E+02  0.45594000000E+02  0.51100000000E-03 0. -1.
    9900012    2    1    2    0    0  0.20355832419E+02 -0.17391700419E+02  0.34158349311E+02  0.47787262857E+02  0.19999962670E+02 0.  0.
         12    1    1    2    0    0 -0.20355832419E+02  0.17391700419E+02 -0.34158349311E+02  0.43400737143E+02  0.00000000000E+00 0. -1.
         11    1    3    3    0    0  0.71172211016E+01 -0.11442735387E+01  0.13459302101E+02  0.15268169879E+02  0.51100000000E-03 0. -1.
        -11    1    3    3    0    0 -0.46399565692E+00 -0.52593210835E+01 -0.11941548445E+00  0.52810993693E+01  0.51100000000E-03 0.  1.
        -12    1    3    3    0    0  0.13702606974E+02 -0.10988105796E+02  0.20818462694E+02  0.27237993609E+02  0.00000000000E+00 0.  1.
</event>
<event>
 7    1  0.2476315E-009  0.4778727E+02  0.7816164E-02  0.1312668E+00
        -11   -1    0    0    0    0  0.00000000000E+00  0.00000000000E+00  0.45593999997E+02  0.45594000000E+02  0.51100000000E-03 0. -1.
         11   -1    0    0    0    0 -0.00000000000E+00 -0.00000000000E+00 -0.45593999997E+02  0.45594000000E+02  0.51100000000E-03 0.  1.
    9900012    2    1    2    0    0  0.35379197977E+02  0.15236716269E+02  0.19994453178E+02  0.47787270398E+02  0.19999997050E+02 0.  0.
         12    1    1    2    0    0 -0.35379197977E+02 -0.15236716269E+02 -0.19994453178E+02  0.43400729602E+02  0.00000000000E+00 0. -1.
         11    1    3    3    0    0  0.52441378042E+01 -0.46726497047E-01  0.10228442625E+02  0.11494529285E+02  0.51100000000E-03 0. -1.
        -11    1    3    3    0    0  0.26928419304E+02  0.99296069653E+01  0.76463800733E+01  0.29701918948E+02  0.51100000000E-03 0.  1.
        -12    1    3    3    0    0  0.32066408682E+01  0.53538358006E+01  0.21196304796E+01  0.65908221647E+01  0.00000000000E+00 0.  1.
</event>
<event>
 7    1  0.2476315E-009  0.4778727E+02  0.7816164E-02  0.1312668E+00
        -11   -1    0    0    0    0  0.00000000000E+00  0.00000000000E+00  0.45593999997E+02  0.45594000000E+02  0.51100000000E-03 0. -1.
         11   -1    0    0    0    0 -0.00000000000E+00 -0.00000000000E+00 -0.45593999997E+02  0.45594000000E+02  0.51100000000E-03 0.  1.
    9900012    2    1    2    0    0 -0.36877145519E+02  0.22716021848E+02 -0.27715895508E+01  0.47787271678E+02  0.20000002887E+02 0.  0.
         12    1    1    2    0    0  0.36877145519E+02 -0.22716021848E+02  0.27715895508E+01  0.43400728322E+02  0.00000000000E+00 0. -1.
         11    1    3    3    0    0 -0.21061005894E+02  0.11580374250E+02 -0.90220430230E+01  0.25672325520E+02  0.51100000000E-03 0. -1.
        -11    1    3    3    0    0 -0.10982642706E+02  0.89010450507E+01  0.31410948791E+00  0.14140216011E+02  0.51100000000E-03 0.  1.
         12    1    3    3    0    0 -0.48334969200E+01  0.22346025474E+01  0.59363439843E+01  0.79747301472E+01  0.00000000000E+00 0. -1.
</event>
<event>
 7    1  0.2476315E-009  0.4778727E+02  0.7816164E-02  0.1312668E+00
        -11   -1    0    0    0    0  0.00000000000E+00  0.00000000000E+00  0.45593999997E+02  0.45594000000E+02  0.51100000000E-03 0.  1.
         11   -1    0    0    0    0 -0.00000000000E+00 -0.00000000000E+00 -0.45593999997E+02  0.45594000000E+02  0.51100000000E-03 0. -1.
    9900012    2    1    2    0    0 -0.58536449703E+01 -0.30426812550E+02  0.30390244696E+02  0.47787273577E+02  0.20000011546E+02 0.  0.
         12    1    1    2    0    0  0.58536449703E+01  0.30426812550E+02 -0.30390244696E+02  0.43400726423E+02  0.00000000000E+00 0. -1.
         11    1    3    3    0    0  0.15215403600E+01 -0.22866324997E+01  0.65836321842E+01  0.71335815867E+01  0.51100000000E-03 0. -1.
        -11    1    3    3    0    0 -0.26209744223E+01 -0.24721381470E+02  0.24317259407E+02  0.34775642540E+02  0.51100000000E-03 0.  1.
        -12    1    3    3    0    0 -0.47542109080E+01 -0.34187985800E+01 -0.51064689575E+00  0.58780494503E+01  0.00000000000E+00 0.  1.
</event>
<event>
 7    1  0.2476315E-009  0.4778727E+02  0.7816164E-02  0.1312668E+00
        -11   -1    0    0    0    0  0.00000000000E+00  0.00000000000E+00  0.45593999997E+02  0.45594000000E+02  0.51100000000E-03 0.  1.
         11   -1    0    0    0    0 -0.00000000000E+00 -0.00000000000E+00 -0.45593999997E+02  0.45594000000E+02  0.51100000000E-03 0. -1.
    9900012    2    1    2    0    0 -0.30927060411E+02  0.21369310314E+02  0.21690849361E+02  0.47787269189E+02  0.19999991540E+02 0.  0.
         12    1    1    2    0    0  0.30927060411E+02 -0.21369310314E+02 -0.21690849361E+02  0.43400730811E+02  0.00000000000E+00 0. -1.
         11    1    3    3    0    0 -0.15653702287E+02  0.19142137623E+02  0.18298655459E+02  0.30761999609E+02  0.51100000000E-03 0. -1.
        -11    1    3    3    0    0 -0.12484602053E+02  0.41134649776E+01  0.16911052612E+01  0.13253139998E+02  0.51100000000E-03 0.  1.
         12    1    3    3    0    0 -0.27887560715E+01 -0.18862922874E+01  0.17010886412E+01  0.37721295822E+01  0.00000000000E+00 0. -1.
</event>
<event>
 7    1  0.2476315E-009  0.4778727E+02  0.7816164E-02  0.1312668E+00
        -11   -1    0    0    0    0  0.00000000000E+00  0.00000000000E+00  0.45593999997E+02  0.45594000000E+02  0.51100000000E-03 0.  1.
         11   -1    0    0    0    0 -0.00000000000E+00 -0.00000000000E+00 -0.45593999997E+02  0.45594000000E+02  0.51100000000E-03 0. -1.
    9900012    2    1    2    0    0  0.40273723571E+02  0.11392230542E+02 -0.11483357985E+02  0.47787271462E+02  0.20000001906E+02 0.  0.
         12    1    1    2    0    0 -0.40273723571E+02 -0.11392230542E+02  0.11483357985E+02  0.43400728538E+02  0.00000000000E+00 0. -1.
         11    1    3    3    0    0 -0.11954245502E+01  0.28430853968E+01 -0.10272016836E+01  0.32507411445E+01  0.51100000000E-03 0. -1.
        -11    1    3    3    0    0  0.92228632807E+01  0.17377161310E+01  0.14450495818E+01  0.94957376228E+01  0.51100000000E-03 0.  1.
         12    1    3    3    0    0  0.32246284840E+02  0.68114290140E+01 -0.11901205884E+02  0.35040792695E+02  0.00000000000E+00 0. -1.
</event>
<event>
 7    1  0.2476315E-009  0.4778727E+02  0.7816164E-02  0.1312668E+00
        -11   -1    0    0    0    0  0.00000000000E+00  0.00000000000E+00  0.45593999997E+02  0.45594000000E+02  0.51100000000E-03 0. -1.
         11   -1    0    0    0    0 -0.00000000000E+00 -0.00000000000E+00 -0.45593999997E+02  0.45594000000E+02  0.51100000000E-03 0.  1.
    9900012    2    1    2    0    0 -0.76020615119E+01  0.32295445955E+02 -0.27979216664E+02  0.47787265746E+02  0.19999975843E+02 0.  0.
         12    1    1    2    0    0  0.76020615119E+01 -0.32295445955E+02  0.27979216664E+02  0.43400734254E+02  0.00000000000E+00 0. -1.
         11    1    3    3    0    0  0.98383705377E+00 -0.18479329832E+01  0.92771666117E-01  0.20955663917E+01  0.51100000000E-03 0. -1.
        -11    1    3    3    0    0 -0.29190307064E+01  0.41510284273E+01 -0.16937004610E+01  0.53498036209E+01  0.51100000000E-03 0.  1.
         12    1    3    3    0    0 -0.56668678593E+01  0.29992350511E+02 -0.26378287869E+02  0.40341895734E+02  0.00000000000E+00 0. -1.
</event>
<event>
 7    1  0.2476315E-009  0.4778728E+02  0.7816164E-02  0.1312668E+00
        -11   -1    0    0    0    0  0.00000000000E+00  0.00000000000E+00  0.45593999997E+02  0.45594000000E+02  0.51100000000E-03 0.  1.
         11   -1    0    0    0    0 -0.00000000000E+00 -0.00000000000E+00 -0.45593999997E+02  0.45594000000E+02  0.51100000000E-03 0. -1.
    9900012    2    1    2    0    0  0.21152890724E+02 -0.18435366822E+02  0.33110651536E+02  0.47787276722E+02  0.20000025889E+02 0.  0.
         12    1    1    2    0    0 -0.21152890724E+02  0.18435366822E+02 -0.33110651536E+02  0.43400723278E+02  0.00000000000E+00 0. -1.
         11    1    3    3    0    0  0.13999844864E+02 -0.61748802668E+01  0.14369533991E+02  0.20990671974E+02  0.51100000000E-03 0.  1.
        -11    1    3    3    0    0 -0.89211990308E+00 -0.10875007766E+02  0.95168619565E+01  0.14478685492E+02  0.51100000000E-03 0. -1.
         12    1    3    3    0    0  0.80451657632E+01 -0.13854787889E+01  0.92242555892E+01  0.12317919256E+02  0.00000000000E+00 0. -1.
</event>
<event>
 7    1  0.2476315E-009  0.4778728E+02  0.7816164E-02  0.1312668E+00
        -11   -1    0    0    0    0  0.00000000000E+00  0.00000000000E+00  0.45593999997E+02  0.45594000000E+02  0.51100000000E-03 0.  1.
         11   -1    0    0    0    0 -0.00000000000E+00 -0.00000000000E+00 -0.45593999997E+02  0.45594000000E+02  0.51100000000E-03 0. -1.
    9900012    2    1    2    0    0  0.31884376954E+02 -0.19683795859E+01  0.29379155528E+02  0.47787276602E+02  0.20000025338E+02 0.  0.
         12    1    1    2    0    0 -0.31884376954E+02  0.19683795859E+01 -0.29379155528E+02  0.43400723398E+02  0.00000000000E+00 0. -1.
         11    1    3    3    0    0  0.13633688188E+00 -0.64665203239E+00  0.64245336054E+01  0.64584347101E+01  0.51100000000E-03 0. -1.
        -11    1    3    3    0    0  0.22783220636E+02  0.49232073634E+01  0.13900170896E+02  0.27139046860E+02  0.51100000000E-03 0.  1.
        -12    1    3    3    0    0  0.89648194367E+01 -0.62449349169E+01  0.90544510265E+01  0.14189795032E+02  0.00000000000E+00 0.  1.
</event>
<event>
 7    1  0.2476315E-009  0.4778727E+02  0.7816164E-02  0.1312668E+00
        -11   -1    0    0    0    0  0.00000000000E+00  0.00000000000E+00  0.45593999997E+02  0.45594000000E+02  0.51100000000E-03 0. -1.
         11   -1    0    0    0    0 -0.00000000000E+00 -0.00000000000E+00 -0.45593999997E+02  0.45594000000E+02  0.51100000000E-03 0.  1.
    9900012    2    1    2    0    0  0.23830575732E+02 -0.11118444976E+02 -0.34526910786E+02  0.47787265826E+02  0.19999976207E+02 0.  0.
         12    1    1    2    0    0 -0.23830575732E+02  0.11118444976E+02  0.34526910786E+02  0.43400734174E+02  0.00000000000E+00 0. -1.
         11    1    3    3    0    0 -0.44980128902E+00 -0.35611123650E+01 -0.38734298556E+01  0.52808428857E+01  0.51100000000E-03 0. -1.
        -11    1    3    3    0    0  0.23094662879E+02 -0.24300748822E+01 -0.28640404058E+02  0.36871960380E+02  0.51100000000E-03 0.  1.
        -12    1    3    3    0    0  0.11857141426E+01 -0.51272577289E+01 -0.20130768720E+01  0.56344625599E+01  0.00000000000E+00 0.  1.
</event>
<event>
 7    1  0.2476315E-009  0.4778727E+02  0.7816164E-02  0.1312668E+00
        -11   -1    0    0    0    0  0.00000000000E+00  0.00000000000E+00  0.45593999997E+02  0.45594000000E+02  0.51100000000E-03 0.  1.
         11   -1    0    0    0    0 -0.00000000000E+00 -0.00000000000E+00 -0.45593999997E+02  0.45594000000E+02  0.51100000000E-03 0. -1.
    9900012    2    1    2    0    0 -0.32122085245E+02 -0.16799014801E+02  0.23866043100E+02  0.47787271066E+02  0.20000000098E+02 0.  0.
         12    1    1    2    0    0  0.32122085245E+02  0.16799014801E+02 -0.23866043100E+02  0.43400728934E+02  0.00000000000E+00 0. -1.
         11    1    3    3    0    0 -0.26963140530E+00 -0.55839118167E+00  0.76394580496E+01  0.76645822691E+01  0.51100000000E-03 0. -1.
        -11    1    3    3    0    0 -0.19386091646E+02 -0.80190856351E+01  0.13486226386E+02  0.24940019770E+02  0.51100000000E-03 0.  1.
         12    1    3    3    0    0 -0.12466362193E+02 -0.82215379844E+01  0.27403586644E+01  0.15182669027E+02  0.00000000000E+00 0. -1.
</event>
<event>
 7    1  0.2476315E-009  0.4778727E+02  0.7816164E-02  0.1312668E+00
        -11   -1    0    0    0    0  0.00000000000E+00  0.00000000000E+00  0.45593999997E+02  0.45594000000E+02  0.51100000000E-03 0.  1.
         11   -1    0    0    0    0 -0.00000000000E+00 -0.00000000000E+00 -0.45593999997E+02  0.45594000000E+02  0.51100000000E-03 0. -1.
    9900012    2    1    2    0    0 -0.23772888035E+01 -0.35095822501E+02  0.25421555003E+02  0.47787265929E+02  0.19999976679E+02 0.  0.
         12    1    1    2    0    0  0.23772888035E+01  0.35095822501E+02 -0.25421555003E+02  0.43400734071E+02  0.00000000000E+00 0. -1.
         11    1    3    3    0    0  0.58742683302E+01 -0.48287135079E+01  0.12724272945E+01  0.77099010394E+01  0.51100000000E-03 0. -1.
        -11    1    3    3    0    0 -0.53963195054E+01 -0.12616664922E+02  0.13587128652E+02  0.19310892346E+02  0.51100000000E-03 0.  1.
         12    1    3    3    0    0 -0.28552376282E+01 -0.17650444071E+02  0.10561999057E+02  0.20766472544E+02  0.00000000000E+00 0. -1.
</event>
<event>
 7    1  0.2476315E-009  0.4778727E+02  0.7816164E-02  0.1312668E+00
        -11   -1    0    0    0    0  0.00000000000E+00  0.00000000000E+00  0.45593999997E+02  0.45594000000E+02  0.51100000000E-03 0.  1.
         11   -1    0    0    0    0 -0.00000000000E+00 -0.00000000000E+00 -0.45593999997E+02  0.45594000000E+02  0.51100000000E-03 0. -1.
    9900012    2    1    2    0    0  0.30048303857E+02  0.25194547159E+02  0.18599939248E+02  0.47787268310E+02  0.19999987531E+02 0.  0.
         12    1    1    2    0    0 -0.30048303857E+02 -0.25194547159E+02 -0.18599939248E+02  0.43400731690E+02  0.00000000000E+00 0. -1.
         11    1    3    3    0    0  0.16750918859E+02  0.17264439754E+02  0.15696495931E+02  0.28723407656E+02  0.51100000000E-03 0. -1.
        -11    1    3    3    0    0  0.11646801701E+02  0.47519443832E+01  0.63523857010E+01  0.14091904401E+02  0.51100000000E-03 0.  1.
         12    1    3    3    0    0  0.16505832964E+01  0.31781630220E+01 -0.34489423833E+01  0.49719562524E+01  0.00000000000E+00 0. -1.
</event>
<event>
 7    1  0.2476315E-009  0.4778727E+02  0.7816164E-02  0.1312668E+00
        -11   -1    0    0    0    0  0.00000000000E+00  0.00000000000E+00  0.45593999997E+02  0.45594000000E+02  0.51100000000E-03 0. -1.
         11   -1    0    0    0    0 -0.00000000000E+00 -0.00000000000E+00 -0.45593999997E+02  0.45594000000E+02  0.51100000000E-03 0.  1.
    9900012    2    1    2    0    0 -0.11971450127E+02  0.47469174108E+00 -0.41714292552E+02  0.47787272432E+02  0.20000006325E+02 0.  0.
         12    1    1    2    0    0  0.11971450127E+02 -0.47469174108E+00  0.41714292552E+02  0.43400727568E+02  0.00000000000E+00 0. -1.
         11    1    3    3    0    0  0.20574963410E+01  0.46516523472E+01 -0.22107407460E+01  0.55460378343E+01  0.51100000000E-03 0. -1.
        -11    1    3    3    0    0 -0.83831298273E+01 -0.96002222704E+00 -0.21129711910E+02  0.22752213827E+02  0.51100000000E-03 0.  1.
         12    1    3    3    0    0 -0.56458166403E+01 -0.32169383791E+01 -0.18373839896E+02  0.19489020770E+02  0.00000000000E+00 0. -1.
</event>
<event>
 7    1  0.2476315E-009  0.4778727E+02  0.7816164E-02  0.1312668E+00
        -11   -1    0    0    0    0  0.00000000000E+00  0.00000000000E+00  0.45593999997E+02  0.45594000000E+02  0.51100000000E-03 0. -1.
         11   -1    0    0    0    0 -0.00000000000E+00 -0.00000000000E+00 -0.45593999997E+02  0.45594000000E+02  0.51100000000E-03 0.  1.
    9900012    2    1    2    0    0  0.39560668207E+02 -0.64558565326E+01 -0.16640279188E+02  0.47787269084E+02  0.19999991064E+02 0.  0.
         12    1    1    2    0    0 -0.39560668207E+02  0.64558565326E+01  0.16640279188E+02  0.43400730916E+02  0.00000000000E+00 0. -1.
         11    1    3    3    0    0  0.18034641307E+02 -0.72463405708E+01 -0.15359869362E+02  0.24772632598E+02  0.51100000000E-03 0.  1.
        -11    1    3    3    0    0  0.20376699052E+02  0.71413099520E+00 -0.33340654328E+01  0.20660005806E+02  0.51100000000E-03 0. -1.
        -12    1    3    3    0    0  0.11493278482E+01  0.76353042996E-01  0.20536556072E+01  0.23546306808E+01  0.00000000000E+00 0.  1.
</event>
<event>
 7    1  0.2476315E-009  0.4778727E+02  0.7816164E-02  0.1312668E+00
        -11   -1    0    0    0    0  0.00000000000E+00  0.00000000000E+00  0.45593999997E+02  0.45594000000E+02  0.51100000000E-03 0. -1.
         11   -1    0    0    0    0 -0.00000000000E+00 -0.00000000000E+00 -0.45593999997E+02  0.45594000000E+02  0.51100000000E-03 0.  1.
    9900012    2    1    2    0    0  0.38685051681E+02  0.12735325173E+02 -0.14996720746E+02  0.47787270007E+02  0.19999995268E+02 0.  0.
         12    1    1    2    0    0 -0.38685051681E+02 -0.12735325173E+02  0.14996720746E+02  0.43400729993E+02  0.00000000000E+00 0. -1.
         11    1    3    3    0    0  0.19756992217E+01 -0.31116982095E+01  0.97937407180E+00  0.38138205248E+01  0.51100000000E-03 0. -1.
        -11    1    3    3    0    0  0.26994390632E+02  0.15607588960E+02 -0.13253149526E+02  0.33881262246E+02  0.51100000000E-03 0.  1.
         12    1    3    3    0    0  0.97149618271E+01  0.23943442289E+00 -0.27229452923E+01  0.10092187236E+02  0.00000000000E+00 0. -1.
</event>
<event>
 7    1  0.2476315E-009  0.4778727E+02  0.7816164E-02  0.1312668E+00
        -11   -1    0    0    0    0  0.00000000000E+00  0.00000000000E+00  0.45593999997E+02  0.45594000000E+02  0.51100000000E-03 0.  1.
         11   -1    0    0    0    0 -0.00000000000E+00 -0.00000000000E+00 -0.45593999997E+02  0.45594000000E+02  0.51100000000E-03 0. -1.
    9900012    2    1    2    0    0  0.21678128797E+02 -0.74399692284E+01  0.36855517919E+02  0.47787267157E+02  0.19999982275E+02 0.  0.
         12    1    1    2    0    0 -0.21678128797E+02  0.74399692284E+01 -0.36855517919E+02  0.43400732843E+02  0.00000000000E+00 0. -1.
         11    1    3    3    0    0  0.97842645935E+01 -0.57236386629E+01  0.21547115503E+02  0.24346869613E+02  0.51100000000E-03 0. -1.
        -11    1    3    3    0    0  0.28719567691E+01 -0.38819691089E+01  0.13016481538E+02  0.13883321351E+02  0.51100000000E-03 0.  1.
         12    1    3    3    0    0  0.90219074340E+01  0.21656385434E+01  0.22919208778E+01  0.95570761930E+01  0.00000000000E+00 0. -1.
</event>
<event>
 7    1  0.2476315E-009  0.4778727E+02  0.7816164E-02  0.1312668E+00
        -11   -1    0    0    0    0  0.00000000000E+00  0.00000000000E+00  0.45593999997E+02  0.45594000000E+02  0.51100000000E-03 0. -1.
         11   -1    0    0    0    0 -0.00000000000E+00 -0.00000000000E+00 -0.45593999997E+02  0.45594000000E+02  0.51100000000E-03 0.  1.
    9900012    2    1    2    0    0  0.43016920890E+02  0.56359871488E+01  0.11846361248E+01  0.47787271933E+02  0.20000004053E+02 0.  0.
         12    1    1    2    0    0 -0.43016920890E+02 -0.56359871488E+01 -0.11846361248E+01  0.43400728067E+02  0.00000000000E+00 0. -1.
         11    1    3    3    0    0  0.54871502004E+01 -0.37033962025E+00 -0.28655901340E+01  0.62014172439E+01  0.51100000000E-03 0. -1.
        -11    1    3    3    0    0  0.32053374447E+01  0.28542042238E+01 -0.43471112762E+01  0.61088498585E+01  0.51100000000E-03 0.  1.
        -12    1    3    3    0    0  0.34324433245E+02  0.31521225453E+01  0.83973375349E+01  0.35477004831E+02  0.00000000000E+00 0.  1.
</event>
<event>
 7    1  0.2476315E-009  0.4778727E+02  0.7816164E-02  0.1312668E+00
        -11   -1    0    0    0    0  0.00000000000E+00  0.00000000000E+00  0.45593999997E+02  0.45594000000E+02  0.51100000000E-03 0.  1.
         11   -1    0    0    0    0 -0.00000000000E+00 -0.00000000000E+00 -0.45593999997E+02  0.45594000000E+02  0.51100000000E-03 0. -1.
    9900012    2    1    2    0    0 -0.15779597857E+02  0.90602587001E+01  0.39402275636E+02  0.47787270495E+02  0.19999997497E+02 0.  0.
         12    1    1    2    0    0  0.15779597857E+02 -0.90602587001E+01 -0.39402275636E+02  0.43400729505E+02  0.00000000000E+00 0. -1.
         11    1    3    3    0    0 -0.77505679868E+01  0.51731849101E+01  0.40735308066E+01  0.10169896741E+02  0.51100000000E-03 0. -1.
        -11    1    3    3    0    0 -0.74465823057E+01  0.45898028926E+01  0.35604967197E+02  0.36663763691E+02  0.51100000000E-03 0.  1.
        -12    1    3    3    0    0 -0.58244756478E+00 -0.70272910261E+00 -0.27622236735E+00  0.95361006370E+00  0.00000000000E+00 0.  1.
</event>
<event>
 7    1  0.2476315E-009  0.4778727E+02  0.7816164E-02  0.1312668E+00
        -11   -1    0    0    0    0  0.00000000000E+00  0.00000000000E+00  0.45593999997E+02  0.45594000000E+02  0.51100000000E-03 0.  1.
         11   -1    0    0    0    0 -0.00000000000E+00 -0.00000000000E+00 -0.45593999997E+02  0.45594000000E+02  0.51100000000E-03 0. -1.
    9900012    2    1    2    0    0 -0.27273051695E+02  0.11931628034E+02  0.31582276607E+02  0.47787270836E+02  0.19999999050E+02 0.  0.
         12    1    1    2    0    0  0.27273051695E+02 -0.11931628034E+02 -0.31582276607E+02  0.43400729164E+02  0.00000000000E+00 0. -1.
         11    1    3    3    0    0 -0.90702898138E+01 -0.26978221600E+01  0.14082292242E+02  0.16966418501E+02  0.51100000000E-03 0.  1.
        -11    1    3    3    0    0 -0.79248394340E+01  0.10812155944E+02  0.13825769364E+02  0.19257665876E+02  0.51100000000E-03 0. -1.
         12    1    3    3    0    0 -0.10277922447E+02  0.38172942495E+01  0.36742150017E+01  0.11563186459E+02  0.00000000000E+00 0. -1.
</event>
<event>
 7    1  0.2476315E-009  0.4778727E+02  0.7816164E-02  0.1312668E+00
        -11   -1    0    0    0    0  0.00000000000E+00  0.00000000000E+00  0.45593999997E+02  0.45594000000E+02  0.51100000000E-03 0.  1.
         11   -1    0    0    0    0 -0.00000000000E+00 -0.00000000000E+00 -0.45593999997E+02  0.45594000000E+02  0.51100000000E-03 0. -1.
    9900012    2    1    2    0    0 -0.88251168152E+01 -0.17878755808E+02  0.38549845237E+02  0.47787272312E+02  0.20000005780E+02 0.  0.
         12    1    1    2    0    0  0.88251168152E+01  0.17878755808E+02 -0.38549845237E+02  0.43400727688E+02  0.00000000000E+00 0. -1.
         11    1    3    3    0    0 -0.26619331074E+01  0.24660804854E+01  0.10007746249E+01  0.37641720125E+01  0.51100000000E-03 0. -1.
        -11    1    3    3    0    0 -0.44294063585E+01 -0.27494476136E+01  0.10230044435E+02  0.11481851431E+02  0.51100000000E-03 0.  1.
         12    1    3    3    0    0 -0.17337773492E+01 -0.17595388680E+02  0.27319026177E+02  0.32541248869E+02  0.00000000000E+00 0. -1.
</event>
<event>
 7    1  0.2476315E-009  0.4778727E+02  0.7816164E-02  0.1312668E+00
        -11   -1    0    0    0    0  0.00000000000E+00  0.00000000000E+00  0.45593999997E+02  0.45594000000E+02  0.51100000000E-03 0. -1.
         11   -1    0    0    0    0 -0.00000000000E+00 -0.00000000000E+00 -0.45593999997E+02  0.45594000000E+02  0.51100000000E-03 0.  1.
    9900012    2    1    2    0    0  0.63018230570E+00  0.41711343745E+02 -0.11974551727E+02  0.47787271713E+02  0.20000003050E+02 0.  0.
         12    1    1    2    0    0 -0.63018230570E+00 -0.41711343745E+02  0.11974551727E+02  0.43400728287E+02  0.00000000000E+00 0. -1.
         11    1    3    3    0    0 -0.59505502368E+00 -0.62788239481E+00  0.38466801981E+00  0.94672938557E+00  0.51100000000E-03 0. -1.
        -11    1    3    3    0    0 -0.38080782659E+01  0.34536098549E+02 -0.52366729452E+01  0.35137818755E+02  0.51100000000E-03 0.  1.
        -12    1    3    3    0    0  0.50333155953E+01  0.78031275903E+01 -0.71225468015E+01  0.11702723572E+02  0.00000000000E+00 0.  1.
</event>
<event>
 7    1  0.2476315E-009  0.4778726E+02  0.7816164E-02  0.1312668E+00
        -11   -1    0    0    0    0  0.00000000000E+00  0.00000000000E+00  0.45593999997E+02  0.45594000000E+02  0.51100000000E-03 0.  1.
         11   -1    0    0    0    0 -0.00000000000E+00 -0.00000000000E+00 -0.45593999997E+02  0.45594000000E+02  0.51100000000E-03 0. -1.
    9900012    2    1    2    0    0 -0.12403998902E+02  0.25098305465E+02  0.33163836066E+02  0.47787260967E+02  0.19999954055E+02 0.  0.
         12    1    1    2    0    0  0.12403998902E+02 -0.25098305465E+02 -0.33163836066E+02  0.43400739033E+02  0.00000000000E+00 0. -1.
         11    1    3    3    0    0 -0.62817485631E+01  0.81067241179E+01  0.23263639813E+02  0.25423931217E+02  0.51100000000E-03 0.  1.
        -11    1    3    3    0    0 -0.69931589586E+01  0.17450806656E+02  0.10125612494E+02  0.21353289063E+02  0.51100000000E-03 0. -1.
         12    1    3    3    0    0  0.87090861996E+00 -0.45922530886E+00 -0.22541624079E+00  0.10100406874E+01  0.00000000000E+00 0. -1.
</event>
<event>
 7    1  0.2476315E-009  0.4778727E+02  0.7816164E-02  0.1312668E+00
        -11   -1    0    0    0    0  0.00000000000E+00  0.00000000000E+00  0.45593999997E+02  0.45594000000E+02  0.51100000000E-03 0.  1.
         11   -1    0    0    0    0 -0.00000000000E+00 -0.00000000000E+00 -0.45593999997E+02  0.45594000000E+02  0.51100000000E-03 0. -1.
    9900012    2    1    2    0    0 -0.31878710956E+02  0.22649141572E+02  0.18825187039E+02  0.47787268518E+02  0.19999988479E+02 0.  0.
         12    1    1    2    0    0  0.31878710956E+02 -0.22649141572E+02 -0.18825187039E+02  0.43400731482E+02  0.00000000000E+00 0. -1.
         11    1    3    3    0    0 -0.10693923627E+01  0.89451133255E+01  0.30145396704E+01  0.94997948460E+01  0.51100000000E-03 0. -1.
        -11    1    3    3    0    0 -0.13053886968E+02  0.72909328307E+01  0.11653781825E+02  0.18957117334E+02  0.51100000000E-03 0.  1.
         12    1    3    3    0    0 -0.17755431625E+02  0.64130954156E+01  0.41568655435E+01  0.19330356338E+02  0.00000000000E+00 0. -1.
</event>
<event>
 7    1  0.2476315E-009  0.4778727E+02  0.7816164E-02  0.1312668E+00
        -11   -1    0    0    0    0  0.00000000000E+00  0.00000000000E+00  0.45593999997E+02  0.45594000000E+02  0.51100000000E-03 0.  1.
         11   -1    0    0    0    0 -0.00000000000E+00 -0.00000000000E+00 -0.45593999997E+02  0.45594000000E+02  0.51100000000E-03 0. -1.
    9900012    2    1    2    0    0  0.22429244512E+02  0.12302534492E+02  0.35059945317E+02  0.47787272703E+02  0.20000007560E+02 0.  0.
         12    1    1    2    0    0 -0.22429244512E+02 -0.12302534492E+02 -0.35059945317E+02  0.43400727297E+02  0.00000000000E+00 0. -1.
         11    1    3    3    0    0  0.18185182683E+01  0.35305422741E+01  0.49535409359E+01  0.63489609784E+01  0.51100000000E-03 0. -1.
        -11    1    3    3    0    0  0.15803779022E+02  0.14102334030E+02  0.20808517018E+02  0.29692248773E+02  0.51100000000E-03 0.  1.
        -12    1    3    3    0    0  0.48069472219E+01 -0.53303418120E+01  0.92978873631E+01  0.11746062951E+02  0.00000000000E+00 0.  1.
</event>
<event>
 7    1  0.2476315E-009  0.4778725E+02  0.7816164E-02  0.1312668E+00
        -11   -1    0    0    0    0  0.00000000000E+00  0.00000000000E+00  0.45593999997E+02  0.45594000000E+02  0.51100000000E-03 0.  1.
         11   -1    0    0    0    0 -0.00000000000E+00 -0.00000000000E+00 -0.45593999997E+02  0.45594000000E+02  0.51100000000E-03 0. -1.
    9900012    2    1    2    0    0 -0.41807705286E+01  0.10996911551E+02  0.41775760393E+02  0.47787250441E+02  0.19999906061E+02 0.  0.
         12    1    1    2    0    0  0.41807705286E+01 -0.10996911551E+02 -0.41775760393E+02  0.43400749559E+02  0.00000000000E+00 0. -1.
         11    1    3    3    0    0  0.22539671029E+01 -0.42237523789E+01  0.86604284169E+01  0.98956289585E+01  0.51100000000E-03 0. -1.
        -11    1    3    3    0    0 -0.67634538536E+01  0.61003025682E+01  0.19195645354E+02  0.21246900957E+02  0.51100000000E-03 0.  1.
        -12    1    3    3    0    0  0.32871622212E+00  0.91203613615E+01  0.13919686622E+02  0.16644720526E+02  0.00000000000E+00 0.  1.
</event>
<event>
 7    1  0.2476315E-009  0.4778727E+02  0.7816164E-02  0.1312668E+00
        -11   -1    0    0    0    0  0.00000000000E+00  0.00000000000E+00  0.45593999997E+02  0.45594000000E+02  0.51100000000E-03 0.  1.
         11   -1    0    0    0    0 -0.00000000000E+00 -0.00000000000E+00 -0.45593999997E+02  0.45594000000E+02  0.51100000000E-03 0. -1.
    9900012    2    1    2    0    0 -0.23481055582E+02  0.28855927012E+02  0.22351710508E+02  0.47787268927E+02  0.19999990347E+02 0.  0.
         12    1    1    2    0    0  0.23481055582E+02 -0.28855927012E+02 -0.22351710508E+02  0.43400731073E+02  0.00000000000E+00 0. -1.
         11    1    3    3    0    0 -0.13350812342E+02  0.19613748065E+02  0.21169756870E+02  0.31797828693E+02  0.51100000000E-03 0. -1.
        -11    1    3    3    0    0 -0.71054547503E+01  0.73581867132E+01  0.44493650383E+01  0.11154696250E+02  0.51100000000E-03 0.  1.
         12    1    3    3    0    0 -0.30247884896E+01  0.18839922341E+01 -0.32674114002E+01  0.48347439852E+01  0.00000000000E+00 0. -1.
</event>
<event>
 7    1  0.2476315E-009  0.4778727E+02  0.7816164E-02  0.1312668E+00
        -11   -1    0    0    0    0  0.00000000000E+00  0.00000000000E+00  0.45593999997E+02  0.45594000000E+02  0.51100000000E-03 0.  1.
         11   -1    0    0    0    0 -0.00000000000E+00 -0.00000000000E+00 -0.45593999997E+02  0.45594000000E+02  0.51100000000E-03 0. -1.
    9900012    2    1    2    0    0  0.27439857872E+02 -0.26782694873E+02  0.20331373580E+02  0.47787270786E+02  0.19999998822E+02 0.  0.
         12    1    1    2    0    0 -0.27439857872E+02  0.26782694873E+02 -0.20331373580E+02  0.43400729214E+02  0.00000000000E+00 0. -1.
         11    1    3    3    0    0 -0.12177772989E+01 -0.91727264325E+01  0.44209393884E+01  0.10255076650E+02  0.51100000000E-03 0. -1.
        -11    1    3    3    0    0  0.22805327664E+02 -0.13560655897E+02  0.10267666787E+02  0.28449944459E+02  0.51100000000E-03 0.  1.
         12    1    3    3    0    0  0.58523075071E+01 -0.40493125429E+01  0.56427674041E+01  0.90822496775E+01  0.00000000000E+00 0. -1.
</event>
<event>
 7    1  0.2476315E-009  0.4778727E+02  0.7816164E-02  0.1312668E+00
        -11   -1    0    0    0    0  0.00000000000E+00  0.00000000000E+00  0.45593999997E+02  0.45594000000E+02  0.51100000000E-03 0. -1.
         11   -1    0    0    0    0 -0.00000000000E+00 -0.00000000000E+00 -0.45593999997E+02  0.45594000000E+02  0.51100000000E-03 0.  1.
    9900012    2    1    2    0    0 -0.18063049358E+02  0.37678491876E+02  0.11733738785E+02  0.47787272725E+02  0.20000007661E+02 0.  0.
         12    1    1    2    0    0  0.18063049358E+02 -0.37678491876E+02 -0.11733738785E+02  0.43400727275E+02  0.00000000000E+00 0. -1.
         11    1    3    3    0    0 -0.11827198559E+02  0.14507172067E+02 -0.65045349048E+00  0.18728688079E+02  0.51100000000E-03 0.  1.
        -11    1    3    3    0    0 -0.57898264573E+01  0.24344235433E+02  0.11622992425E+02  0.27590901442E+02  0.51100000000E-03 0. -1.
         12    1    3    3    0    0 -0.44602434175E+00 -0.11729156241E+01  0.76119985079E+00  0.14676832041E+01  0.00000000000E+00 0. -1.
</event>
<event>
 7    1  0.2476315E-009  0.4778728E+02  0.7816164E-02  0.1312668E+00
        -11   -1    0    0    0    0  0.00000000000E+00  0.00000000000E+00  0.45593999997E+02  0.45594000000E+02  0.51100000000E-03 0.  1.
         11   -1    0    0    0    0 -0.00000000000E+00 -0.00000000000E+00 -0.45593999997E+02  0.45594000000E+02  0.51100000000E-03 0. -1.
    9900012    2    1    2    0    0  0.37442893389E+01 -0.37741397909E+02  0.21099519292E+02  0.47787279578E+02  0.20000038908E+02 0.  0.
         12    1    1    2    0    0 -0.37442893389E+01  0.37741397909E+02 -0.21099519292E+02  0.43400720422E+02  0.00000000000E+00 0. -1.
         11    1    3    3    0    0 -0.32710377606E+01 -0.21266932712E+01 -0.19595536926E+01  0.43660466370E+01  0.51100000000E-03 0. -1.
        -11    1    3    3    0    0  0.69115942912E+01 -0.27333666131E+02  0.15325172538E+02  0.32089879298E+02  0.51100000000E-03 0.  1.
         12    1    3    3    0    0  0.10373280831E+00 -0.82810385069E+01  0.77339004469E+01  0.11331353642E+02  0.00000000000E+00 0. -1.
</event>
<event>
 7    1  0.2476315E-009  0.4778727E+02  0.7816164E-02  0.1312668E+00
        -11   -1    0    0    0    0  0.00000000000E+00  0.00000000000E+00  0.45593999997E+02  0.45594000000E+02  0.51100000000E-03 0.  1.
         11   -1    0    0    0    0 -0.00000000000E+00 -0.00000000000E+00 -0.45593999997E+02  0.45594000000E+02  0.51100000000E-03 0. -1.
    9900012    2    1    2    0    0 -0.26538810776E+02  0.10583855477E+02  0.32669516683E+02  0.47787265047E+02  0.19999972653E+02 0.  0.
         12    1    1    2    0    0  0.26538810776E+02 -0.10583855477E+02 -0.32669516683E+02  0.43400734953E+02  0.00000000000E+00 0. -1.
         11    1    3    3    0    0  0.81289139962E+00 -0.81988287894E-01  0.25313615996E+01  0.26599447956E+01  0.51100000000E-03 0. -1.
        -11    1    3    3    0    0 -0.97605002228E+01 -0.41214228793E+01  0.10086384610E+02  0.14628350759E+02  0.51100000000E-03 0.  1.
        -12    1    3    3    0    0 -0.17591201953E+02  0.14787266645E+02  0.20051770473E+02  0.30498969492E+02  0.00000000000E+00 0.  1.
</event>
<event>
 7    1  0.2476315E-009  0.4778727E+02  0.7816164E-02  0.1312668E+00
        -11   -1    0    0    0    0  0.00000000000E+00  0.00000000000E+00  0.45593999997E+02  0.45594000000E+02  0.51100000000E-03 0.  1.
         11   -1    0    0    0    0 -0.00000000000E+00 -0.00000000000E+00 -0.45593999997E+02  0.45594000000E+02  0.51100000000E-03 0. -1.
    9900012    2    1    2    0    0  0.30418482577E+01 -0.39169916670E+02  0.18441476836E+02  0.47787270967E+02  0.19999999646E+02 0.  0.
         12    1    1    2    0    0 -0.30418482577E+01  0.39169916670E+02 -0.18441476836E+02  0.43400729033E+02  0.00000000000E+00 0. -1.
         11    1    3    3    0    0 -0.39548959152E+01 -0.35959710334E+01  0.43210919816E+01  0.68734304062E+01  0.51100000000E-03 0. -1.
        -11    1    3    3    0    0  0.36789957267E+01 -0.34452686084E+02  0.11388350533E+02  0.36472141643E+02  0.51100000000E-03 0.  1.
        -12    1    3    3    0    0  0.33177484462E+01 -0.11212595526E+01  0.27320343215E+01  0.44416989171E+01  0.00000000000E+00 0.  1.
</event>
<event>
 7    1  0.2476315E-009  0.4778727E+02  0.7816164E-02  0.1312668E+00
        -11   -1    0    0    0    0  0.00000000000E+00  0.00000000000E+00  0.45593999997E+02  0.45594000000E+02  0.51100000000E-03 0.  1.
         11   -1    0    0    0    0 -0.00000000000E+00 -0.00000000000E+00 -0.45593999997E+02  0.45594000000E+02  0.51100000000E-03 0. -1.
    9900012    2    1    2    0    0 -0.48840824720E+01 -0.27752856743E+02  0.33008304326E+02  0.47787268745E+02  0.19999989517E+02 0.  0.
         12    1    1    2    0    0  0.48840824720E+01  0.27752856743E+02 -0.33008304326E+02  0.43400731255E+02  0.00000000000E+00 0. -1.
         11    1    3    3    0    0  0.99649275510E+00 -0.57822446325E+01  0.20564288997E+02  0.21384979144E+02  0.51100000000E-03 0. -1.
        -11    1    3    3    0    0 -0.55853576843E+01 -0.16153959513E+02  0.71357002376E+01  0.18522009787E+02  0.51100000000E-03 0.  1.
         12    1    3    3    0    0 -0.29521754278E+00 -0.58166525979E+01  0.53083150915E+01  0.78802798144E+01  0.00000000000E+00 0. -1.
</event>
<event>
 7    1  0.2476315E-009  0.4778727E+02  0.7816164E-02  0.1312668E+00
        -11   -1    0    0    0    0  0.00000000000E+00  0.00000000000E+00  0.45593999997E+02  0.45594000000E+02  0.51100000000E-03 0.  1.
         11   -1    0    0    0    0 -0.00000000000E+00 -0.00000000000E+00 -0.45593999997E+02  0.45594000000E+02  0.51100000000E-03 0. -1.
    9900012    2    1    2    0    0 -0.87912504891E+00  0.41159590612E+02  0.13738212915E+02  0.47787271270E+02  0.20000001028E+02 0.  0.
         12    1    1    2    0    0  0.87912504891E+00 -0.41159590612E+02 -0.13738212915E+02  0.43400728730E+02  0.00000000000E+00 0. -1.
         11    1    3    3    0    0 -0.19068649860E+01  0.11485164751E+02 -0.13815531543E+01  0.11724070659E+02  0.51100000000E-03 0. -1.
        -11    1    3    3    0    0  0.51638623339E+01  0.26200551756E+02  0.15066331878E+02  0.30661518929E+02  0.51100000000E-03 0.  1.
        -12    1    3    3    0    0 -0.41361223968E+01  0.34738741046E+01  0.53434191426E-01  0.54016816815E+01  0.00000000000E+00 0.  1.
</event>
<event>
 7    1  0.2476315E-009  0.4778727E+02  0.7816164E-02  0.1312668E+00
        -11   -1    0    0    0    0  0.00000000000E+00  0.00000000000E+00  0.45593999997E+02  0.45594000000E+02  0.51100000000E-03 0.  1.
         11   -1    0    0    0    0 -0.00000000000E+00 -0.00000000000E+00 -0.45593999997E+02  0.45594000000E+02  0.51100000000E-03 0. -1.
    9900012    2    1    2    0    0 -0.25011830051E+02  0.23371359704E+02  0.26679789915E+02  0.47787270896E+02  0.19999999321E+02 0.  0.
         12    1    1    2    0    0  0.25011830051E+02 -0.23371359704E+02 -0.26679789915E+02  0.43400729104E+02  0.00000000000E+00 0. -1.
         11    1    3    3    0    0 -0.64495785222E+01  0.12782649480E+01  0.12711782498E+02  0.14311549145E+02  0.51100000000E-03 0. -1.
        -11    1    3    3    0    0 -0.23039104788E+01  0.51618015075E+01 -0.85043657335E+00  0.57162436026E+01  0.51100000000E-03 0.  1.
         12    1    3    3    0    0 -0.16258341050E+02  0.16931293248E+02  0.14818443990E+02  0.27759478148E+02  0.00000000000E+00 0. -1.
</event>
<event>
 7    1  0.2476315E-009  0.4778727E+02  0.7816164E-02  0.1312668E+00
        -11   -1    0    0    0    0  0.00000000000E+00  0.00000000000E+00  0.45593999997E+02  0.45594000000E+02  0.51100000000E-03 0.  1.
         11   -1    0    0    0    0 -0.00000000000E+00 -0.00000000000E+00 -0.45593999997E+02  0.45594000000E+02  0.51100000000E-03 0. -1.
    9900012    2    1    2    0    0  0.12798056277E+02 -0.21212401333E+02  0.35635195095E+02  0.47787270234E+02  0.19999996303E+02 0.  0.
         12    1    1    2    0    0 -0.12798056277E+02  0.21212401333E+02 -0.35635195095E+02  0.43400729766E+02  0.00000000000E+00 0. -1.
         11    1    3    3    0    0  0.37837304056E+01  0.89728349134E+00  0.34094379961E+01  0.51716536192E+01  0.51100000000E-03 0. -1.
        -11    1    3    3    0    0  0.11593909297E+02 -0.22425956228E+02  0.28507442351E+02  0.38079082384E+02  0.51100000000E-03 0.  1.
        -12    1    3    3    0    0 -0.25795834265E+01  0.31627140395E+00  0.37183147487E+01  0.45365342306E+01  0.00000000000E+00 0.  1.
</event>
<event>
 7    1  0.2476315E-009  0.4778726E+02  0.7816164E-02  0.1312668E+00
        -11   -1    0    0    0    0  0.00000000000E+00  0.00000000000E+00  0.45593999997E+02  0.45594000000E+02  0.51100000000E-03 0.  1.
         11   -1    0    0    0    0 -0.00000000000E+00 -0.00000000000E+00 -0.45593999997E+02  0.45594000000E+02  0.51100000000E-03 0. -1.
    9900012    2    1    2    0    0 -0.24348986102E+01 -0.42313400812E+02  0.93419166918E+01  0.47787262368E+02  0.19999960439E+02 0.  0.
         12    1    1    2    0    0  0.24348986102E+01  0.42313400812E+02 -0.93419166918E+01  0.43400737632E+02  0.00000000000E+00 0. -1.
         11    1    3    3    0    0  0.28275944850E+01 -0.33300808396E+02  0.10047833078E+02  0.34898396528E+02  0.51100000000E-03 0.  1.
        -11    1    3    3    0    0 -0.39301658997E+01 -0.10294201346E+02 -0.52649362378E+00  0.11031499497E+02  0.51100000000E-03 0. -1.
         12    1    3    3    0    0 -0.13323271956E+01  0.12816089296E+01 -0.17942276234E+00  0.18573663430E+01  0.00000000000E+00 0. -1.
</event>
<event>
 7    1  0.2476315E-009  0.4778728E+02  0.7816164E-02  0.1312668E+00
        -11   -1    0    0    0    0  0.00000000000E+00  0.00000000000E+00  0.45593999997E+02  0.45594000000E+02  0.51100000000E-03 0. -1.
         11   -1    0    0    0    0 -0.00000000000E+00 -0.00000000000E+00 -0.45593999997E+02  0.45594000000E+02  0.51100000000E-03 0.  1.
    9900012    2    1    2    0    0  0.67765285720E+00 -0.18805708214E+02 -0.39108938115E+02  0.47787275175E+02  0.20000018832E+02 0.  0.
         12    1    1    2    0    0 -0.67765285720E+00  0.18805708214E+02  0.39108938115E+02  0.43400724825E+02  0.00000000000E+00 0. -1.
         11    1    3    3    0    0 -0.17950991769E+01 -0.74609164667E+01 -0.23642634079E+02  0.24856826065E+02  0.51100000000E-03 0. -1.
        -11    1    3    3    0    0  0.45257011954E+01 -0.30889805928E+01 -0.23507381720E+00  0.54844354653E+01  0.51100000000E-03 0.  1.
        -12    1    3    3    0    0 -0.20529491613E+01 -0.82558111550E+01 -0.15231230219E+02  0.17446013644E+02  0.00000000000E+00 0.  1.
</event>
<event>
 7    1  0.2476315E-009  0.4778727E+02  0.7816164E-02  0.1312668E+00
        -11   -1    0    0    0    0  0.00000000000E+00  0.00000000000E+00  0.45593999997E+02  0.45594000000E+02  0.51100000000E-03 0.  1.
         11   -1    0    0    0    0 -0.00000000000E+00 -0.00000000000E+00 -0.45593999997E+02  0.45594000000E+02  0.51100000000E-03 0. -1.
    9900012    2    1    2    0    0 -0.15071354863E+01 -0.32777015194E+02  0.28408081462E+02  0.47787271034E+02  0.19999999953E+02 0.  0.
         12    1    1    2    0    0  0.15071354863E+01  0.32777015194E+02 -0.28408081462E+02  0.43400728966E+02  0.00000000000E+00 0. -1.
         11    1    3    3    0    0 -0.73599981528E+01 -0.22811781136E+02  0.14729900178E+02  0.28133909983E+02  0.51100000000E-03 0. -1.
        -11    1    3    3    0    0  0.60022600699E+01 -0.10915583315E+02  0.13900998642E+02  0.18665873903E+02  0.51100000000E-03 0.  1.
        -12    1    3    3    0    0 -0.14939740335E+00  0.95034925682E+00 -0.22281735720E+00  0.98748714865E+00  0.00000000000E+00 0.  1.
</event>
<event>
 7    1  0.2476315E-009  0.4778728E+02  0.7816164E-02  0.1312668E+00
        -11   -1    0    0    0    0  0.00000000000E+00  0.00000000000E+00  0.45593999997E+02  0.45594000000E+02  0.51100000000E-03 0. -1.
         11   -1    0    0    0    0 -0.00000000000E+00 -0.00000000000E+00 -0.45593999997E+02  0.45594000000E+02  0.51100000000E-03 0.  1.
    9900012    2    1    2    0    0 -0.31655525965E+02  0.29557918757E+02  0.28071365180E+01  0.47787275342E+02  0.20000019596E+02 0.  0.
         12    1    1    2    0    0  0.31655525965E+02 -0.29557918757E+02 -0.28071365180E+01  0.43400724658E+02  0.00000000000E+00 0. -1.
         11    1    3    3    0    0 -0.76893977039E+01  0.12997694837E+01  0.19982651014E+01  0.80504224383E+01  0.51100000000E-03 0. -1.
        -11    1    3    3    0    0 -0.70228888131E+01  0.31267891263E+01 -0.45854165994E+01  0.89511911595E+01  0.51100000000E-03 0.  1.
        -12    1    3    3    0    0 -0.16943239448E+02  0.25131360147E+02  0.53942880161E+01  0.30785661745E+02  0.00000000000E+00 0.  1.
</event>
<event>
 7    1  0.2476315E-009  0.4778729E+02  0.7816164E-02  0.1312668E+00
        -11   -1    0    0    0    0  0.00000000000E+00  0.00000000000E+00  0.45593999997E+02  0.45594000000E+02  0.51100000000E-03 0.  1.
         11   -1    0    0    0    0 -0.00000000000E+00 -0.00000000000E+00 -0.45593999997E+02  0.45594000000E+02  0.51100000000E-03 0. -1.
    9900012    2    1    2    0    0  0.84485325929E+01  0.38131410592E+02 -0.18927219928E+02  0.47787287668E+02  0.20000075795E+02 0.  0.
         12    1    1    2    0    0 -0.84485325929E+01 -0.38131410592E+02  0.18927219928E+02  0.43400712332E+02  0.00000000000E+00 0. -1.
         11    1    3    3    0    0  0.16760392587E+01 -0.12924625021E+01 -0.23846444931E+00  0.21298902485E+01  0.51100000000E-03 0. -1.
        -11    1    3    3    0    0  0.31854816321E+01  0.30839424083E+02 -0.91334289888E+01  0.32320843064E+02  0.51100000000E-03 0.  1.
        -12    1    3    3    0    0  0.35870117022E+01  0.85844490109E+01 -0.95553264898E+01  0.13336554356E+02  0.00000000000E+00 0.  1.
</event>
<event>
 7    1  0.2476315E-009  0.4778727E+02  0.7816164E-02  0.1312668E+00
        -11   -1    0    0    0    0  0.00000000000E+00  0.00000000000E+00  0.45593999997E+02  0.45594000000E+02  0.51100000000E-03 0.  1.
         11   -1    0    0    0    0 -0.00000000000E+00 -0.00000000000E+00 -0.45593999997E+02  0.45594000000E+02  0.51100000000E-03 0. -1.
    9900012    2    1    2    0    0  0.28548920191E+02  0.94038765241E+00  0.32675645388E+02  0.47787274493E+02  0.20000015723E+02 0.  0.
         12    1    1    2    0    0 -0.28548920191E+02 -0.94038765241E+00 -0.32675645388E+02  0.43400725507E+02  0.00000000000E+00 0. -1.
         11    1    3    3    0    0  0.70429383483E+01 -0.49104153114E+01  0.17041963522E+02  0.19082549098E+02  0.51100000000E-03 0. -1.
        -11    1    3    3    0    0  0.21241551503E+02  0.58939151669E+01  0.16667993913E+02  0.27636276297E+02  0.51100000000E-03 0.  1.
        -12    1    3    3    0    0  0.26443033914E+00 -0.43112203091E-01 -0.10343120463E+01  0.10684490982E+01  0.00000000000E+00 0.  1.
</event>
<event>
 7    1  0.2476315E-009  0.4778727E+02  0.7816164E-02  0.1312668E+00
        -11   -1    0    0    0    0  0.00000000000E+00  0.00000000000E+00  0.45593999997E+02  0.45594000000E+02  0.51100000000E-03 0. -1.
         11   -1    0    0    0    0 -0.00000000000E+00 -0.00000000000E+00 -0.45593999997E+02  0.45594000000E+02  0.51100000000E-03 0.  1.
    9900012    2    1    2    0    0  0.18712560035E+02  0.11632161634E+02 -0.37391927360E+02  0.47787270524E+02  0.19999997628E+02 0.  0.
         12    1    1    2    0    0 -0.18712560035E+02 -0.11632161634E+02  0.37391927360E+02  0.43400729476E+02  0.00000000000E+00 0. -1.
         11    1    3    3    0    0  0.13828570098E+02 -0.18094584396E+01 -0.18513867412E+02  0.23179015890E+02  0.51100000000E-03 0.  1.
        -11    1    3    3    0    0 -0.10711637781E+01  0.52546565750E+00 -0.33244664285E+01  0.35320791741E+01  0.51100000000E-03 0. -1.
         12    1    3    3    0    0  0.59551537151E+01  0.12916154416E+02 -0.15553593520E+02  0.21076175461E+02  0.00000000000E+00 0. -1.
</event>
<event>
 7    1  0.2476315E-009  0.4778727E+02  0.7816164E-02  0.1312668E+00
        -11   -1    0    0    0    0  0.00000000000E+00  0.00000000000E+00  0.45593999997E+02  0.45594000000E+02  0.51100000000E-03 0.  1.
         11   -1    0    0    0    0 -0.00000000000E+00 -0.00000000000E+00 -0.45593999997E+02  0.45594000000E+02  0.51100000000E-03 0. -1.
    9900012    2    1    2    0    0  0.34599955961E+01  0.32672802802E+02  0.28357357538E+02  0.47787270294E+02  0.19999996578E+02 0.  0.
         12    1    1    2    0    0 -0.34599955961E+01 -0.32672802802E+02 -0.28357357538E+02  0.43400729706E+02  0.00000000000E+00 0. -1.
         11    1    3    3    0    0 -0.20934147401E+01  0.28425901393E+02  0.17788304056E+02  0.33598184723E+02  0.51100000000E-03 0. -1.
        -11    1    3    3    0    0  0.31581384876E+01 -0.11671674000E+01  0.25608913940E+01  0.42301635239E+01  0.51100000000E-03 0.  1.
        -12    1    3    3    0    0  0.23952718486E+01  0.54140688093E+01  0.80081620882E+01  0.99589220466E+01  0.00000000000E+00 0.  1.
</event>
<event>
 7    1  0.2476315E-009  0.4778726E+02  0.7816164E-02  0.1312668E+00
        -11   -1    0    0    0    0  0.00000000000E+00  0.00000000000E+00  0.45593999997E+02  0.45594000000E+02  0.51100000000E-03 0.  1.
         11   -1    0    0    0    0 -0.00000000000E+00 -0.00000000000E+00 -0.45593999997E+02  0.45594000000E+02  0.51100000000E-03 0. -1.
    9900012    2    1    2    0    0  0.27262743771E+01 -0.17438253414E+02  0.39649701705E+02  0.47787261534E+02  0.19999956639E+02 0.  0.
         12    1    1    2    0    0 -0.27262743771E+01  0.17438253414E+02 -0.39649701705E+02  0.43400738466E+02  0.00000000000E+00 0. -1.
         11    1    3    3    0    0 -0.42837517025E+01 -0.10312349770E+02  0.64906823524E+01  0.12916038251E+02  0.51100000000E-03 0. -1.
        -11    1    3    3    0    0  0.49572432527E+01 -0.71484449490E+01  0.25559670739E+02  0.26999468409E+02  0.51100000000E-03 0.  1.
         12    1    3    3    0    0  0.20527828269E+01  0.22541305612E-01  0.75993486136E+01  0.78717548740E+01  0.00000000000E+00 0. -1.
</event>
<event>
 7    1  0.2476315E-009  0.4778727E+02  0.7816164E-02  0.1312668E+00
        -11   -1    0    0    0    0  0.00000000000E+00  0.00000000000E+00  0.45593999997E+02  0.45594000000E+02  0.51100000000E-03 0.  1.
         11   -1    0    0    0    0 -0.00000000000E+00 -0.00000000000E+00 -0.45593999997E+02  0.45594000000E+02  0.51100000000E-03 0. -1.
    9900012    2    1    2    0    0 -0.40604099656E+02 -0.71563648457E+01  0.13554217384E+02  0.47787271025E+02  0.19999999912E+02 0.  0.
         12    1    1    2    0    0  0.40604099656E+02  0.71563648457E+01 -0.13554217384E+02  0.43400728975E+02  0.00000000000E+00 0. -1.
         11    1    3    3    0    0 -0.10833427788E+01 -0.41923740288E+01  0.34525844316E+01  0.55380475885E+01  0.51100000000E-03 0. -1.
        -11    1    3    3    0    0 -0.34832213863E+02 -0.55081949636E+01  0.10770430970E+02  0.36873100193E+02  0.51100000000E-03 0.  1.
         12    1    3    3    0    0 -0.46885430142E+01  0.25442041467E+01 -0.66879801776E+00  0.53761232431E+01  0.00000000000E+00 0. -1.
</event>
<event>
 7    1  0.2476315E-009  0.4778727E+02  0.7816164E-02  0.1312668E+00
        -11   -1    0    0    0    0  0.00000000000E+00  0.00000000000E+00  0.45593999997E+02  0.45594000000E+02  0.51100000000E-03 0. -1.
         11   -1    0    0    0    0 -0.00000000000E+00 -0.00000000000E+00 -0.45593999997E+02  0.45594000000E+02  0.51100000000E-03 0.  1.
    9900012    2    1    2    0    0 -0.18492465179E+02  0.38396111101E+02  0.82091754295E+01  0.47787272157E+02  0.20000005071E+02 0.  0.
         12    1    1    2    0    0  0.18492465179E+02 -0.38396111101E+02 -0.82091754295E+01  0.43400727843E+02  0.00000000000E+00 0. -1.
         11    1    3    3    0    0 -0.14941291395E+01 -0.11058874491E+01  0.30024004589E+01  0.35312629061E+01  0.51100000000E-03 0. -1.
        -11    1    3    3    0    0  0.10644091952E+01  0.34338367781E+01  0.74861948625E+00  0.36721428826E+01  0.51100000000E-03 0.  1.
         12    1    3    3    0    0 -0.18062745235E+02  0.36068161772E+02  0.44581554843E+01  0.40583866368E+02  0.00000000000E+00 0. -1.
</event>
<event>
 7    1  0.2476315E-009  0.4778726E+02  0.7816164E-02  0.1312668E+00
        -11   -1    0    0    0    0  0.00000000000E+00  0.00000000000E+00  0.45593999997E+02  0.45594000000E+02  0.51100000000E-03 0.  1.
         11   -1    0    0    0    0 -0.00000000000E+00 -0.00000000000E+00 -0.45593999997E+02  0.45594000000E+02  0.51100000000E-03 0. -1.
    9900012    2    1    2    0    0  0.17348994664E+02 -0.21821979927E+02  0.33263154803E+02  0.47787263932E+02  0.19999967573E+02 0.  0.
         12    1    1    2    0    0 -0.17348994664E+02  0.21821979927E+02 -0.33263154803E+02  0.43400736068E+02  0.00000000000E+00 0. -1.
         11    1    3    3    0    0 -0.15861305505E+01 -0.36821107110E+01 -0.11273599551E+01  0.41646956841E+01  0.51100000000E-03 0. -1.
        -11    1    3    3    0    0  0.18015352234E+02 -0.16213437788E+02  0.33404984456E+02  0.41271315314E+02  0.51100000000E-03 0.  1.
        -12    1    3    3    0    0  0.91977298071E+00 -0.19264314279E+01  0.98553030197E+00  0.23512529338E+01  0.00000000000E+00 0.  1.
</event>
<event>
 7    1  0.2476315E-009  0.4778727E+02  0.7816164E-02  0.1312668E+00
        -11   -1    0    0    0    0  0.00000000000E+00  0.00000000000E+00  0.45593999997E+02  0.45594000000E+02  0.51100000000E-03 0. -1.
         11   -1    0    0    0    0 -0.00000000000E+00 -0.00000000000E+00 -0.45593999997E+02  0.45594000000E+02  0.51100000000E-03 0.  1.
    9900012    2    1    2    0    0 -0.12906428368E+02 -0.41224831795E+02  0.41905491831E+01  0.47787270142E+02  0.19999995885E+02 0.  0.
         12    1    1    2    0    0  0.12906428368E+02  0.41224831795E+02 -0.41905491831E+01  0.43400729858E+02  0.00000000000E+00 0. -1.
         11    1    3    3    0    0 -0.27682773079E+01 -0.35925795035E+02  0.30999571911E+01  0.36165395656E+02  0.51100000000E-03 0. -1.
        -11    1    3    3    0    0 -0.49835791355E+01 -0.35322043416E+01  0.29909375818E+00  0.61157162988E+01  0.51100000000E-03 0.  1.
         12    1    3    3    0    0 -0.51545719247E+01 -0.17668324189E+01  0.79149823379E+00  0.55061581867E+01  0.00000000000E+00 0. -1.
</event>
<event>
 7    1  0.2476315E-009  0.4778727E+02  0.7816164E-02  0.1312668E+00
        -11   -1    0    0    0    0  0.00000000000E+00  0.00000000000E+00  0.45593999997E+02  0.45594000000E+02  0.51100000000E-03 0. -1.
         11   -1    0    0    0    0 -0.00000000000E+00 -0.00000000000E+00 -0.45593999997E+02  0.45594000000E+02  0.51100000000E-03 0.  1.
    9900012    2    1    2    0    0  0.29673672577E+02  0.29898296507E+02 -0.10449314645E+02  0.47787272416E+02  0.20000006255E+02 0.  0.
         12    1    1    2    0    0 -0.29673672577E+02 -0.29898296507E+02  0.10449314645E+02  0.43400727584E+02  0.00000000000E+00 0. -1.
         11    1    3    3    0    0  0.81703154221E+01  0.11305922056E+02  0.12520966138E+01  0.14005201670E+02  0.51100000000E-03 0. -1.
        -11    1    3    3    0    0  0.22556986693E+02  0.16158615423E+02 -0.13209480603E+02  0.30731236212E+02  0.51100000000E-03 0.  1.
        -12    1    3    3    0    0 -0.10536295377E+01  0.24337590283E+01  0.15080693440E+01  0.30508345345E+01  0.00000000000E+00 0.  1.
</event>
<event>
 7    1  0.2476315E-009  0.4778727E+02  0.7816164E-02  0.1312668E+00
        -11   -1    0    0    0    0  0.00000000000E+00  0.00000000000E+00  0.45593999997E+02  0.45594000000E+02  0.51100000000E-03 0.  1.
         11   -1    0    0    0    0 -0.00000000000E+00 -0.00000000000E+00 -0.45593999997E+02  0.45594000000E+02  0.51100000000E-03 0. -1.
    9900012    2    1    2    0    0  0.93022142979E+01 -0.35416433413E+02  0.23297381813E+02  0.47787274823E+02  0.20000017228E+02 0.  0.
         12    1    1    2    0    0 -0.93022142979E+01  0.35416433413E+02 -0.23297381813E+02  0.43400725177E+02  0.00000000000E+00 0. -1.
         11    1    3    3    0    0  0.17359279741E+01 -0.30418201982E+02  0.17868133399E+02  0.35320683022E+02  0.51100000000E-03 0. -1.
        -11    1    3    3    0    0  0.31360746868E+01 -0.59094739598E+01  0.34866704842E+01  0.75441181227E+01  0.51100000000E-03 0.  1.
         12    1    3    3    0    0  0.44302116371E+01  0.91124252889E+00  0.19425779299E+01  0.49224736779E+01  0.00000000000E+00 0. -1.
</event>
<event>
 7    1  0.2476315E-009  0.4778727E+02  0.7816164E-02  0.1312668E+00
        -11   -1    0    0    0    0  0.00000000000E+00  0.00000000000E+00  0.45593999997E+02  0.45594000000E+02  0.51100000000E-03 0.  1.
         11   -1    0    0    0    0 -0.00000000000E+00 -0.00000000000E+00 -0.45593999997E+02  0.45594000000E+02  0.51100000000E-03 0. -1.
    9900012    2    1    2    0    0  0.80681958607E+01 -0.99511305745E+01  0.41466885353E+02  0.47787269995E+02  0.19999995213E+02 0.  0.
         12    1    1    2    0    0 -0.80681958607E+01  0.99511305745E+01 -0.41466885353E+02  0.43400730005E+02  0.00000000000E+00 0. -1.
         11    1    3    3    0    0 -0.40589174094E+01 -0.74873506100E+01  0.77491030461E+01  0.11514505112E+02  0.51100000000E-03 0. -1.
        -11    1    3    3    0    0  0.72727559856E+01 -0.36160867559E+01  0.24198913781E+02  0.25525604626E+02  0.51100000000E-03 0.  1.
         12    1    3    3    0    0  0.48543572845E+01  0.11523067915E+01  0.95188685253E+01  0.10747160257E+02  0.00000000000E+00 0. -1.
</event>
<event>
 7    1  0.2476315E-009  0.4778727E+02  0.7816164E-02  0.1312668E+00
        -11   -1    0    0    0    0  0.00000000000E+00  0.00000000000E+00  0.45593999997E+02  0.45594000000E+02  0.51100000000E-03 0.  1.
         11   -1    0    0    0    0 -0.00000000000E+00 -0.00000000000E+00 -0.45593999997E+02  0.45594000000E+02  0.51100000000E-03 0. -1.
    9900012    2    1    2    0    0 -0.23237317569E+02 -0.30245661142E+02  0.20708702933E+02  0.47787270479E+02  0.19999997424E+02 0.  0.
         12    1    1    2    0    0  0.23237317569E+02  0.30245661142E+02 -0.20708702933E+02  0.43400729521E+02  0.00000000000E+00 0. -1.
         11    1    3    3    0    0 -0.64388919947E+01 -0.44729404951E+01 -0.73729391365E+00  0.78746510633E+01  0.51100000000E-03 0. -1.
        -11    1    3    3    0    0 -0.11897357633E+02 -0.24404541998E+02  0.21789599795E+02  0.34812576007E+02  0.51100000000E-03 0.  1.
        -12    1    3    3    0    0 -0.49010679417E+01 -0.13681786494E+01 -0.34360294849E+00  0.51000434089E+01  0.00000000000E+00 0.  1.
</event>
<event>
 7    1  0.2476315E-009  0.4778727E+02  0.7816164E-02  0.1312668E+00
        -11   -1    0    0    0    0  0.00000000000E+00  0.00000000000E+00  0.45593999997E+02  0.45594000000E+02  0.51100000000E-03 0.  1.
         11   -1    0    0    0    0 -0.00000000000E+00 -0.00000000000E+00 -0.45593999997E+02  0.45594000000E+02  0.51100000000E-03 0. -1.
    9900012    2    1    2    0    0 -0.34619603314E+02 -0.22152859726E+02  0.13941196324E+02  0.47787273248E+02  0.20000010049E+02 0.  0.
         12    1    1    2    0    0  0.34619603314E+02  0.22152859726E+02 -0.13941196324E+02  0.43400726752E+02  0.00000000000E+00 0. -1.
         11    1    3    3    0    0 -0.13346803926E+02  0.18114851909E+01  0.27758608016E+01  0.13752238257E+02  0.51100000000E-03 0. -1.
        -11    1    3    3    0    0 -0.16588163714E+02 -0.20203790278E+02  0.88957543887E+01  0.27613307723E+02  0.51100000000E-03 0.  1.
        -12    1    3    3    0    0 -0.46846356741E+01 -0.37605546389E+01  0.22695811340E+01  0.64217272688E+01  0.00000000000E+00 0.  1.
</event>
<event>
 7    1  0.2476315E-009  0.4778728E+02  0.7816164E-02  0.1312668E+00
        -11   -1    0    0    0    0  0.00000000000E+00  0.00000000000E+00  0.45593999997E+02  0.45594000000E+02  0.51100000000E-03 0.  1.
         11   -1    0    0    0    0 -0.00000000000E+00 -0.00000000000E+00 -0.45593999997E+02  0.45594000000E+02  0.51100000000E-03 0. -1.
    9900012    2    1    2    0    0 -0.38689763132E+02 -0.13191524163E+02 -0.14584536558E+02  0.47787276647E+02  0.20000025544E+02 0.  0.
         12    1    1    2    0    0  0.38689763132E+02  0.13191524163E+02  0.14584536558E+02  0.43400723353E+02  0.00000000000E+00 0. -1.
         11    1    3    3    0    0 -0.45982666890E+01 -0.45778312164E+01  0.23914396912E+01  0.69151702254E+01  0.51100000000E-03 0. -1.
        -11    1    3    3    0    0 -0.21034964305E+02 -0.99867668195E+01 -0.14729059435E+02  0.27552684568E+02  0.51100000000E-03 0.  1.
        -12    1    3    3    0    0 -0.13056532138E+02  0.13730738731E+01 -0.22469168139E+01  0.13319421853E+02  0.00000000000E+00 0.  1.
</event>
<event>
 7    1  0.2476315E-009  0.4778728E+02  0.7816164E-02  0.1312668E+00
        -11   -1    0    0    0    0  0.00000000000E+00  0.00000000000E+00  0.45593999997E+02  0.45594000000E+02  0.51100000000E-03 0.  1.
         11   -1    0    0    0    0 -0.00000000000E+00 -0.00000000000E+00 -0.45593999997E+02  0.45594000000E+02  0.51100000000E-03 0. -1.
    9900012    2    1    2    0    0 -0.15331917909E+02  0.39989163493E+02  0.70300750364E+01  0.47787275828E+02  0.20000021808E+02 0.  0.
         12    1    1    2    0    0  0.15331917909E+02 -0.39989163493E+02 -0.70300750364E+01  0.43400724172E+02  0.00000000000E+00 0. -1.
         11    1    3    3    0    0 -0.12448815134E+01  0.88128116717E+01  0.14358524650E+01  0.90153786446E+01  0.51100000000E-03 0. -1.
        -11    1    3    3    0    0 -0.70440022439E+01  0.22880585360E+02 -0.39903292618E+01  0.24270597066E+02  0.51100000000E-03 0.  1.
        -12    1    3    3    0    0 -0.70430341521E+01  0.82957664612E+01  0.95845518332E+01  0.14501300117E+02  0.00000000000E+00 0.  1.
</event>
<event>
 7    1  0.2476315E-009  0.4778727E+02  0.7816164E-02  0.1312668E+00
        -11   -1    0    0    0    0  0.00000000000E+00  0.00000000000E+00  0.45593999997E+02  0.45594000000E+02  0.51100000000E-03 0.  1.
         11   -1    0    0    0    0 -0.00000000000E+00 -0.00000000000E+00 -0.45593999997E+02  0.45594000000E+02  0.51100000000E-03 0. -1.
    9900012    2    1    2    0    0 -0.65034528140E+01  0.16060258639E+02  0.39791918856E+02  0.47787267146E+02  0.19999982225E+02 0.  0.
         12    1    1    2    0    0  0.65034528140E+01 -0.16060258639E+02 -0.39791918856E+02  0.43400732854E+02  0.00000000000E+00 0. -1.
         11    1    3    3    0    0  0.65480869349E-01  0.50481253786E+01  0.40718973818E+00  0.50649443557E+01  0.51100000000E-03 0. -1.
        -11    1    3    3    0    0  0.16191042153E+01  0.70145630469E+01  0.13825473711E+02  0.15587473073E+02  0.51100000000E-03 0.  1.
         12    1    3    3    0    0 -0.81880378986E+01  0.39975702130E+01  0.25559255407E+02  0.27134849718E+02  0.00000000000E+00 0. -1.
</event>
<event>
 7    1  0.2476315E-009  0.4778727E+02  0.7816164E-02  0.1312668E+00
        -11   -1    0    0    0    0  0.00000000000E+00  0.00000000000E+00  0.45593999997E+02  0.45594000000E+02  0.51100000000E-03 0.  1.
         11   -1    0    0    0    0 -0.00000000000E+00 -0.00000000000E+00 -0.45593999997E+02  0.45594000000E+02  0.51100000000E-03 0. -1.
    9900012    2    1    2    0    0 -0.15383122685E+02  0.26870755539E+01  0.40493977631E+02  0.47787273475E+02  0.20000011080E+02 0.  0.
         12    1    1    2    0    0  0.15383122685E+02 -0.26870755539E+01 -0.40493977631E+02  0.43400726525E+02  0.00000000000E+00 0. -1.
         11    1    3    3    0    0 -0.33816658063E+01  0.20470523856E+01  0.38366439514E+01  0.55087134765E+01  0.51100000000E-03 0. -1.
        -11    1    3    3    0    0 -0.15701356686E+02 -0.44777573028E+00  0.21428660569E+02  0.26569166320E+02  0.51100000000E-03 0.  1.
        -12    1    3    3    0    0  0.36998998080E+01  0.10877988986E+01  0.15228673110E+02  0.15709393678E+02  0.00000000000E+00 0.  1.
</event>
<event>
 7    1  0.2476315E-009  0.4778728E+02  0.7816164E-02  0.1312668E+00
        -11   -1    0    0    0    0  0.00000000000E+00  0.00000000000E+00  0.45593999997E+02  0.45594000000E+02  0.51100000000E-03 0.  1.
         11   -1    0    0    0    0 -0.00000000000E+00 -0.00000000000E+00 -0.45593999997E+02  0.45594000000E+02  0.51100000000E-03 0. -1.
    9900012    2    1    2    0    0 -0.17690289355E+02  0.35984488874E+01  0.39468059222E+02  0.47787275690E+02  0.20000021183E+02 0.  0.
         12    1    1    2    0    0  0.17690289355E+02 -0.35984488874E+01 -0.39468059222E+02  0.43400724310E+02  0.00000000000E+00 0. -1.
         11    1    3    3    0    0 -0.11919537837E+00 -0.42469441824E+01  0.14257027582E+02  0.14876611784E+02  0.51100000000E-03 0. -1.
        -11    1    3    3    0    0 -0.10274785694E+02  0.84605124637E+01  0.19571469701E+02  0.23668416059E+02  0.51100000000E-03 0.  1.
        -12    1    3    3    0    0 -0.72963082825E+01 -0.61511939390E+00  0.56395619387E+01  0.92422478479E+01  0.00000000000E+00 0.  1.
</event>
<event>
 7    1  0.2476315E-009  0.4778727E+02  0.7816164E-02  0.1312668E+00
        -11   -1    0    0    0    0  0.00000000000E+00  0.00000000000E+00  0.45593999997E+02  0.45594000000E+02  0.51100000000E-03 0.  1.
         11   -1    0    0    0    0 -0.00000000000E+00 -0.00000000000E+00 -0.45593999997E+02  0.45594000000E+02  0.51100000000E-03 0. -1.
    9900012    2    1    2    0    0 -0.43366193600E+01  0.74110265600E+01  0.42542843813E+02  0.47787272565E+02  0.20000006934E+02 0.  0.
         12    1    1    2    0    0  0.43366193600E+01 -0.74110265600E+01 -0.42542843813E+02  0.43400727435E+02  0.00000000000E+00 0. -1.
         11    1    3    3    0    0  0.31332120446E+01  0.49406505272E+01  0.49463656126E+01  0.76611734338E+01  0.51100000000E-03 0. -1.
        -11    1    3    3    0    0 -0.98313675169E+01  0.23680667272E+01  0.20410457291E+02  0.22778285589E+02  0.51100000000E-03 0.  1.
        -12    1    3    3    0    0  0.23615361123E+01  0.10230930565E+00  0.17186020909E+02  0.17347813542E+02  0.00000000000E+00 0.  1.
</event>
<event>
 7    1  0.2476315E-009  0.4778727E+02  0.7816164E-02  0.1312668E+00
        -11   -1    0    0    0    0  0.00000000000E+00  0.00000000000E+00  0.45593999997E+02  0.45594000000E+02  0.51100000000E-03 0.  1.
         11   -1    0    0    0    0 -0.00000000000E+00 -0.00000000000E+00 -0.45593999997E+02  0.45594000000E+02  0.51100000000E-03 0. -1.
    9900012    2    1    2    0    0  0.12800988707E+02  0.35496756565E+02  0.21441503968E+02  0.47787272691E+02  0.20000007509E+02 0.  0.
         12    1    1    2    0    0 -0.12800988707E+02 -0.35496756565E+02 -0.21441503968E+02  0.43400727309E+02  0.00000000000E+00 0. -1.
         11    1    3    3    0    0  0.57083050235E+00  0.66428879324E+01  0.20356209003E+01  0.69711950379E+01  0.51100000000E-03 0. -1.
        -11    1    3    3    0    0  0.47883538425E+01  0.16240638466E+02  0.19943087869E+02  0.26161296304E+02  0.51100000000E-03 0.  1.
        -12    1    3    3    0    0  0.74418043619E+01  0.12613230167E+02 -0.53720480114E+00  0.14654781350E+02  0.00000000000E+00 0.  1.
</event>
<event>
 7    1  0.2476315E-009  0.4778727E+02  0.7816164E-02  0.1312668E+00
        -11   -1    0    0    0    0  0.00000000000E+00  0.00000000000E+00  0.45593999997E+02  0.45594000000E+02  0.51100000000E-03 0.  1.
         11   -1    0    0    0    0 -0.00000000000E+00 -0.00000000000E+00 -0.45593999997E+02  0.45594000000E+02  0.51100000000E-03 0. -1.
    9900012    2    1    2    0    0  0.77505698252E+01 -0.20506936989E+01  0.42653801807E+02  0.47787268602E+02  0.19999988865E+02 0.  0.
         12    1    1    2    0    0 -0.77505698252E+01  0.20506936989E+01 -0.42653801807E+02  0.43400731398E+02  0.00000000000E+00 0. -1.
         11    1    3    3    0    0  0.13231141845E+02  0.21050062969E+01  0.23503717982E+02  0.27054000172E+02  0.51100000000E-03 0. -1.
        -11    1    3    3    0    0 -0.31941719937E+00 -0.74898039078E+00  0.74956334404E+01  0.75397294320E+01  0.51100000000E-03 0.  1.
         12    1    3    3    0    0 -0.51611548203E+01 -0.34067196050E+01  0.11654450384E+02  0.13193538999E+02  0.00000000000E+00 0. -1.
</event>
<event>
 7    1  0.2476315E-009  0.4778724E+02  0.7816164E-02  0.1312668E+00
        -11   -1    0    0    0    0  0.00000000000E+00  0.00000000000E+00  0.45593999997E+02  0.45594000000E+02  0.51100000000E-03 0.  1.
         11   -1    0    0    0    0 -0.00000000000E+00 -0.00000000000E+00 -0.45593999997E+02  0.45594000000E+02  0.51100000000E-03 0. -1.
    9900012    2    1    2    0    0 -0.21871727015E+01  0.14477669431E+02  0.40856320209E+02  0.47787244965E+02  0.19999881093E+02 0.  0.
         12    1    1    2    0    0  0.21871727015E+01 -0.14477669431E+02 -0.40856320209E+02  0.43400755035E+02  0.00000000000E+00 0. -1.
         11    1    3    3    0    0  0.38205097499E+01  0.13097642155E+02  0.29657409167E+02  0.32645159573E+02  0.51100000000E-03 0. -1.
        -11    1    3    3    0    0 -0.56771045387E+01  0.38170538075E+01  0.50009340666E+01  0.84740048096E+01  0.51100000000E-03 0.  1.
         12    1    3    3    0    0 -0.33057791270E+00 -0.24370265313E+01  0.61979769750E+01  0.66680805824E+01  0.00000000000E+00 0. -1.
</event>
<event>
 7    1  0.2476315E-009  0.4778727E+02  0.7816164E-02  0.1312668E+00
        -11   -1    0    0    0    0  0.00000000000E+00  0.00000000000E+00  0.45593999997E+02  0.45594000000E+02  0.51100000000E-03 0.  1.
         11   -1    0    0    0    0 -0.00000000000E+00 -0.00000000000E+00 -0.45593999997E+02  0.45594000000E+02  0.51100000000E-03 0. -1.
    9900012    2    1    2    0    0 -0.43582340965E+00  0.59033994318E+01  0.42995156123E+02  0.47787268244E+02  0.19999987231E+02 0.  0.
         12    1    1    2    0    0  0.43582340965E+00 -0.59033994318E+01 -0.42995156123E+02  0.43400731756E+02  0.00000000000E+00 0. -1.
         11    1    3    3    0    0 -0.58842581524E+01  0.68660932674E+01  0.36024940049E+02  0.37142482908E+02  0.51100000000E-03 0. -1.
        -11    1    3    3    0    0 -0.23690421113E+00  0.83356002647E+00  0.37890269097E+01  0.38868587711E+01  0.51100000000E-03 0.  1.
         12    1    3    3    0    0  0.56853389539E+01 -0.17962538620E+01  0.31811891649E+01  0.67579265651E+01  0.00000000000E+00 0. -1.
</event>
<event>
 7    1  0.2476315E-009  0.4778727E+02  0.7816164E-02  0.1312668E+00
        -11   -1    0    0    0    0  0.00000000000E+00  0.00000000000E+00  0.45593999997E+02  0.45594000000E+02  0.51100000000E-03 0.  1.
         11   -1    0    0    0    0 -0.00000000000E+00 -0.00000000000E+00 -0.45593999997E+02  0.45594000000E+02  0.51100000000E-03 0. -1.
    9900012    2    1    2    0    0 -0.28399784526E+02  0.38577727450E+01  0.32591302207E+02  0.47787272458E+02  0.20000006443E+02 0.  0.
         12    1    1    2    0    0  0.28399784526E+02 -0.38577727450E+01 -0.32591302207E+02  0.43400727542E+02  0.00000000000E+00 0. -1.
         11    1    3    3    0    0 -0.41019670914E+01  0.66747669010E+01  0.83899407211E+01  0.11479100695E+02  0.51100000000E-03 0. -1.
        -11    1    3    3    0    0 -0.23643086445E+02  0.54214336601E-01  0.19001986519E+02  0.30332721074E+02  0.51100000000E-03 0.  1.
        -12    1    3    3    0    0 -0.65473098906E+00 -0.28712084926E+01  0.51993749675E+01  0.59754506883E+01  0.00000000000E+00 0.  1.
</event>
<event>
 7    1  0.2476315E-009  0.4778726E+02  0.7816164E-02  0.1312668E+00
        -11   -1    0    0    0    0  0.00000000000E+00  0.00000000000E+00  0.45593999997E+02  0.45594000000E+02  0.51100000000E-03 0. -1.
         11   -1    0    0    0    0 -0.00000000000E+00 -0.00000000000E+00 -0.45593999997E+02  0.45594000000E+02  0.51100000000E-03 0.  1.
    9900012    2    1    2    0    0  0.25121152984E+02 -0.32140701943E+02  0.14816450990E+02  0.47787259585E+02  0.19999947753E+02 0.  0.
         12    1    1    2    0    0 -0.25121152984E+02  0.32140701943E+02 -0.14816450990E+02  0.43400740415E+02  0.00000000000E+00 0. -1.
         11    1    3    3    0    0  0.32281495375E+01 -0.92760170147E+01  0.11888177834E+02  0.15420577601E+02  0.51100000000E-03 0. -1.
        -11    1    3    3    0    0  0.16897639061E+02 -0.20873288790E+02  0.23626771999E+01  0.26959351523E+02  0.51100000000E-03 0.  1.
         12    1    3    3    0    0  0.49953643858E+01 -0.19913961376E+01  0.56559595622E+00  0.54073304605E+01  0.00000000000E+00 0. -1.
</event>
<event>
 7    1  0.2476315E-009  0.4778727E+02  0.7816164E-02  0.1312668E+00
        -11   -1    0    0    0    0  0.00000000000E+00  0.00000000000E+00  0.45593999997E+02  0.45594000000E+02  0.51100000000E-03 0.  1.
         11   -1    0    0    0    0 -0.00000000000E+00 -0.00000000000E+00 -0.45593999997E+02  0.45594000000E+02  0.51100000000E-03 0. -1.
    9900012    2    1    2    0    0 -0.12790929912E+02  0.40828751168E+02  0.72820770328E+01  0.47787268948E+02  0.19999990442E+02 0.  0.
         12    1    1    2    0    0  0.12790929912E+02 -0.40828751168E+02 -0.72820770328E+01  0.43400731052E+02  0.00000000000E+00 0. -1.
         11    1    3    3    0    0 -0.10357205141E+02  0.27512219012E+02  0.33154941050E+01  0.29583549394E+02  0.51100000000E-03 0. -1.
        -11    1    3    3    0    0  0.33819336769E+01  0.97634346105E+01  0.46959775213E+01  0.11349640344E+02  0.51100000000E-03 0.  1.
        -12    1    3    3    0    0 -0.58156584483E+01  0.35530975446E+01 -0.72939459355E+00  0.68540792103E+01  0.00000000000E+00 0.  1.
</event>
<event>
 7    1  0.2476315E-009  0.4778728E+02  0.7816164E-02  0.1312668E+00
        -11   -1    0    0    0    0  0.00000000000E+00  0.00000000000E+00  0.45593999997E+02  0.45594000000E+02  0.51100000000E-03 0.  1.
         11   -1    0    0    0    0 -0.00000000000E+00 -0.00000000000E+00 -0.45593999997E+02  0.45594000000E+02  0.51100000000E-03 0. -1.
    9900012    2    1    2    0    0  0.37189541042E+01  0.35675181225E+02  0.24435084576E+02  0.47787279576E+02  0.20000038897E+02 0.  0.
         12    1    1    2    0    0 -0.37189541042E+01 -0.35675181225E+02 -0.24435084576E+02  0.43400720424E+02  0.00000000000E+00 0. -1.
         11    1    3    3    0    0 -0.71681184904E+00  0.27430885340E+02  0.93750060884E+01  0.28997552124E+02  0.51100000000E-03 0. -1.
        -11    1    3    3    0    0  0.17763759729E+01  0.83317157395E+01  0.12237216410E+02  0.14910481699E+02  0.51100000000E-03 0.  1.
         12    1    3    3    0    0  0.26593899803E+01 -0.87419854160E-01  0.28228620778E+01  0.38792457525E+01  0.00000000000E+00 0. -1.
</event>
<event>
 7    1  0.2476315E-009  0.4778727E+02  0.7816164E-02  0.1312668E+00
        -11   -1    0    0    0    0  0.00000000000E+00  0.00000000000E+00  0.45593999997E+02  0.45594000000E+02  0.51100000000E-03 0.  1.
         11   -1    0    0    0    0 -0.00000000000E+00 -0.00000000000E+00 -0.45593999997E+02  0.45594000000E+02  0.51100000000E-03 0. -1.
    9900012    2    1    2    0    0  0.18205732255E+02  0.12359815853E+02  0.37408682972E+02  0.47787270783E+02  0.19999998808E+02 0.  0.
         12    1    1    2    0    0 -0.18205732255E+02 -0.12359815853E+02 -0.37408682972E+02  0.43400729217E+02  0.00000000000E+00 0. -1.
         11    1    3    3    0    0  0.19242216677E+02  0.16046214895E+02  0.28886866288E+02  0.38238657917E+02  0.51100000000E-03 0. -1.
        -11    1    3    3    0    0  0.25920111534E+00 -0.23919964211E+01  0.39701716966E+01  0.46423157646E+01  0.51100000000E-03 0.  1.
         12    1    3    3    0    0 -0.12956855365E+01 -0.12944026217E+01  0.45516449872E+01  0.49062971013E+01  0.00000000000E+00 0. -1.
</event>
<event>
 7    1  0.2476315E-009  0.4778727E+02  0.7816164E-02  0.1312668E+00
        -11   -1    0    0    0    0  0.00000000000E+00  0.00000000000E+00  0.45593999997E+02  0.45594000000E+02  0.51100000000E-03 0.  1.
         11   -1    0    0    0    0 -0.00000000000E+00 -0.00000000000E+00 -0.45593999997E+02  0.45594000000E+02  0.51100000000E-03 0. -1.
    9900012    2    1    2    0    0  0.10832664670E+02 -0.68658512129E+00  0.42021485368E+02  0.47787271256E+02  0.20000000963E+02 0.  0.
         12    1    1    2    0    0 -0.10832664670E+02  0.68658512129E+00 -0.42021485368E+02  0.43400728744E+02  0.00000000000E+00 0. -1.
         11    1    3    3    0    0  0.35974000894E+01  0.55042399902E+01  0.46685038976E+01  0.80642962604E+01  0.51100000000E-03 0. -1.
        -11    1    3    3    0    0  0.58476092372E+01 -0.56419443533E+00  0.28790047555E+02  0.29383323291E+02  0.51100000000E-03 0.  1.
         12    1    3    3    0    0  0.13876553436E+01 -0.56266306761E+01  0.85629339161E+01  0.10339651704E+02  0.00000000000E+00 0. -1.
</event>
<event>
 7    1  0.2476315E-009  0.4778726E+02  0.7816164E-02  0.1312668E+00
        -11   -1    0    0    0    0  0.00000000000E+00  0.00000000000E+00  0.45593999997E+02  0.45594000000E+02  0.51100000000E-03 0.  1.
         11   -1    0    0    0    0 -0.00000000000E+00 -0.00000000000E+00 -0.45593999997E+02  0.45594000000E+02  0.51100000000E-03 0. -1.
    9900012    2    1    2    0    0  0.22895636289E+02  0.26327859265E+02  0.25811970674E+02  0.47787260783E+02  0.19999953212E+02 0.  0.
         12    1    1    2    0    0 -0.22895636289E+02 -0.26327859265E+02 -0.25811970674E+02  0.43400739217E+02  0.00000000000E+00 0. -1.
         11    1    3    3    0    0  0.20610133242E+02  0.16874691468E+02  0.26780312578E+02  0.37771920078E+02  0.51100000000E-03 0.  1.
        -11    1    3    3    0    0  0.14513860494E+01  0.82769214317E+01 -0.25624824712E+00  0.84071168230E+01  0.51100000000E-03 0. -1.
        -12    1    3    3    0    0  0.83411699770E+00  0.11762463648E+01 -0.71209365636E+00  0.16082238811E+01  0.00000000000E+00 0.  1.
</event>
<event>
 7    1  0.2476315E-009  0.4778729E+02  0.7816164E-02  0.1312668E+00
        -11   -1    0    0    0    0  0.00000000000E+00  0.00000000000E+00  0.45593999997E+02  0.45594000000E+02  0.51100000000E-03 0. -1.
         11   -1    0    0    0    0 -0.00000000000E+00 -0.00000000000E+00 -0.45593999997E+02  0.45594000000E+02  0.51100000000E-03 0.  1.
    9900012    2    1    2    0    0  0.35052865056E+02 -0.10316689830E+02 -0.23419742017E+02  0.47787288556E+02  0.20000079842E+02 0.  0.
         12    1    1    2    0    0 -0.35052865056E+02  0.10316689830E+02  0.23419742017E+02  0.43400711444E+02  0.00000000000E+00 0. -1.
         11    1    3    3    0    0  0.99534939523E+01 -0.11473364380E+02 -0.10820708908E+02  0.18649339763E+02  0.51100000000E-03 0. -1.
        -11    1    3    3    0    0  0.22074874618E+02  0.32549805712E+00 -0.78196162498E+01  0.23421196318E+02  0.51100000000E-03 0.  1.
        -12    1    3    3    0    0  0.30244964854E+01  0.83117649256E+00 -0.47794168589E+01  0.57167524753E+01  0.00000000000E+00 0.  1.
</event>
<event>
 7    1  0.2476315E-009  0.4778730E+02  0.7816164E-02  0.1312668E+00
        -11   -1    0    0    0    0  0.00000000000E+00  0.00000000000E+00  0.45593999997E+02  0.45594000000E+02  0.51100000000E-03 0. -1.
         11   -1    0    0    0    0 -0.00000000000E+00 -0.00000000000E+00 -0.45593999997E+02  0.45594000000E+02  0.51100000000E-03 0.  1.
    9900012    2    1    2    0    0 -0.23235358504E+02  0.36377388898E+02 -0.45193204167E+01  0.47787302254E+02  0.20000142296E+02 0.  0.
         12    1    1    2    0    0  0.23235358504E+02 -0.36377388898E+02  0.45193204167E+01  0.43400697746E+02  0.00000000000E+00 0. -1.
         11    1    3    3    0    0 -0.12197571142E+02  0.23180519588E+02 -0.38365203036E+01  0.26473309549E+02  0.51100000000E-03 0. -1.
        -11    1    3    3    0    0 -0.42652795528E+01  0.12857861296E+02  0.25776037984E+01  0.13789896605E+02  0.51100000000E-03 0.  1.
         12    1    3    3    0    0 -0.67725078093E+01  0.33900801285E+00 -0.32604039115E+01  0.75240961002E+01  0.00000000000E+00 0. -1.
</event>
<event>
 7    1  0.2476315E-009  0.4778727E+02  0.7816164E-02  0.1312668E+00
        -11   -1    0    0    0    0  0.00000000000E+00  0.00000000000E+00  0.45593999997E+02  0.45594000000E+02  0.51100000000E-03 0.  1.
         11   -1    0    0    0    0 -0.00000000000E+00 -0.00000000000E+00 -0.45593999997E+02  0.45594000000E+02  0.51100000000E-03 0. -1.
    9900012    2    1    2    0    0 -0.11290119124E+02 -0.10433439538E+01  0.41893531651E+02  0.47787270160E+02  0.19999995969E+02 0.  0.
         12    1    1    2    0    0  0.11290119124E+02  0.10433439538E+01 -0.41893531651E+02  0.43400729840E+02  0.00000000000E+00 0. -1.
         11    1    3    3    0    0 -0.37969014892E+01 -0.55788101468E+01  0.20822683792E+02  0.21888895453E+02  0.51100000000E-03 0. -1.
        -11    1    3    3    0    0 -0.23103623229E+01  0.81982046282E+01  0.99842517248E+01  0.13123780551E+02  0.51100000000E-03 0.  1.
        -12    1    3    3    0    0 -0.51828553122E+01 -0.36627384351E+01  0.11086596134E+02  0.12774594156E+02  0.00000000000E+00 0.  1.
</event>
<event>
 7    1  0.2476315E-009  0.4778727E+02  0.7816164E-02  0.1312668E+00
        -11   -1    0    0    0    0  0.00000000000E+00  0.00000000000E+00  0.45593999997E+02  0.45594000000E+02  0.51100000000E-03 0.  1.
         11   -1    0    0    0    0 -0.00000000000E+00 -0.00000000000E+00 -0.45593999997E+02  0.45594000000E+02  0.51100000000E-03 0. -1.
    9900012    2    1    2    0    0  0.29803254364E+02 -0.27006116528E+01  0.31433991726E+02  0.47787272934E+02  0.20000008617E+02 0.  0.
         12    1    1    2    0    0 -0.29803254364E+02  0.27006116528E+01 -0.31433991726E+02  0.43400727066E+02  0.00000000000E+00 0. -1.
         11    1    3    3    0    0  0.32723139846E+01 -0.50653782433E-02 -0.18722036520E+01  0.37700412793E+01  0.51100000000E-03 0. -1.
        -11    1    3    3    0    0  0.11269496767E+02 -0.63896521331E+01  0.13057844905E+02  0.18393926323E+02  0.51100000000E-03 0.  1.
         12    1    3    3    0    0  0.15261443612E+02  0.36941058585E+01  0.20248350474E+02  0.25623305332E+02  0.00000000000E+00 0. -1.
</event>
<event>
 7    1  0.2476315E-009  0.4778727E+02  0.7816164E-02  0.1312668E+00
        -11   -1    0    0    0    0  0.00000000000E+00  0.00000000000E+00  0.45593999997E+02  0.45594000000E+02  0.51100000000E-03 0.  1.
         11   -1    0    0    0    0 -0.00000000000E+00 -0.00000000000E+00 -0.45593999997E+02  0.45594000000E+02  0.51100000000E-03 0. -1.
    9900012    2    1    2    0    0 -0.97561611400E+01  0.41057514146E+02  0.10135131954E+02  0.47787273649E+02  0.20000011875E+02 0.  0.
         12    1    1    2    0    0  0.97561611400E+01 -0.41057514146E+02 -0.10135131954E+02  0.43400726351E+02  0.00000000000E+00 0. -1.
         11    1    3    3    0    0 -0.43824668015E+00  0.34339076084E+01  0.75904245390E+01  0.83425611510E+01  0.51100000000E-03 0. -1.
        -11    1    3    3    0    0 -0.73668811665E+01  0.29187992888E+02  0.48337729814E+01  0.30488936165E+02  0.51100000000E-03 0.  1.
         12    1    3    3    0    0 -0.19510332934E+01  0.84356136500E+01 -0.22890655661E+01  0.89557763332E+01  0.00000000000E+00 0. -1.
</event>
<event>
 7    1  0.2476315E-009  0.4778727E+02  0.7816164E-02  0.1312668E+00
        -11   -1    0    0    0    0  0.00000000000E+00  0.00000000000E+00  0.45593999997E+02  0.45594000000E+02  0.51100000000E-03 0.  1.
         11   -1    0    0    0    0 -0.00000000000E+00 -0.00000000000E+00 -0.45593999997E+02  0.45594000000E+02  0.51100000000E-03 0. -1.
    9900012    2    1    2    0    0 -0.43342573581E+01 -0.37815459157E+02  0.20852535561E+02  0.47787274460E+02  0.20000015574E+02 0.  0.
         12    1    1    2    0    0  0.43342573581E+01  0.37815459157E+02 -0.20852535561E+02  0.43400725540E+02  0.00000000000E+00 0. -1.
         11    1    3    3    0    0  0.31077542671E+01 -0.26491484374E+02  0.75408610452E+01  0.27718612276E+02  0.51100000000E-03 0. -1.
        -11    1    3    3    0    0  0.70392087047E+00 -0.33726750475E+01  0.18327386067E+01  0.39024828801E+01  0.51100000000E-03 0.  1.
         12    1    3    3    0    0 -0.81459324956E+01 -0.79512997349E+01  0.11478935909E+02  0.16166179304E+02  0.00000000000E+00 0. -1.
</event>
<event>
 7    1  0.2476315E-009  0.4778727E+02  0.7816164E-02  0.1312668E+00
        -11   -1    0    0    0    0  0.00000000000E+00  0.00000000000E+00  0.45593999997E+02  0.45594000000E+02  0.51100000000E-03 0.  1.
         11   -1    0    0    0    0 -0.00000000000E+00 -0.00000000000E+00 -0.45593999997E+02  0.45594000000E+02  0.51100000000E-03 0. -1.
    9900012    2    1    2    0    0 -0.25653340792E+02  0.25444949015E+02  0.24043377894E+02  0.47787270228E+02  0.19999996280E+02 0.  0.
         12    1    1    2    0    0  0.25653340792E+02 -0.25444949015E+02 -0.24043377894E+02  0.43400729772E+02  0.00000000000E+00 0. -1.
         11    1    3    3    0    0  0.54740454274E+00  0.38981729920E+01  0.50289050603E-02  0.39364234985E+01  0.51100000000E-03 0. -1.
        -11    1    3    3    0    0 -0.23281961517E+02  0.11204383577E+02  0.15546638224E+02  0.30154367905E+02  0.51100000000E-03 0.  1.
        -12    1    3    3    0    0 -0.29187838169E+01  0.10342392446E+02  0.84917107650E+01  0.13696478824E+02  0.00000000000E+00 0.  1.
</event>
<event>
 7    1  0.2476315E-009  0.4778727E+02  0.7816164E-02  0.1312668E+00
        -11   -1    0    0    0    0  0.00000000000E+00  0.00000000000E+00  0.45593999997E+02  0.45594000000E+02  0.51100000000E-03 0. -1.
         11   -1    0    0    0    0 -0.00000000000E+00 -0.00000000000E+00 -0.45593999997E+02  0.45594000000E+02  0.51100000000E-03 0.  1.
    9900012    2    1    2    0    0  0.57482825796E+01 -0.30105671052E+02  0.30728309486E+02  0.47787272057E+02  0.20000004618E+02 0.  0.
         12    1    1    2    0    0 -0.57482825796E+01  0.30105671052E+02 -0.30728309486E+02  0.43400727943E+02  0.00000000000E+00 0. -1.
         11    1    3    3    0    0 -0.23042018340E+01  0.78200670713E-01  0.48364134926E+00  0.23557102225E+01  0.51100000000E-03 0. -1.
        -11    1    3    3    0    0 -0.12697537030E+01 -0.81513905429E+00 -0.78604161610E+00  0.17013488259E+01  0.51100000000E-03 0.  1.
         12    1    3    3    0    0  0.93222381167E+01 -0.29368732668E+02  0.31030709753E+02  0.43730213009E+02  0.00000000000E+00 0. -1.
</event>
<event>
 7    1  0.2476315E-009  0.4778727E+02  0.7816164E-02  0.1312668E+00
        -11   -1    0    0    0    0  0.00000000000E+00  0.00000000000E+00  0.45593999997E+02  0.45594000000E+02  0.51100000000E-03 0. -1.
         11   -1    0    0    0    0 -0.00000000000E+00 -0.00000000000E+00 -0.45593999997E+02  0.45594000000E+02  0.51100000000E-03 0.  1.
    9900012    2    1    2    0    0 -0.14592301066E+02 -0.24165559613E+02 -0.32965338318E+02  0.47787273598E+02  0.20000011642E+02 0.  0.
         12    1    1    2    0    0  0.14592301066E+02  0.24165559613E+02  0.32965338318E+02  0.43400726402E+02  0.00000000000E+00 0. -1.
         11    1    3    3    0    0 -0.50849549987E+01 -0.12060176091E+02 -0.50150581330E+01  0.14016255670E+02  0.51100000000E-03 0. -1.
        -11    1    3    3    0    0 -0.11270702750E+02 -0.10421140986E+02 -0.27177724737E+02  0.31213100488E+02  0.51100000000E-03 0.  1.
        -12    1    3    3    0    0  0.17633566817E+01 -0.16842425365E+01 -0.77255544764E+00  0.25579174397E+01  0.00000000000E+00 0.  1.
</event>
<event>
 7    1  0.2476315E-009  0.4778727E+02  0.7816164E-02  0.1312668E+00
        -11   -1    0    0    0    0  0.00000000000E+00  0.00000000000E+00  0.45593999997E+02  0.45594000000E+02  0.51100000000E-03 0.  1.
         11   -1    0    0    0    0 -0.00000000000E+00 -0.00000000000E+00 -0.45593999997E+02  0.45594000000E+02  0.51100000000E-03 0. -1.
    9900012    2    1    2    0    0 -0.36257556524E+02  0.23072134918E+02  0.60572116152E+01  0.47787266972E+02  0.19999981433E+02 0.  0.
         12    1    1    2    0    0  0.36257556524E+02 -0.23072134918E+02 -0.60572116152E+01  0.43400733028E+02  0.00000000000E+00 0. -1.
         11    1    3    3    0    0  0.17603702183E+01  0.32638973355E+01  0.19530580612E+01  0.41912247821E+01  0.51100000000E-03 0. -1.
        -11    1    3    3    0    0 -0.19439645511E+02  0.13078595605E+02  0.74622387445E-01  0.23429789784E+02  0.51100000000E-03 0.  1.
         12    1    3    3    0    0 -0.18578281231E+02  0.67296419782E+01  0.40295311665E+01  0.20166252406E+02  0.00000000000E+00 0. -1.
</event>
<event>
 7    1  0.2476315E-009  0.4778727E+02  0.7816164E-02  0.1312668E+00
        -11   -1    0    0    0    0  0.00000000000E+00  0.00000000000E+00  0.45593999997E+02  0.45594000000E+02  0.51100000000E-03 0.  1.
         11   -1    0    0    0    0 -0.00000000000E+00 -0.00000000000E+00 -0.45593999997E+02  0.45594000000E+02  0.51100000000E-03 0. -1.
    9900012    2    1    2    0    0  0.15520111952E+02  0.12026929137E+02  0.38705329453E+02  0.47787269275E+02  0.19999991930E+02 0.  0.
         12    1    1    2    0    0 -0.15520111952E+02 -0.12026929137E+02 -0.38705329453E+02  0.43400730725E+02  0.00000000000E+00 0. -1.
         11    1    3    3    0    0  0.68595446937E+01  0.10109847938E+02  0.33700127745E+02  0.35846352521E+02  0.51100000000E-03 0. -1.
        -11    1    3    3    0    0  0.68733264914E+01  0.38780576671E+01  0.48922868877E+01  0.92852797254E+01  0.51100000000E-03 0.  1.
         12    1    3    3    0    0  0.17872407670E+01 -0.19609764687E+01  0.11291481992E+00  0.26556370284E+01  0.00000000000E+00 0. -1.
</event>
<event>
 7    1  0.2476315E-009  0.4778727E+02  0.7816164E-02  0.1312668E+00
        -11   -1    0    0    0    0  0.00000000000E+00  0.00000000000E+00  0.45593999997E+02  0.45594000000E+02  0.51100000000E-03 0.  1.
         11   -1    0    0    0    0 -0.00000000000E+00 -0.00000000000E+00 -0.45593999997E+02  0.45594000000E+02  0.51100000000E-03 0. -1.
    9900012    2    1    2    0    0 -0.11703026189E+01  0.46472627138E+01  0.43135328937E+02  0.47787271188E+02  0.20000000653E+02 0.  0.
         12    1    1    2    0    0  0.11703026189E+01 -0.46472627138E+01 -0.43135328937E+02  0.43400728812E+02  0.00000000000E+00 0. -1.
         11    1    3    3    0    0  0.23803562098E+01 -0.50626724968E+01  0.13239606485E+02  0.14373027818E+02  0.51100000000E-03 0. -1.
        -11    1    3    3    0    0 -0.46855919307E+01  0.62949888537E+01  0.28489707092E+02  0.29550720243E+02  0.51100000000E-03 0.  1.
        -12    1    3    3    0    0  0.11349331020E+01  0.34149463570E+01  0.14060153596E+01  0.38635231277E+01  0.00000000000E+00 0.  1.
</event>
<event>
 7    1  0.2476315E-009  0.4778726E+02  0.7816164E-02  0.1312668E+00
        -11   -1    0    0    0    0  0.00000000000E+00  0.00000000000E+00  0.45593999997E+02  0.45594000000E+02  0.51100000000E-03 0.  1.
         11   -1    0    0    0    0 -0.00000000000E+00 -0.00000000000E+00 -0.45593999997E+02  0.45594000000E+02  0.51100000000E-03 0. -1.
    9900012    2    1    2    0    0  0.88678427949E+01  0.40522217616E+02 -0.12764630341E+02  0.47787256411E+02  0.19999933279E+02 0.  0.
         12    1    1    2    0    0 -0.88678427949E+01 -0.40522217616E+02  0.12764630341E+02  0.43400743589E+02  0.00000000000E+00 0. -1.
         11    1    3    3    0    0  0.95981003336E+01  0.15816197513E+02 -0.12720837035E+02  0.22452067365E+02  0.51100000000E-03 0. -1.
        -11    1    3    3    0    0 -0.26238364278E+01  0.13551845495E+02  0.16256708320E+01  0.13898915060E+02  0.51100000000E-03 0.  1.
         12    1    3    3    0    0  0.18935788891E+01  0.11154174607E+02 -0.16694641373E+01  0.11436273986E+02  0.00000000000E+00 0. -1.
</event>
<event>
 7    1  0.2476315E-009  0.4778727E+02  0.7816164E-02  0.1312668E+00
        -11   -1    0    0    0    0  0.00000000000E+00  0.00000000000E+00  0.45593999997E+02  0.45594000000E+02  0.51100000000E-03 0.  1.
         11   -1    0    0    0    0 -0.00000000000E+00 -0.00000000000E+00 -0.45593999997E+02  0.45594000000E+02  0.51100000000E-03 0. -1.
    9900012    2    1    2    0    0 -0.29206022731E+02 -0.31220405148E+02  0.74778252922E+01  0.47787270369E+02  0.19999996921E+02 0.  0.
         12    1    1    2    0    0  0.29206022731E+02  0.31220405148E+02 -0.74778252922E+01  0.43400729631E+02  0.00000000000E+00 0. -1.
         11    1    3    3    0    0 -0.13125352148E+02 -0.16401982811E+02  0.11056510330E+02  0.23739130778E+02  0.51100000000E-03 0. -1.
        -11    1    3    3    0    0 -0.14098208622E+02 -0.11961085793E+02  0.73988042932E+00  0.18503364100E+02  0.51100000000E-03 0.  1.
         12    1    3    3    0    0 -0.19824619604E+01 -0.28573365440E+01 -0.43185654675E+01  0.55447754911E+01  0.00000000000E+00 0. -1.
</event>
<event>
 7    1  0.2476315E-009  0.4778727E+02  0.7816164E-02  0.1312668E+00
        -11   -1    0    0    0    0  0.00000000000E+00  0.00000000000E+00  0.45593999997E+02  0.45594000000E+02  0.51100000000E-03 0.  1.
         11   -1    0    0    0    0 -0.00000000000E+00 -0.00000000000E+00 -0.45593999997E+02  0.45594000000E+02  0.51100000000E-03 0. -1.
    9900012    2    1    2    0    0 -0.96129221780E+01  0.25546774198E+02  0.33742810143E+02  0.47787272114E+02  0.20000004876E+02 0.  0.
         12    1    1    2    0    0  0.96129221780E+01 -0.25546774198E+02 -0.33742810143E+02  0.43400727886E+02  0.00000000000E+00 0. -1.
         11    1    3    3    0    0 -0.54876166642E+01  0.45425216861E+01  0.76025682984E+00  0.71642466897E+01  0.51100000000E-03 0. -1.
        -11    1    3    3    0    0 -0.76235904204E+00  0.17962775456E+02  0.30625018012E+02  0.35512451646E+02  0.51100000000E-03 0.  1.
        -12    1    3    3    0    0 -0.33629464717E+01  0.30414770552E+01  0.23575353013E+01  0.51105737785E+01  0.00000000000E+00 0.  1.
</event>
<event>
 7    1  0.2476315E-009  0.4778727E+02  0.7816164E-02  0.1312668E+00
        -11   -1    0    0    0    0  0.00000000000E+00  0.00000000000E+00  0.45593999997E+02  0.45594000000E+02  0.51100000000E-03 0. -1.
         11   -1    0    0    0    0 -0.00000000000E+00 -0.00000000000E+00 -0.45593999997E+02  0.45594000000E+02  0.51100000000E-03 0.  1.
    9900012    2    1    2    0    0 -0.15765122700E+02  0.32502702295E+02 -0.24055326722E+02  0.47787268509E+02  0.19999988440E+02 0.  0.
         12    1    1    2    0    0  0.15765122700E+02 -0.32502702295E+02  0.24055326722E+02  0.43400731491E+02  0.00000000000E+00 0. -1.
         11    1    3    3    0    0 -0.62091525054E+01  0.14704134755E+02 -0.21200506533E+02  0.26537268723E+02  0.51100000000E-03 0. -1.
        -11    1    3    3    0    0 -0.63967427118E+01  0.15658597924E+02 -0.37614952082E+01  0.17327978900E+02  0.51100000000E-03 0.  1.
         12    1    3    3    0    0 -0.31592274831E+01  0.21399696155E+01  0.90667501941E+00  0.39220208868E+01  0.00000000000E+00 0. -1.
</event>
<event>
 7    1  0.2476315E-009  0.4778727E+02  0.7816164E-02  0.1312668E+00
        -11   -1    0    0    0    0  0.00000000000E+00  0.00000000000E+00  0.45593999997E+02  0.45594000000E+02  0.51100000000E-03 0.  1.
         11   -1    0    0    0    0 -0.00000000000E+00 -0.00000000000E+00 -0.45593999997E+02  0.45594000000E+02  0.51100000000E-03 0. -1.
    9900012    2    1    2    0    0  0.29136095705E+02 -0.30045433317E+02  0.11488397418E+02  0.47787269460E+02  0.19999992778E+02 0.  0.
         12    1    1    2    0    0 -0.29136095705E+02  0.30045433317E+02 -0.11488397418E+02  0.43400730540E+02  0.00000000000E+00 0. -1.
         11    1    3    3    0    0  0.21052985699E+02 -0.26206830195E+02  0.34281537409E+01  0.33790211512E+02  0.51100000000E-03 0. -1.
        -11    1    3    3    0    0  0.94206162147E+01 -0.35541217959E+01  0.72534573251E+01  0.12409368841E+02  0.51100000000E-03 0.  1.
         12    1    3    3    0    0 -0.13375062085E+01 -0.28448132562E+00  0.80678635238E+00  0.15876891071E+01  0.00000000000E+00 0. -1.
</event>
<event>
 7    1  0.2476315E-009  0.4778727E+02  0.7816164E-02  0.1312668E+00
        -11   -1    0    0    0    0  0.00000000000E+00  0.00000000000E+00  0.45593999997E+02  0.45594000000E+02  0.51100000000E-03 0.  1.
         11   -1    0    0    0    0 -0.00000000000E+00 -0.00000000000E+00 -0.45593999997E+02  0.45594000000E+02  0.51100000000E-03 0. -1.
    9900012    2    1    2    0    0  0.14423227735E+00 -0.38463294146E+02  0.20104172364E+02  0.47787267910E+02  0.19999985708E+02 0.  0.
         12    1    1    2    0    0 -0.14423227735E+00  0.38463294146E+02 -0.20104172364E+02  0.43400732090E+02  0.00000000000E+00 0. -1.
         11    1    3    3    0    0 -0.60577070848E+01 -0.10553012017E+02  0.10827063347E+01  0.12216142231E+02  0.51100000000E-03 0. -1.
        -11    1    3    3    0    0  0.43568945047E+01 -0.48306272576E+01  0.67197713365E+01  0.93526903350E+01  0.51100000000E-03 0.  1.
         12    1    3    3    0    0  0.18450448575E+01 -0.23079654872E+02  0.12301694693E+02  0.26218435343E+02  0.00000000000E+00 0. -1.
</event>
<event>
 7    1  0.2476315E-009  0.4778727E+02  0.7816164E-02  0.1312668E+00
        -11   -1    0    0    0    0  0.00000000000E+00  0.00000000000E+00  0.45593999997E+02  0.45594000000E+02  0.51100000000E-03 0. -1.
         11   -1    0    0    0    0 -0.00000000000E+00 -0.00000000000E+00 -0.45593999997E+02  0.45594000000E+02  0.51100000000E-03 0.  1.
    9900012    2    1    2    0    0  0.42837938128E+02  0.60427410918E+01 -0.34669116412E+01  0.47787272595E+02  0.20000007068E+02 0.  0.
         12    1    1    2    0    0 -0.42837938128E+02 -0.60427410918E+01  0.34669116412E+01  0.43400727405E+02  0.00000000000E+00 0. -1.
         11    1    3    3    0    0  0.22666302269E+01 -0.42195771222E+01 -0.32827516417E+01  0.58067979367E+01  0.51100000000E-03 0. -1.
        -11    1    3    3    0    0  0.29739526147E+02  0.88807233060E+01 -0.75057893323E+00  0.31046256310E+02  0.51100000000E-03 0.  1.
        -12    1    3    3    0    0  0.10831781755E+02  0.13815949080E+01  0.56641893368E+00  0.10934218348E+02  0.00000000000E+00 0.  1.
</event>
<event>
 7    1  0.2476315E-009  0.4778725E+02  0.7816164E-02  0.1312668E+00
        -11   -1    0    0    0    0  0.00000000000E+00  0.00000000000E+00  0.45593999997E+02  0.45594000000E+02  0.51100000000E-03 0.  1.
         11   -1    0    0    0    0 -0.00000000000E+00 -0.00000000000E+00 -0.45593999997E+02  0.45594000000E+02  0.51100000000E-03 0. -1.
    9900012    2    1    2    0    0 -0.20475178086E+02 -0.22689066784E+02  0.30815558734E+02  0.47787247365E+02  0.19999892038E+02 0.  0.
         12    1    1    2    0    0  0.20475178086E+02  0.22689066784E+02 -0.30815558734E+02  0.43400752635E+02  0.00000000000E+00 0. -1.
         11    1    3    3    0    0 -0.13120392913E+02 -0.47655927351E+01  0.18029190303E+02  0.22801475557E+02  0.51100000000E-03 0. -1.
        -11    1    3    3    0    0 -0.56448726300E+01 -0.15256699848E+02  0.57235005639E+01  0.17244997426E+02  0.51100000000E-03 0.  1.
         12    1    3    3    0    0 -0.17099125426E+01 -0.26667742008E+01  0.70628678669E+01  0.77407743829E+01  0.00000000000E+00 0. -1.
</event>
<event>
 7    1  0.2476315E-009  0.4778726E+02  0.7816164E-02  0.1312668E+00
        -11   -1    0    0    0    0  0.00000000000E+00  0.00000000000E+00  0.45593999997E+02  0.45594000000E+02  0.51100000000E-03 0. -1.
         11   -1    0    0    0    0 -0.00000000000E+00 -0.00000000000E+00 -0.45593999997E+02  0.45594000000E+02  0.51100000000E-03 0.  1.
    9900012    2    1    2    0    0  0.20026373073E+01  0.22860739826E+02 -0.36837486943E+02  0.47787257773E+02  0.19999939492E+02 0.  0.
         12    1    1    2    0    0 -0.20026373073E+01 -0.22860739826E+02  0.36837486943E+02  0.43400742227E+02  0.00000000000E+00 0. -1.
         11    1    3    3    0    0 -0.29004474203E+00 -0.41388596630E+00 -0.10028445532E+00  0.51525215049E+00  0.51100000000E-03 0. -1.
        -11    1    3    3    0    0  0.31055140509E+01  0.23028438085E+01 -0.20159771495E+02  0.20527145299E+02  0.51100000000E-03 0.  1.
        -12    1    3    3    0    0 -0.81283200157E+00  0.20971781984E+02 -0.16577430992E+02  0.26744860324E+02  0.00000000000E+00 0.  1.
</event>
<event>
 7    1  0.2476315E-009  0.4778727E+02  0.7816164E-02  0.1312668E+00
        -11   -1    0    0    0    0  0.00000000000E+00  0.00000000000E+00  0.45593999997E+02  0.45594000000E+02  0.51100000000E-03 0.  1.
         11   -1    0    0    0    0 -0.00000000000E+00 -0.00000000000E+00 -0.45593999997E+02  0.45594000000E+02  0.51100000000E-03 0. -1.
    9900012    2    1    2    0    0 -0.88376549647E+01 -0.12530052562E+01  0.42472919222E+02  0.47787273800E+02  0.20000012563E+02 0.  0.
         12    1    1    2    0    0  0.88376549647E+01  0.12530052562E+01 -0.42472919222E+02  0.43400726200E+02  0.00000000000E+00 0. -1.
         11    1    3    3    0    0 -0.37312287052E+01 -0.28553053195E+01  0.11847639682E+01  0.48454620047E+01  0.51100000000E-03 0. -1.
        -11    1    3    3    0    0 -0.47023521365E+01 -0.91734367641E+00  0.39584859045E+02  0.39873734474E+02  0.51100000000E-03 0.  1.
        -12    1    3    3    0    0 -0.40407412308E+00  0.25196437396E+01  0.17032962089E+01  0.30680773209E+01  0.00000000000E+00 0.  1.
</event>
<event>
 7    1  0.2476315E-009  0.4778728E+02  0.7816164E-02  0.1312668E+00
        -11   -1    0    0    0    0  0.00000000000E+00  0.00000000000E+00  0.45593999997E+02  0.45594000000E+02  0.51100000000E-03 0.  1.
         11   -1    0    0    0    0 -0.00000000000E+00 -0.00000000000E+00 -0.45593999997E+02  0.45594000000E+02  0.51100000000E-03 0. -1.
    9900012    2    1    2    0    0 -0.14877585650E+02 -0.33865481404E+02  0.22702623922E+02  0.47787279747E+02  0.20000039679E+02 0.  0.
         12    1    1    2    0    0  0.14877585650E+02  0.33865481404E+02 -0.22702623922E+02  0.43400720253E+02  0.00000000000E+00 0. -1.
         11    1    3    3    0    0  0.64832239973E+00 -0.28479579301E+01  0.93160519313E+00  0.30657910566E+01  0.51100000000E-03 0. -1.
        -11    1    3    3    0    0 -0.10117732465E+02 -0.24880716760E+02  0.68714790670E+01  0.27724281804E+02  0.51100000000E-03 0.  1.
        -12    1    3    3    0    0 -0.54081755843E+01 -0.61368067144E+01  0.14899539662E+02  0.16997206886E+02  0.00000000000E+00 0.  1.
</event>
<event>
 7    1  0.2476315E-009  0.4778727E+02  0.7816164E-02  0.1312668E+00
        -11   -1    0    0    0    0  0.00000000000E+00  0.00000000000E+00  0.45593999997E+02  0.45594000000E+02  0.51100000000E-03 0. -1.
         11   -1    0    0    0    0 -0.00000000000E+00 -0.00000000000E+00 -0.45593999997E+02  0.45594000000E+02  0.51100000000E-03 0.  1.
    9900012    2    1    2    0    0  0.34272120041E+02 -0.10443405233E+02  0.24494496488E+02  0.47787270938E+02  0.19999999513E+02 0.  0.
         12    1    1    2    0    0 -0.34272120041E+02  0.10443405233E+02 -0.24494496488E+02  0.43400729062E+02  0.00000000000E+00 0. -1.
         11    1    3    3    0    0  0.35097719573E+01 -0.53777618041E+01  0.12054883128E+02  0.13658661307E+02  0.51100000000E-03 0. -1.
        -11    1    3    3    0    0  0.24628034072E+02 -0.49442494186E+01  0.12352868096E+02  0.27992481402E+02  0.51100000000E-03 0.  1.
        -12    1    3    3    0    0  0.61343140112E+01 -0.12139401047E+00  0.86745263586E-01  0.61361282284E+01  0.00000000000E+00 0.  1.
</event>
<event>
 7    1  0.2476315E-009  0.4778727E+02  0.7816164E-02  0.1312668E+00
        -11   -1    0    0    0    0  0.00000000000E+00  0.00000000000E+00  0.45593999997E+02  0.45594000000E+02  0.51100000000E-03 0. -1.
         11   -1    0    0    0    0 -0.00000000000E+00 -0.00000000000E+00 -0.45593999997E+02  0.45594000000E+02  0.51100000000E-03 0.  1.
    9900012    2    1    2    0    0  0.28360282647E+02  0.32849538973E+02 -0.47460486559E+00  0.47787273136E+02  0.20000009534E+02 0.  0.
         12    1    1    2    0    0 -0.28360282647E+02 -0.32849538973E+02  0.47460486559E+00  0.43400726864E+02  0.00000000000E+00 0. -1.
         11    1    3    3    0    0  0.16335534378E+01 -0.75092037382E+00  0.17155651374E+01  0.24850638310E+01  0.51100000000E-03 0. -1.
        -11    1    3    3    0    0  0.23443755910E+02  0.34337791226E+02 -0.60307491266E+00  0.41581934744E+02  0.51100000000E-03 0.  1.
        -12    1    3    3    0    0  0.32829732992E+01 -0.73733187851E+00 -0.15870950904E+01  0.37202745609E+01  0.00000000000E+00 0.  1.
</event>
<event>
 7    1  0.2476315E-009  0.4778727E+02  0.7816164E-02  0.1312668E+00
        -11   -1    0    0    0    0  0.00000000000E+00  0.00000000000E+00  0.45593999997E+02  0.45594000000E+02  0.51100000000E-03 0.  1.
         11   -1    0    0    0    0 -0.00000000000E+00 -0.00000000000E+00 -0.45593999997E+02  0.45594000000E+02  0.51100000000E-03 0. -1.
    9900012    2    1    2    0    0 -0.67736473638E+01 -0.52403034889E+00  0.42865676424E+02  0.47787272797E+02  0.20000007992E+02 0.  0.
         12    1    1    2    0    0  0.67736473638E+01  0.52403034889E+00 -0.42865676424E+02  0.43400727203E+02  0.00000000000E+00 0. -1.
         11    1    3    3    0    0 -0.94059595125E+01 -0.20762090701E+01  0.31234456816E+02  0.32685991055E+02  0.51100000000E-03 0. -1.
        -11    1    3    3    0    0 -0.27933145909E+01 -0.16116503514E+01  0.28411623018E+01  0.42979328456E+01  0.51100000000E-03 0.  1.
         12    1    3    3    0    0  0.54256267396E+01  0.31638290726E+01  0.87900573068E+01  0.10803348896E+02  0.00000000000E+00 0. -1.
</event>
<event>
 7    1  0.2476315E-009  0.4778727E+02  0.7816164E-02  0.1312668E+00
        -11   -1    0    0    0    0  0.00000000000E+00  0.00000000000E+00  0.45593999997E+02  0.45594000000E+02  0.51100000000E-03 0.  1.
         11   -1    0    0    0    0 -0.00000000000E+00 -0.00000000000E+00 -0.45593999997E+02  0.45594000000E+02  0.51100000000E-03 0. -1.
    9900012    2    1    2    0    0  0.12828970291E+02 -0.39116720202E+02  0.13744927026E+02  0.47787270777E+02  0.19999998782E+02 0.  0.
         12    1    1    2    0    0 -0.12828970291E+02  0.39116720202E+02 -0.13744927026E+02  0.43400729223E+02  0.00000000000E+00 0. -1.
         11    1    3    3    0    0  0.84759164626E+01 -0.26855784787E+02  0.42287302252E+01  0.28477297906E+02  0.51100000000E-03 0. -1.
        -11    1    3    3    0    0  0.58894568095E+01 -0.13225532909E+02  0.66826980379E+01  0.15945497031E+02  0.51100000000E-03 0.  1.
         12    1    3    3    0    0 -0.15364029809E+01  0.96459749405E+00  0.28334987625E+01  0.33644758407E+01  0.00000000000E+00 0. -1.
</event>
<event>
 7    1  0.2476315E-009  0.4778727E+02  0.7816164E-02  0.1312668E+00
        -11   -1    0    0    0    0  0.00000000000E+00  0.00000000000E+00  0.45593999997E+02  0.45594000000E+02  0.51100000000E-03 0.  1.
         11   -1    0    0    0    0 -0.00000000000E+00 -0.00000000000E+00 -0.45593999997E+02  0.45594000000E+02  0.51100000000E-03 0. -1.
    9900012    2    1    2    0    0 -0.39098088270E+01  0.32711668189E+02  0.28253918329E+02  0.47787265655E+02  0.19999975428E+02 0.  0.
         12    1    1    2    0    0  0.39098088270E+01 -0.32711668189E+02 -0.28253918329E+02  0.43400734345E+02  0.00000000000E+00 0. -1.
         11    1    3    3    0    0  0.86840190333E+00 -0.16236207712E+01  0.54865123637E+01  0.57872346118E+01  0.51100000000E-03 0. -1.
        -11    1    3    3    0    0 -0.38667244507E+01  0.30823448665E+02  0.17656302953E+02  0.35732080541E+02  0.51100000000E-03 0.  1.
         12    1    3    3    0    0 -0.91148627961E+00  0.35118402946E+01  0.51111030122E+01  0.62679505019E+01  0.00000000000E+00 0. -1.
</event>
<event>
 7    1  0.2476315E-009  0.4778727E+02  0.7816164E-02  0.1312668E+00
        -11   -1    0    0    0    0  0.00000000000E+00  0.00000000000E+00  0.45593999997E+02  0.45594000000E+02  0.51100000000E-03 0.  1.
         11   -1    0    0    0    0 -0.00000000000E+00 -0.00000000000E+00 -0.45593999997E+02  0.45594000000E+02  0.51100000000E-03 0. -1.
    9900012    2    1    2    0    0  0.36281722743E+02  0.19324839523E+02  0.13921578925E+02  0.47787272038E+02  0.20000004532E+02 0.  0.
         12    1    1    2    0    0 -0.36281722743E+02 -0.19324839523E+02 -0.13921578925E+02  0.43400727962E+02  0.00000000000E+00 0. -1.
         11    1    3    3    0    0  0.57860204307E+00 -0.16861745713E+01 -0.61906180143E+00  0.18871149367E+01  0.51100000000E-03 0.  1.
        -11    1    3    3    0    0  0.17846788032E+02  0.17964624280E+02  0.99980575008E+01  0.27224928331E+02  0.51100000000E-03 0. -1.
        -12    1    3    3    0    0  0.17856332668E+02  0.30463898144E+01  0.45425832260E+01  0.18675228770E+02  0.00000000000E+00 0.  1.
</event>
<event>
 7    1  0.2476315E-009  0.4778727E+02  0.7816164E-02  0.1312668E+00
        -11   -1    0    0    0    0  0.00000000000E+00  0.00000000000E+00  0.45593999997E+02  0.45594000000E+02  0.51100000000E-03 0. -1.
         11   -1    0    0    0    0 -0.00000000000E+00 -0.00000000000E+00 -0.45593999997E+02  0.45594000000E+02  0.51100000000E-03 0.  1.
    9900012    2    1    2    0    0  0.26859407928E+02  0.28217136665E+02 -0.19130834496E+02  0.47787269311E+02  0.19999992098E+02 0.  0.
         12    1    1    2    0    0 -0.26859407928E+02 -0.28217136665E+02  0.19130834496E+02  0.43400730689E+02  0.00000000000E+00 0. -1.
         11    1    3    3    0    0  0.23266491384E+01  0.49056262106E+01  0.32382490359E+01  0.63217657194E+01  0.51100000000E-03 0. -1.
        -11    1    3    3    0    0  0.11427379383E+02  0.16671271772E+02 -0.13464915532E+02  0.24286215279E+02  0.51100000000E-03 0.  1.
         12    1    3    3    0    0  0.13105379407E+02  0.66402386821E+01 -0.89041679999E+01  0.17179288313E+02  0.00000000000E+00 0. -1.
</event>
<event>
 7    1  0.2476315E-009  0.4778727E+02  0.7816164E-02  0.1312668E+00
        -11   -1    0    0    0    0  0.00000000000E+00  0.00000000000E+00  0.45593999997E+02  0.45594000000E+02  0.51100000000E-03 0.  1.
         11   -1    0    0    0    0 -0.00000000000E+00 -0.00000000000E+00 -0.45593999997E+02  0.45594000000E+02  0.51100000000E-03 0. -1.
    9900012    2    1    2    0    0 -0.42130032336E+02 -0.42393022707E+00  0.10416532594E+02  0.47787268522E+02  0.19999988501E+02 0.  0.
         12    1    1    2    0    0  0.42130032336E+02  0.42393022707E+00 -0.10416532594E+02  0.43400731478E+02  0.00000000000E+00 0. -1.
         11    1    3    3    0    0 -0.86464885061E+01 -0.55692494597E+01  0.73062771051E+01  0.12615862572E+02  0.51100000000E-03 0. -1.
        -11    1    3    3    0    0 -0.16021639657E+02 -0.19693435344E+00  0.50696831428E+01  0.16805755201E+02  0.51100000000E-03 0.  1.
         12    1    3    3    0    0 -0.17461904173E+02  0.53422535860E+01 -0.19594276540E+01  0.18365650750E+02  0.00000000000E+00 0. -1.
</event>
<event>
 7    1  0.2476315E-009  0.4778727E+02  0.7816164E-02  0.1312668E+00
        -11   -1    0    0    0    0  0.00000000000E+00  0.00000000000E+00  0.45593999997E+02  0.45594000000E+02  0.51100000000E-03 0.  1.
         11   -1    0    0    0    0 -0.00000000000E+00 -0.00000000000E+00 -0.45593999997E+02  0.45594000000E+02  0.51100000000E-03 0. -1.
    9900012    2    1    2    0    0  0.30878194846E+02  0.30322346928E+01  0.30347422515E+02  0.47787269390E+02  0.19999992457E+02 0.  0.
         12    1    1    2    0    0 -0.30878194846E+02 -0.30322346928E+01 -0.30347422515E+02  0.43400730610E+02  0.00000000000E+00 0. -1.
         11    1    3    3    0    0  0.74132188611E+01  0.72616950167E+01  0.18144694927E+02  0.20902583158E+02  0.51100000000E-03 0. -1.
        -11    1    3    3    0    0  0.77650694572E+01 -0.21751044659E+01  0.32422789568E+01  0.86913610101E+01  0.51100000000E-03 0.  1.
         12    1    3    3    0    0  0.15699906528E+02 -0.20543558580E+01  0.89604486306E+01  0.18193325222E+02  0.00000000000E+00 0. -1.
</event>
<event>
 7    1  0.2476315E-009  0.4778727E+02  0.7816164E-02  0.1312668E+00
        -11   -1    0    0    0    0  0.00000000000E+00  0.00000000000E+00  0.45593999997E+02  0.45594000000E+02  0.51100000000E-03 0.  1.
         11   -1    0    0    0    0 -0.00000000000E+00 -0.00000000000E+00 -0.45593999997E+02  0.45594000000E+02  0.51100000000E-03 0. -1.
    9900012    2    1    2    0    0 -0.17578251652E+02  0.23519133372E+02  0.31960580221E+02  0.47787271276E+02  0.20000001056E+02 0.  0.
         12    1    1    2    0    0  0.17578251652E+02 -0.23519133372E+02 -0.31960580221E+02  0.43400728724E+02  0.00000000000E+00 0. -1.
         11    1    3    3    0    0 -0.36236710966E+01  0.18341507851E+02  0.13756454445E+02  0.23211676838E+02  0.51100000000E-03 0. -1.
        -11    1    3    3    0    0 -0.14642853551E+02  0.55782955793E+01  0.16891427916E+02  0.23040201366E+02  0.51100000000E-03 0.  1.
         12    1    3    3    0    0  0.68827299589E+00 -0.40067005867E+00  0.13126978604E+01  0.15353930720E+01  0.00000000000E+00 0. -1.
</event>
<event>
 7    1  0.2476315E-009  0.4778726E+02  0.7816164E-02  0.1312668E+00
        -11   -1    0    0    0    0  0.00000000000E+00  0.00000000000E+00  0.45593999997E+02  0.45594000000E+02  0.51100000000E-03 0.  1.
         11   -1    0    0    0    0 -0.00000000000E+00 -0.00000000000E+00 -0.45593999997E+02  0.45594000000E+02  0.51100000000E-03 0. -1.
    9900012    2    1    2    0    0  0.32956269523E+01 -0.20165112153E+02  0.38290098519E+02  0.47787256346E+02  0.19999932983E+02 0.  0.
         12    1    1    2    0    0 -0.32956269523E+01  0.20165112153E+02 -0.38290098519E+02  0.43400743654E+02  0.00000000000E+00 0. -1.
         11    1    3    3    0    0 -0.73031158322E+00 -0.33189085541E+01  0.25776560728E+02  0.25999607540E+02  0.51100000000E-03 0. -1.
        -11    1    3    3    0    0  0.34964278593E+01 -0.80976130037E+01  0.44551970186E+01  0.98815547799E+01  0.51100000000E-03 0.  1.
         12    1    3    3    0    0  0.52951067620E+00 -0.87485905949E+01  0.80583407726E+01  0.11906094026E+02  0.00000000000E+00 0. -1.
</event>
<event>
 7    1  0.2476315E-009  0.4778727E+02  0.7816164E-02  0.1312668E+00
        -11   -1    0    0    0    0  0.00000000000E+00  0.00000000000E+00  0.45593999997E+02  0.45594000000E+02  0.51100000000E-03 0.  1.
         11   -1    0    0    0    0 -0.00000000000E+00 -0.00000000000E+00 -0.45593999997E+02  0.45594000000E+02  0.51100000000E-03 0. -1.
    9900012    2    1    2    0    0  0.18493450738E+01  0.29790210785E+02  0.31507881920E+02  0.47787270065E+02  0.19999995533E+02 0.  0.
         12    1    1    2    0    0 -0.18493450738E+01 -0.29790210785E+02 -0.31507881920E+02  0.43400729935E+02  0.00000000000E+00 0. -1.
         11    1    3    3    0    0  0.24160110020E+01 -0.11394635287E+01  0.14102939249E+01  0.30206647465E+01  0.51100000000E-03 0. -1.
        -11    1    3    3    0    0 -0.79072715589E+00  0.23601376856E+02  0.14980599013E+02  0.27965489196E+02  0.51100000000E-03 0.  1.
        -12    1    3    3    0    0  0.22406122773E+00  0.73282974586E+01  0.15116988982E+02  0.16801116122E+02  0.00000000000E+00 0.  1.
</event>
<event>
 7    1  0.2476315E-009  0.4778727E+02  0.7816164E-02  0.1312668E+00
        -11   -1    0    0    0    0  0.00000000000E+00  0.00000000000E+00  0.45593999997E+02  0.45594000000E+02  0.51100000000E-03 0.  1.
         11   -1    0    0    0    0 -0.00000000000E+00 -0.00000000000E+00 -0.45593999997E+02  0.45594000000E+02  0.51100000000E-03 0. -1.
    9900012    2    1    2    0    0 -0.14483963753E+02 -0.35361846495E+02  0.20576145559E+02  0.47787272361E+02  0.20000006003E+02 0.  0.
         12    1    1    2    0    0  0.14483963753E+02  0.35361846495E+02 -0.20576145559E+02  0.43400727639E+02  0.00000000000E+00 0. -1.
         11    1    3    3    0    0  0.27507369787E+01 -0.16195726068E+02  0.86694060542E+01  0.18574894304E+02  0.51100000000E-03 0. -1.
        -11    1    3    3    0    0 -0.91537373332E+01 -0.10390963030E+02  0.10116672658E+02  0.17149638066E+02  0.51100000000E-03 0.  1.
         12    1    3    3    0    0 -0.80809633985E+01 -0.87751573966E+01  0.17900668465E+01  0.12062739991E+02  0.00000000000E+00 0. -1.
</event>
<event>
 7    1  0.2476315E-009  0.4778727E+02  0.7816164E-02  0.1312668E+00
        -11   -1    0    0    0    0  0.00000000000E+00  0.00000000000E+00  0.45593999997E+02  0.45594000000E+02  0.51100000000E-03 0. -1.
         11   -1    0    0    0    0 -0.00000000000E+00 -0.00000000000E+00 -0.45593999997E+02  0.45594000000E+02  0.51100000000E-03 0.  1.
    9900012    2    1    2    0    0 -0.39663822662E+02  0.10590676441E+02  0.14079846527E+02  0.47787270353E+02  0.19999996848E+02 0.  0.
         12    1    1    2    0    0  0.39663822662E+02 -0.10590676441E+02 -0.14079846527E+02  0.43400729647E+02  0.00000000000E+00 0. -1.
         11    1    3    3    0    0 -0.85210555593E+01 -0.32039359146E+01  0.24655215430E+01  0.94314574658E+01  0.51100000000E-03 0. -1.
        -11    1    3    3    0    0 -0.28176642643E+02  0.15371290012E+02  0.13119965412E+02  0.34674677215E+02  0.51100000000E-03 0.  1.
        -12    1    3    3    0    0 -0.29661244597E+01 -0.15766776562E+01 -0.15056404282E+01  0.36811356727E+01  0.00000000000E+00 0.  1.
</event>
<event>
 7    1  0.2476315E-009  0.4778727E+02  0.7816164E-02  0.1312668E+00
        -11   -1    0    0    0    0  0.00000000000E+00  0.00000000000E+00  0.45593999997E+02  0.45594000000E+02  0.51100000000E-03 0. -1.
         11   -1    0    0    0    0 -0.00000000000E+00 -0.00000000000E+00 -0.45593999997E+02  0.45594000000E+02  0.51100000000E-03 0.  1.
    9900012    2    1    2    0    0  0.39528793356E+02 -0.14824429885E+02 -0.10066502915E+02  0.47787266060E+02  0.19999977275E+02 0.  0.
         12    1    1    2    0    0 -0.39528793356E+02  0.14824429885E+02  0.10066502915E+02  0.43400733940E+02  0.00000000000E+00 0. -1.
         11    1    3    3    0    0  0.19090200048E+02 -0.29242799517E+01 -0.93788987597E+01  0.21469766960E+02  0.51100000000E-03 0. -1.
        -11    1    3    3    0    0  0.17019782139E+02 -0.14023953941E+02 -0.18432113030E+01  0.22130108367E+02  0.51100000000E-03 0.  1.
        -12    1    3    3    0    0  0.34188111693E+01  0.21238040074E+01  0.11556071479E+01  0.41873907333E+01  0.00000000000E+00 0.  1.
</event>
<event>
 7    1  0.2476315E-009  0.4778727E+02  0.7816164E-02  0.1312668E+00
        -11   -1    0    0    0    0  0.00000000000E+00  0.00000000000E+00  0.45593999997E+02  0.45594000000E+02  0.51100000000E-03 0.  1.
         11   -1    0    0    0    0 -0.00000000000E+00 -0.00000000000E+00 -0.45593999997E+02  0.45594000000E+02  0.51100000000E-03 0. -1.
    9900012    2    1    2    0    0  0.30356557359E+02 -0.14893985814E+02  0.27207936675E+02  0.47787271824E+02  0.20000003553E+02 0.  0.
         12    1    1    2    0    0 -0.30356557359E+02  0.14893985814E+02 -0.27207936675E+02  0.43400728176E+02  0.00000000000E+00 0. -1.
         11    1    3    3    0    0  0.17016097336E+02 -0.15959144950E+02  0.13482378770E+02  0.26944691753E+02  0.51100000000E-03 0. -1.
        -11    1    3    3    0    0  0.59615229874E+01 -0.33180598235E+01  0.41593345207E+01  0.79905782793E+01  0.51100000000E-03 0.  1.
         12    1    3    3    0    0  0.73789370361E+01  0.43832189596E+01  0.95662233838E+01  0.12852001792E+02  0.00000000000E+00 0. -1.
</event>
<event>
 7    1  0.2476315E-009  0.4778727E+02  0.7816164E-02  0.1312668E+00
        -11   -1    0    0    0    0  0.00000000000E+00  0.00000000000E+00  0.45593999997E+02  0.45594000000E+02  0.51100000000E-03 0.  1.
         11   -1    0    0    0    0 -0.00000000000E+00 -0.00000000000E+00 -0.45593999997E+02  0.45594000000E+02  0.51100000000E-03 0. -1.
    9900012    2    1    2    0    0 -0.31362338183E+02  0.27951419270E+02  0.10897029859E+02  0.47787270107E+02  0.19999995724E+02 0.  0.
         12    1    1    2    0    0  0.31362338183E+02 -0.27951419270E+02 -0.10897029859E+02  0.43400729893E+02  0.00000000000E+00 0. -1.
         11    1    3    3    0    0 -0.58974911197E+01 -0.42043266828E+00 -0.25784167176E+01  0.64502246602E+01  0.51100000000E-03 0.  1.
        -11    1    3    3    0    0 -0.24467817644E+01  0.60189421408E+00  0.26986318654E+01  0.36921039874E+01  0.51100000000E-03 0. -1.
        -12    1    3    3    0    0 -0.23018065299E+02  0.27769957724E+02  0.10776814712E+02  0.37644941459E+02  0.00000000000E+00 0.  1.
</event>
<event>
 7    1  0.2476315E-009  0.4778727E+02  0.7816164E-02  0.1312668E+00
        -11   -1    0    0    0    0  0.00000000000E+00  0.00000000000E+00  0.45593999997E+02  0.45594000000E+02  0.51100000000E-03 0.  1.
         11   -1    0    0    0    0 -0.00000000000E+00 -0.00000000000E+00 -0.45593999997E+02  0.45594000000E+02  0.51100000000E-03 0. -1.
    9900012    2    1    2    0    0 -0.20947542855E+02  0.37405069262E+02 -0.67590270624E+01  0.47787271838E+02  0.20000003617E+02 0.  0.
         12    1    1    2    0    0  0.20947542855E+02 -0.37405069262E+02  0.67590270624E+01  0.43400728162E+02  0.00000000000E+00 0. -1.
         11    1    3    3    0    0  0.24695199097E+01  0.56414030947E+00  0.34336326449E-01  0.25333697159E+01  0.51100000000E-03 0. -1.
        -11    1    3    3    0    0 -0.15991911102E+02  0.30567753961E+02 -0.81266828929E+01  0.35442513709E+02  0.51100000000E-03 0.  1.
        -12    1    3    3    0    0 -0.74251516624E+01  0.62731749920E+01  0.13333195040E+01  0.98113884129E+01  0.00000000000E+00 0.  1.
</event>
<event>
 7    1  0.2476315E-009  0.4778727E+02  0.7816164E-02  0.1312668E+00
        -11   -1    0    0    0    0  0.00000000000E+00  0.00000000000E+00  0.45593999997E+02  0.45594000000E+02  0.51100000000E-03 0.  1.
         11   -1    0    0    0    0 -0.00000000000E+00 -0.00000000000E+00 -0.45593999997E+02  0.45594000000E+02  0.51100000000E-03 0. -1.
    9900012    2    1    2    0    0 -0.28589948213E+02 -0.28895024071E+02  0.15209065460E+02  0.47787271584E+02  0.20000002460E+02 0.  0.
         12    1    1    2    0    0  0.28589948213E+02  0.28895024071E+02 -0.15209065460E+02  0.43400728416E+02  0.00000000000E+00 0. -1.
         11    1    3    3    0    0 -0.23833848143E+02 -0.24279044401E+02  0.43539125366E+01  0.34299866894E+02  0.51100000000E-03 0.  1.
        -11    1    3    3    0    0 -0.40233942971E+01 -0.22857145735E+01  0.97781335651E+01  0.10817767286E+02  0.51100000000E-03 0. -1.
         12    1    3    3    0    0 -0.73270577319E+00 -0.23302650970E+01  0.10770193581E+01  0.26696374042E+01  0.00000000000E+00 0. -1.
</event>
<event>
 7    1  0.2476315E-009  0.4778727E+02  0.7816164E-02  0.1312668E+00
        -11   -1    0    0    0    0  0.00000000000E+00  0.00000000000E+00  0.45593999997E+02  0.45594000000E+02  0.51100000000E-03 0. -1.
         11   -1    0    0    0    0 -0.00000000000E+00 -0.00000000000E+00 -0.45593999997E+02  0.45594000000E+02  0.51100000000E-03 0.  1.
    9900012    2    1    2    0    0 -0.56845093322E+01 -0.24930963163E+02 -0.35067886434E+02  0.47787271555E+02  0.20000002327E+02 0.  0.
         12    1    1    2    0    0  0.56845093322E+01  0.24930963163E+02  0.35067886434E+02  0.43400728445E+02  0.00000000000E+00 0. -1.
         11    1    3    3    0    0 -0.14890955289E+01 -0.40854433986E+01 -0.19259885789E+02  0.19744656344E+02  0.51100000000E-03 0. -1.
        -11    1    3    3    0    0 -0.57099602658E+01 -0.11356690547E+02 -0.12636777310E+02  0.17923900453E+02  0.51100000000E-03 0.  1.
         12    1    3    3    0    0  0.15145464626E+01 -0.94888292178E+01 -0.31712233354E+01  0.10118714758E+02  0.00000000000E+00 0. -1.
</event>
<event>
 7    1  0.2476315E-009  0.4778727E+02  0.7816164E-02  0.1312668E+00
        -11   -1    0    0    0    0  0.00000000000E+00  0.00000000000E+00  0.45593999997E+02  0.45594000000E+02  0.51100000000E-03 0.  1.
         11   -1    0    0    0    0 -0.00000000000E+00 -0.00000000000E+00 -0.45593999997E+02  0.45594000000E+02  0.51100000000E-03 0. -1.
    9900012    2    1    2    0    0  0.10480534917E+02 -0.40930314319E+02  0.99242779630E+01  0.47787268031E+02  0.19999986260E+02 0.  0.
         12    1    1    2    0    0 -0.10480534917E+02  0.40930314319E+02 -0.99242779630E+01  0.43400731969E+02  0.00000000000E+00 0. -1.
         11    1    3    3    0    0 -0.91827746132E+00 -0.18761514427E+01  0.29286482322E+01  0.35972431751E+01  0.51100000000E-03 0. -1.
        -11    1    3    3    0    0  0.13277565249E+02 -0.35272776374E+02  0.21320286489E+01  0.37749278648E+02  0.51100000000E-03 0.  1.
        -12    1    3    3    0    0 -0.18787528702E+01 -0.37813865020E+01  0.48636010820E+01  0.64407462075E+01  0.00000000000E+00 0.  1.
</event>
<event>
 7    1  0.2476315E-009  0.4778725E+02  0.7816164E-02  0.1312668E+00
        -11   -1    0    0    0    0  0.00000000000E+00  0.00000000000E+00  0.45593999997E+02  0.45594000000E+02  0.51100000000E-03 0. -1.
         11   -1    0    0    0    0 -0.00000000000E+00 -0.00000000000E+00 -0.45593999997E+02  0.45594000000E+02  0.51100000000E-03 0.  1.
    9900012    2    1    2    0    0 -0.41214691995E+02  0.11042965149E+02 -0.79389761603E+01  0.47787248186E+02  0.19999895779E+02 0.  0.
         12    1    1    2    0    0  0.41214691995E+02 -0.11042965149E+02  0.79389761603E+01  0.43400751814E+02  0.00000000000E+00 0. -1.
         11    1    3    3    0    0 -0.34886242876E+02  0.67077772218E+01 -0.29559579472E+01  0.35648028065E+02  0.51100000000E-03 0. -1.
        -11    1    3    3    0    0 -0.51360245464E+01  0.28336534470E+01  0.91550657773E+00  0.59368756559E+01  0.51100000000E-03 0.  1.
         12    1    3    3    0    0 -0.11924245729E+01  0.15015344805E+01 -0.58985247909E+01  0.62023444654E+01  0.00000000000E+00 0. -1.
</event>
<event>
 7    1  0.2476315E-009  0.4778727E+02  0.7816164E-02  0.1312668E+00
        -11   -1    0    0    0    0  0.00000000000E+00  0.00000000000E+00  0.45593999997E+02  0.45594000000E+02  0.51100000000E-03 0.  1.
         11   -1    0    0    0    0 -0.00000000000E+00 -0.00000000000E+00 -0.45593999997E+02  0.45594000000E+02  0.51100000000E-03 0. -1.
    9900012    2    1    2    0    0  0.19948767853E+02 -0.32384204538E+01  0.38408103846E+02  0.47787272507E+02  0.20000006667E+02 0.  0.
         12    1    1    2    0    0 -0.19948767853E+02  0.32384204538E+01 -0.38408103846E+02  0.43400727493E+02  0.00000000000E+00 0. -1.
         11    1    3    3    0    0  0.43055291616E+01 -0.40702233764E+01  0.21146104938E+01  0.62909361384E+01  0.51100000000E-03 0. -1.
        -11    1    3    3    0    0  0.15028893874E+02  0.47409432360E+01  0.31921080417E+02  0.35599151241E+02  0.51100000000E-03 0.  1.
        -12    1    3    3    0    0  0.61434481751E+00 -0.39091403135E+01  0.43724129359E+01  0.58971851274E+01  0.00000000000E+00 0.  1.
</event>
<event>
 7    1  0.2476315E-009  0.4778727E+02  0.7816164E-02  0.1312668E+00
        -11   -1    0    0    0    0  0.00000000000E+00  0.00000000000E+00  0.45593999997E+02  0.45594000000E+02  0.51100000000E-03 0.  1.
         11   -1    0    0    0    0 -0.00000000000E+00 -0.00000000000E+00 -0.45593999997E+02  0.45594000000E+02  0.51100000000E-03 0. -1.
    9900012    2    1    2    0    0 -0.18938250416E+02 -0.61405182866E+01  0.38565011233E+02  0.47787269764E+02  0.19999994162E+02 0.  0.
         12    1    1    2    0    0  0.18938250416E+02  0.61405182866E+01 -0.38565011233E+02  0.43400730236E+02  0.00000000000E+00 0. -1.
         11    1    3    3    0    0 -0.49309467558E+01  0.53166927641E+01  0.66188062063E+01  0.98178436387E+01  0.51100000000E-03 0. -1.
        -11    1    3    3    0    0 -0.31759761012E+01 -0.72224515495E+01  0.74438976291E+01  0.10847222813E+02  0.51100000000E-03 0.  1.
         12    1    3    3    0    0 -0.10831327559E+02 -0.42347595012E+01  0.24502307397E+02  0.27122203312E+02  0.00000000000E+00 0. -1.
</event>
<event>
 7    1  0.2476315E-009  0.4778727E+02  0.7816164E-02  0.1312668E+00
        -11   -1    0    0    0    0  0.00000000000E+00  0.00000000000E+00  0.45593999997E+02  0.45594000000E+02  0.51100000000E-03 0.  1.
         11   -1    0    0    0    0 -0.00000000000E+00 -0.00000000000E+00 -0.45593999997E+02  0.45594000000E+02  0.51100000000E-03 0. -1.
    9900012    2    1    2    0    0  0.13766846969E+02  0.81475251137E-01  0.41159331087E+02  0.47787271328E+02  0.20000001295E+02 0.  0.
         12    1    1    2    0    0 -0.13766846969E+02 -0.81475251137E-01 -0.41159331087E+02  0.43400728672E+02  0.00000000000E+00 0. -1.
         11    1    3    3    0    0  0.38974897975E+01 -0.46161941662E+01  0.31357436654E+01  0.68068027662E+01  0.51100000000E-03 0. -1.
        -11    1    3    3    0    0  0.71324844341E+01 -0.66990374251E+00  0.30560105519E+02  0.31388551334E+02  0.51100000000E-03 0.  1.
         12    1    3    3    0    0  0.27368727376E+01  0.53675731599E+01  0.74634819026E+01  0.95919172285E+01  0.00000000000E+00 0. -1.
</event>
<event>
 7    1  0.2476315E-009  0.4778728E+02  0.7816164E-02  0.1312668E+00
        -11   -1    0    0    0    0  0.00000000000E+00  0.00000000000E+00  0.45593999997E+02  0.45594000000E+02  0.51100000000E-03 0. -1.
         11   -1    0    0    0    0 -0.00000000000E+00 -0.00000000000E+00 -0.45593999997E+02  0.45594000000E+02  0.51100000000E-03 0.  1.
    9900012    2    1    2    0    0 -0.18459931813E+02 -0.15208649105E+02 -0.36215332563E+02  0.47787281080E+02  0.20000045757E+02 0.  0.
         12    1    1    2    0    0  0.18459931813E+02  0.15208649105E+02  0.36215332563E+02  0.43400718920E+02  0.00000000000E+00 0. -1.
         11    1    3    3    0    0 -0.50245223972E+01  0.27402819424E+01 -0.37864597249E+01  0.68623791759E+01  0.51100000000E-03 0. -1.
        -11    1    3    3    0    0 -0.21097580145E+01  0.64369128022E+00 -0.75501514056E+01  0.78657614922E+01  0.51100000000E-03 0.  1.
         12    1    3    3    0    0 -0.11325651401E+02 -0.18592622328E+02 -0.24878721432E+02  0.33059140412E+02  0.00000000000E+00 0. -1.
</event>
<event>
 7    1  0.2476315E-009  0.4778727E+02  0.7816164E-02  0.1312668E+00
        -11   -1    0    0    0    0  0.00000000000E+00  0.00000000000E+00  0.45593999997E+02  0.45594000000E+02  0.51100000000E-03 0.  1.
         11   -1    0    0    0    0 -0.00000000000E+00 -0.00000000000E+00 -0.45593999997E+02  0.45594000000E+02  0.51100000000E-03 0. -1.
    9900012    2    1    2    0    0 -0.19776018602E+02 -0.27795208197E+02 -0.26832049753E+02  0.47787269541E+02  0.19999993143E+02 0.  0.
         12    1    1    2    0    0  0.19776018602E+02  0.27795208197E+02  0.26832049753E+02  0.43400730459E+02  0.00000000000E+00 0. -1.
         11    1    3    3    0    0 -0.14727947436E+02 -0.11726184549E+02 -0.21393990227E+02  0.28497695659E+02  0.51100000000E-03 0. -1.
        -11    1    3    3    0    0  0.15282815863E+01 -0.64296439992E+01 -0.34408622160E+01  0.74508724063E+01  0.51100000000E-03 0.  1.
         12    1    3    3    0    0 -0.65763527515E+01 -0.96393796491E+01 -0.19971973102E+01  0.11838701476E+02  0.00000000000E+00 0. -1.
</event>
<event>
 7    1  0.2476315E-009  0.4778727E+02  0.7816164E-02  0.1312668E+00
        -11   -1    0    0    0    0  0.00000000000E+00  0.00000000000E+00  0.45593999997E+02  0.45594000000E+02  0.51100000000E-03 0.  1.
         11   -1    0    0    0    0 -0.00000000000E+00 -0.00000000000E+00 -0.45593999997E+02  0.45594000000E+02  0.51100000000E-03 0. -1.
    9900012    2    1    2    0    0 -0.35393810340E+02  0.25099092736E+02 -0.96794440891E+00  0.47787272092E+02  0.20000004777E+02 0.  0.
         12    1    1    2    0    0  0.35393810340E+02 -0.25099092736E+02  0.96794440891E+00  0.43400727908E+02  0.00000000000E+00 0. -1.
         11    1    3    3    0    0  0.22179260927E+01  0.29131671655E+01 -0.34101588172E+00  0.36772314558E+01  0.51100000000E-03 0. -1.
        -11    1    3    3    0    0 -0.40711420699E+01  0.38334107725E+01  0.15868585892E+01  0.58126892526E+01  0.51100000000E-03 0.  1.
         12    1    3    3    0    0 -0.33540594363E+02  0.18352514798E+02 -0.22137871164E+01  0.38297351384E+02  0.00000000000E+00 0. -1.
</event>
<event>
 7    1  0.2476315E-009  0.4778727E+02  0.7816164E-02  0.1312668E+00
        -11   -1    0    0    0    0  0.00000000000E+00  0.00000000000E+00  0.45593999997E+02  0.45594000000E+02  0.51100000000E-03 0. -1.
         11   -1    0    0    0    0 -0.00000000000E+00 -0.00000000000E+00 -0.45593999997E+02  0.45594000000E+02  0.51100000000E-03 0.  1.
    9900012    2    1    2    0    0  0.12648465972E+02  0.41272382673E+02 -0.44977522694E+01  0.47787273757E+02  0.20000012366E+02 0.  0.
         12    1    1    2    0    0 -0.12648465972E+02 -0.41272382673E+02  0.44977522694E+01  0.43400726243E+02  0.00000000000E+00 0. -1.
         11    1    3    3    0    0  0.10471864671E+02  0.19448152404E+02 -0.45628426833E+01  0.22554602972E+02  0.51100000000E-03 0. -1.
        -11    1    3    3    0    0 -0.30350748905E+01  0.65872649432E+01  0.44925322928E+01  0.85315054759E+01  0.51100000000E-03 0.  1.
        -12    1    3    3    0    0  0.52116761921E+01  0.15236965326E+02 -0.44274418789E+01  0.16701165309E+02  0.00000000000E+00 0.  1.
</event>
<event>
 7    1  0.2476315E-009  0.4778726E+02  0.7816164E-02  0.1312668E+00
        -11   -1    0    0    0    0  0.00000000000E+00  0.00000000000E+00  0.45593999997E+02  0.45594000000E+02  0.51100000000E-03 0.  1.
         11   -1    0    0    0    0 -0.00000000000E+00 -0.00000000000E+00 -0.45593999997E+02  0.45594000000E+02  0.51100000000E-03 0. -1.
    9900012    2    1    2    0    0 -0.34478384004E+01  0.42290236166E+01  0.43056377158E+02  0.47787264472E+02  0.19999970035E+02 0.  0.
         12    1    1    2    0    0  0.34478384004E+01 -0.42290236166E+01 -0.43056377158E+02  0.43400735528E+02  0.00000000000E+00 0. -1.
         11    1    3    3    0    0 -0.70631857829E+00  0.55305547909E+01  0.10129874154E+02  0.11562883415E+02  0.51100000000E-03 0. -1.
        -11    1    3    3    0    0 -0.74507390972E+01  0.35447684554E+01  0.16085324921E+02  0.18078068884E+02  0.51100000000E-03 0.  1.
        -12    1    3    3    0    0  0.47092192751E+01 -0.48462996297E+01  0.16841178083E+02  0.18146312174E+02  0.00000000000E+00 0.  1.
</event>
<event>
 7    1  0.2476315E-009  0.4778727E+02  0.7816164E-02  0.1312668E+00
        -11   -1    0    0    0    0  0.00000000000E+00  0.00000000000E+00  0.45593999997E+02  0.45594000000E+02  0.51100000000E-03 0.  1.
         11   -1    0    0    0    0 -0.00000000000E+00 -0.00000000000E+00 -0.45593999997E+02  0.45594000000E+02  0.51100000000E-03 0. -1.
    9900012    2    1    2    0    0 -0.11926415338E+02 -0.10771132888E+02  0.40315837145E+02  0.47787269462E+02  0.19999992785E+02 0.  0.
         12    1    1    2    0    0  0.11926415338E+02  0.10771132888E+02 -0.40315837145E+02  0.43400730538E+02  0.00000000000E+00 0. -1.
         11    1    3    3    0    0  0.26675763637E+01 -0.10187916470E+01  0.14711671749E+01  0.32122006777E+01  0.51100000000E-03 0. -1.
        -11    1    3    3    0    0 -0.10875446671E+02 -0.49085120187E+01  0.35830769446E+02  0.37765233614E+02  0.51100000000E-03 0.  1.
        -12    1    3    3    0    0 -0.37185450302E+01 -0.48438292224E+01  0.30139005245E+01  0.68098351705E+01  0.00000000000E+00 0.  1.
</event>
<event>
 7    1  0.2476315E-009  0.4778727E+02  0.7816164E-02  0.1312668E+00
        -11   -1    0    0    0    0  0.00000000000E+00  0.00000000000E+00  0.45593999997E+02  0.45594000000E+02  0.51100000000E-03 0.  1.
         11   -1    0    0    0    0 -0.00000000000E+00 -0.00000000000E+00 -0.45593999997E+02  0.45594000000E+02  0.51100000000E-03 0. -1.
    9900012    2    1    2    0    0  0.26510315268E+02  0.92625769153E+01  0.33091255041E+02  0.47787270664E+02  0.19999998267E+02 0.  0.
         12    1    1    2    0    0 -0.26510315268E+02 -0.92625769153E+01 -0.33091255041E+02  0.43400729336E+02  0.00000000000E+00 0. -1.
         11    1    3    3    0    0  0.26842174897E+01 -0.55832917550E+01  0.42611013148E+01  0.75189863032E+01  0.51100000000E-03 0. -1.
        -11    1    3    3    0    0  0.18741852053E+02  0.11725202789E+02  0.23562314235E+02  0.32309751642E+02  0.51100000000E-03 0.  1.
         12    1    3    3    0    0  0.50842457254E+01  0.31206658808E+01  0.52678394913E+01  0.79585327192E+01  0.00000000000E+00 0. -1.
</event>
<event>
 7    1  0.2476315E-009  0.4778727E+02  0.7816164E-02  0.1312668E+00
        -11   -1    0    0    0    0  0.00000000000E+00  0.00000000000E+00  0.45593999997E+02  0.45594000000E+02  0.51100000000E-03 0.  1.
         11   -1    0    0    0    0 -0.00000000000E+00 -0.00000000000E+00 -0.45593999997E+02  0.45594000000E+02  0.51100000000E-03 0. -1.
    9900012    2    1    2    0    0 -0.21615657278E+01 -0.13254483846E+02  0.41270684613E+02  0.47787272853E+02  0.20000008246E+02 0.  0.
         12    1    1    2    0    0  0.21615657278E+01  0.13254483846E+02 -0.41270684613E+02  0.43400727147E+02  0.00000000000E+00 0. -1.
         11    1    3    3    0    0  0.46081021824E+00  0.11947911963E+01 -0.25741126293E-01  0.12808336843E+01  0.51100000000E-03 0. -1.
        -11    1    3    3    0    0 -0.17440798283E+01  0.15988013990E+01  0.18288193424E+02  0.18440607347E+02  0.51100000000E-03 0.  1.
        -12    1    3    3    0    0 -0.87829611777E+00 -0.16048076442E+02  0.23008232316E+02  0.28065831822E+02  0.00000000000E+00 0.  1.
</event>
<event>
 7    1  0.2476315E-009  0.4778728E+02  0.7816164E-02  0.1312668E+00
        -11   -1    0    0    0    0  0.00000000000E+00  0.00000000000E+00  0.45593999997E+02  0.45594000000E+02  0.51100000000E-03 0.  1.
         11   -1    0    0    0    0 -0.00000000000E+00 -0.00000000000E+00 -0.45593999997E+02  0.45594000000E+02  0.51100000000E-03 0. -1.
    9900012    2    1    2    0    0 -0.21065580796E+02 -0.11200493882E+02  0.36254828525E+02  0.47787281701E+02  0.20000048588E+02 0.  0.
         12    1    1    2    0    0  0.21065580796E+02  0.11200493882E+02 -0.36254828525E+02  0.43400718299E+02  0.00000000000E+00 0. -1.
         11    1    3    3    0    0 -0.15440995269E+02  0.34738778850E+00  0.12163462406E+02  0.19659471792E+02  0.51100000000E-03 0. -1.
        -11    1    3    3    0    0 -0.28552923377E+01 -0.10893198655E+02  0.16121192177E+02  0.19664875000E+02  0.51100000000E-03 0.  1.
         12    1    3    3    0    0 -0.27692931894E+01 -0.65468301485E+00  0.79701739416E+01  0.84629349093E+01  0.00000000000E+00 0. -1.
</event>
<event>
 7    1  0.2476315E-009  0.4778726E+02  0.7816164E-02  0.1312668E+00
        -11   -1    0    0    0    0  0.00000000000E+00  0.00000000000E+00  0.45593999997E+02  0.45594000000E+02  0.51100000000E-03 0. -1.
         11   -1    0    0    0    0 -0.00000000000E+00 -0.00000000000E+00 -0.45593999997E+02  0.45594000000E+02  0.51100000000E-03 0.  1.
    9900012    2    1    2    0    0  0.20852630827E+02  0.13911902491E+02 -0.35429525918E+02  0.47787256342E+02  0.19999932964E+02 0.  0.
         12    1    1    2    0    0 -0.20852630827E+02 -0.13911902491E+02  0.35429525918E+02  0.43400743658E+02  0.00000000000E+00 0. -1.
         11    1    3    3    0    0  0.17966182790E+02  0.28274386767E+01 -0.26182237871E+02  0.31879267772E+02  0.51100000000E-03 0. -1.
        -11    1    3    3    0    0 -0.47565378221E+00  0.76221997492E+01 -0.76874396444E+01  0.10836092658E+02  0.51100000000E-03 0.  1.
         12    1    3    3    0    0  0.33621018187E+01  0.34622640656E+01 -0.15598484030E+01  0.50718959117E+01  0.00000000000E+00 0. -1.
</event>
<event>
 7    1  0.2476315E-009  0.4778727E+02  0.7816164E-02  0.1312668E+00
        -11   -1    0    0    0    0  0.00000000000E+00  0.00000000000E+00  0.45593999997E+02  0.45594000000E+02  0.51100000000E-03 0.  1.
         11   -1    0    0    0    0 -0.00000000000E+00 -0.00000000000E+00 -0.45593999997E+02  0.45594000000E+02  0.51100000000E-03 0. -1.
    9900012    2    1    2    0    0  0.22711358686E+02  0.25251837297E+02  0.27021520608E+02  0.47787266409E+02  0.19999978867E+02 0.  0.
         12    1    1    2    0    0 -0.22711358686E+02 -0.25251837297E+02 -0.27021520608E+02  0.43400733591E+02  0.00000000000E+00 0. -1.
         11    1    3    3    0    0  0.11204296051E+02  0.12346946248E+02  0.23841465044E+02  0.29092933632E+02  0.51100000000E-03 0. -1.
        -11    1    3    3    0    0  0.11132635344E+02  0.98878008687E+01  0.42282994799E+01  0.15478458983E+02  0.51100000000E-03 0.  1.
         12    1    3    3    0    0  0.37442729053E+00  0.30170901808E+01 -0.10482439157E+01  0.32158737945E+01  0.00000000000E+00 0. -1.
</event>
<event>
 7    1  0.2476315E-009  0.4778727E+02  0.7816164E-02  0.1312668E+00
        -11   -1    0    0    0    0  0.00000000000E+00  0.00000000000E+00  0.45593999997E+02  0.45594000000E+02  0.51100000000E-03 0.  1.
         11   -1    0    0    0    0 -0.00000000000E+00 -0.00000000000E+00 -0.45593999997E+02  0.45594000000E+02  0.51100000000E-03 0. -1.
    9900012    2    1    2    0    0  0.26657083082E+01  0.38242685127E+02  0.20347337867E+02  0.47787272762E+02  0.20000007830E+02 0.  0.
         12    1    1    2    0    0 -0.26657083082E+01 -0.38242685127E+02 -0.20347337867E+02  0.43400727238E+02  0.00000000000E+00 0. -1.
         11    1    3    3    0    0  0.14796495071E+01  0.13114947217E+02  0.16646784675E+02  0.21243978992E+02  0.51100000000E-03 0. -1.
        -11    1    3    3    0    0  0.30266421980E+01  0.38226835353E+01  0.24932749102E+00  0.48821754233E+01  0.51100000000E-03 0.  1.
         12    1    3    3    0    0 -0.18405833969E+01  0.21305054375E+02  0.34512257018E+01  0.21661118346E+02  0.00000000000E+00 0. -1.
</event>
<event>
 7    1  0.2476315E-009  0.4778727E+02  0.7816164E-02  0.1312668E+00
        -11   -1    0    0    0    0  0.00000000000E+00  0.00000000000E+00  0.45593999997E+02  0.45594000000E+02  0.51100000000E-03 0.  1.
         11   -1    0    0    0    0 -0.00000000000E+00 -0.00000000000E+00 -0.45593999997E+02  0.45594000000E+02  0.51100000000E-03 0. -1.
    9900012    2    1    2    0    0 -0.39938659009E+02  0.78337658695E+01  0.15071793098E+02  0.47787270532E+02  0.19999997663E+02 0.  0.
         12    1    1    2    0    0  0.39938659009E+02 -0.78337658695E+01 -0.15071793098E+02  0.43400729468E+02  0.00000000000E+00 0. -1.
         11    1    3    3    0    0 -0.47389505174E+01 -0.26472538952E+01  0.38409060125E+01  0.66496740108E+01  0.51100000000E-03 0. -1.
        -11    1    3    3    0    0 -0.33817266183E+02  0.13307552609E+02  0.95733443058E+01  0.37581210332E+02  0.51100000000E-03 0.  1.
        -12    1    3    3    0    0 -0.13824423087E+01 -0.28265328448E+01  0.16575427796E+01  0.35563861891E+01  0.00000000000E+00 0.  1.
</event>
<event>
 7    1  0.2476315E-009  0.4778727E+02  0.7816164E-02  0.1312668E+00
        -11   -1    0    0    0    0  0.00000000000E+00  0.00000000000E+00  0.45593999997E+02  0.45594000000E+02  0.51100000000E-03 0.  1.
         11   -1    0    0    0    0 -0.00000000000E+00 -0.00000000000E+00 -0.45593999997E+02  0.45594000000E+02  0.51100000000E-03 0. -1.
    9900012    2    1    2    0    0 -0.22505694988E+02 -0.52312737716E+01  0.36738955327E+02  0.47787269929E+02  0.19999994915E+02 0.  0.
         12    1    1    2    0    0  0.22505694988E+02  0.52312737716E+01 -0.36738955327E+02  0.43400730071E+02  0.00000000000E+00 0. -1.
         11    1    3    3    0    0  0.15505592903E+01 -0.20058579875E+01 -0.67220703786E+00  0.26228920949E+01  0.51100000000E-03 0. -1.
        -11    1    3    3    0    0 -0.21424594108E+01 -0.18100471721E+01  0.78743185689E+01  0.83589052081E+01  0.51100000000E-03 0.  1.
         12    1    3    3    0    0 -0.21913794868E+02 -0.14153686120E+01  0.29536843796E+02  0.36805472626E+02  0.00000000000E+00 0. -1.
</event>
<event>
 7    1  0.2476315E-009  0.4778727E+02  0.7816164E-02  0.1312668E+00
        -11   -1    0    0    0    0  0.00000000000E+00  0.00000000000E+00  0.45593999997E+02  0.45594000000E+02  0.51100000000E-03 0.  1.
         11   -1    0    0    0    0 -0.00000000000E+00 -0.00000000000E+00 -0.45593999997E+02  0.45594000000E+02  0.51100000000E-03 0. -1.
    9900012    2    1    2    0    0 -0.25122786210E+02 -0.21889809386E+02  0.27808363042E+02  0.47787271931E+02  0.20000004041E+02 0.  0.
         12    1    1    2    0    0  0.25122786210E+02  0.21889809386E+02 -0.27808363042E+02  0.43400728069E+02  0.00000000000E+00 0. -1.
         11    1    3    3    0    0 -0.43145534605E+01 -0.13130379722E+02  0.13907323597E+02  0.19607036826E+02  0.51100000000E-03 0. -1.
        -11    1    3    3    0    0 -0.19132570548E+02 -0.10108285650E+02  0.14373970874E+02  0.25977754589E+02  0.51100000000E-03 0.  1.
         12    1    3    3    0    0 -0.16756622009E+01  0.13488559865E+01 -0.47293142856E+00  0.22024805152E+01  0.00000000000E+00 0. -1.
</event>
<event>
 7    1  0.2476315E-009  0.4778727E+02  0.7816164E-02  0.1312668E+00
        -11   -1    0    0    0    0  0.00000000000E+00  0.00000000000E+00  0.45593999997E+02  0.45594000000E+02  0.51100000000E-03 0.  1.
         11   -1    0    0    0    0 -0.00000000000E+00 -0.00000000000E+00 -0.45593999997E+02  0.45594000000E+02  0.51100000000E-03 0. -1.
    9900012    2    1    2    0    0  0.20292988053E+02  0.55717862478E+01  0.37957515394E+02  0.47787272575E+02  0.20000006978E+02 0.  0.
         12    1    1    2    0    0 -0.20292988053E+02 -0.55717862478E+01 -0.37957515394E+02  0.43400727425E+02  0.00000000000E+00 0. -1.
         11    1    3    3    0    0  0.50465443292E+01 -0.58323375851E+01  0.16968985918E+02  0.18639481074E+02  0.51100000000E-03 0. -1.
        -11    1    3    3    0    0  0.37301538748E+01  0.32801254169E+01  0.16814908605E+01  0.52441093100E+01  0.51100000000E-03 0.  1.
         12    1    3    3    0    0  0.11516289849E+02  0.81239984159E+01  0.19307038616E+02  0.23903682191E+02  0.00000000000E+00 0. -1.
</event>
<event>
 7    1  0.2476315E-009  0.4778726E+02  0.7816164E-02  0.1312668E+00
        -11   -1    0    0    0    0  0.00000000000E+00  0.00000000000E+00  0.45593999997E+02  0.45594000000E+02  0.51100000000E-03 0.  1.
         11   -1    0    0    0    0 -0.00000000000E+00 -0.00000000000E+00 -0.45593999997E+02  0.45594000000E+02  0.51100000000E-03 0. -1.
    9900012    2    1    2    0    0 -0.48220939115E+01 -0.28964188124E+02  0.31960093859E+02  0.47787258269E+02  0.19999941750E+02 0.  0.
         12    1    1    2    0    0  0.48220939115E+01  0.28964188124E+02 -0.31960093859E+02  0.43400741731E+02  0.00000000000E+00 0. -1.
         11    1    3    3    0    0 -0.47061779421E+01 -0.14170431414E+02  0.24381689451E+02  0.28590488244E+02  0.51100000000E-03 0. -1.
        -11    1    3    3    0    0 -0.17790567605E+01 -0.71610004379E+01  0.85851381782E+01  0.11320316605E+02  0.51100000000E-03 0.  1.
         12    1    3    3    0    0  0.16631407911E+01 -0.76327562719E+01 -0.10067337698E+01  0.78764534202E+01  0.00000000000E+00 0. -1.
</event>
<event>
 7    1  0.2476315E-009  0.4778726E+02  0.7816164E-02  0.1312668E+00
        -11   -1    0    0    0    0  0.00000000000E+00  0.00000000000E+00  0.45593999997E+02  0.45594000000E+02  0.51100000000E-03 0.  1.
         11   -1    0    0    0    0 -0.00000000000E+00 -0.00000000000E+00 -0.45593999997E+02  0.45594000000E+02  0.51100000000E-03 0. -1.
    9900012    2    1    2    0    0  0.23697066186E+02  0.21480726846E+02  0.29336862142E+02  0.47787262079E+02  0.19999959125E+02 0.  0.
         12    1    1    2    0    0 -0.23697066186E+02 -0.21480726846E+02 -0.29336862142E+02  0.43400737921E+02  0.00000000000E+00 0. -1.
         11    1    3    3    0    0  0.95562333945E+01  0.17631317921E+02  0.22065038182E+02  0.29816956226E+02  0.51100000000E-03 0. -1.
        -11    1    3    3    0    0  0.11653151269E+02  0.38950254480E+01  0.87427956802E+01  0.15079908299E+02  0.51100000000E-03 0.  1.
         12    1    3    3    0    0  0.24876815224E+01 -0.45616522958E-01 -0.14709717195E+01  0.28903975546E+01  0.00000000000E+00 0. -1.
</event>
<event>
 7    1  0.2476315E-009  0.4778727E+02  0.7816164E-02  0.1312668E+00
        -11   -1    0    0    0    0  0.00000000000E+00  0.00000000000E+00  0.45593999997E+02  0.45594000000E+02  0.51100000000E-03 0.  1.
         11   -1    0    0    0    0 -0.00000000000E+00 -0.00000000000E+00 -0.45593999997E+02  0.45594000000E+02  0.51100000000E-03 0. -1.
    9900012    2    1    2    0    0  0.16315617026E+02  0.22403242511E+02  0.33399386709E+02  0.47787266521E+02  0.19999979375E+02 0.  0.
         12    1    1    2    0    0 -0.16315617026E+02 -0.22403242511E+02 -0.33399386709E+02  0.43400733479E+02  0.00000000000E+00 0. -1.
         11    1    3    3    0    0 -0.84746619092E+00 -0.16650637964E+01 -0.10399224553E+01  0.21382411849E+01  0.51100000000E-03 0. -1.
        -11    1    3    3    0    0  0.12709519143E+02  0.13827492555E+02  0.22275840061E+02  0.29136651796E+02  0.51100000000E-03 0.  1.
         12    1    3    3    0    0  0.44535640742E+01  0.10240813752E+02  0.12163469104E+02  0.16512373540E+02  0.00000000000E+00 0. -1.
</event>
<event>
 7    1  0.2476315E-009  0.4778728E+02  0.7816164E-02  0.1312668E+00
        -11   -1    0    0    0    0  0.00000000000E+00  0.00000000000E+00  0.45593999997E+02  0.45594000000E+02  0.51100000000E-03 0.  1.
         11   -1    0    0    0    0 -0.00000000000E+00 -0.00000000000E+00 -0.45593999997E+02  0.45594000000E+02  0.51100000000E-03 0. -1.
    9900012    2    1    2    0    0 -0.13161104089E+02 -0.20458480799E+02  0.35942436010E+02  0.47787276460E+02  0.20000024692E+02 0.  0.
         12    1    1    2    0    0  0.13161104089E+02  0.20458480799E+02 -0.35942436010E+02  0.43400723540E+02  0.00000000000E+00 0. -1.
         11    1    3    3    0    0 -0.44463126831E+01 -0.11259977119E+02  0.44747777679E+01  0.12906603641E+02  0.51100000000E-03 0. -1.
        -11    1    3    3    0    0 -0.19493328112E+01 -0.20800592279E+01  0.12599900033E+01  0.31167482847E+01  0.51100000000E-03 0.  1.
         12    1    3    3    0    0 -0.67654585943E+01 -0.71184444517E+01  0.30207668239E+02  0.31763924535E+02  0.00000000000E+00 0. -1.
</event>
<event>
 7    1  0.2476315E-009  0.4778727E+02  0.7816164E-02  0.1312668E+00
        -11   -1    0    0    0    0  0.00000000000E+00  0.00000000000E+00  0.45593999997E+02  0.45594000000E+02  0.51100000000E-03 0.  1.
         11   -1    0    0    0    0 -0.00000000000E+00 -0.00000000000E+00 -0.45593999997E+02  0.45594000000E+02  0.51100000000E-03 0. -1.
    9900012    2    1    2    0    0  0.47383617855E+01  0.31059322394E+02  0.29941437768E+02  0.47787271024E+02  0.19999999907E+02 0.  0.
         12    1    1    2    0    0 -0.47383617855E+01 -0.31059322394E+02 -0.29941437768E+02  0.43400728976E+02  0.00000000000E+00 0. -1.
         11    1    3    3    0    0  0.14308163038E+01  0.12758096789E+02  0.17371467994E+01  0.12955074227E+02  0.51100000000E-03 0. -1.
        -11    1    3    3    0    0 -0.71524683017E+00  0.12379966966E+01  0.78048527790E+01  0.79347300528E+01  0.51100000000E-03 0.  1.
         12    1    3    3    0    0  0.40227923119E+01  0.17063228909E+02  0.20399438190E+02  0.26897466744E+02  0.00000000000E+00 0. -1.
</event>
<event>
 7    1  0.2476315E-009  0.4778727E+02  0.7816164E-02  0.1312668E+00
        -11   -1    0    0    0    0  0.00000000000E+00  0.00000000000E+00  0.45593999997E+02  0.45594000000E+02  0.51100000000E-03 0. -1.
         11   -1    0    0    0    0 -0.00000000000E+00 -0.00000000000E+00 -0.45593999997E+02  0.45594000000E+02  0.51100000000E-03 0.  1.
    9900012    2    1    2    0    0 -0.29140050312E+02 -0.96538013347E-01 -0.32163196183E+02  0.47787273733E+02  0.20000012260E+02 0.  0.
         12    1    1    2    0    0  0.29140050312E+02  0.96538013347E-01  0.32163196183E+02  0.43400726267E+02  0.00000000000E+00 0. -1.
         11    1    3    3    0    0 -0.42712905202E+01 -0.54600365959E+01 -0.54549300323E+01  0.88211214851E+01  0.51100000000E-03 0.  1.
        -11    1    3    3    0    0 -0.11360694166E+02  0.64073152709E+01 -0.63369070421E+01  0.14500877630E+02  0.51100000000E-03 0. -1.
        -12    1    3    3    0    0 -0.13508065626E+02 -0.10438166883E+01 -0.20371359109E+02  0.24465274619E+02  0.00000000000E+00 0.  1.
</event>
<event>
 7    1  0.2476315E-009  0.4778728E+02  0.7816164E-02  0.1312668E+00
        -11   -1    0    0    0    0  0.00000000000E+00  0.00000000000E+00  0.45593999997E+02  0.45594000000E+02  0.51100000000E-03 0. -1.
         11   -1    0    0    0    0 -0.00000000000E+00 -0.00000000000E+00 -0.45593999997E+02  0.45594000000E+02  0.51100000000E-03 0.  1.
    9900012    2    1    2    0    0  0.34546152302E+02  0.18507308228E+02 -0.18645798363E+02  0.47787275429E+02  0.20000019989E+02 0.  0.
         12    1    1    2    0    0 -0.34546152302E+02 -0.18507308228E+02  0.18645798363E+02  0.43400724571E+02  0.00000000000E+00 0. -1.
         11    1    3    3    0    0  0.12159472902E+02  0.10407009356E+02 -0.13504370530E+02  0.20941027880E+02  0.51100000000E-03 0. -1.
        -11    1    3    3    0    0  0.46117209219E+01  0.29160766189E+01 -0.62511365399E+01  0.82974804014E+01  0.51100000000E-03 0.  1.
         12    1    3    3    0    0  0.17774958478E+02  0.51842222530E+01  0.11097087070E+01  0.18548767147E+02  0.00000000000E+00 0. -1.
</event>
<event>
 7    1  0.2476315E-009  0.4778727E+02  0.7816164E-02  0.1312668E+00
        -11   -1    0    0    0    0  0.00000000000E+00  0.00000000000E+00  0.45593999997E+02  0.45594000000E+02  0.51100000000E-03 0. -1.
         11   -1    0    0    0    0 -0.00000000000E+00 -0.00000000000E+00 -0.45593999997E+02  0.45594000000E+02  0.51100000000E-03 0.  1.
    9900012    2    1    2    0    0 -0.24135314791E+02  0.35552742880E+02  0.60920254542E+01  0.47787265900E+02  0.19999976543E+02 0.  0.
         12    1    1    2    0    0  0.24135314791E+02 -0.35552742880E+02 -0.60920254542E+01  0.43400734100E+02  0.00000000000E+00 0. -1.
         11    1    3    3    0    0 -0.11256994506E+02  0.28700870092E+01  0.32520833052E+01  0.12063721268E+02  0.51100000000E-03 0. -1.
        -11    1    3    3    0    0 -0.35114398788E+01  0.56699791446E+01 -0.14159696597E+01  0.68179061200E+01  0.51100000000E-03 0.  1.
         12    1    3    3    0    0 -0.93668804056E+01  0.27012676726E+02  0.42559118087E+01  0.28905638511E+02  0.00000000000E+00 0. -1.
</event>
<event>
 7    1  0.2476315E-009  0.4778727E+02  0.7816164E-02  0.1312668E+00
        -11   -1    0    0    0    0  0.00000000000E+00  0.00000000000E+00  0.45593999997E+02  0.45594000000E+02  0.51100000000E-03 0. -1.
         11   -1    0    0    0    0 -0.00000000000E+00 -0.00000000000E+00 -0.45593999997E+02  0.45594000000E+02  0.51100000000E-03 0.  1.
    9900012    2    1    2    0    0 -0.87316502665E+01 -0.42470505045E+02  0.19073563871E+01  0.47787268168E+02  0.19999986885E+02 0.  0.
         12    1    1    2    0    0  0.87316502665E+01  0.42470505045E+02 -0.19073563871E+01  0.43400731832E+02  0.00000000000E+00 0. -1.
         11    1    3    3    0    0  0.44056954241E+01 -0.16876623068E+02 -0.14850243039E+01  0.17505309360E+02  0.51100000000E-03 0.  1.
        -11    1    3    3    0    0 -0.10593711188E+02 -0.14585092567E+02  0.53745799125E+01  0.18810575520E+02  0.51100000000E-03 0. -1.
        -12    1    3    3    0    0 -0.25436345026E+01 -0.11008789411E+02 -0.19821992215E+01  0.11471383287E+02  0.00000000000E+00 0.  1.
</event>
<event>
 7    1  0.2476315E-009  0.4778727E+02  0.7816164E-02  0.1312668E+00
        -11   -1    0    0    0    0  0.00000000000E+00  0.00000000000E+00  0.45593999997E+02  0.45594000000E+02  0.51100000000E-03 0.  1.
         11   -1    0    0    0    0 -0.00000000000E+00 -0.00000000000E+00 -0.45593999997E+02  0.45594000000E+02  0.51100000000E-03 0. -1.
    9900012    2    1    2    0    0 -0.30225148984E+02  0.29105503986E+02  0.11087537054E+02  0.47787268770E+02  0.19999989631E+02 0.  0.
         12    1    1    2    0    0  0.30225148984E+02 -0.29105503986E+02 -0.11087537054E+02  0.43400731230E+02  0.00000000000E+00 0. -1.
         11    1    3    3    0    0 -0.28049573024E+02  0.21170071493E+02  0.12411252087E+02  0.37269151485E+02  0.51100000000E-03 0.  1.
        -11    1    3    3    0    0  0.12475210345E+01  0.11013570390E+01 -0.22718108310E+01  0.28161002773E+01  0.51100000000E-03 0. -1.
         12    1    3    3    0    0 -0.34230969947E+01  0.68340754537E+01  0.94809579835E+00  0.77020170076E+01  0.00000000000E+00 0. -1.
</event>
<event>
 7    1  0.2476315E-009  0.4778726E+02  0.7816164E-02  0.1312668E+00
        -11   -1    0    0    0    0  0.00000000000E+00  0.00000000000E+00  0.45593999997E+02  0.45594000000E+02  0.51100000000E-03 0.  1.
         11   -1    0    0    0    0 -0.00000000000E+00 -0.00000000000E+00 -0.45593999997E+02  0.45594000000E+02  0.51100000000E-03 0. -1.
    9900012    2    1    2    0    0  0.48323385683E+00 -0.38170679511E+02  0.20649212368E+02  0.47787259676E+02  0.19999948165E+02 0.  0.
         12    1    1    2    0    0 -0.48323385683E+00  0.38170679511E+02 -0.20649212368E+02  0.43400740324E+02  0.00000000000E+00 0. -1.
         11    1    3    3    0    0  0.35231474565E+01 -0.11830189057E+02  0.56126460496E+01  0.13559783814E+02  0.51100000000E-03 0. -1.
        -11    1    3    3    0    0 -0.31186917073E+01 -0.27442863451E+02  0.10483483706E+02  0.29542180408E+02  0.51100000000E-03 0.  1.
        -12    1    3    3    0    0  0.78778107617E-01  0.11023729979E+01  0.45530826121E+01  0.46852954538E+01  0.00000000000E+00 0.  1.
</event>
<event>
 7    1  0.2476315E-009  0.4778727E+02  0.7816164E-02  0.1312668E+00
        -11   -1    0    0    0    0  0.00000000000E+00  0.00000000000E+00  0.45593999997E+02  0.45594000000E+02  0.51100000000E-03 0.  1.
         11   -1    0    0    0    0 -0.00000000000E+00 -0.00000000000E+00 -0.45593999997E+02  0.45594000000E+02  0.51100000000E-03 0. -1.
    9900012    2    1    2    0    0 -0.12627945407E+02  0.41416186110E+02 -0.29762446300E+01  0.47787268334E+02  0.19999987640E+02 0.  0.
         12    1    1    2    0    0  0.12627945407E+02 -0.41416186110E+02  0.29762446300E+01  0.43400731666E+02  0.00000000000E+00 0. -1.
         11    1    3    3    0    0 -0.68950596865E+01  0.23500423237E+02 -0.99872116921E+01  0.26449123578E+02  0.51100000000E-03 0. -1.
        -11    1    3    3    0    0  0.72146370699E+00  0.82262385266E+01  0.45863256111E+01  0.94459458526E+01  0.51100000000E-03 0.  1.
         12    1    3    3    0    0 -0.64543494271E+01  0.96895243467E+01  0.24246414511E+01  0.11892198903E+02  0.00000000000E+00 0. -1.
</event>
<event>
 7    1  0.2476315E-009  0.4778727E+02  0.7816164E-02  0.1312668E+00
        -11   -1    0    0    0    0  0.00000000000E+00  0.00000000000E+00  0.45593999997E+02  0.45594000000E+02  0.51100000000E-03 0.  1.
         11   -1    0    0    0    0 -0.00000000000E+00 -0.00000000000E+00 -0.45593999997E+02  0.45594000000E+02  0.51100000000E-03 0. -1.
    9900012    2    1    2    0    0 -0.20196406629E+02 -0.11242390821E+02  0.36733324245E+02  0.47787270718E+02  0.19999998513E+02 0.  0.
         12    1    1    2    0    0  0.20196406629E+02  0.11242390821E+02 -0.36733324245E+02  0.43400729282E+02  0.00000000000E+00 0. -1.
         11    1    3    3    0    0 -0.15001484585E+02 -0.18454294394E+01  0.13015660960E+02  0.19946367590E+02  0.51100000000E-03 0. -1.
        -11    1    3    3    0    0 -0.54053146231E+01 -0.37803708756E+00  0.70885695745E+01  0.89223403369E+01  0.51100000000E-03 0.  1.
         12    1    3    3    0    0  0.21039257884E+00 -0.90189242935E+01  0.16629093711E+02  0.18918562791E+02  0.00000000000E+00 0. -1.
</event>
<event>
 7    1  0.2476315E-009  0.4778724E+02  0.7816164E-02  0.1312668E+00
        -11   -1    0    0    0    0  0.00000000000E+00  0.00000000000E+00  0.45593999997E+02  0.45594000000E+02  0.51100000000E-03 0. -1.
         11   -1    0    0    0    0 -0.00000000000E+00 -0.00000000000E+00 -0.45593999997E+02  0.45594000000E+02  0.51100000000E-03 0.  1.
    9900012    2    1    2    0    0  0.93784243123E+01  0.30002531219E+02 -0.29925226694E+02  0.47787240619E+02  0.19999861277E+02 0.  0.
         12    1    1    2    0    0 -0.93784243123E+01 -0.30002531219E+02  0.29925226694E+02  0.43400759381E+02  0.00000000000E+00 0. -1.
         11    1    3    3    0    0  0.67360744754E+00  0.13699484417E+02 -0.60637747560E+01  0.14996632450E+02  0.51100000000E-03 0. -1.
        -11    1    3    3    0    0  0.41593090521E+01  0.37983763019E+01 -0.16817771378E+02  0.17735978933E+02  0.51100000000E-03 0.  1.
        -12    1    3    3    0    0  0.45455078126E+01  0.12504670501E+02 -0.70436805605E+01  0.15054629236E+02  0.00000000000E+00 0.  1.
</event>
<event>
 7    1  0.2476315E-009  0.4778727E+02  0.7816164E-02  0.1312668E+00
        -11   -1    0    0    0    0  0.00000000000E+00  0.00000000000E+00  0.45593999997E+02  0.45594000000E+02  0.51100000000E-03 0. -1.
         11   -1    0    0    0    0 -0.00000000000E+00 -0.00000000000E+00 -0.45593999997E+02  0.45594000000E+02  0.51100000000E-03 0.  1.
    9900012    2    1    2    0    0 -0.23880719133E+02  0.35932000039E+02  0.47144135183E+01  0.47787273417E+02  0.20000010818E+02 0.  0.
         12    1    1    2    0    0  0.23880719133E+02 -0.35932000039E+02 -0.47144135183E+01  0.43400726583E+02  0.00000000000E+00 0. -1.
         11    1    3    3    0    0  0.25694202447E+01  0.63818569475E+01 -0.61467847474E+00  0.69070868230E+01  0.51100000000E-03 0. -1.
        -11    1    3    3    0    0 -0.18385219551E+02  0.20303417927E+02 -0.27333972563E+00  0.27391965835E+02  0.51100000000E-03 0.  1.
         12    1    3    3    0    0 -0.80649198271E+01  0.92467251646E+01  0.56024317186E+01  0.13488220759E+02  0.00000000000E+00 0. -1.
</event>
<event>
 7    1  0.2476315E-009  0.4778727E+02  0.7816164E-02  0.1312668E+00
        -11   -1    0    0    0    0  0.00000000000E+00  0.00000000000E+00  0.45593999997E+02  0.45594000000E+02  0.51100000000E-03 0.  1.
         11   -1    0    0    0    0 -0.00000000000E+00 -0.00000000000E+00 -0.45593999997E+02  0.45594000000E+02  0.51100000000E-03 0. -1.
    9900012    2    1    2    0    0  0.92911994369E+01 -0.41443725161E+02  0.89283031296E+01  0.47787270295E+02  0.19999996582E+02 0.  0.
         12    1    1    2    0    0 -0.92911994369E+01  0.41443725161E+02 -0.89283031296E+01  0.43400729705E+02  0.00000000000E+00 0. -1.
         11    1    3    3    0    0  0.56000169892E+01 -0.25945199104E+02 -0.23373507275E+01  0.26645389010E+02  0.51100000000E-03 0. -1.
        -11    1    3    3    0    0  0.15228890128E+01 -0.20859174837E+01  0.60682168140E+01  0.65949600648E+01  0.51100000000E-03 0.  1.
        -12    1    3    3    0    0  0.21682934349E+01 -0.13412608573E+02  0.51974370431E+01  0.14546921220E+02  0.00000000000E+00 0.  1.
</event>
<event>
 7    1  0.2476315E-009  0.4778727E+02  0.7816164E-02  0.1312668E+00
        -11   -1    0    0    0    0  0.00000000000E+00  0.00000000000E+00  0.45593999997E+02  0.45594000000E+02  0.51100000000E-03 0.  1.
         11   -1    0    0    0    0 -0.00000000000E+00 -0.00000000000E+00 -0.45593999997E+02  0.45594000000E+02  0.51100000000E-03 0. -1.
    9900012    2    1    2    0    0 -0.27039371939E+02 -0.10685998727E+02  0.32222748375E+02  0.47787265945E+02  0.19999976751E+02 0.  0.
         12    1    1    2    0    0  0.27039371939E+02  0.10685998727E+02 -0.32222748375E+02  0.43400734055E+02  0.00000000000E+00 0. -1.
         11    1    3    3    0    0  0.10718406129E+01 -0.84741479502E+00 -0.18579797980E+01  0.23063051240E+01  0.51100000000E-03 0. -1.
        -11    1    3    3    0    0 -0.14448922553E+02 -0.48051997752E+01  0.14058159408E+02  0.20724216608E+02  0.51100000000E-03 0.  1.
         12    1    3    3    0    0 -0.13662289999E+02 -0.50333841572E+01  0.20022568765E+02  0.24756744213E+02  0.00000000000E+00 0. -1.
</event>
<event>
 7    1  0.2476315E-009  0.4778725E+02  0.7816164E-02  0.1312668E+00
        -11   -1    0    0    0    0  0.00000000000E+00  0.00000000000E+00  0.45593999997E+02  0.45594000000E+02  0.51100000000E-03 0. -1.
         11   -1    0    0    0    0 -0.00000000000E+00 -0.00000000000E+00 -0.45593999997E+02  0.45594000000E+02  0.51100000000E-03 0.  1.
    9900012    2    1    2    0    0 -0.38226211888E+02  0.90287094755E+01  0.18462502936E+02  0.47787252486E+02  0.19999915383E+02 0.  0.
         12    1    1    2    0    0  0.38226211888E+02 -0.90287094755E+01 -0.18462502936E+02  0.43400747514E+02  0.00000000000E+00 0. -1.
         11    1    3    3    0    0 -0.12698806021E+02  0.70054531994E+01  0.46390014374E+00  0.14510384299E+02  0.51100000000E-03 0. -1.
        -11    1    3    3    0    0 -0.23759720661E+02  0.25207638162E+00  0.19154728705E+02  0.30520345680E+02  0.51100000000E-03 0.  1.
        -12    1    3    3    0    0 -0.17676852066E+01  0.17711798945E+01 -0.11561259126E+01  0.27565225074E+01  0.00000000000E+00 0.  1.
</event>
<event>
 7    1  0.2476315E-009  0.4778727E+02  0.7816164E-02  0.1312668E+00
        -11   -1    0    0    0    0  0.00000000000E+00  0.00000000000E+00  0.45593999997E+02  0.45594000000E+02  0.51100000000E-03 0.  1.
         11   -1    0    0    0    0 -0.00000000000E+00 -0.00000000000E+00 -0.45593999997E+02  0.45594000000E+02  0.51100000000E-03 0. -1.
    9900012    2    1    2    0    0 -0.28511386081E+02  0.18823503308E+02  0.26765649950E+02  0.47787269243E+02  0.19999991785E+02 0.  0.
         12    1    1    2    0    0  0.28511386081E+02 -0.18823503308E+02 -0.26765649950E+02  0.43400730757E+02  0.00000000000E+00 0. -1.
         11    1    3    3    0    0 -0.96189375790E+01  0.13766537358E+02  0.77389265618E+01  0.18491416808E+02  0.51100000000E-03 0. -1.
        -11    1    3    3    0    0 -0.18095597393E+02  0.45734737030E+01  0.20391088080E+02  0.27643512441E+02  0.51100000000E-03 0.  1.
         12    1    3    3    0    0 -0.79685110882E+00  0.48349224737E+00 -0.13643646920E+01  0.16523399940E+01  0.00000000000E+00 0. -1.
</event>
<event>
 7    1  0.2476315E-009  0.4778727E+02  0.7816164E-02  0.1312668E+00
        -11   -1    0    0    0    0  0.00000000000E+00  0.00000000000E+00  0.45593999997E+02  0.45594000000E+02  0.51100000000E-03 0. -1.
         11   -1    0    0    0    0 -0.00000000000E+00 -0.00000000000E+00 -0.45593999997E+02  0.45594000000E+02  0.51100000000E-03 0.  1.
    9900012    2    1    2    0    0  0.31697863992E+02  0.80767615420E+01 -0.28524276129E+02  0.47787274346E+02  0.20000015051E+02 0.  0.
         12    1    1    2    0    0 -0.31697863992E+02 -0.80767615420E+01  0.28524276129E+02  0.43400725654E+02  0.00000000000E+00 0. -1.
         11    1    3    3    0    0  0.18765701187E+02  0.77942382623E+01 -0.23552760670E+02  0.31106819615E+02  0.51100000000E-03 0. -1.
        -11    1    3    3    0    0 -0.22333715977E+00  0.21642028293E+01 -0.22216099568E+01  0.31095344402E+01  0.51100000000E-03 0.  1.
         12    1    3    3    0    0  0.13155499965E+02 -0.18816795497E+01 -0.27499055020E+01  0.13570920290E+02  0.00000000000E+00 0. -1.
</event>
<event>
 7    1  0.2476315E-009  0.4778727E+02  0.7816164E-02  0.1312668E+00
        -11   -1    0    0    0    0  0.00000000000E+00  0.00000000000E+00  0.45593999997E+02  0.45594000000E+02  0.51100000000E-03 0.  1.
         11   -1    0    0    0    0 -0.00000000000E+00 -0.00000000000E+00 -0.45593999997E+02  0.45594000000E+02  0.51100000000E-03 0. -1.
    9900012    2    1    2    0    0  0.23792778850E+01  0.16847401850E+02  0.39926525440E+02  0.47787270213E+02  0.19999996208E+02 0.  0.
         12    1    1    2    0    0 -0.23792778850E+01 -0.16847401850E+02 -0.39926525440E+02  0.43400729787E+02  0.00000000000E+00 0. -1.
         11    1    3    3    0    0 -0.44959953150E+01  0.13399391343E+02  0.20736208098E+02  0.25094780110E+02  0.51100000000E-03 0. -1.
        -11    1    3    3    0    0  0.79179667438E+01  0.27456955947E+01  0.85289518925E+01  0.11957259816E+02  0.51100000000E-03 0.  1.
        -12    1    3    3    0    0 -0.10426935438E+01  0.70231491262E+00  0.10661365449E+02  0.10735230287E+02  0.00000000000E+00 0.  1.
</event>
<event>
 7    1  0.2476315E-009  0.4778725E+02  0.7816164E-02  0.1312668E+00
        -11   -1    0    0    0    0  0.00000000000E+00  0.00000000000E+00  0.45593999997E+02  0.45594000000E+02  0.51100000000E-03 0.  1.
         11   -1    0    0    0    0 -0.00000000000E+00 -0.00000000000E+00 -0.45593999997E+02  0.45594000000E+02  0.51100000000E-03 0. -1.
    9900012    2    1    2    0    0  0.70607704934E+01 -0.40694298107E+02 -0.13332081158E+02  0.47787253850E+02  0.19999921602E+02 0.  0.
         12    1    1    2    0    0 -0.70607704934E+01  0.40694298107E+02  0.13332081158E+02  0.43400746150E+02  0.00000000000E+00 0. -1.
         11    1    3    3    0    0  0.45265591363E+01 -0.22725223342E+01 -0.56105640155E+01  0.75586059698E+01  0.51100000000E-03 0. -1.
        -11    1    3    3    0    0  0.18753795655E+01 -0.38706923904E+02 -0.74550892018E+01  0.39462911219E+02  0.51100000000E-03 0.  1.
         12    1    3    3    0    0  0.65883179160E+00  0.28514813093E+00 -0.26642794079E+00  0.76573666089E+00  0.00000000000E+00 0. -1.
</event>
<event>
 7    1  0.2476315E-009  0.4778727E+02  0.7816164E-02  0.1312668E+00
        -11   -1    0    0    0    0  0.00000000000E+00  0.00000000000E+00  0.45593999997E+02  0.45594000000E+02  0.51100000000E-03 0. -1.
         11   -1    0    0    0    0 -0.00000000000E+00 -0.00000000000E+00 -0.45593999997E+02  0.45594000000E+02  0.51100000000E-03 0.  1.
    9900012    2    1    2    0    0  0.42159911235E+02 -0.66091761573E+01 -0.79046875307E+01  0.47787269479E+02  0.19999992862E+02 0.  0.
         12    1    1    2    0    0 -0.42159911235E+02  0.66091761573E+01  0.79046875307E+01  0.43400730521E+02  0.00000000000E+00 0. -1.
         11    1    3    3    0    0  0.47679540103E+01 -0.49204232121E+01  0.20353933514E+01  0.71475014086E+01  0.51100000000E-03 0. -1.
        -11    1    3    3    0    0  0.27762128167E+02 -0.48758624436E+01 -0.11374054900E+02  0.30395376623E+02  0.51100000000E-03 0.  1.
        -12    1    3    3    0    0  0.96298290576E+01  0.31871094984E+01  0.14339740183E+01  0.10244391447E+02  0.00000000000E+00 0.  1.
</event>
<event>
 7    1  0.2476315E-009  0.4778728E+02  0.7816164E-02  0.1312668E+00
        -11   -1    0    0    0    0  0.00000000000E+00  0.00000000000E+00  0.45593999997E+02  0.45594000000E+02  0.51100000000E-03 0. -1.
         11   -1    0    0    0    0 -0.00000000000E+00 -0.00000000000E+00 -0.45593999997E+02  0.45594000000E+02  0.51100000000E-03 0.  1.
    9900012    2    1    2    0    0 -0.35195786398E+02  0.15945611751E+02 -0.19764024597E+02  0.47787279008E+02  0.20000036310E+02 0.  0.
         12    1    1    2    0    0  0.35195786398E+02 -0.15945611751E+02  0.19764024597E+02  0.43400720992E+02  0.00000000000E+00 0. -1.
         11    1    3    3    0    0 -0.15100004729E+02  0.10987018674E+02 -0.16584010515E+02  0.24975070114E+02  0.51100000000E-03 0. -1.
        -11    1    3    3    0    0 -0.11690347057E+02  0.24188340420E+01 -0.62941230708E+01  0.13495590314E+02  0.51100000000E-03 0.  1.
         12    1    3    3    0    0 -0.84054346129E+01  0.25397590345E+01  0.31141089884E+01  0.93166185806E+01  0.00000000000E+00 0. -1.
</event>
<event>
 7    1  0.2476315E-009  0.4778727E+02  0.7816164E-02  0.1312668E+00
        -11   -1    0    0    0    0  0.00000000000E+00  0.00000000000E+00  0.45593999997E+02  0.45594000000E+02  0.51100000000E-03 0.  1.
         11   -1    0    0    0    0 -0.00000000000E+00 -0.00000000000E+00 -0.45593999997E+02  0.45594000000E+02  0.51100000000E-03 0. -1.
    9900012    2    1    2    0    0 -0.31429130366E+02  0.29855333309E+02  0.21194109333E+01  0.47787273448E+02  0.20000010958E+02 0.  0.
         12    1    1    2    0    0  0.31429130366E+02 -0.29855333309E+02 -0.21194109333E+01  0.43400726552E+02  0.00000000000E+00 0. -1.
         11    1    3    3    0    0  0.78800257496E+00 -0.14033876346E+01  0.22883907356E+01  0.27977093006E+01  0.51100000000E-03 0. -1.
        -11    1    3    3    0    0 -0.23261379027E+02  0.21173244284E+02  0.82111150431E+00  0.31465413586E+02  0.51100000000E-03 0.  1.
         12    1    3    3    0    0 -0.89557539139E+01  0.10085476659E+02 -0.99009130654E+00  0.13524150561E+02  0.00000000000E+00 0. -1.
</event>
<event>
 7    1  0.2476315E-009  0.4778727E+02  0.7816164E-02  0.1312668E+00
        -11   -1    0    0    0    0  0.00000000000E+00  0.00000000000E+00  0.45593999997E+02  0.45594000000E+02  0.51100000000E-03 0.  1.
         11   -1    0    0    0    0 -0.00000000000E+00 -0.00000000000E+00 -0.45593999997E+02  0.45594000000E+02  0.51100000000E-03 0. -1.
    9900012    2    1    2    0    0  0.16975843436E+02  0.10563870533E+02  0.38520758179E+02  0.47787269227E+02  0.19999991712E+02 0.  0.
         12    1    1    2    0    0 -0.16975843436E+02 -0.10563870533E+02 -0.38520758179E+02  0.43400730773E+02  0.00000000000E+00 0. -1.
         11    1    3    3    0    0 -0.20529646244E+01  0.15744942911E+01  0.10276967697E+01  0.27838564858E+01  0.51100000000E-03 0. -1.
        -11    1    3    3    0    0  0.19808161772E+02  0.64349233645E+01  0.36733131743E+02  0.42226703392E+02  0.51100000000E-03 0.  1.
        -12    1    3    3    0    0 -0.77935371143E+00  0.25544528773E+01  0.75992966619E+00  0.27767093487E+01  0.00000000000E+00 0.  1.
</event>
<event>
 7    1  0.2476315E-009  0.4778727E+02  0.7816164E-02  0.1312668E+00
        -11   -1    0    0    0    0  0.00000000000E+00  0.00000000000E+00  0.45593999997E+02  0.45594000000E+02  0.51100000000E-03 0. -1.
         11   -1    0    0    0    0 -0.00000000000E+00 -0.00000000000E+00 -0.45593999997E+02  0.45594000000E+02  0.51100000000E-03 0.  1.
    9900012    2    1    2    0    0  0.29497326617E+02  0.31799469571E+02 -0.15246089491E+01  0.47787274487E+02  0.20000015697E+02 0.  0.
         12    1    1    2    0    0 -0.29497326617E+02 -0.31799469571E+02  0.15246089491E+01  0.43400725513E+02  0.00000000000E+00 0. -1.
         11    1    3    3    0    0  0.10452910559E+02  0.76531852836E+01  0.43500623953E+01  0.13665929432E+02  0.51100000000E-03 0. -1.
        -11    1    3    3    0    0  0.14796271735E+02  0.15415556114E+02 -0.99756490733E+01  0.23581403738E+02  0.51100000000E-03 0.  1.
        -12    1    3    3    0    0  0.42481443236E+01  0.87307281736E+01  0.41009777288E+01  0.10539941317E+02  0.00000000000E+00 0.  1.
</event>
<event>
 7    1  0.2476315E-009  0.4778727E+02  0.7816164E-02  0.1312668E+00
        -11   -1    0    0    0    0  0.00000000000E+00  0.00000000000E+00  0.45593999997E+02  0.45594000000E+02  0.51100000000E-03 0.  1.
         11   -1    0    0    0    0 -0.00000000000E+00 -0.00000000000E+00 -0.45593999997E+02  0.45594000000E+02  0.51100000000E-03 0. -1.
    9900012    2    1    2    0    0  0.14538227883E+02 -0.40589317285E+02  0.49769911670E+01  0.47787272026E+02  0.20000004474E+02 0.  0.
         12    1    1    2    0    0 -0.14538227883E+02  0.40589317285E+02 -0.49769911670E+01  0.43400727974E+02  0.00000000000E+00 0. -1.
         11    1    3    3    0    0  0.74567268227E+01 -0.27326984956E+01  0.20174945749E+01  0.81939429213E+01  0.51100000000E-03 0. -1.
        -11    1    3    3    0    0  0.54114679672E+01 -0.36234580715E+02  0.11668291917E+01  0.36655017607E+02  0.51100000000E-03 0.  1.
        -12    1    3    3    0    0  0.16700330929E+01 -0.16220380742E+01  0.17926674004E+01  0.29383114971E+01  0.00000000000E+00 0.  1.
</event>
<event>
 7    1  0.2476315E-009  0.4778727E+02  0.7816164E-02  0.1312668E+00
        -11   -1    0    0    0    0  0.00000000000E+00  0.00000000000E+00  0.45593999997E+02  0.45594000000E+02  0.51100000000E-03 0.  1.
         11   -1    0    0    0    0 -0.00000000000E+00 -0.00000000000E+00 -0.45593999997E+02  0.45594000000E+02  0.51100000000E-03 0. -1.
    9900012    2    1    2    0    0  0.12960885086E+02 -0.41259935614E+02  0.36408951659E+01  0.47787274814E+02  0.20000017186E+02 0.  0.
         12    1    1    2    0    0 -0.12960885086E+02  0.41259935614E+02 -0.36408951659E+01  0.43400725186E+02  0.00000000000E+00 0. -1.
         11    1    3    3    0    0  0.11722858933E+01  0.11360794589E+00  0.23498654015E+01  0.26285031192E+01  0.51100000000E-03 0. -1.
        -11    1    3    3    0    0  0.14250974319E+02 -0.29717137906E+02  0.31227191266E+01  0.33105134486E+02  0.51100000000E-03 0.  1.
        -12    1    3    3    0    0 -0.24623751260E+01 -0.11656405654E+02 -0.18316893622E+01  0.12053637208E+02  0.00000000000E+00 0.  1.
</event>
<event>
 7    1  0.2476315E-009  0.4778727E+02  0.7816164E-02  0.1312668E+00
        -11   -1    0    0    0    0  0.00000000000E+00  0.00000000000E+00  0.45593999997E+02  0.45594000000E+02  0.51100000000E-03 0. -1.
         11   -1    0    0    0    0 -0.00000000000E+00 -0.00000000000E+00 -0.45593999997E+02  0.45594000000E+02  0.51100000000E-03 0.  1.
    9900012    2    1    2    0    0 -0.29097990358E+02  0.10077451649E+02 -0.30583904727E+02  0.47787270709E+02  0.19999998470E+02 0.  0.
         12    1    1    2    0    0  0.29097990358E+02 -0.10077451649E+02  0.30583904727E+02  0.43400729291E+02  0.00000000000E+00 0. -1.
         11    1    3    3    0    0 -0.36097726086E+01  0.55670121539E+01 -0.11900863671E+02  0.13625440873E+02  0.51100000000E-03 0. -1.
        -11    1    3    3    0    0 -0.11103140682E+02  0.37316908850E+01 -0.16110262128E+01  0.11823732726E+02  0.51100000000E-03 0.  1.
        -12    1    3    3    0    0 -0.14385077068E+02  0.77874860978E+00 -0.17072014844E+02  0.22338097109E+02  0.00000000000E+00 0.  1.
</event>
<event>
 7    1  0.2476315E-009  0.4778728E+02  0.7816164E-02  0.1312668E+00
        -11   -1    0    0    0    0  0.00000000000E+00  0.00000000000E+00  0.45593999997E+02  0.45594000000E+02  0.51100000000E-03 0.  1.
         11   -1    0    0    0    0 -0.00000000000E+00 -0.00000000000E+00 -0.45593999997E+02  0.45594000000E+02  0.51100000000E-03 0. -1.
    9900012    2    1    2    0    0  0.19985323048E+02  0.14948662747E+02  0.35506997767E+02  0.47787279433E+02  0.20000038247E+02 0.  0.
         12    1    1    2    0    0 -0.19985323048E+02 -0.14948662747E+02 -0.35506997767E+02  0.43400720567E+02  0.00000000000E+00 0. -1.
         11    1    3    3    0    0  0.80813092384E+01  0.20656229398E+01  0.16115222992E+01  0.84953729475E+01  0.51100000000E-03 0. -1.
        -11    1    3    3    0    0  0.12323729327E+02  0.10616290223E+02  0.33051066839E+02  0.36836842184E+02  0.51100000000E-03 0.  1.
         12    1    3    3    0    0 -0.41971551710E+00  0.22667495842E+01  0.84440862962E+00  0.24550643019E+01  0.00000000000E+00 0. -1.
</event>
<event>
 7    1  0.2476315E-009  0.4778727E+02  0.7816164E-02  0.1312668E+00
        -11   -1    0    0    0    0  0.00000000000E+00  0.00000000000E+00  0.45593999997E+02  0.45594000000E+02  0.51100000000E-03 0. -1.
         11   -1    0    0    0    0 -0.00000000000E+00 -0.00000000000E+00 -0.45593999997E+02  0.45594000000E+02  0.51100000000E-03 0.  1.
    9900012    2    1    2    0    0  0.16595161843E+02 -0.40077977756E+02 -0.14068889807E+01  0.47787273806E+02  0.20000012590E+02 0.  0.
         12    1    1    2    0    0 -0.16595161843E+02  0.40077977756E+02  0.14068889807E+01  0.43400726194E+02  0.00000000000E+00 0. -1.
         11    1    3    3    0    0  0.60828953130E+01 -0.29418493523E+02 -0.15760638812E+01  0.30082110202E+02  0.51100000000E-03 0. -1.
        -11    1    3    3    0    0  0.63007634448E+01 -0.96648144419E+01 -0.34734335558E+01  0.12048775835E+02  0.51100000000E-03 0.  1.
         12    1    3    3    0    0  0.42115030856E+01 -0.99466979042E+00  0.36426084562E+01  0.56563877694E+01  0.00000000000E+00 0. -1.
</event>
<event>
 7    1  0.2476315E-009  0.4778729E+02  0.7816164E-02  0.1312668E+00
        -11   -1    0    0    0    0  0.00000000000E+00  0.00000000000E+00  0.45593999997E+02  0.45594000000E+02  0.51100000000E-03 0.  1.
         11   -1    0    0    0    0 -0.00000000000E+00 -0.00000000000E+00 -0.45593999997E+02  0.45594000000E+02  0.51100000000E-03 0. -1.
    9900012    2    1    2    0    0 -0.41805845123E+02 -0.11206457916E+02 -0.32106881989E+01  0.47787286824E+02  0.20000071945E+02 0.  0.
         12    1    1    2    0    0  0.41805845123E+02  0.11206457916E+02  0.32106881989E+01  0.43400713176E+02  0.00000000000E+00 0. -1.
         11    1    3    3    0    0 -0.21344110879E+02 -0.76789669405E+01 -0.10686648224E+02  0.25074729371E+02  0.51100000000E-03 0. -1.
        -11    1    3    3    0    0 -0.94163082812E+01 -0.42512153367E+01  0.43551956740E+01  0.11211932175E+02  0.51100000000E-03 0.  1.
         12    1    3    3    0    0 -0.11045425963E+02  0.72372436109E+00  0.31207643507E+01  0.11500625278E+02  0.00000000000E+00 0. -1.
</event>
<event>
 7    1  0.2476315E-009  0.4778727E+02  0.7816164E-02  0.1312668E+00
        -11   -1    0    0    0    0  0.00000000000E+00  0.00000000000E+00  0.45593999997E+02  0.45594000000E+02  0.51100000000E-03 0. -1.
         11   -1    0    0    0    0 -0.00000000000E+00 -0.00000000000E+00 -0.45593999997E+02  0.45594000000E+02  0.51100000000E-03 0.  1.
    9900012    2    1    2    0    0 -0.12192424633E+00  0.43299591649E+02  0.29586925844E+01  0.47787270003E+02  0.19999995252E+02 0.  0.
         12    1    1    2    0    0  0.12192424633E+00 -0.43299591649E+02 -0.29586925844E+01  0.43400729997E+02  0.00000000000E+00 0. -1.
         11    1    3    3    0    0  0.51232438489E+01  0.96180621214E+01  0.23290999673E+01  0.11143583509E+02  0.51100000000E-03 0.  1.
        -11    1    3    3    0    0 -0.88438204564E+01  0.17708040786E+02 -0.25711911173E+01  0.19959932183E+02  0.51100000000E-03 0. -1.
         12    1    3    3    0    0  0.35986523611E+01  0.15973488741E+02  0.32007837345E+01  0.16683754311E+02  0.00000000000E+00 0. -1.
</event>
<event>
 7    1  0.2476315E-009  0.4778727E+02  0.7816164E-02  0.1312668E+00
        -11   -1    0    0    0    0  0.00000000000E+00  0.00000000000E+00  0.45593999997E+02  0.45594000000E+02  0.51100000000E-03 0.  1.
         11   -1    0    0    0    0 -0.00000000000E+00 -0.00000000000E+00 -0.45593999997E+02  0.45594000000E+02  0.51100000000E-03 0. -1.
    9900012    2    1    2    0    0 -0.10977118067E+01  0.43262503662E+02 -0.32824063975E+01  0.47787269751E+02  0.19999994105E+02 0.  0.
         12    1    1    2    0    0  0.10977118067E+01 -0.43262503662E+02  0.32824063975E+01  0.43400730249E+02  0.00000000000E+00 0. -1.
         11    1    3    3    0    0  0.45544298193E+01  0.22051861315E+02 -0.83442915914E+00  0.22532724885E+02  0.51100000000E-03 0. -1.
        -11    1    3    3    0    0 -0.22222798403E+01  0.17892007632E+01  0.36302287183E+01  0.46171774785E+01  0.51100000000E-03 0.  1.
        -12    1    3    3    0    0 -0.34298617858E+01  0.19421441584E+02 -0.60782059566E+01  0.20637367388E+02  0.00000000000E+00 0.  1.
</event>
<event>
 7    1  0.2476315E-009  0.4778727E+02  0.7816164E-02  0.1312668E+00
        -11   -1    0    0    0    0  0.00000000000E+00  0.00000000000E+00  0.45593999997E+02  0.45594000000E+02  0.51100000000E-03 0. -1.
         11   -1    0    0    0    0 -0.00000000000E+00 -0.00000000000E+00 -0.45593999997E+02  0.45594000000E+02  0.51100000000E-03 0.  1.
    9900012    2    1    2    0    0  0.29769912005E+02 -0.24006918633E+02  0.20519336418E+02  0.47787274544E+02  0.20000015958E+02 0.  0.
         12    1    1    2    0    0 -0.29769912005E+02  0.24006918633E+02 -0.20519336418E+02  0.43400725456E+02  0.00000000000E+00 0. -1.
         11    1    3    3    0    0  0.10433456270E+01 -0.47245251661E+01  0.83148682534E+01  0.96201217495E+01  0.51100000000E-03 0. -1.
        -11    1    3    3    0    0  0.15642952334E+02 -0.54268336130E+01  0.23821213695E+01  0.16728029868E+02  0.51100000000E-03 0.  1.
        -12    1    3    3    0    0  0.13083614045E+02 -0.13855559853E+02  0.98223467951E+01  0.21439122927E+02  0.00000000000E+00 0.  1.
</event>
<event>
 7    1  0.2476315E-009  0.4778727E+02  0.7816164E-02  0.1312668E+00
        -11   -1    0    0    0    0  0.00000000000E+00  0.00000000000E+00  0.45593999997E+02  0.45594000000E+02  0.51100000000E-03 0.  1.
         11   -1    0    0    0    0 -0.00000000000E+00 -0.00000000000E+00 -0.45593999997E+02  0.45594000000E+02  0.51100000000E-03 0. -1.
    9900012    2    1    2    0    0  0.32451856067E+02  0.23025269063E+02  0.17330246523E+02  0.47787269336E+02  0.19999992209E+02 0.  0.
         12    1    1    2    0    0 -0.32451856067E+02 -0.23025269063E+02 -0.17330246523E+02  0.43400730664E+02  0.00000000000E+00 0. -1.
         11    1    3    3    0    0  0.97495036257E+01  0.79113584891E+01  0.28399004658E+01  0.12872740540E+02  0.51100000000E-03 0. -1.
        -11    1    3    3    0    0  0.10303387397E+02  0.38894713742E+01 -0.22615148346E+01  0.11242874589E+02  0.51100000000E-03 0.  1.
        -12    1    3    3    0    0  0.12398965045E+02  0.11224439200E+02  0.16751860892E+02  0.23671654207E+02  0.00000000000E+00 0.  1.
</event>
<event>
 7    1  0.2476315E-009  0.4778727E+02  0.7816164E-02  0.1312668E+00
        -11   -1    0    0    0    0  0.00000000000E+00  0.00000000000E+00  0.45593999997E+02  0.45594000000E+02  0.51100000000E-03 0.  1.
         11   -1    0    0    0    0 -0.00000000000E+00 -0.00000000000E+00 -0.45593999997E+02  0.45594000000E+02  0.51100000000E-03 0. -1.
    9900012    2    1    2    0    0  0.31749199307E+02 -0.27565333649E+02 -0.10759370712E+02  0.47787270352E+02  0.19999996843E+02 0.  0.
         12    1    1    2    0    0 -0.31749199307E+02  0.27565333649E+02  0.10759370712E+02  0.43400729648E+02  0.00000000000E+00 0. -1.
         11    1    3    3    0    0  0.18257527635E+01 -0.10197025104E+02 -0.60237107539E+01  0.11983229349E+02  0.51100000000E-03 0. -1.
        -11    1    3    3    0    0  0.22922523689E+02 -0.16796955061E+02 -0.30558712292E+01  0.28581779875E+02  0.51100000000E-03 0.  1.
        -12    1    3    3    0    0  0.70009228549E+01 -0.57135348372E+00 -0.16797887289E+01  0.72222611277E+01  0.00000000000E+00 0.  1.
</event>
<event>
 7    1  0.2476315E-009  0.4778727E+02  0.7816164E-02  0.1312668E+00
        -11   -1    0    0    0    0  0.00000000000E+00  0.00000000000E+00  0.45593999997E+02  0.45594000000E+02  0.51100000000E-03 0.  1.
         11   -1    0    0    0    0 -0.00000000000E+00 -0.00000000000E+00 -0.45593999997E+02  0.45594000000E+02  0.51100000000E-03 0. -1.
    9900012    2    1    2    0    0  0.12833256702E+02  0.37467700758E+02 -0.17751114847E+02  0.47787272403E+02  0.20000006193E+02 0.  0.
         12    1    1    2    0    0 -0.12833256702E+02 -0.37467700758E+02  0.17751114847E+02  0.43400727597E+02  0.00000000000E+00 0. -1.
         11    1    3    3    0    0  0.37613161020E+00 -0.11365647928E+01  0.97937789478E+00  0.15467500892E+01  0.51100000000E-03 0. -1.
        -11    1    3    3    0    0  0.14788406721E+01  0.23743050849E+02 -0.11079653364E+02  0.26242678070E+02  0.51100000000E-03 0.  1.
        -12    1    3    3    0    0  0.10978284420E+02  0.14861214702E+02 -0.76508393783E+01  0.19997844244E+02  0.00000000000E+00 0.  1.
</event>
<event>
 7    1  0.2476315E-009  0.4778727E+02  0.7816164E-02  0.1312668E+00
        -11   -1    0    0    0    0  0.00000000000E+00  0.00000000000E+00  0.45593999997E+02  0.45594000000E+02  0.51100000000E-03 0.  1.
         11   -1    0    0    0    0 -0.00000000000E+00 -0.00000000000E+00 -0.45593999997E+02  0.45594000000E+02  0.51100000000E-03 0. -1.
    9900012    2    1    2    0    0 -0.29432191099E+02  0.30705575003E+02  0.86334757379E+01  0.47787272904E+02  0.20000008480E+02 0.  0.
         12    1    1    2    0    0  0.29432191099E+02 -0.30705575003E+02 -0.86334757379E+01  0.43400727096E+02  0.00000000000E+00 0. -1.
         11    1    3    3    0    0 -0.49286790004E+01  0.21484258425E+01  0.58858241142E+01  0.79718590087E+01  0.51100000000E-03 0. -1.
        -11    1    3    3    0    0 -0.18469393232E+02  0.27854295084E+02  0.38466416299E+01  0.33641891936E+02  0.51100000000E-03 0.  1.
        -12    1    3    3    0    0 -0.60341188663E+01  0.70285407628E+00 -0.10989900062E+01  0.61735219591E+01  0.00000000000E+00 0.  1.
</event>
<event>
 7    1  0.2476315E-009  0.4778727E+02  0.7816164E-02  0.1312668E+00
        -11   -1    0    0    0    0  0.00000000000E+00  0.00000000000E+00  0.45593999997E+02  0.45594000000E+02  0.51100000000E-03 0.  1.
         11   -1    0    0    0    0 -0.00000000000E+00 -0.00000000000E+00 -0.45593999997E+02  0.45594000000E+02  0.51100000000E-03 0. -1.
    9900012    2    1    2    0    0  0.15426378010E+02  0.33676905862E+02  0.22616729936E+02  0.47787267288E+02  0.19999982872E+02 0.  0.
         12    1    1    2    0    0 -0.15426378010E+02 -0.33676905862E+02 -0.22616729936E+02  0.43400732712E+02  0.00000000000E+00 0. -1.
         11    1    3    3    0    0  0.10506465311E+02  0.71867753503E+01  0.96842101932E+01  0.15994357774E+02  0.51100000000E-03 0. -1.
        -11    1    3    3    0    0  0.53286951238E+01  0.68134168067E+01  0.73090664761E+01  0.11324314254E+02  0.51100000000E-03 0.  1.
         12    1    3    3    0    0 -0.40878242472E+00  0.19676713705E+02  0.56234532671E+01  0.20468595260E+02  0.00000000000E+00 0. -1.
</event>
<event>
 7    1  0.2476315E-009  0.4778727E+02  0.7816164E-02  0.1312668E+00
        -11   -1    0    0    0    0  0.00000000000E+00  0.00000000000E+00  0.45593999997E+02  0.45594000000E+02  0.51100000000E-03 0.  1.
         11   -1    0    0    0    0 -0.00000000000E+00 -0.00000000000E+00 -0.45593999997E+02  0.45594000000E+02  0.51100000000E-03 0. -1.
    9900012    2    1    2    0    0  0.18243803946E+02 -0.42299041679E+01  0.39152199295E+02  0.47787272111E+02  0.20000004863E+02 0.  0.
         12    1    1    2    0    0 -0.18243803946E+02  0.42299041679E+01 -0.39152199295E+02  0.43400727889E+02  0.00000000000E+00 0. -1.
         11    1    3    3    0    0 -0.28858831829E+01  0.93099152033E-01  0.42049127266E+01  0.51008117488E+01  0.51100000000E-03 0. -1.
        -11    1    3    3    0    0  0.16263275704E+02 -0.66848008142E+01  0.19195043963E+02  0.26031335186E+02  0.51100000000E-03 0.  1.
        -12    1    3    3    0    0  0.48664114253E+01  0.23617974943E+01  0.15752242605E+02  0.16655125176E+02  0.00000000000E+00 0.  1.
</event>
<event>
 7    1  0.2476315E-009  0.4778727E+02  0.7816164E-02  0.1312668E+00
        -11   -1    0    0    0    0  0.00000000000E+00  0.00000000000E+00  0.45593999997E+02  0.45594000000E+02  0.51100000000E-03 0.  1.
         11   -1    0    0    0    0 -0.00000000000E+00 -0.00000000000E+00 -0.45593999997E+02  0.45594000000E+02  0.51100000000E-03 0. -1.
    9900012    2    1    2    0    0 -0.25602717577E+02  0.30966654227E+02  0.16407036495E+02  0.47787266506E+02  0.19999979306E+02 0.  0.
         12    1    1    2    0    0  0.25602717577E+02 -0.30966654227E+02 -0.16407036495E+02  0.43400733494E+02  0.00000000000E+00 0. -1.
         11    1    3    3    0    0 -0.41392850236E+01  0.14154466206E+02  0.90385347076E+01  0.17296754147E+02  0.51100000000E-03 0. -1.
        -11    1    3    3    0    0 -0.59136825675E+01  0.45922830568E+01 -0.31119926961E+01  0.81083416297E+01  0.51100000000E-03 0.  1.
        -12    1    3    3    0    0 -0.15549749986E+02  0.12219904964E+02  0.10480494483E+02  0.22382170729E+02  0.00000000000E+00 0.  1.
</event>
<event>
 7    1  0.2476315E-009  0.4778727E+02  0.7816164E-02  0.1312668E+00
        -11   -1    0    0    0    0  0.00000000000E+00  0.00000000000E+00  0.45593999997E+02  0.45594000000E+02  0.51100000000E-03 0. -1.
         11   -1    0    0    0    0 -0.00000000000E+00 -0.00000000000E+00 -0.45593999997E+02  0.45594000000E+02  0.51100000000E-03 0.  1.
    9900012    2    1    2    0    0 -0.41636128545E+02  0.12227183583E+02  0.74312958126E+00  0.47787268898E+02  0.19999990213E+02 0.  0.
         12    1    1    2    0    0  0.41636128545E+02 -0.12227183583E+02 -0.74312958126E+00  0.43400731102E+02  0.00000000000E+00 0. -1.
         11    1    3    3    0    0 -0.23120194729E+02  0.70908720235E+01  0.67792555782E+01  0.25115377297E+02  0.51100000000E-03 0. -1.
        -11    1    3    3    0    0 -0.84484477161E+01 -0.29173560711E+01 -0.29856755373E+01  0.94234544586E+01  0.51100000000E-03 0.  1.
         12    1    3    3    0    0 -0.10067486101E+02  0.80536676310E+01 -0.30504504597E+01  0.13248437142E+02  0.00000000000E+00 0. -1.
</event>
<event>
 7    1  0.2476315E-009  0.4778725E+02  0.7816164E-02  0.1312668E+00
        -11   -1    0    0    0    0  0.00000000000E+00  0.00000000000E+00  0.45593999997E+02  0.45594000000E+02  0.51100000000E-03 0. -1.
         11   -1    0    0    0    0 -0.00000000000E+00 -0.00000000000E+00 -0.45593999997E+02  0.45594000000E+02  0.51100000000E-03 0.  1.
    9900012    2    1    2    0    0 -0.22979560099E+02 -0.13523303455E+02 -0.34244489793E+02  0.47787251160E+02  0.19999909339E+02 0.  0.
         12    1    1    2    0    0  0.22979560099E+02  0.13523303455E+02  0.34244489793E+02  0.43400748840E+02  0.00000000000E+00 0. -1.
         11    1    3    3    0    0  0.16931113390E+01  0.23735480391E+01 -0.36317042955E+01  0.46572129704E+01  0.51100000000E-03 0. -1.
        -11    1    3    3    0    0 -0.17285335584E+02 -0.87699047727E+01 -0.24284145856E+02  0.31071108705E+02  0.51100000000E-03 0.  1.
         12    1    3    3    0    0 -0.73873358544E+01 -0.71269467217E+01 -0.63286396414E+01  0.12058929484E+02  0.00000000000E+00 0. -1.
</event>
<event>
 7    1  0.2476315E-009  0.4778727E+02  0.7816164E-02  0.1312668E+00
        -11   -1    0    0    0    0  0.00000000000E+00  0.00000000000E+00  0.45593999997E+02  0.45594000000E+02  0.51100000000E-03 0. -1.
         11   -1    0    0    0    0 -0.00000000000E+00 -0.00000000000E+00 -0.45593999997E+02  0.45594000000E+02  0.51100000000E-03 0.  1.
    9900012    2    1    2    0    0 -0.26899825914E+02  0.27449755035E+02 -0.20162679454E+02  0.47787270415E+02  0.19999997132E+02 0.  0.
         12    1    1    2    0    0  0.26899825914E+02 -0.27449755035E+02  0.20162679454E+02  0.43400729585E+02  0.00000000000E+00 0. -1.
         11    1    3    3    0    0 -0.52834242584E+01  0.41887198297E+01  0.14457336935E+01  0.68956574654E+01  0.51100000000E-03 0. -1.
        -11    1    3    3    0    0 -0.15404481687E+02  0.11297752759E+02 -0.19409468758E+02  0.27233522563E+02  0.51100000000E-03 0.  1.
        -12    1    3    3    0    0 -0.62119199685E+01  0.11963282447E+02 -0.21989443898E+01  0.13658090387E+02  0.00000000000E+00 0.  1.
</event>
<event>
 7    1  0.2476315E-009  0.4778727E+02  0.7816164E-02  0.1312668E+00
        -11   -1    0    0    0    0  0.00000000000E+00  0.00000000000E+00  0.45593999997E+02  0.45594000000E+02  0.51100000000E-03 0.  1.
         11   -1    0    0    0    0 -0.00000000000E+00 -0.00000000000E+00 -0.45593999997E+02  0.45594000000E+02  0.51100000000E-03 0. -1.
    9900012    2    1    2    0    0 -0.19722237766E+02 -0.37687002302E+02  0.86224511258E+01  0.47787268804E+02  0.19999989783E+02 0.  0.
         12    1    1    2    0    0  0.19722237766E+02  0.37687002302E+02 -0.86224511258E+01  0.43400731196E+02  0.00000000000E+00 0. -1.
         11    1    3    3    0    0  0.35751498754E+01 -0.75020495420E+01 -0.39081879385E-01  0.83104736096E+01  0.51100000000E-03 0. -1.
        -11    1    3    3    0    0 -0.11971218284E+02 -0.19138332712E+02  0.35569935455E+01  0.22852528297E+02  0.51100000000E-03 0.  1.
         12    1    3    3    0    0 -0.11326169357E+02 -0.11046620047E+02  0.51045394597E+01  0.16624266897E+02  0.00000000000E+00 0. -1.
</event>
<event>
 7    1  0.2476315E-009  0.4778727E+02  0.7816164E-02  0.1312668E+00
        -11   -1    0    0    0    0  0.00000000000E+00  0.00000000000E+00  0.45593999997E+02  0.45594000000E+02  0.51100000000E-03 0. -1.
         11   -1    0    0    0    0 -0.00000000000E+00 -0.00000000000E+00 -0.45593999997E+02  0.45594000000E+02  0.51100000000E-03 0.  1.
    9900012    2    1    2    0    0  0.20279388862E+02 -0.36027451050E+02 -0.13205781588E+02  0.47787268334E+02  0.19999987643E+02 0.  0.
         12    1    1    2    0    0 -0.20279388862E+02  0.36027451050E+02  0.13205781588E+02  0.43400731666E+02  0.00000000000E+00 0. -1.
         11    1    3    3    0    0  0.10769707728E+01  0.21217840577E+01 -0.16824051684E+01  0.29141587199E+01  0.51100000000E-03 0. -1.
        -11    1    3    3    0    0  0.11524737200E+02 -0.22731573865E+02 -0.30188938183E+01  0.25664328124E+02  0.51100000000E-03 0.  1.
        -12    1    3    3    0    0  0.76776808895E+01 -0.15417661243E+02 -0.85044826010E+01  0.19208781491E+02  0.00000000000E+00 0.  1.
</event>
<event>
 7    1  0.2476315E-009  0.4778727E+02  0.7816164E-02  0.1312668E+00
        -11   -1    0    0    0    0  0.00000000000E+00  0.00000000000E+00  0.45593999997E+02  0.45594000000E+02  0.51100000000E-03 0.  1.
         11   -1    0    0    0    0 -0.00000000000E+00 -0.00000000000E+00 -0.45593999997E+02  0.45594000000E+02  0.51100000000E-03 0. -1.
    9900012    2    1    2    0    0 -0.42162634202E+02 -0.97049259882E+01  0.34277992322E+01  0.47787272830E+02  0.20000008141E+02 0.  0.
         12    1    1    2    0    0  0.42162634202E+02  0.97049259882E+01 -0.34277992322E+01  0.43400727170E+02  0.00000000000E+00 0. -1.
         11    1    3    3    0    0  0.74896556605E-01  0.15480275747E+01  0.25814489243E+01  0.30109595939E+01  0.51100000000E-03 0. -1.
        -11    1    3    3    0    0 -0.25123610764E+02 -0.83452567731E+01  0.49657281855E+01  0.26935062374E+02  0.51100000000E-03 0.  1.
         12    1    3    3    0    0 -0.17113919995E+02 -0.29076967898E+01 -0.41193778776E+01  0.17841250862E+02  0.00000000000E+00 0. -1.
</event>
<event>
 7    1  0.2476315E-009  0.4778727E+02  0.7816164E-02  0.1312668E+00
        -11   -1    0    0    0    0  0.00000000000E+00  0.00000000000E+00  0.45593999997E+02  0.45594000000E+02  0.51100000000E-03 0. -1.
         11   -1    0    0    0    0 -0.00000000000E+00 -0.00000000000E+00 -0.45593999997E+02  0.45594000000E+02  0.51100000000E-03 0.  1.
    9900012    2    1    2    0    0 -0.32170831564E+02 -0.16908328790E+02 -0.23722757437E+02  0.47787271822E+02  0.20000003544E+02 0.  0.
         12    1    1    2    0    0  0.32170831564E+02  0.16908328790E+02  0.23722757437E+02  0.43400728178E+02  0.00000000000E+00 0. -1.
         11    1    3    3    0    0 -0.87446161660E+01 -0.50093121673E+01  0.11615821858E+01  0.10144495735E+02  0.51100000000E-03 0. -1.
        -11    1    3    3    0    0 -0.15261497812E+02 -0.12736127443E+02 -0.19371528601E+02  0.27755690918E+02  0.51100000000E-03 0.  1.
         12    1    3    3    0    0 -0.81647175863E+01  0.83711082001E+00 -0.55128110210E+01  0.98870851692E+01  0.00000000000E+00 0. -1.
</event>
<event>
 7    1  0.2476315E-009  0.4778727E+02  0.7816164E-02  0.1312668E+00
        -11   -1    0    0    0    0  0.00000000000E+00  0.00000000000E+00  0.45593999997E+02  0.45594000000E+02  0.51100000000E-03 0. -1.
         11   -1    0    0    0    0 -0.00000000000E+00 -0.00000000000E+00 -0.45593999997E+02  0.45594000000E+02  0.51100000000E-03 0.  1.
    9900012    2    1    2    0    0 -0.66736080911E+01  0.28189455575E+02 -0.32317806286E+02  0.47787273581E+02  0.20000011564E+02 0.  0.
         12    1    1    2    0    0  0.66736080911E+01 -0.28189455575E+02  0.32317806286E+02  0.43400726419E+02  0.00000000000E+00 0. -1.
         11    1    3    3    0    0 -0.81346035487E+01  0.53746800370E+01 -0.23639009669E+01  0.10032297266E+02  0.51100000000E-03 0. -1.
        -11    1    3    3    0    0  0.97656769840E-01  0.13404122150E+02 -0.16064574318E+02  0.20922489712E+02  0.51100000000E-03 0.  1.
         12    1    3    3    0    0  0.13633386877E+01  0.94106533880E+01 -0.13889331001E+02  0.16832486603E+02  0.00000000000E+00 0. -1.
</event>
<event>
 7    1  0.2476315E-009  0.4778726E+02  0.7816164E-02  0.1312668E+00
        -11   -1    0    0    0    0  0.00000000000E+00  0.00000000000E+00  0.45593999997E+02  0.45594000000E+02  0.51100000000E-03 0.  1.
         11   -1    0    0    0    0 -0.00000000000E+00 -0.00000000000E+00 -0.45593999997E+02  0.45594000000E+02  0.51100000000E-03 0. -1.
    9900012    2    1    2    0    0  0.18492732535E+01 -0.21075259333E+02  0.37895088917E+02  0.47787261164E+02  0.19999954950E+02 0.  0.
         12    1    1    2    0    0 -0.18492732535E+01  0.21075259333E+02 -0.37895088917E+02  0.43400738836E+02  0.00000000000E+00 0. -1.
         11    1    3    3    0    0  0.42497095001E+01 -0.20810575275E+00  0.10725532220E+02  0.11538647256E+02  0.51100000000E-03 0. -1.
        -11    1    3    3    0    0 -0.54383660086E+01 -0.17826304598E+02  0.25615041354E+02  0.31677804601E+02  0.51100000000E-03 0.  1.
         12    1    3    3    0    0  0.30379297620E+01 -0.30408489815E+01  0.15545153425E+01  0.45708093066E+01  0.00000000000E+00 0. -1.
</event>
<event>
 7    1  0.2476315E-009  0.4778727E+02  0.7816164E-02  0.1312668E+00
        -11   -1    0    0    0    0  0.00000000000E+00  0.00000000000E+00  0.45593999997E+02  0.45594000000E+02  0.51100000000E-03 0.  1.
         11   -1    0    0    0    0 -0.00000000000E+00 -0.00000000000E+00 -0.45593999997E+02  0.45594000000E+02  0.51100000000E-03 0. -1.
    9900012    2    1    2    0    0  0.31822763618E+02  0.29511575849E+02 -0.45696662053E-01  0.47787268651E+02  0.19999989089E+02 0.  0.
         12    1    1    2    0    0 -0.31822763618E+02 -0.29511575849E+02  0.45696662053E-01  0.43400731349E+02  0.00000000000E+00 0. -1.
         11    1    3    3    0    0  0.51807819300E+01  0.64227241747E+01  0.70102293301E+01  0.10827520619E+02  0.51100000000E-03 0. -1.
        -11    1    3    3    0    0  0.68413617873E+01  0.66987771910E+01 -0.58644663329E+01  0.11228081430E+02  0.51100000000E-03 0.  1.
         12    1    3    3    0    0  0.19800619901E+02  0.16390074483E+02 -0.11914596592E+01  0.25731666603E+02  0.00000000000E+00 0. -1.
</event>
<event>
 7    1  0.2476315E-009  0.4778728E+02  0.7816164E-02  0.1312668E+00
        -11   -1    0    0    0    0  0.00000000000E+00  0.00000000000E+00  0.45593999997E+02  0.45594000000E+02  0.51100000000E-03 0. -1.
         11   -1    0    0    0    0 -0.00000000000E+00 -0.00000000000E+00 -0.45593999997E+02  0.45594000000E+02  0.51100000000E-03 0.  1.
    9900012    2    1    2    0    0 -0.25132490040E+02 -0.35360445887E+02 -0.12724564387E+01  0.47787281869E+02  0.20000049352E+02 0.  0.
         12    1    1    2    0    0  0.25132490040E+02  0.35360445887E+02  0.12724564387E+01  0.43400718131E+02  0.00000000000E+00 0. -1.
         11    1    3    3    0    0 -0.11028849185E+01 -0.13946469031E+02 -0.34579700501E+00  0.13994282025E+02  0.51100000000E-03 0. -1.
        -11    1    3    3    0    0 -0.22873474363E+02 -0.15970835190E+02  0.96956528850E+00  0.27914216149E+02  0.51100000000E-03 0.  1.
        -12    1    3    3    0    0 -0.11561307579E+01 -0.54431416664E+01 -0.18962247222E+01  0.58787836945E+01  0.00000000000E+00 0.  1.
</event>
<event>
 7    1  0.2476315E-009  0.4778727E+02  0.7816164E-02  0.1312668E+00
        -11   -1    0    0    0    0  0.00000000000E+00  0.00000000000E+00  0.45593999997E+02  0.45594000000E+02  0.51100000000E-03 0.  1.
         11   -1    0    0    0    0 -0.00000000000E+00 -0.00000000000E+00 -0.45593999997E+02  0.45594000000E+02  0.51100000000E-03 0. -1.
    9900012    2    1    2    0    0 -0.11701552831E+01  0.15404075823E+02  0.40558211373E+02  0.47787270454E+02  0.19999997307E+02 0.  0.
         12    1    1    2    0    0  0.11701552831E+01 -0.15404075823E+02 -0.40558211373E+02  0.43400729546E+02  0.00000000000E+00 0. -1.
         11    1    3    3    0    0  0.15639997564E+01  0.63337647299E+01  0.41961382062E+01  0.77569483045E+01  0.51100000000E-03 0. -1.
        -11    1    3    3    0    0 -0.40060299825E+01 -0.80888158056E+00  0.23021182659E+02  0.23381133782E+02  0.51100000000E-03 0.  1.
        -12    1    3    3    0    0  0.12718749430E+01  0.98791926735E+01  0.13340890508E+02  0.16649188368E+02  0.00000000000E+00 0.  1.
</event>
<event>
 7    1  0.2476315E-009  0.4778727E+02  0.7816164E-02  0.1312668E+00
        -11   -1    0    0    0    0  0.00000000000E+00  0.00000000000E+00  0.45593999997E+02  0.45594000000E+02  0.51100000000E-03 0.  1.
         11   -1    0    0    0    0 -0.00000000000E+00 -0.00000000000E+00 -0.45593999997E+02  0.45594000000E+02  0.51100000000E-03 0. -1.
    9900012    2    1    2    0    0 -0.10574741335E+02  0.16672314882E+02  0.38650124466E+02  0.47787270063E+02  0.19999995524E+02 0.  0.
         12    1    1    2    0    0  0.10574741335E+02 -0.16672314882E+02 -0.38650124466E+02  0.43400729937E+02  0.00000000000E+00 0. -1.
         11    1    3    3    0    0  0.17526970247E+01 -0.23257347555E+01  0.38624649666E+00  0.29377160568E+01  0.51100000000E-03 0. -1.
        -11    1    3    3    0    0 -0.12711613278E+02  0.16783225767E+02  0.35643415965E+02  0.41397039522E+02  0.51100000000E-03 0.  1.
        -12    1    3    3    0    0  0.38417491770E+00  0.22148238708E+01  0.26204620047E+01  0.34525144843E+01  0.00000000000E+00 0.  1.
</event>
<event>
 7    1  0.2476315E-009  0.4778723E+02  0.7816164E-02  0.1312668E+00
        -11   -1    0    0    0    0  0.00000000000E+00  0.00000000000E+00  0.45593999997E+02  0.45594000000E+02  0.51100000000E-03 0.  1.
         11   -1    0    0    0    0 -0.00000000000E+00 -0.00000000000E+00 -0.45593999997E+02  0.45594000000E+02  0.51100000000E-03 0. -1.
    9900012    2    1    2    0    0  0.28928833005E+02  0.11856342338E+02  0.30102766212E+02  0.47787230810E+02  0.19999816553E+02 0.  0.
         12    1    1    2    0    0 -0.28928833005E+02 -0.11856342338E+02 -0.30102766212E+02  0.43400769190E+02  0.00000000000E+00 0. -1.
         11    1    3    3    0    0  0.13498349696E+02  0.11722100814E+02  0.68268072058E+01  0.19136833304E+02  0.51100000000E-03 0. -1.
        -11    1    3    3    0    0  0.10512912697E+02  0.27984469639E+01  0.17533848294E+02  0.20634642596E+02  0.51100000000E-03 0.  1.
         12    1    3    3    0    0  0.49175706121E+01 -0.26642054400E+01  0.57421107121E+01  0.80157549103E+01  0.00000000000E+00 0. -1.
</event>
<event>
 7    1  0.2476315E-009  0.4778727E+02  0.7816164E-02  0.1312668E+00
        -11   -1    0    0    0    0  0.00000000000E+00  0.00000000000E+00  0.45593999997E+02  0.45594000000E+02  0.51100000000E-03 0.  1.
         11   -1    0    0    0    0 -0.00000000000E+00 -0.00000000000E+00 -0.45593999997E+02  0.45594000000E+02  0.51100000000E-03 0. -1.
    9900012    2    1    2    0    0 -0.12497093934E+02 -0.41545498515E+02  0.11905283576E+01  0.47787272340E+02  0.20000005906E+02 0.  0.
         12    1    1    2    0    0  0.12497093934E+02  0.41545498515E+02 -0.11905283576E+01  0.43400727660E+02  0.00000000000E+00 0. -1.
         11    1    3    3    0    0 -0.14997844487E+02 -0.27369024270E+02  0.29118481577E+01  0.31344500135E+02  0.51100000000E-03 0.  1.
        -11    1    3    3    0    0  0.17361147039E+01 -0.75085071669E+01 -0.47782644012E+01  0.90677221555E+01  0.51100000000E-03 0. -1.
         12    1    3    3    0    0  0.76463584925E+00 -0.66679670782E+01  0.30569446011E+01  0.73750500495E+01  0.00000000000E+00 0. -1.
</event>
<event>
 7    1  0.2476315E-009  0.4778728E+02  0.7816164E-02  0.1312668E+00
        -11   -1    0    0    0    0  0.00000000000E+00  0.00000000000E+00  0.45593999997E+02  0.45594000000E+02  0.51100000000E-03 0.  1.
         11   -1    0    0    0    0 -0.00000000000E+00 -0.00000000000E+00 -0.45593999997E+02  0.45594000000E+02  0.51100000000E-03 0. -1.
    9900012    2    1    2    0    0 -0.65678515595E+01 -0.31145431674E+02  0.29503361505E+02  0.47787275025E+02  0.20000018150E+02 0.  0.
         12    1    1    2    0    0  0.65678515595E+01  0.31145431674E+02 -0.29503361505E+02  0.43400724975E+02  0.00000000000E+00 0. -1.
         11    1    3    3    0    0 -0.32667134084E+01 -0.25969792360E+02  0.16640113029E+02  0.31016042520E+02  0.51100000000E-03 0. -1.
        -11    1    3    3    0    0  0.23044589262E+01 -0.45206509935E+01  0.53387909832E+01  0.73654263808E+01  0.51100000000E-03 0.  1.
         12    1    3    3    0    0 -0.56055970774E+01 -0.65498832050E+00  0.75244574928E+01  0.94058061247E+01  0.00000000000E+00 0. -1.
</event>
<event>
 7    1  0.2476315E-009  0.4778728E+02  0.7816164E-02  0.1312668E+00
        -11   -1    0    0    0    0  0.00000000000E+00  0.00000000000E+00  0.45593999997E+02  0.45594000000E+02  0.51100000000E-03 0. -1.
         11   -1    0    0    0    0 -0.00000000000E+00 -0.00000000000E+00 -0.45593999997E+02  0.45594000000E+02  0.51100000000E-03 0.  1.
    9900012    2    1    2    0    0 -0.93256559711E+01 -0.23984965967E+02 -0.34948193027E+02  0.47787278260E+02  0.20000032898E+02 0.  0.
         12    1    1    2    0    0  0.93256559711E+01  0.23984965967E+02  0.34948193027E+02  0.43400721740E+02  0.00000000000E+00 0. -1.
         11    1    3    3    0    0 -0.68310188965E+01 -0.10708195306E+02 -0.51742910188E+01  0.13715011983E+02  0.51100000000E-03 0. -1.
        -11    1    3    3    0    0 -0.28974122595E+01 -0.14043728842E+02 -0.29933963599E+02  0.33191316554E+02  0.51100000000E-03 0.  1.
        -12    1    3    3    0    0  0.40277518494E+00  0.76695818126E+00  0.16006159086E+00  0.88094972290E+00  0.00000000000E+00 0.  1.
</event>
<event>
 7    1  0.2476315E-009  0.4778727E+02  0.7816164E-02  0.1312668E+00
        -11   -1    0    0    0    0  0.00000000000E+00  0.00000000000E+00  0.45593999997E+02  0.45594000000E+02  0.51100000000E-03 0. -1.
         11   -1    0    0    0    0 -0.00000000000E+00 -0.00000000000E+00 -0.45593999997E+02  0.45594000000E+02  0.51100000000E-03 0.  1.
    9900012    2    1    2    0    0 -0.20614177013E+02 -0.36238265851E+02 -0.12060964272E+02  0.47787273451E+02  0.20000010972E+02 0.  0.
         12    1    1    2    0    0  0.20614177013E+02  0.36238265851E+02  0.12060964272E+02  0.43400726549E+02  0.00000000000E+00 0. -1.
         11    1    3    3    0    0 -0.17978735585E+01 -0.74194668078E+00  0.30771706214E+01  0.36403040400E+01  0.51100000000E-03 0. -1.
        -11    1    3    3    0    0 -0.19567154761E+02 -0.35663006140E+02 -0.15048719331E+02  0.43372658509E+02  0.51100000000E-03 0.  1.
        -12    1    3    3    0    0  0.75085130669E+00  0.16668696924E+00 -0.89415562304E-01  0.77431090219E+00  0.00000000000E+00 0.  1.
</event>
<event>
 7    1  0.2476315E-009  0.4778726E+02  0.7816164E-02  0.1312668E+00
        -11   -1    0    0    0    0  0.00000000000E+00  0.00000000000E+00  0.45593999997E+02  0.45594000000E+02  0.51100000000E-03 0.  1.
         11   -1    0    0    0    0 -0.00000000000E+00 -0.00000000000E+00 -0.45593999997E+02  0.45594000000E+02  0.51100000000E-03 0. -1.
    9900012    2    1    2    0    0  0.99671123873E+01  0.29059944001E+02  0.30656161849E+02  0.47787263440E+02  0.19999965327E+02 0.  0.
         12    1    1    2    0    0 -0.99671123873E+01 -0.29059944001E+02 -0.30656161849E+02  0.43400736560E+02  0.00000000000E+00 0. -1.
         11    1    3    3    0    0  0.92519968744E+01  0.62915813236E+01  0.10151765233E+02  0.15107672863E+02  0.51100000000E-03 0. -1.
        -11    1    3    3    0    0  0.52104087989E+01  0.54698958237E+01  0.66775426536E+01  0.10082544140E+02  0.51100000000E-03 0.  1.
         12    1    3    3    0    0 -0.44952932860E+01  0.17298466854E+02  0.13826853962E+02  0.22597046437E+02  0.00000000000E+00 0. -1.
</event>
<event>
 7    1  0.2476315E-009  0.4778727E+02  0.7816164E-02  0.1312668E+00
        -11   -1    0    0    0    0  0.00000000000E+00  0.00000000000E+00  0.45593999997E+02  0.45594000000E+02  0.51100000000E-03 0.  1.
         11   -1    0    0    0    0 -0.00000000000E+00 -0.00000000000E+00 -0.45593999997E+02  0.45594000000E+02  0.51100000000E-03 0. -1.
    9900012    2    1    2    0    0 -0.23209045510E+02 -0.12063284642E+02  0.34632949060E+02  0.47787265094E+02  0.19999972867E+02 0.  0.
         12    1    1    2    0    0  0.23209045510E+02  0.12063284642E+02 -0.34632949060E+02  0.43400734906E+02  0.00000000000E+00 0. -1.
         11    1    3    3    0    0 -0.29806265929E+01  0.43175641332E+01  0.65593797225E+01  0.83994617408E+01  0.51100000000E-03 0. -1.
        -11    1    3    3    0    0 -0.95400186773E+01 -0.52629939160E+01  0.17756382133E+02  0.20832670689E+02  0.51100000000E-03 0.  1.
         12    1    3    3    0    0 -0.10688400239E+02 -0.11117854859E+02  0.10317187205E+02  0.18555132664E+02  0.00000000000E+00 0. -1.
</event>
<event>
 7    1  0.2476315E-009  0.4778727E+02  0.7816164E-02  0.1312668E+00
        -11   -1    0    0    0    0  0.00000000000E+00  0.00000000000E+00  0.45593999997E+02  0.45594000000E+02  0.51100000000E-03 0. -1.
         11   -1    0    0    0    0 -0.00000000000E+00 -0.00000000000E+00 -0.45593999997E+02  0.45594000000E+02  0.51100000000E-03 0.  1.
    9900012    2    1    2    0    0  0.21921642547E+02  0.32693906509E+02 -0.18280417684E+02  0.47787267224E+02  0.19999982581E+02 0.  0.
         12    1    1    2    0    0 -0.21921642547E+02 -0.32693906509E+02  0.18280417684E+02  0.43400732776E+02  0.00000000000E+00 0. -1.
         11    1    3    3    0    0 -0.96097012768E+00  0.45415784580E+01  0.94962482254E+00  0.47382682534E+01  0.51100000000E-03 0. -1.
        -11    1    3    3    0    0  0.11172586856E+02  0.14797445316E+02 -0.16986423587E+02  0.25146166139E+02  0.51100000000E-03 0.  1.
        -12    1    3    3    0    0  0.11710025819E+02  0.13354882735E+02 -0.22436189192E+01  0.17902832832E+02  0.00000000000E+00 0.  1.
</event>
<event>
 7    1  0.2476315E-009  0.4778727E+02  0.7816164E-02  0.1312668E+00
        -11   -1    0    0    0    0  0.00000000000E+00  0.00000000000E+00  0.45593999997E+02  0.45594000000E+02  0.51100000000E-03 0.  1.
         11   -1    0    0    0    0 -0.00000000000E+00 -0.00000000000E+00 -0.45593999997E+02  0.45594000000E+02  0.51100000000E-03 0. -1.
    9900012    2    1    2    0    0 -0.16786917953E+02  0.39529670752E+02  0.62632229041E+01  0.47787269070E+02  0.19999990998E+02 0.  0.
         12    1    1    2    0    0  0.16786917953E+02 -0.39529670752E+02 -0.62632229041E+01  0.43400730930E+02  0.00000000000E+00 0. -1.
         11    1    3    3    0    0 -0.15174808235E+02  0.22667562133E+02 -0.27310326574E+01  0.27414443596E+02  0.51100000000E-03 0. -1.
        -11    1    3    3    0    0  0.15125269743E+00  0.14180787880E+02  0.95752161454E+01  0.17111469451E+02  0.51100000000E-03 0.  1.
        -12    1    3    3    0    0 -0.17633624150E+01  0.26813207389E+01 -0.58096058381E+00  0.32613560234E+01  0.00000000000E+00 0.  1.
</event>
<event>
 7    1  0.2476315E-009  0.4778725E+02  0.7816164E-02  0.1312668E+00
        -11   -1    0    0    0    0  0.00000000000E+00  0.00000000000E+00  0.45593999997E+02  0.45594000000E+02  0.51100000000E-03 0.  1.
         11   -1    0    0    0    0 -0.00000000000E+00 -0.00000000000E+00 -0.45593999997E+02  0.45594000000E+02  0.51100000000E-03 0. -1.
    9900012    2    1    2    0    0  0.22984117463E+02  0.33668207991E+02  0.14893189694E+02  0.47787251341E+02  0.19999910165E+02 0.  0.
         12    1    1    2    0    0 -0.22984117463E+02 -0.33668207991E+02 -0.14893189694E+02  0.43400748659E+02  0.00000000000E+00 0. -1.
         11    1    3    3    0    0  0.59892341888E+01  0.13207384327E+02  0.13370962135E+02  0.19725327770E+02  0.51100000000E-03 0. -1.
        -11    1    3    3    0    0  0.76208506962E+01  0.10744151139E+02  0.50499648518E+01  0.14107313504E+02  0.51100000000E-03 0.  1.
         12    1    3    3    0    0  0.93740325779E+01  0.97166725253E+01 -0.35277372932E+01  0.13954610068E+02  0.00000000000E+00 0. -1.
</event>
<event>
 7    1  0.2476315E-009  0.4778727E+02  0.7816164E-02  0.1312668E+00
        -11   -1    0    0    0    0  0.00000000000E+00  0.00000000000E+00  0.45593999997E+02  0.45594000000E+02  0.51100000000E-03 0.  1.
         11   -1    0    0    0    0 -0.00000000000E+00 -0.00000000000E+00 -0.45593999997E+02  0.45594000000E+02  0.51100000000E-03 0. -1.
    9900012    2    1    2    0    0 -0.12700709474E+01  0.82327680544E+01  0.42593796965E+02  0.47787273164E+02  0.20000009662E+02 0.  0.
         12    1    1    2    0    0  0.12700709474E+01 -0.82327680544E+01 -0.42593796965E+02  0.43400726836E+02  0.00000000000E+00 0. -1.
         11    1    3    3    0    0 -0.49140811186E+01 -0.27404867170E+01  0.92116475879E+01  0.10794114703E+02  0.51100000000E-03 0. -1.
        -11    1    3    3    0    0  0.39746990522E+01  0.69305839669E+01  0.80620885211E+01  0.11350264237E+02  0.51100000000E-03 0.  1.
        -12    1    3    3    0    0 -0.33068888103E+00  0.40426708045E+01  0.25320060856E+02  0.25642894223E+02  0.00000000000E+00 0.  1.
</event>
<event>
 7    1  0.2476315E-009  0.4778727E+02  0.7816164E-02  0.1312668E+00
        -11   -1    0    0    0    0  0.00000000000E+00  0.00000000000E+00  0.45593999997E+02  0.45594000000E+02  0.51100000000E-03 0.  1.
         11   -1    0    0    0    0 -0.00000000000E+00 -0.00000000000E+00 -0.45593999997E+02  0.45594000000E+02  0.51100000000E-03 0. -1.
    9900012    2    1    2    0    0  0.12539569220E+02 -0.39859085412E+02  0.11731823618E+02  0.47787272224E+02  0.20000005378E+02 0.  0.
         12    1    1    2    0    0 -0.12539569220E+02  0.39859085412E+02 -0.11731823618E+02  0.43400727776E+02  0.00000000000E+00 0. -1.
         11    1    3    3    0    0  0.85697870844E+00 -0.20388050831E+02  0.11510112791E+02  0.23428395718E+02  0.51100000000E-03 0. -1.
        -11    1    3    3    0    0  0.10251350676E+02 -0.19632900342E+02 -0.13969225385E+01  0.22192168875E+02  0.51100000000E-03 0.  1.
        -12    1    3    3    0    0  0.14312398356E+01  0.16186576069E+00  0.16186333646E+01  0.21667076315E+01  0.00000000000E+00 0.  1.
</event>
<event>
 7    1  0.2476315E-009  0.4778727E+02  0.7816164E-02  0.1312668E+00
        -11   -1    0    0    0    0  0.00000000000E+00  0.00000000000E+00  0.45593999997E+02  0.45594000000E+02  0.51100000000E-03 0.  1.
         11   -1    0    0    0    0 -0.00000000000E+00 -0.00000000000E+00 -0.45593999997E+02  0.45594000000E+02  0.51100000000E-03 0. -1.
    9900012    2    1    2    0    0 -0.32643687819E+02  0.28589099693E+02  0.82240796723E+00  0.47787270392E+02  0.19999997025E+02 0.  0.
         12    1    1    2    0    0  0.32643687819E+02 -0.28589099693E+02 -0.82240796723E+00  0.43400729608E+02  0.00000000000E+00 0. -1.
         11    1    3    3    0    0 -0.42538025251E+01  0.83004709785E+01 -0.38213060745E+00  0.93348100382E+01  0.51100000000E-03 0. -1.
        -11    1    3    3    0    0 -0.16619473988E+02  0.20647775990E+02  0.24113926079E+01  0.26614890260E+02  0.51100000000E-03 0.  1.
        -12    1    3    3    0    0 -0.11770411305E+02 -0.35914727600E+00 -0.12068540332E+01  0.11837570094E+02  0.00000000000E+00 0.  1.
</event>
<event>
 7    1  0.2476315E-009  0.4778727E+02  0.7816164E-02  0.1312668E+00
        -11   -1    0    0    0    0  0.00000000000E+00  0.00000000000E+00  0.45593999997E+02  0.45594000000E+02  0.51100000000E-03 0.  1.
         11   -1    0    0    0    0 -0.00000000000E+00 -0.00000000000E+00 -0.45593999997E+02  0.45594000000E+02  0.51100000000E-03 0. -1.
    9900012    2    1    2    0    0 -0.48703944596E+01  0.31944145270E+02  0.28973682300E+02  0.47787269301E+02  0.19999992049E+02 0.  0.
         12    1    1    2    0    0  0.48703944596E+01 -0.31944145270E+02 -0.28973682300E+02  0.43400730699E+02  0.00000000000E+00 0. -1.
         11    1    3    3    0    0  0.16623909053E+01  0.10243983170E+02  0.19269207702E+02  0.21886185150E+02  0.51100000000E-03 0. -1.
        -11    1    3    3    0    0 -0.31537209033E+01  0.54457768465E+01  0.63958551072E+01  0.89727032611E+01  0.51100000000E-03 0.  1.
         12    1    3    3    0    0 -0.33790644617E+01  0.16254385253E+02  0.33086194909E+01  0.16928380889E+02  0.00000000000E+00 0. -1.
</event>
<event>
 7    1  0.2476315E-009  0.4778727E+02  0.7816164E-02  0.1312668E+00
        -11   -1    0    0    0    0  0.00000000000E+00  0.00000000000E+00  0.45593999997E+02  0.45594000000E+02  0.51100000000E-03 0.  1.
         11   -1    0    0    0    0 -0.00000000000E+00 -0.00000000000E+00 -0.45593999997E+02  0.45594000000E+02  0.51100000000E-03 0. -1.
    9900012    2    1    2    0    0  0.40797333589E+02  0.51824515630E+01  0.13868777722E+02  0.47787271577E+02  0.20000002426E+02 0.  0.
         12    1    1    2    0    0 -0.40797333589E+02 -0.51824515630E+01 -0.13868777722E+02  0.43400728423E+02  0.00000000000E+00 0. -1.
         11    1    3    3    0    0  0.16101511583E+02  0.49809611881E+01 -0.70549784496E+00  0.16869095325E+02  0.51100000000E-03 0. -1.
        -11    1    3    3    0    0  0.16009820563E+02 -0.52070573771E+01  0.72252016960E+01  0.18320244016E+02  0.51100000000E-03 0.  1.
        -12    1    3    3    0    0  0.86860014429E+01  0.54085477520E+01  0.73490738712E+01  0.12597932236E+02  0.00000000000E+00 0.  1.
</event>
<event>
 7    1  0.2476315E-009  0.4778727E+02  0.7816164E-02  0.1312668E+00
        -11   -1    0    0    0    0  0.00000000000E+00  0.00000000000E+00  0.45593999997E+02  0.45594000000E+02  0.51100000000E-03 0.  1.
         11   -1    0    0    0    0 -0.00000000000E+00 -0.00000000000E+00 -0.45593999997E+02  0.45594000000E+02  0.51100000000E-03 0. -1.
    9900012    2    1    2    0    0  0.76537731658E+01  0.34637111745E+02  0.25006266670E+02  0.47787272743E+02  0.20000007744E+02 0.  0.
         12    1    1    2    0    0 -0.76537731658E+01 -0.34637111745E+02 -0.25006266670E+02  0.43400727257E+02  0.00000000000E+00 0. -1.
         11    1    3    3    0    0 -0.31890485452E+01  0.47905143263E+01  0.10074894830E+02  0.11602696421E+02  0.51100000000E-03 0. -1.
        -11    1    3    3    0    0  0.11612817470E+02  0.22590855920E+02  0.96280487095E+01  0.27164381514E+02  0.51100000000E-03 0.  1.
        -12    1    3    3    0    0 -0.76999575939E+00  0.72557414979E+01  0.53033231306E+01  0.90201948084E+01  0.00000000000E+00 0.  1.
</event>
<event>
 7    1  0.2476315E-009  0.4778727E+02  0.7816164E-02  0.1312668E+00
        -11   -1    0    0    0    0  0.00000000000E+00  0.00000000000E+00  0.45593999997E+02  0.45594000000E+02  0.51100000000E-03 0. -1.
         11   -1    0    0    0    0 -0.00000000000E+00 -0.00000000000E+00 -0.45593999997E+02  0.45594000000E+02  0.51100000000E-03 0.  1.
    9900012    2    1    2    0    0  0.29212787486E+02  0.14235286320E+02 -0.28767915501E+02  0.47787270840E+02  0.19999999070E+02 0.  0.
         12    1    1    2    0    0 -0.29212787486E+02 -0.14235286320E+02  0.28767915501E+02  0.43400729160E+02  0.00000000000E+00 0. -1.
         11    1    3    3    0    0  0.28640192090E+02  0.54942439130E+01 -0.23896386842E+02  0.37702581125E+02  0.51100000000E-03 0.  1.
        -11    1    3    3    0    0 -0.10269938096E-01  0.67695991762E+01 -0.35976785715E+01  0.76662161359E+01  0.51100000000E-03 0. -1.
        -12    1    3    3    0    0  0.58286533378E+00  0.19714432305E+01 -0.12738500880E+01  0.24184735796E+01  0.00000000000E+00 0.  1.
</event>
<event>
 7    1  0.2476315E-009  0.4778727E+02  0.7816164E-02  0.1312668E+00
        -11   -1    0    0    0    0  0.00000000000E+00  0.00000000000E+00  0.45593999997E+02  0.45594000000E+02  0.51100000000E-03 0.  1.
         11   -1    0    0    0    0 -0.00000000000E+00 -0.00000000000E+00 -0.45593999997E+02  0.45594000000E+02  0.51100000000E-03 0. -1.
    9900012    2    1    2    0    0 -0.43066955372E+02  0.23575052498E+01 -0.48272953445E+01  0.47787271246E+02  0.20000000919E+02 0.  0.
         12    1    1    2    0    0  0.43066955372E+02 -0.23575052498E+01  0.48272953445E+01  0.43400728754E+02  0.00000000000E+00 0. -1.
         11    1    3    3    0    0 -0.76322138000E+01 -0.43443300089E+01 -0.25766170557E+01  0.91522044573E+01  0.51100000000E-03 0. -1.
        -11    1    3    3    0    0 -0.11393828916E+02  0.18637322114E+01  0.56731028904E+01  0.12863783727E+02  0.51100000000E-03 0.  1.
        -12    1    3    3    0    0 -0.24040912657E+02  0.48381030473E+01 -0.79237811791E+01  0.25771283061E+02  0.00000000000E+00 0.  1.
</event>
<event>
 7    1  0.2476315E-009  0.4778727E+02  0.7816164E-02  0.1312668E+00
        -11   -1    0    0    0    0  0.00000000000E+00  0.00000000000E+00  0.45593999997E+02  0.45594000000E+02  0.51100000000E-03 0.  1.
         11   -1    0    0    0    0 -0.00000000000E+00 -0.00000000000E+00 -0.45593999997E+02  0.45594000000E+02  0.51100000000E-03 0. -1.
    9900012    2    1    2    0    0 -0.79641670199E+01 -0.19472918249E+02  0.37960517483E+02  0.47787269718E+02  0.19999993950E+02 0.  0.
         12    1    1    2    0    0  0.79641670199E+01  0.19472918249E+02 -0.37960517483E+02  0.43400730282E+02  0.00000000000E+00 0. -1.
         11    1    3    3    0    0 -0.95020863585E+01 -0.38969608764E+01  0.23076205842E+02  0.25258409007E+02  0.51100000000E-03 0. -1.
        -11    1    3    3    0    0  0.26642819152E+01 -0.11975505037E+02  0.14073566476E+02  0.18670200659E+02  0.51100000000E-03 0.  1.
         12    1    3    3    0    0 -0.11263625765E+01 -0.36004523354E+01  0.81074516487E+00  0.38586600518E+01  0.00000000000E+00 0. -1.
</event>
<event>
 7    1  0.2476315E-009  0.4778727E+02  0.7816164E-02  0.1312668E+00
        -11   -1    0    0    0    0  0.00000000000E+00  0.00000000000E+00  0.45593999997E+02  0.45594000000E+02  0.51100000000E-03 0.  1.
         11   -1    0    0    0    0 -0.00000000000E+00 -0.00000000000E+00 -0.45593999997E+02  0.45594000000E+02  0.51100000000E-03 0. -1.
    9900012    2    1    2    0    0  0.21487887399E+02  0.12444816253E+02  0.35595230650E+02  0.47787271878E+02  0.20000003803E+02 0.  0.
         12    1    1    2    0    0 -0.21487887399E+02 -0.12444816253E+02 -0.35595230650E+02  0.43400728122E+02  0.00000000000E+00 0. -1.
         11    1    3    3    0    0  0.32259411477E+01 -0.31133022668E+00 -0.38161900415E+00  0.32633198010E+01  0.51100000000E-03 0. -1.
        -11    1    3    3    0    0  0.10288678025E+02  0.13356595137E+02  0.30443084858E+02  0.34799956107E+02  0.51100000000E-03 0.  1.
        -12    1    3    3    0    0  0.79732682265E+01 -0.60044865761E+00  0.55337647965E+01  0.97239959700E+01  0.00000000000E+00 0.  1.
</event>
<event>
 7    1  0.2476315E-009  0.4778730E+02  0.7816164E-02  0.1312668E+00
        -11   -1    0    0    0    0  0.00000000000E+00  0.00000000000E+00  0.45593999997E+02  0.45594000000E+02  0.51100000000E-03 0.  1.
         11   -1    0    0    0    0 -0.00000000000E+00 -0.00000000000E+00 -0.45593999997E+02  0.45594000000E+02  0.51100000000E-03 0. -1.
    9900012    2    1    2    0    0  0.29147721231E+02 -0.81331064630E+01  0.31110834428E+02  0.47787296175E+02  0.20000114580E+02 0.  0.
         12    1    1    2    0    0 -0.29147721231E+02  0.81331064630E+01 -0.31110834428E+02  0.43400703825E+02  0.00000000000E+00 0. -1.
         11    1    3    3    0    0  0.68134591440E+01 -0.85598765669E+01  0.51315332081E+01  0.12084177493E+02  0.51100000000E-03 0. -1.
        -11    1    3    3    0    0  0.11324640628E+02  0.44416249710E+01  0.17170125552E+02  0.21042545698E+02  0.51100000000E-03 0.  1.
        -12    1    3    3    0    0  0.11009621458E+02 -0.40148548672E+01  0.88091756684E+01  0.14660572984E+02  0.00000000000E+00 0.  1.
</event>
<event>
 7    1  0.2476315E-009  0.4778727E+02  0.7816164E-02  0.1312668E+00
        -11   -1    0    0    0    0  0.00000000000E+00  0.00000000000E+00  0.45593999997E+02  0.45594000000E+02  0.51100000000E-03 0.  1.
         11   -1    0    0    0    0 -0.00000000000E+00 -0.00000000000E+00 -0.45593999997E+02  0.45594000000E+02  0.51100000000E-03 0. -1.
    9900012    2    1    2    0    0  0.16328087858E+02  0.28379468761E+02  0.28488990222E+02  0.47787271156E+02  0.20000000510E+02 0.  0.
         12    1    1    2    0    0 -0.16328087858E+02 -0.28379468761E+02 -0.28488990222E+02  0.43400728844E+02  0.00000000000E+00 0. -1.
         11    1    3    3    0    0  0.44598089562E+00  0.53372245992E+01 -0.47648161420E+00  0.53769787401E+01  0.51100000000E-03 0. -1.
        -11    1    3    3    0    0  0.43738015167E+01  0.14520086010E+02  0.21360249922E+02  0.26195864453E+02  0.51100000000E-03 0.  1.
        -12    1    3    3    0    0  0.11508305446E+02  0.85221581521E+01  0.76052219142E+01  0.16214427963E+02  0.00000000000E+00 0.  1.
</event>
<event>
 7    1  0.2476315E-009  0.4778725E+02  0.7816164E-02  0.1312668E+00
        -11   -1    0    0    0    0  0.00000000000E+00  0.00000000000E+00  0.45593999997E+02  0.45594000000E+02  0.51100000000E-03 0.  1.
         11   -1    0    0    0    0 -0.00000000000E+00 -0.00000000000E+00 -0.45593999997E+02  0.45594000000E+02  0.51100000000E-03 0. -1.
    9900012    2    1    2    0    0  0.39345903036E+02  0.16605311924E+02  0.77322838215E+01  0.47787254812E+02  0.19999925989E+02 0.  0.
         12    1    1    2    0    0 -0.39345903036E+02 -0.16605311924E+02 -0.77322838215E+01  0.43400745188E+02  0.00000000000E+00 0. -1.
         11    1    3    3    0    0  0.45959615658E+01 -0.28060304965E+01  0.16377341240E+01  0.56283961467E+01  0.51100000000E-03 0. -1.
        -11    1    3    3    0    0  0.25635167411E+02  0.20005862625E+02  0.57211653189E+01  0.33017087704E+02  0.51100000000E-03 0.  1.
        -12    1    3    3    0    0  0.91147740589E+01 -0.59452020442E+00  0.37338437861E+00  0.91417709615E+01  0.00000000000E+00 0.  1.
</event>
<event>
 7    1  0.2476315E-009  0.4778727E+02  0.7816164E-02  0.1312668E+00
        -11   -1    0    0    0    0  0.00000000000E+00  0.00000000000E+00  0.45593999997E+02  0.45594000000E+02  0.51100000000E-03 0.  1.
         11   -1    0    0    0    0 -0.00000000000E+00 -0.00000000000E+00 -0.45593999997E+02  0.45594000000E+02  0.51100000000E-03 0. -1.
    9900012    2    1    2    0    0  0.28083584794E+02  0.23096236914E+02  0.23695987869E+02  0.47787265725E+02  0.19999975748E+02 0.  0.
         12    1    1    2    0    0 -0.28083584794E+02 -0.23096236914E+02 -0.23695987869E+02  0.43400734275E+02  0.00000000000E+00 0. -1.
         11    1    3    3    0    0  0.71179905081E+01  0.94816602012E+01  0.31966874328E+01  0.12279514642E+02  0.51100000000E-03 0. -1.
        -11    1    3    3    0    0  0.17343944924E+02  0.76883462744E+01  0.21291390170E+02  0.28517475162E+02  0.51100000000E-03 0.  1.
        -12    1    3    3    0    0  0.36216493621E+01  0.59262304385E+01 -0.79208973389E+00  0.69902759215E+01  0.00000000000E+00 0.  1.
</event>
<event>
 7    1  0.2476315E-009  0.4778727E+02  0.7816164E-02  0.1312668E+00
        -11   -1    0    0    0    0  0.00000000000E+00  0.00000000000E+00  0.45593999997E+02  0.45594000000E+02  0.51100000000E-03 0. -1.
         11   -1    0    0    0    0 -0.00000000000E+00 -0.00000000000E+00 -0.45593999997E+02  0.45594000000E+02  0.51100000000E-03 0.  1.
    9900012    2    1    2    0    0  0.27801523088E+02  0.29629906656E+02 -0.15256708406E+02  0.47787271828E+02  0.20000003575E+02 0.  0.
         12    1    1    2    0    0 -0.27801523088E+02 -0.29629906656E+02  0.15256708406E+02  0.43400728172E+02  0.00000000000E+00 0. -1.
         11    1    3    3    0    0  0.21022733904E+01  0.42183554641E+01  0.37374534190E+01  0.60152002918E+01  0.51100000000E-03 0. -1.
        -11    1    3    3    0    0  0.17058855163E+02  0.13699722813E+02 -0.71814493418E+01  0.23027378477E+02  0.51100000000E-03 0.  1.
         12    1    3    3    0    0  0.86403945344E+01  0.11711828379E+02 -0.11812712483E+02  0.18744693059E+02  0.00000000000E+00 0. -1.
</event>
<event>
 7    1  0.2476315E-009  0.4778726E+02  0.7816164E-02  0.1312668E+00
        -11   -1    0    0    0    0  0.00000000000E+00  0.00000000000E+00  0.45593999997E+02  0.45594000000E+02  0.51100000000E-03 0. -1.
         11   -1    0    0    0    0 -0.00000000000E+00 -0.00000000000E+00 -0.45593999997E+02  0.45594000000E+02  0.51100000000E-03 0.  1.
    9900012    2    1    2    0    0 -0.37111602008E+02  0.74065139390E+01  0.21248449335E+02  0.47787262086E+02  0.19999959156E+02 0.  0.
         12    1    1    2    0    0  0.37111602008E+02 -0.74065139390E+01 -0.21248449335E+02  0.43400737914E+02  0.00000000000E+00 0. -1.
         11    1    3    3    0    0  0.80155960873E+00  0.59889879714E+00 -0.17737100329E+01  0.20364736968E+01  0.51100000000E-03 0. -1.
        -11    1    3    3    0    0 -0.24389264146E+02  0.11551806379E+01  0.10940187127E+02  0.26755529196E+02  0.51100000000E-03 0.  1.
        -12    1    3    3    0    0 -0.13523897470E+02  0.56524345040E+01  0.12081972241E+02  0.18995259194E+02  0.00000000000E+00 0.  1.
</event>
<event>
 7    1  0.2476315E-009  0.4778725E+02  0.7816164E-02  0.1312668E+00
        -11   -1    0    0    0    0  0.00000000000E+00  0.00000000000E+00  0.45593999997E+02  0.45594000000E+02  0.51100000000E-03 0.  1.
         11   -1    0    0    0    0 -0.00000000000E+00 -0.00000000000E+00 -0.45593999997E+02  0.45594000000E+02  0.51100000000E-03 0. -1.
    9900012    2    1    2    0    0 -0.18921045603E+02 -0.38488337569E+02 -0.66533641788E+01  0.47787247121E+02  0.19999890925E+02 0.  0.
         12    1    1    2    0    0  0.18921045603E+02  0.38488337569E+02  0.66533641788E+01  0.43400752879E+02  0.00000000000E+00 0. -1.
         11    1    3    3    0    0  0.12703062503E+01 -0.14167050771E+01  0.38159532147E+01  0.42640626688E+01  0.51100000000E-03 0. -1.
        -11    1    3    3    0    0 -0.14731635209E+02 -0.28283850280E+02 -0.75141746890E+01  0.32763700709E+02  0.51100000000E-03 0.  1.
         12    1    3    3    0    0 -0.54597166446E+01 -0.87877822114E+01 -0.29551427045E+01  0.10759483744E+02  0.00000000000E+00 0. -1.
</event>
<event>
 7    1  0.2476315E-009  0.4778727E+02  0.7816164E-02  0.1312668E+00
        -11   -1    0    0    0    0  0.00000000000E+00  0.00000000000E+00  0.45593999997E+02  0.45594000000E+02  0.51100000000E-03 0.  1.
         11   -1    0    0    0    0 -0.00000000000E+00 -0.00000000000E+00 -0.45593999997E+02  0.45594000000E+02  0.51100000000E-03 0. -1.
    9900012    2    1    2    0    0 -0.32937523995E+01  0.11890612547E+02  0.41609951398E+02  0.47787268129E+02  0.19999986706E+02 0.  0.
         12    1    1    2    0    0  0.32937523995E+01 -0.11890612547E+02 -0.41609951398E+02  0.43400731871E+02  0.00000000000E+00 0. -1.
         11    1    3    3    0    0  0.59607442424E+01  0.22183238942E+00  0.10178915602E+02  0.11797881362E+02  0.51100000000E-03 0. -1.
        -11    1    3    3    0    0 -0.11163296313E+02  0.97913969742E+01  0.26916138000E+02  0.30740350102E+02  0.51100000000E-03 0.  1.
        -12    1    3    3    0    0  0.19087996714E+01  0.18773831834E+01  0.45148977961E+01  0.52490366652E+01  0.00000000000E+00 0.  1.
</event>
<event>
 7    1  0.2476315E-009  0.4778727E+02  0.7816164E-02  0.1312668E+00
        -11   -1    0    0    0    0  0.00000000000E+00  0.00000000000E+00  0.45593999997E+02  0.45594000000E+02  0.51100000000E-03 0.  1.
         11   -1    0    0    0    0 -0.00000000000E+00 -0.00000000000E+00 -0.45593999997E+02  0.45594000000E+02  0.51100000000E-03 0. -1.
    9900012    2    1    2    0    0  0.12870489137E+02  0.32575357011E+01  0.41320240153E+02  0.47787271023E+02  0.19999999902E+02 0.  0.
         12    1    1    2    0    0 -0.12870489137E+02 -0.32575357011E+01 -0.41320240153E+02  0.43400728977E+02  0.00000000000E+00 0. -1.
         11    1    3    3    0    0 -0.17760150324E+01 -0.33299905305E+01  0.13317451520E+01  0.40020759288E+01  0.51100000000E-03 0. -1.
        -11    1    3    3    0    0  0.11383119895E+02  0.80830461951E+01  0.28273575609E+02  0.31532620131E+02  0.51100000000E-03 0.  1.
         12    1    3    3    0    0  0.32633842743E+01 -0.14955199634E+01  0.11714919391E+02  0.12252574963E+02  0.00000000000E+00 0. -1.
</event>
<event>
 7    1  0.2476315E-009  0.4778727E+02  0.7816164E-02  0.1312668E+00
        -11   -1    0    0    0    0  0.00000000000E+00  0.00000000000E+00  0.45593999997E+02  0.45594000000E+02  0.51100000000E-03 0.  1.
         11   -1    0    0    0    0 -0.00000000000E+00 -0.00000000000E+00 -0.45593999997E+02  0.45594000000E+02  0.51100000000E-03 0. -1.
    9900012    2    1    2    0    0  0.21311142782E+01  0.21304309334E+02  0.37751927775E+02  0.47787270801E+02  0.19999998891E+02 0.  0.
         12    1    1    2    0    0 -0.21311142782E+01 -0.21304309334E+02 -0.37751927775E+02  0.43400729199E+02  0.00000000000E+00 0. -1.
         11    1    3    3    0    0 -0.11239546702E+01  0.13345763128E+01 -0.19285662869E+01  0.26007184045E+01  0.51100000000E-03 0. -1.
        -11    1    3    3    0    0  0.23366869711E+01  0.19011386847E+02  0.39429317928E+02  0.43835648146E+02  0.51100000000E-03 0.  1.
        -12    1    3    3    0    0  0.91838197731E+00  0.95834617394E+00  0.25117613428E+00  0.13509042512E+01  0.00000000000E+00 0.  1.
</event>
<event>
 7    1  0.2476315E-009  0.4778727E+02  0.7816164E-02  0.1312668E+00
        -11   -1    0    0    0    0  0.00000000000E+00  0.00000000000E+00  0.45593999997E+02  0.45594000000E+02  0.51100000000E-03 0. -1.
         11   -1    0    0    0    0 -0.00000000000E+00 -0.00000000000E+00 -0.45593999997E+02  0.45594000000E+02  0.51100000000E-03 0.  1.
    9900012    2    1    2    0    0  0.16333542778E+02 -0.85758592635E+01 -0.39284777082E+02  0.47787266225E+02  0.19999978026E+02 0.  0.
         12    1    1    2    0    0 -0.16333542778E+02  0.85758592635E+01  0.39284777082E+02  0.43400733775E+02  0.00000000000E+00 0. -1.
         11    1    3    3    0    0  0.31684667544E+01 -0.70336215619E+01 -0.89257335546E+01  0.11797446063E+02  0.51100000000E-03 0. -1.
        -11    1    3    3    0    0  0.45083481236E+01 -0.75481098554E+01 -0.13942060187E+02  0.16482724524E+02  0.51100000000E-03 0.  1.
         12    1    3    3    0    0  0.86567278999E+01  0.60058721538E+01 -0.16416983341E+02  0.19507095639E+02  0.00000000000E+00 0. -1.
</event>
<event>
 7    1  0.2476315E-009  0.4778728E+02  0.7816164E-02  0.1312668E+00
        -11   -1    0    0    0    0  0.00000000000E+00  0.00000000000E+00  0.45593999997E+02  0.45594000000E+02  0.51100000000E-03 0.  1.
         11   -1    0    0    0    0 -0.00000000000E+00 -0.00000000000E+00 -0.45593999997E+02  0.45594000000E+02  0.51100000000E-03 0. -1.
    9900012    2    1    2    0    0  0.20633017504E+02 -0.38445673042E+00 -0.38180529978E+02  0.47787284710E+02  0.20000062306E+02 0.  0.
         12    1    1    2    0    0 -0.20633017504E+02  0.38445673042E+00  0.38180529978E+02  0.43400715290E+02  0.00000000000E+00 0. -1.
         11    1    3    3    0    0  0.71445905411E+00  0.60081670198E+01 -0.10813204049E+02  0.12390879902E+02  0.51100000000E-03 0. -1.
        -11    1    3    3    0    0  0.18110493773E+02 -0.72042352182E+01 -0.27122577380E+02  0.33399478944E+02  0.51100000000E-03 0.  1.
         12    1    3    3    0    0  0.18080646771E+01  0.81161146797E+00 -0.24474854915E+00  0.19969258634E+01  0.00000000000E+00 0. -1.
</event>
<event>
 7    1  0.2476315E-009  0.4778728E+02  0.7816164E-02  0.1312668E+00
        -11   -1    0    0    0    0  0.00000000000E+00  0.00000000000E+00  0.45593999997E+02  0.45594000000E+02  0.51100000000E-03 0.  1.
         11   -1    0    0    0    0 -0.00000000000E+00 -0.00000000000E+00 -0.45593999997E+02  0.45594000000E+02  0.51100000000E-03 0. -1.
    9900012    2    1    2    0    0  0.20598448965E+02 -0.34824023740E+02  0.15703945200E+02  0.47787278531E+02  0.20000034133E+02 0.  0.
         12    1    1    2    0    0 -0.20598448965E+02  0.34824023740E+02 -0.15703945200E+02  0.43400721469E+02  0.00000000000E+00 0. -1.
         11    1    3    3    0    0  0.24043675019E+01  0.13716471991E+00 -0.17736324125E+01  0.29909144823E+01  0.51100000000E-03 0. -1.
        -11    1    3    3    0    0  0.17625907805E+02 -0.21647777024E+02  0.11512118516E+02  0.30196485707E+02  0.51100000000E-03 0.  1.
        -12    1    3    3    0    0  0.56817365815E+00 -0.13313411436E+02  0.59654590967E+01  0.14599878342E+02  0.00000000000E+00 0.  1.
</event>
<event>
 7    1  0.2476315E-009  0.4778727E+02  0.7816164E-02  0.1312668E+00
        -11   -1    0    0    0    0  0.00000000000E+00  0.00000000000E+00  0.45593999997E+02  0.45594000000E+02  0.51100000000E-03 0.  1.
         11   -1    0    0    0    0 -0.00000000000E+00 -0.00000000000E+00 -0.45593999997E+02  0.45594000000E+02  0.51100000000E-03 0. -1.
    9900012    2    1    2    0    0 -0.32969413053E+02  0.23066314271E+01  0.28130419255E+02  0.47787271514E+02  0.20000002143E+02 0.  0.
         12    1    1    2    0    0  0.32969413053E+02 -0.23066314271E+01 -0.28130419255E+02  0.43400728486E+02  0.00000000000E+00 0. -1.
         11    1    3    3    0    0 -0.14443867201E+02  0.18495980019E+01  0.59144758153E+01  0.15717103325E+02  0.51100000000E-03 0. -1.
        -11    1    3    3    0    0 -0.14646921580E+02 -0.42306667946E+01  0.20858741320E+02  0.25836368611E+02  0.51100000000E-03 0.  1.
        -12    1    3    3    0    0 -0.38786242718E+01  0.46877002199E+01  0.13572021206E+01  0.62337995789E+01  0.00000000000E+00 0.  1.
</event>
<event>
 7    1  0.2476315E-009  0.4778727E+02  0.7816164E-02  0.1312668E+00
        -11   -1    0    0    0    0  0.00000000000E+00  0.00000000000E+00  0.45593999997E+02  0.45594000000E+02  0.51100000000E-03 0.  1.
         11   -1    0    0    0    0 -0.00000000000E+00 -0.00000000000E+00 -0.45593999997E+02  0.45594000000E+02  0.51100000000E-03 0. -1.
    9900012    2    1    2    0    0  0.32321384938E+01 -0.42600539751E+02  0.76400702087E+01  0.47787269832E+02  0.19999994471E+02 0.  0.
         12    1    1    2    0    0 -0.32321384938E+01  0.42600539751E+02 -0.76400702087E+01  0.43400730168E+02  0.00000000000E+00 0. -1.
         11    1    3    3    0    0 -0.40111288692E+01 -0.16892143494E+02  0.22276257522E+01  0.17504170457E+02  0.51100000000E-03 0.  1.
        -11    1    3    3    0    0  0.11066167907E+02 -0.20664124293E+02  0.37456903993E+01  0.23738077044E+02  0.51100000000E-03 0. -1.
        -12    1    3    3    0    0 -0.38229005440E+01 -0.50442719644E+01  0.16667540573E+01  0.65450223305E+01  0.00000000000E+00 0.  1.
</event>
<event>
 7    1  0.2476315E-009  0.4778723E+02  0.7816164E-02  0.1312668E+00
        -11   -1    0    0    0    0  0.00000000000E+00  0.00000000000E+00  0.45593999997E+02  0.45594000000E+02  0.51100000000E-03 0.  1.
         11   -1    0    0    0    0 -0.00000000000E+00 -0.00000000000E+00 -0.45593999997E+02  0.45594000000E+02  0.51100000000E-03 0. -1.
    9900012    2    1    2    0    0 -0.39388691453E+02 -0.98608576203E+01  0.15327147624E+02  0.47787228328E+02  0.19999805239E+02 0.  0.
         12    1    1    2    0    0  0.39388691453E+02  0.98608576203E+01 -0.15327147624E+02  0.43400771672E+02  0.00000000000E+00 0. -1.
         11    1    3    3    0    0 -0.22184397409E+02  0.14861723153E+01  0.68296386296E+01  0.23259410152E+02  0.51100000000E-03 0. -1.
        -11    1    3    3    0    0 -0.75656808387E+01  0.67088335981E+00  0.31081759910E+01  0.82067270752E+01  0.51100000000E-03 0.  1.
         12    1    3    3    0    0 -0.96386132053E+01 -0.12017913295E+02  0.53893330036E+01  0.16321091101E+02  0.00000000000E+00 0. -1.
</event>
<event>
 7    1  0.2476315E-009  0.4778727E+02  0.7816164E-02  0.1312668E+00
        -11   -1    0    0    0    0  0.00000000000E+00  0.00000000000E+00  0.45593999997E+02  0.45594000000E+02  0.51100000000E-03 0. -1.
         11   -1    0    0    0    0 -0.00000000000E+00 -0.00000000000E+00 -0.45593999997E+02  0.45594000000E+02  0.51100000000E-03 0.  1.
    9900012    2    1    2    0    0  0.23406813693E+02  0.14147480366E+02 -0.33698563545E+02  0.47787270594E+02  0.19999997948E+02 0.  0.
         12    1    1    2    0    0 -0.23406813693E+02 -0.14147480366E+02  0.33698563545E+02  0.43400729406E+02  0.00000000000E+00 0. -1.
         11    1    3    3    0    0  0.64843370813E+01  0.13310038227E+02 -0.88371503779E+01  0.17242359817E+02  0.51100000000E-03 0. -1.
        -11    1    3    3    0    0  0.16295620282E+02  0.75937842213E+00 -0.20797404396E+02  0.26432100292E+02  0.51100000000E-03 0.  1.
        -12    1    3    3    0    0  0.62685632984E+00  0.78063716523E-01 -0.40640087703E+01  0.41128104852E+01  0.00000000000E+00 0.  1.
</event>
<event>
 7    1  0.2476315E-009  0.4778727E+02  0.7816164E-02  0.1312668E+00
        -11   -1    0    0    0    0  0.00000000000E+00  0.00000000000E+00  0.45593999997E+02  0.45594000000E+02  0.51100000000E-03 0. -1.
         11   -1    0    0    0    0 -0.00000000000E+00 -0.00000000000E+00 -0.45593999997E+02  0.45594000000E+02  0.51100000000E-03 0.  1.
    9900012    2    1    2    0    0 -0.43080388888E+02 -0.36834587686E+01  0.37597097372E+01  0.47787271981E+02  0.20000004270E+02 0.  0.
         12    1    1    2    0    0  0.43080388888E+02  0.36834587686E+01 -0.37597097372E+01  0.43400728019E+02  0.00000000000E+00 0. -1.
         11    1    3    3    0    0 -0.15817257889E+02 -0.75617870848E+01  0.74564819806E+01  0.19051650711E+02  0.51100000000E-03 0. -1.
        -11    1    3    3    0    0 -0.81087164917E+01 -0.18849797768E+01  0.33075744985E+00  0.83314964234E+01  0.51100000000E-03 0.  1.
         12    1    3    3    0    0 -0.19154414508E+02  0.57633080931E+01 -0.40275296933E+01  0.20404124846E+02  0.00000000000E+00 0. -1.
</event>
<event>
 7    1  0.2476315E-009  0.4778727E+02  0.7816164E-02  0.1312668E+00
        -11   -1    0    0    0    0  0.00000000000E+00  0.00000000000E+00  0.45593999997E+02  0.45594000000E+02  0.51100000000E-03 0.  1.
         11   -1    0    0    0    0 -0.00000000000E+00 -0.00000000000E+00 -0.45593999997E+02  0.45594000000E+02  0.51100000000E-03 0. -1.
    9900012    2    1    2    0    0 -0.31958578996E+01 -0.43268037778E+02 -0.11343319178E+01  0.47787270631E+02  0.19999998113E+02 0.  0.
         12    1    1    2    0    0  0.31958578996E+01  0.43268037778E+02  0.11343319178E+01  0.43400729369E+02  0.00000000000E+00 0. -1.
         11    1    3    3    0    0 -0.35622945801E+01 -0.22004563714E+02 -0.71817829249E+01  0.23419410180E+02  0.51100000000E-03 0. -1.
        -11    1    3    3    0    0 -0.38572960732E+01 -0.15418414719E+02  0.17915360372E+01  0.15994244185E+02  0.51100000000E-03 0.  1.
         12    1    3    3    0    0  0.42237327538E+01 -0.58450593453E+01  0.42559149698E+01  0.83736162652E+01  0.00000000000E+00 0. -1.
</event>
<event>
 7    1  0.2476315E-009  0.4778727E+02  0.7816164E-02  0.1312668E+00
        -11   -1    0    0    0    0  0.00000000000E+00  0.00000000000E+00  0.45593999997E+02  0.45594000000E+02  0.51100000000E-03 0.  1.
         11   -1    0    0    0    0 -0.00000000000E+00 -0.00000000000E+00 -0.45593999997E+02  0.45594000000E+02  0.51100000000E-03 0. -1.
    9900012    2    1    2    0    0  0.28751909301E+01  0.13752280582E+02  0.41063747460E+02  0.47787270749E+02  0.19999998651E+02 0.  0.
         12    1    1    2    0    0 -0.28751909301E+01 -0.13752280582E+02 -0.41063747460E+02  0.43400729251E+02  0.00000000000E+00 0. -1.
         11    1    3    3    0    0  0.87244436239E+01  0.40525877021E+01  0.10497763373E+02  0.14238764684E+02  0.51100000000E-03 0. -1.
        -11    1    3    3    0    0 -0.68186313386E+01  0.98475135044E+01  0.30222526395E+02  0.32509511801E+02  0.51100000000E-03 0.  1.
        -12    1    3    3    0    0  0.96937864484E+00 -0.14782062450E+00  0.34345769142E+00  0.10389942636E+01  0.00000000000E+00 0.  1.
</event>
<event>
 7    1  0.2476315E-009  0.4778722E+02  0.7816164E-02  0.1312668E+00
        -11   -1    0    0    0    0  0.00000000000E+00  0.00000000000E+00  0.45593999997E+02  0.45594000000E+02  0.51100000000E-03 0.  1.
         11   -1    0    0    0    0 -0.00000000000E+00 -0.00000000000E+00 -0.45593999997E+02  0.45594000000E+02  0.51100000000E-03 0. -1.
    9900012    2    1    2    0    0  0.47021264707E+01  0.16301153427E+02  0.39947337979E+02  0.47787223417E+02  0.19999782844E+02 0.  0.
         12    1    1    2    0    0 -0.47021264707E+01 -0.16301153427E+02 -0.39947337979E+02  0.43400776583E+02  0.00000000000E+00 0. -1.
         11    1    3    3    0    0  0.16472545641E+01  0.13137728924E+02  0.16568142998E+02  0.21208883316E+02  0.51100000000E-03 0. -1.
        -11    1    3    3    0    0  0.41342596570E+01 -0.37470042781E+01  0.11758593872E+02  0.13015247753E+02  0.51100000000E-03 0.  1.
        -12    1    3    3    0    0 -0.10793877504E+01  0.69104287813E+01  0.11620601110E+02  0.13563092347E+02  0.00000000000E+00 0.  1.
</event>
<event>
 7    1  0.2476315E-009  0.4778727E+02  0.7816164E-02  0.1312668E+00
        -11   -1    0    0    0    0  0.00000000000E+00  0.00000000000E+00  0.45593999997E+02  0.45594000000E+02  0.51100000000E-03 0. -1.
         11   -1    0    0    0    0 -0.00000000000E+00 -0.00000000000E+00 -0.45593999997E+02  0.45594000000E+02  0.51100000000E-03 0.  1.
    9900012    2    1    2    0    0 -0.82556282421E+01  0.34907163120E+02 -0.24432723065E+02  0.47787269694E+02  0.19999993843E+02 0.  0.
         12    1    1    2    0    0  0.82556282421E+01 -0.34907163120E+02  0.24432723065E+02  0.43400730306E+02  0.00000000000E+00 0. -1.
         11    1    3    3    0    0 -0.14419509093E+02  0.21044655370E+02 -0.12381927173E+02  0.28356866592E+02  0.51100000000E-03 0. -1.
        -11    1    3    3    0    0  0.38432671688E+01  0.70644070096E+01 -0.68166436186E+01  0.10542446557E+02  0.51100000000E-03 0.  1.
         12    1    3    3    0    0  0.23206136818E+01  0.67981007399E+01 -0.52341522730E+01  0.88879565450E+01  0.00000000000E+00 0. -1.
</event>
<event>
 7    1  0.2476315E-009  0.4778727E+02  0.7816164E-02  0.1312668E+00
        -11   -1    0    0    0    0  0.00000000000E+00  0.00000000000E+00  0.45593999997E+02  0.45594000000E+02  0.51100000000E-03 0.  1.
         11   -1    0    0    0    0 -0.00000000000E+00 -0.00000000000E+00 -0.45593999997E+02  0.45594000000E+02  0.51100000000E-03 0. -1.
    9900012    2    1    2    0    0 -0.11422475041E+01  0.38829681670E+02  0.19353917163E+02  0.47787273998E+02  0.20000013464E+02 0.  0.
         12    1    1    2    0    0  0.11422475041E+01 -0.38829681670E+02 -0.19353917163E+02  0.43400726002E+02  0.00000000000E+00 0. -1.
         11    1    3    3    0    0 -0.52528587298E+01  0.11146845520E+02 -0.69859228377E-01  0.12322725772E+02  0.51100000000E-03 0.  1.
        -11    1    3    3    0    0  0.61737318457E+01  0.16165202529E+02  0.15177076484E+02  0.23016784931E+02  0.51100000000E-03 0. -1.
        -12    1    3    3    0    0 -0.20631206200E+01  0.11517633621E+02  0.42466999079E+01  0.12447763294E+02  0.00000000000E+00 0.  1.
</event>
<event>
 7    1  0.2476315E-009  0.4778731E+02  0.7816164E-02  0.1312668E+00
        -11   -1    0    0    0    0  0.00000000000E+00  0.00000000000E+00  0.45593999997E+02  0.45594000000E+02  0.51100000000E-03 0. -1.
         11   -1    0    0    0    0 -0.00000000000E+00 -0.00000000000E+00 -0.45593999997E+02  0.45594000000E+02  0.51100000000E-03 0.  1.
    9900012    2    1    2    0    0  0.15621276538E+02 -0.24501901229E+02 -0.32237441194E+02  0.47787308079E+02  0.20000168854E+02 0.  0.
         12    1    1    2    0    0 -0.15621276538E+02  0.24501901229E+02  0.32237441194E+02  0.43400691921E+02  0.00000000000E+00 0. -1.
         11    1    3    3    0    0  0.10622040780E+02 -0.10555651715E+02 -0.74349595988E+01  0.16719095608E+02  0.51100000000E-03 0. -1.
        -11    1    3    3    0    0 -0.21933321322E+01 -0.31067085349E+01 -0.12854257338E+02  0.13405009353E+02  0.51100000000E-03 0.  1.
        -12    1    3    3    0    0  0.71925678897E+01 -0.10839540979E+02 -0.11948224257E+02  0.17663203118E+02  0.00000000000E+00 0.  1.
</event>
<event>
 7    1  0.2476315E-009  0.4778727E+02  0.7816164E-02  0.1312668E+00
        -11   -1    0    0    0    0  0.00000000000E+00  0.00000000000E+00  0.45593999997E+02  0.45594000000E+02  0.51100000000E-03 0.  1.
         11   -1    0    0    0    0 -0.00000000000E+00 -0.00000000000E+00 -0.45593999997E+02  0.45594000000E+02  0.51100000000E-03 0. -1.
    9900012    2    1    2    0    0  0.15557621433E+01 -0.42354055103E+02  0.93454279016E+01  0.47787269567E+02  0.19999993262E+02 0.  0.
         12    1    1    2    0    0 -0.15557621433E+01  0.42354055103E+02 -0.93454279016E+01  0.43400730433E+02  0.00000000000E+00 0. -1.
         11    1    3    3    0    0 -0.54329570529E+00 -0.27952003604E+02  0.14929655550E+01  0.27997118104E+02  0.51100000000E-03 0. -1.
        -11    1    3    3    0    0  0.25010931127E+01 -0.13605198023E+02  0.10259809719E+02  0.17222676207E+02  0.51100000000E-03 0.  1.
         12    1    3    3    0    0 -0.40203526412E+00 -0.79685347612E+00 -0.24073473728E+01  0.25674752558E+01  0.00000000000E+00 0. -1.
</event>
<event>
 7    1  0.2476315E-009  0.4778727E+02  0.7816164E-02  0.1312668E+00
        -11   -1    0    0    0    0  0.00000000000E+00  0.00000000000E+00  0.45593999997E+02  0.45594000000E+02  0.51100000000E-03 0.  1.
         11   -1    0    0    0    0 -0.00000000000E+00 -0.00000000000E+00 -0.45593999997E+02  0.45594000000E+02  0.51100000000E-03 0. -1.
    9900012    2    1    2    0    0  0.22261644057E+02 -0.16064776993E+02  0.33614957035E+02  0.47787271983E+02  0.20000004277E+02 0.  0.
         12    1    1    2    0    0 -0.22261644057E+02  0.16064776993E+02 -0.33614957035E+02  0.43400728017E+02  0.00000000000E+00 0. -1.
         11    1    3    3    0    0  0.15615563894E+02 -0.10557517218E+02  0.86768707462E+01  0.20750785328E+02  0.51100000000E-03 0. -1.
        -11    1    3    3    0    0  0.70595965390E+01 -0.39370885399E+01  0.15719612588E+02  0.17676107876E+02  0.51100000000E-03 0.  1.
         12    1    3    3    0    0 -0.41351637548E+00 -0.15701712352E+01  0.92184737008E+01  0.93603787783E+01  0.00000000000E+00 0. -1.
</event>
<event>
 7    1  0.2476315E-009  0.4778728E+02  0.7816164E-02  0.1312668E+00
        -11   -1    0    0    0    0  0.00000000000E+00  0.00000000000E+00  0.45593999997E+02  0.45594000000E+02  0.51100000000E-03 0. -1.
         11   -1    0    0    0    0 -0.00000000000E+00 -0.00000000000E+00 -0.45593999997E+02  0.45594000000E+02  0.51100000000E-03 0.  1.
    9900012    2    1    2    0    0 -0.43145621132E+02  0.43519283276E+01  0.17715411311E+01  0.47787282713E+02  0.20000053202E+02 0.  0.
         12    1    1    2    0    0  0.43145621132E+02 -0.43519283276E+01 -0.17715411311E+01  0.43400717287E+02  0.00000000000E+00 0. -1.
         11    1    3    3    0    0 -0.80399928266E+00  0.27926164813E+01 -0.32573014893E+01  0.43652187702E+01  0.51100000000E-03 0. -1.
        -11    1    3    3    0    0 -0.22740848790E+02  0.36633718681E+01  0.55826868638E+01  0.23700904835E+02  0.51100000000E-03 0.  1.
         12    1    3    3    0    0 -0.19600773059E+02 -0.21040600218E+01 -0.55384424341E+00  0.19721159108E+02  0.00000000000E+00 0. -1.
</event>
<event>
 7    1  0.2476315E-009  0.4778727E+02  0.7816164E-02  0.1312668E+00
        -11   -1    0    0    0    0  0.00000000000E+00  0.00000000000E+00  0.45593999997E+02  0.45594000000E+02  0.51100000000E-03 0.  1.
         11   -1    0    0    0    0 -0.00000000000E+00 -0.00000000000E+00 -0.45593999997E+02  0.45594000000E+02  0.51100000000E-03 0. -1.
    9900012    2    1    2    0    0  0.19864712435E+02  0.19223489939E+02  0.33458536912E+02  0.47787273533E+02  0.20000011347E+02 0.  0.
         12    1    1    2    0    0 -0.19864712435E+02 -0.19223489939E+02 -0.33458536912E+02  0.43400726467E+02  0.00000000000E+00 0. -1.
         11    1    3    3    0    0  0.55322015533E+01 -0.13797809760E+01  0.12874667416E+02  0.14080699944E+02  0.51100000000E-03 0. -1.
        -11    1    3    3    0    0  0.36426555259E+01  0.75481183391E+01  0.12365618897E+02  0.14938258289E+02  0.51100000000E-03 0.  1.
         12    1    3    3    0    0  0.10689855356E+02  0.13055152576E+02  0.82182505989E+01  0.18768315300E+02  0.00000000000E+00 0. -1.
</event>
<event>
 7    1  0.2476315E-009  0.4778727E+02  0.7816164E-02  0.1312668E+00
        -11   -1    0    0    0    0  0.00000000000E+00  0.00000000000E+00  0.45593999997E+02  0.45594000000E+02  0.51100000000E-03 0. -1.
         11   -1    0    0    0    0 -0.00000000000E+00 -0.00000000000E+00 -0.45593999997E+02  0.45594000000E+02  0.51100000000E-03 0.  1.
    9900012    2    1    2    0    0 -0.15427688028E+02  0.32219263231E+02 -0.24648103536E+02  0.47787268566E+02  0.19999988702E+02 0.  0.
         12    1    1    2    0    0  0.15427688028E+02 -0.32219263231E+02  0.24648103536E+02  0.43400731434E+02  0.00000000000E+00 0. -1.
         11    1    3    3    0    0 -0.17786296219E+02  0.15925088150E+02 -0.16252384719E+02  0.28880802882E+02  0.51100000000E-03 0.  1.
        -11    1    3    3    0    0  0.25396639178E-01  0.12502478777E+01 -0.20750002053E+01  0.24226825748E+01  0.51100000000E-03 0. -1.
         12    1    3    3    0    0  0.23332115518E+01  0.15043927204E+02 -0.63207186111E+01  0.16483783110E+02  0.00000000000E+00 0. -1.
</event>
<event>
 7    1  0.2476315E-009  0.4778727E+02  0.7816164E-02  0.1312668E+00
        -11   -1    0    0    0    0  0.00000000000E+00  0.00000000000E+00  0.45593999997E+02  0.45594000000E+02  0.51100000000E-03 0. -1.
         11   -1    0    0    0    0 -0.00000000000E+00 -0.00000000000E+00 -0.45593999997E+02  0.45594000000E+02  0.51100000000E-03 0.  1.
    9900012    2    1    2    0    0  0.39305599826E+01  0.29481938278E+02 -0.31606793441E+02  0.47787269845E+02  0.19999994530E+02 0.  0.
         12    1    1    2    0    0 -0.39305599826E+01 -0.29481938278E+02  0.31606793441E+02  0.43400730155E+02  0.00000000000E+00 0. -1.
         11    1    3    3    0    0  0.25661170067E+00  0.76404310393E+01 -0.30758046851E+01  0.82403040450E+01  0.51100000000E-03 0. -1.
        -11    1    3    3    0    0  0.75622389044E+01  0.88253514456E+01 -0.56158105121E+01  0.12907812106E+02  0.51100000000E-03 0.  1.
        -12    1    3    3    0    0 -0.38882906225E+01  0.13016155793E+02 -0.22915178244E+02  0.26639153694E+02  0.00000000000E+00 0.  1.
</event>
<event>
 7    1  0.2476315E-009  0.4778727E+02  0.7816164E-02  0.1312668E+00
        -11   -1    0    0    0    0  0.00000000000E+00  0.00000000000E+00  0.45593999997E+02  0.45594000000E+02  0.51100000000E-03 0. -1.
         11   -1    0    0    0    0 -0.00000000000E+00 -0.00000000000E+00 -0.45593999997E+02  0.45594000000E+02  0.51100000000E-03 0.  1.
    9900012    2    1    2    0    0 -0.30963040736E+02 -0.24422545171E+02  0.18123257979E+02  0.47787273231E+02  0.20000009971E+02 0.  0.
         12    1    1    2    0    0  0.30963040736E+02  0.24422545171E+02 -0.18123257979E+02  0.43400726769E+02  0.00000000000E+00 0. -1.
         11    1    3    3    0    0 -0.23957560368E+02 -0.16677935694E+02  0.22016938618E+02  0.36563148444E+02  0.51100000000E-03 0. -1.
        -11    1    3    3    0    0 -0.61878939283E+01 -0.70331327083E+01 -0.30537205157E+01  0.98529283063E+01  0.51100000000E-03 0.  1.
         12    1    3    3    0    0 -0.81758643982E+00 -0.71147676932E+00 -0.83996012315E+00  0.13711964806E+01  0.00000000000E+00 0. -1.
</event>
<event>
 7    1  0.2476315E-009  0.4778728E+02  0.7816164E-02  0.1312668E+00
        -11   -1    0    0    0    0  0.00000000000E+00  0.00000000000E+00  0.45593999997E+02  0.45594000000E+02  0.51100000000E-03 0.  1.
         11   -1    0    0    0    0 -0.00000000000E+00 -0.00000000000E+00 -0.45593999997E+02  0.45594000000E+02  0.51100000000E-03 0. -1.
    9900012    2    1    2    0    0  0.31324700122E+02  0.13215337214E+02  0.26976661567E+02  0.47787282901E+02  0.20000054060E+02 0.  0.
         12    1    1    2    0    0 -0.31324700122E+02 -0.13215337214E+02 -0.26976661567E+02  0.43400717099E+02  0.00000000000E+00 0. -1.
         11    1    3    3    0    0  0.13755798518E+02  0.80992588451E+01  0.26864770155E+01  0.16187561451E+02  0.51100000000E-03 0. -1.
        -11    1    3    3    0    0  0.71018691155E+01  0.11611100879E+01  0.16396856197E+02  0.17906468524E+02  0.51100000000E-03 0.  1.
        -12    1    3    3    0    0  0.10467032489E+02  0.39549682813E+01  0.78933283538E+01  0.13693252927E+02  0.00000000000E+00 0.  1.
</event>
<event>
 7    1  0.2476315E-009  0.4778728E+02  0.7816164E-02  0.1312668E+00
        -11   -1    0    0    0    0  0.00000000000E+00  0.00000000000E+00  0.45593999997E+02  0.45594000000E+02  0.51100000000E-03 0. -1.
         11   -1    0    0    0    0 -0.00000000000E+00 -0.00000000000E+00 -0.45593999997E+02  0.45594000000E+02  0.51100000000E-03 0.  1.
    9900012    2    1    2    0    0  0.32579693079E+01 -0.43042716870E+02 -0.45091514286E+01  0.47787282423E+02  0.20000051880E+02 0.  0.
         12    1    1    2    0    0 -0.32579693079E+01  0.43042716870E+02  0.45091514286E+01  0.43400717577E+02  0.00000000000E+00 0. -1.
         11    1    3    3    0    0 -0.66531007596E+01 -0.75793413774E+01  0.15148134964E+00  0.10086283374E+02  0.51100000000E-03 0. -1.
        -11    1    3    3    0    0  0.66166206216E+01 -0.31445029832E+02 -0.31389355744E+01  0.32286568204E+02  0.51100000000E-03 0.  1.
        -12    1    3    3    0    0  0.32944494459E+01 -0.40183456609E+01 -0.15216972038E+01  0.54144308456E+01  0.00000000000E+00 0.  1.
</event>
<event>
 7    1  0.2476315E-009  0.4778727E+02  0.7816164E-02  0.1312668E+00
        -11   -1    0    0    0    0  0.00000000000E+00  0.00000000000E+00  0.45593999997E+02  0.45594000000E+02  0.51100000000E-03 0.  1.
         11   -1    0    0    0    0 -0.00000000000E+00 -0.00000000000E+00 -0.45593999997E+02  0.45594000000E+02  0.51100000000E-03 0. -1.
    9900012    2    1    2    0    0  0.24312762312E+02  0.24181151865E+02  0.26604219419E+02  0.47787274111E+02  0.20000013982E+02 0.  0.
         12    1    1    2    0    0 -0.24312762312E+02 -0.24181151865E+02 -0.26604219419E+02  0.43400725889E+02  0.00000000000E+00 0. -1.
         11    1    3    3    0    0  0.16672057238E+02  0.12629256158E+02  0.79390737435E+01  0.22371510808E+02  0.51100000000E-03 0. -1.
        -11    1    3    3    0    0  0.38601795641E+01  0.78299192869E+01  0.35984504079E+01  0.94423232261E+01  0.51100000000E-03 0.  1.
         12    1    3    3    0    0  0.37805255093E+01  0.37219764208E+01  0.15066695268E+02  0.15973440077E+02  0.00000000000E+00 0. -1.
</event>
<event>
 7    1  0.2476315E-009  0.4778727E+02  0.7816164E-02  0.1312668E+00
        -11   -1    0    0    0    0  0.00000000000E+00  0.00000000000E+00  0.45593999997E+02  0.45594000000E+02  0.51100000000E-03 0.  1.
         11   -1    0    0    0    0 -0.00000000000E+00 -0.00000000000E+00 -0.45593999997E+02  0.45594000000E+02  0.51100000000E-03 0. -1.
    9900012    2    1    2    0    0 -0.34259309981E+02  0.23887912437E+02  0.11802142287E+02  0.47787271394E+02  0.20000001594E+02 0.  0.
         12    1    1    2    0    0  0.34259309981E+02 -0.23887912437E+02 -0.11802142287E+02  0.43400728606E+02  0.00000000000E+00 0. -1.
         11    1    3    3    0    0 -0.24107932236E+01  0.19740614811E+01  0.77209143922E+01  0.83259451122E+01  0.51100000000E-03 0. -1.
        -11    1    3    3    0    0 -0.25825562702E+02  0.14991309838E+02  0.48525691957E+01  0.30253040965E+02  0.51100000000E-03 0.  1.
         12    1    3    3    0    0 -0.60229540550E+01  0.69225411178E+01 -0.77134130088E+00  0.92082853170E+01  0.00000000000E+00 0. -1.
</event>
<event>
 7    1  0.2476315E-009  0.4778728E+02  0.7816164E-02  0.1312668E+00
        -11   -1    0    0    0    0  0.00000000000E+00  0.00000000000E+00  0.45593999997E+02  0.45594000000E+02  0.51100000000E-03 0. -1.
         11   -1    0    0    0    0 -0.00000000000E+00 -0.00000000000E+00 -0.45593999997E+02  0.45594000000E+02  0.51100000000E-03 0.  1.
    9900012    2    1    2    0    0 -0.33178237752E+02  0.27702676050E+02  0.39229013397E+01  0.47787275633E+02  0.20000020922E+02 0.  0.
         12    1    1    2    0    0  0.33178237752E+02 -0.27702676050E+02 -0.39229013397E+01  0.43400724367E+02  0.00000000000E+00 0. -1.
         11    1    3    3    0    0 -0.95901306496E+01 -0.41508337679E+00 -0.21602477931E+01  0.98391854782E+01  0.51100000000E-03 0. -1.
        -11    1    3    3    0    0 -0.15145046245E+02  0.21206541036E+02  0.14665302231E+01  0.26100584660E+02  0.51100000000E-03 0.  1.
         12    1    3    3    0    0 -0.84430608572E+01  0.69112183912E+01  0.46166189097E+01  0.11847505495E+02  0.00000000000E+00 0. -1.
</event>
<event>
 7    1  0.2476315E-009  0.4778727E+02  0.7816164E-02  0.1312668E+00
        -11   -1    0    0    0    0  0.00000000000E+00  0.00000000000E+00  0.45593999997E+02  0.45594000000E+02  0.51100000000E-03 0. -1.
         11   -1    0    0    0    0 -0.00000000000E+00 -0.00000000000E+00 -0.45593999997E+02  0.45594000000E+02  0.51100000000E-03 0.  1.
    9900012    2    1    2    0    0  0.23160452781E+02  0.32567399817E+02  0.16928707259E+02  0.47787271512E+02  0.20000002131E+02 0.  0.
         12    1    1    2    0    0 -0.23160452781E+02 -0.32567399817E+02 -0.16928707259E+02  0.43400728488E+02  0.00000000000E+00 0. -1.
         11    1    3    3    0    0  0.33670223275E+01  0.15685361581E+01  0.28936088820E+01  0.47085154408E+01  0.51100000000E-03 0. -1.
        -11    1    3    3    0    0  0.86412808230E+01  0.11111671782E+02  0.14587270336E+02  0.20271394628E+02  0.51100000000E-03 0.  1.
        -12    1    3    3    0    0  0.11152149630E+02  0.19887191877E+02 -0.55217195850E+00  0.22807361443E+02  0.00000000000E+00 0.  1.
</event>
<event>
 7    1  0.2476315E-009  0.4778727E+02  0.7816164E-02  0.1312668E+00
        -11   -1    0    0    0    0  0.00000000000E+00  0.00000000000E+00  0.45593999997E+02  0.45594000000E+02  0.51100000000E-03 0. -1.
         11   -1    0    0    0    0 -0.00000000000E+00 -0.00000000000E+00 -0.45593999997E+02  0.45594000000E+02  0.51100000000E-03 0.  1.
    9900012    2    1    2    0    0 -0.14895324250E+02 -0.36562326389E+02 -0.18026341875E+02  0.47787269627E+02  0.19999993537E+02 0.  0.
         12    1    1    2    0    0  0.14895324250E+02  0.36562326389E+02  0.18026341875E+02  0.43400730373E+02  0.00000000000E+00 0. -1.
         11    1    3    3    0    0 -0.14819372598E+02 -0.25418088300E+02 -0.13701679604E+02  0.32456571619E+02  0.51100000000E-03 0. -1.
        -11    1    3    3    0    0 -0.25971121599E+01 -0.53025809714E+00 -0.34997373700E+01  0.43902536534E+01  0.51100000000E-03 0.  1.
         12    1    3    3    0    0  0.25211605079E+01 -0.10613979993E+02 -0.82492490124E+00  0.10940444355E+02  0.00000000000E+00 0. -1.
</event>
<event>
 7    1  0.2476315E-009  0.4778727E+02  0.7816164E-02  0.1312668E+00
        -11   -1    0    0    0    0  0.00000000000E+00  0.00000000000E+00  0.45593999997E+02  0.45594000000E+02  0.51100000000E-03 0.  1.
         11   -1    0    0    0    0 -0.00000000000E+00 -0.00000000000E+00 -0.45593999997E+02  0.45594000000E+02  0.51100000000E-03 0. -1.
    9900012    2    1    2    0    0 -0.12007696518E+02 -0.22617736773E+01  0.41645207987E+02  0.47787265627E+02  0.19999975300E+02 0.  0.
         12    1    1    2    0    0  0.12007696518E+02  0.22617736773E+01 -0.41645207987E+02  0.43400734373E+02  0.00000000000E+00 0. -1.
         11    1    3    3    0    0  0.31629082484E+01 -0.16925691018E+01  0.13967604695E+00  0.35900262410E+01  0.51100000000E-03 0. -1.
        -11    1    3    3    0    0 -0.11096092829E+02 -0.41109318204E+00  0.29749811508E+02  0.31754425812E+02  0.51100000000E-03 0.  1.
         12    1    3    3    0    0 -0.40745119367E+01 -0.15811139347E+00  0.11755720433E+02  0.12442813574E+02  0.00000000000E+00 0. -1.
</event>
<event>
 7    1  0.2476315E-009  0.4778723E+02  0.7816164E-02  0.1312668E+00
        -11   -1    0    0    0    0  0.00000000000E+00  0.00000000000E+00  0.45593999997E+02  0.45594000000E+02  0.51100000000E-03 0.  1.
         11   -1    0    0    0    0 -0.00000000000E+00 -0.00000000000E+00 -0.45593999997E+02  0.45594000000E+02  0.51100000000E-03 0. -1.
    9900012    2    1    2    0    0 -0.46350485905E+01  0.13923505690E+02  0.40844572429E+02  0.47787230617E+02  0.19999815674E+02 0.  0.
         12    1    1    2    0    0  0.46350485905E+01 -0.13923505690E+02 -0.40844572429E+02  0.43400769383E+02  0.00000000000E+00 0. -1.
         11    1    3    3    0    0 -0.34204513039E+01  0.73714464286E+00 -0.51847695007E+00  0.35371864463E+01  0.51100000000E-03 0. -1.
        -11    1    3    3    0    0 -0.18907314349E+01  0.88937756466E+01  0.36966731278E+02  0.38068534674E+02  0.51100000000E-03 0.  1.
        -12    1    3    3    0    0  0.67613414838E+00  0.42925854006E+01  0.43963181012E+01  0.61815094965E+01  0.00000000000E+00 0.  1.
</event>
<event>
 7    1  0.2476315E-009  0.4778727E+02  0.7816164E-02  0.1312668E+00
        -11   -1    0    0    0    0  0.00000000000E+00  0.00000000000E+00  0.45593999997E+02  0.45594000000E+02  0.51100000000E-03 0.  1.
         11   -1    0    0    0    0 -0.00000000000E+00 -0.00000000000E+00 -0.45593999997E+02  0.45594000000E+02  0.51100000000E-03 0. -1.
    9900012    2    1    2    0    0  0.40727852647E+02 -0.14961977183E+02  0.10023159280E+01  0.47787269825E+02  0.19999994440E+02 0.  0.
         12    1    1    2    0    0 -0.40727852647E+02  0.14961977183E+02 -0.10023159280E+01  0.43400730175E+02  0.00000000000E+00 0. -1.
         11    1    3    3    0    0 -0.13636084206E+01 -0.11822285270E+01  0.65357805700E+00  0.19194417815E+01  0.51100000000E-03 0. -1.
        -11    1    3    3    0    0  0.29530395874E+02 -0.38263933191E+01  0.13702530572E+01  0.29808776560E+02  0.51100000000E-03 0.  1.
        -12    1    3    3    0    0  0.12561065194E+02 -0.99533553372E+01 -0.10215151861E+01  0.16059051484E+02  0.00000000000E+00 0.  1.
</event>
<event>
 7    1  0.2476315E-009  0.4778727E+02  0.7816164E-02  0.1312668E+00
        -11   -1    0    0    0    0  0.00000000000E+00  0.00000000000E+00  0.45593999997E+02  0.45594000000E+02  0.51100000000E-03 0.  1.
         11   -1    0    0    0    0 -0.00000000000E+00 -0.00000000000E+00 -0.45593999997E+02  0.45594000000E+02  0.51100000000E-03 0. -1.
    9900012    2    1    2    0    0  0.11786314571E+02  0.35412136285E+02  0.22151446360E+02  0.47787272088E+02  0.20000004759E+02 0.  0.
         12    1    1    2    0    0 -0.11786314571E+02 -0.35412136285E+02 -0.22151446360E+02  0.43400727912E+02  0.00000000000E+00 0. -1.
         11    1    3    3    0    0  0.12919829293E+02  0.16174157410E+02  0.15103817987E+02  0.25625196095E+02  0.51100000000E-03 0. -1.
        -11    1    3    3    0    0 -0.68671984899E+00  0.89064136776E+01 -0.10952343404E+01  0.89997404001E+01  0.51100000000E-03 0.  1.
        -12    1    3    3    0    0 -0.44679487271E+00  0.10331565198E+02  0.81428627132E+01  0.13162335593E+02  0.00000000000E+00 0.  1.
</event>
<event>
 7    1  0.2476315E-009  0.4778727E+02  0.7816164E-02  0.1312668E+00
        -11   -1    0    0    0    0  0.00000000000E+00  0.00000000000E+00  0.45593999997E+02  0.45594000000E+02  0.51100000000E-03 0. -1.
         11   -1    0    0    0    0 -0.00000000000E+00 -0.00000000000E+00 -0.45593999997E+02  0.45594000000E+02  0.51100000000E-03 0.  1.
    9900012    2    1    2    0    0 -0.33347194937E+02  0.27717591995E+02  0.18229496437E+01  0.47787268882E+02  0.19999990139E+02 0.  0.
         12    1    1    2    0    0  0.33347194937E+02 -0.27717591995E+02 -0.18229496437E+01  0.43400731118E+02  0.00000000000E+00 0. -1.
         11    1    3    3    0    0 -0.59734984960E+01  0.48328938656E+01  0.82453481851E+01  0.11270550756E+02  0.51100000000E-03 0. -1.
        -11    1    3    3    0    0 -0.13479702382E+02  0.11931084940E+02 -0.10740275064E+01  0.18033488279E+02  0.51100000000E-03 0.  1.
         12    1    3    3    0    0 -0.13893994060E+02  0.10953613189E+02 -0.53483710351E+01  0.18483229846E+02  0.00000000000E+00 0. -1.
</event>
<event>
 7    1  0.2476315E-009  0.4778727E+02  0.7816164E-02  0.1312668E+00
        -11   -1    0    0    0    0  0.00000000000E+00  0.00000000000E+00  0.45593999997E+02  0.45594000000E+02  0.51100000000E-03 0.  1.
         11   -1    0    0    0    0 -0.00000000000E+00 -0.00000000000E+00 -0.45593999997E+02  0.45594000000E+02  0.51100000000E-03 0. -1.
    9900012    2    1    2    0    0  0.19471581727E+02  0.43733465432E+01  0.38540297962E+02  0.47787271643E+02  0.20000002729E+02 0.  0.
         12    1    1    2    0    0 -0.19471581727E+02 -0.43733465432E+01 -0.38540297962E+02  0.43400728357E+02  0.00000000000E+00 0. -1.
         11    1    3    3    0    0  0.30040821329E+01 -0.54120396572E+01  0.10830768272E+02  0.12474783539E+02  0.51100000000E-03 0.  1.
        -11    1    3    3    0    0  0.17493953695E+02  0.10515941194E+02  0.27060240491E+02  0.33895133143E+02  0.51100000000E-03 0. -1.
         12    1    3    3    0    0 -0.10264541014E+01 -0.73055499402E+00  0.64928919824E+00  0.14173549607E+01  0.00000000000E+00 0. -1.
</event>
<event>
 7    1  0.2476315E-009  0.4778727E+02  0.7816164E-02  0.1312668E+00
        -11   -1    0    0    0    0  0.00000000000E+00  0.00000000000E+00  0.45593999997E+02  0.45594000000E+02  0.51100000000E-03 0.  1.
         11   -1    0    0    0    0 -0.00000000000E+00 -0.00000000000E+00 -0.45593999997E+02  0.45594000000E+02  0.51100000000E-03 0. -1.
    9900012    2    1    2    0    0 -0.13440945126E+02  0.13004169454E+02  0.39164476563E+02  0.47787266670E+02  0.19999980057E+02 0.  0.
         12    1    1    2    0    0  0.13440945126E+02 -0.13004169454E+02 -0.39164476563E+02  0.43400733330E+02  0.00000000000E+00 0. -1.
         11    1    3    3    0    0 -0.87669976856E+01  0.57456088909E+01  0.80840286305E+01  0.13237212286E+02  0.51100000000E-03 0. -1.
        -11    1    3    3    0    0 -0.37832793117E+01  0.11409711631E+01  0.26657265887E+02  0.26948559190E+02  0.51100000000E-03 0.  1.
        -12    1    3    3    0    0 -0.89066812893E+00  0.61175894004E+01  0.44231820454E+01  0.76014951946E+01  0.00000000000E+00 0.  1.
</event>
<event>
 7    1  0.2476315E-009  0.4778729E+02  0.7816164E-02  0.1312668E+00
        -11   -1    0    0    0    0  0.00000000000E+00  0.00000000000E+00  0.45593999997E+02  0.45594000000E+02  0.51100000000E-03 0.  1.
         11   -1    0    0    0    0 -0.00000000000E+00 -0.00000000000E+00 -0.45593999997E+02  0.45594000000E+02  0.51100000000E-03 0. -1.
    9900012    2    1    2    0    0  0.12805837200E+02 -0.96666767765E+01  0.40326010553E+02  0.47787294551E+02  0.20000107178E+02 0.  0.
         12    1    1    2    0    0 -0.12805837200E+02  0.96666767765E+01 -0.40326010553E+02  0.43400705449E+02  0.00000000000E+00 0. -1.
         11    1    3    3    0    0 -0.53028007696E+00 -0.33004068510E+01  0.24200222585E+02  0.24429995001E+02  0.51100000000E-03 0.  1.
        -11    1    3    3    0    0  0.11985554903E+02 -0.81187826089E+01  0.15100559457E+02  0.20918772754E+02  0.51100000000E-03 0. -1.
         12    1    3    3    0    0  0.13505623748E+01  0.17525126834E+01  0.10252285113E+01  0.24385267958E+01  0.00000000000E+00 0. -1.
</event>
<event>
 7    1  0.2476315E-009  0.4778727E+02  0.7816164E-02  0.1312668E+00
        -11   -1    0    0    0    0  0.00000000000E+00  0.00000000000E+00  0.45593999997E+02  0.45594000000E+02  0.51100000000E-03 0.  1.
         11   -1    0    0    0    0 -0.00000000000E+00 -0.00000000000E+00 -0.45593999997E+02  0.45594000000E+02  0.51100000000E-03 0. -1.
    9900012    2    1    2    0    0 -0.26350708416E+02  0.33401980669E+02  0.85773739822E+01  0.47787268542E+02  0.19999988591E+02 0.  0.
         12    1    1    2    0    0  0.26350708416E+02 -0.33401980669E+02 -0.85773739822E+01  0.43400731458E+02  0.00000000000E+00 0. -1.
         11    1    3    3    0    0 -0.62220189621E+01 -0.74785039740E+00 -0.72658961032E+00  0.63087822046E+01  0.51100000000E-03 0. -1.
        -11    1    3    3    0    0 -0.18742577881E+02  0.31895637419E+02  0.10666807088E+02  0.38501904962E+02  0.51100000000E-03 0.  1.
        -12    1    3    3    0    0 -0.13861115731E+01  0.22541936472E+01 -0.13628434954E+01  0.29765813755E+01  0.00000000000E+00 0.  1.
</event>
<event>
 7    1  0.2476315E-009  0.4778726E+02  0.7816164E-02  0.1312668E+00
        -11   -1    0    0    0    0  0.00000000000E+00  0.00000000000E+00  0.45593999997E+02  0.45594000000E+02  0.51100000000E-03 0.  1.
         11   -1    0    0    0    0 -0.00000000000E+00 -0.00000000000E+00 -0.45593999997E+02  0.45594000000E+02  0.51100000000E-03 0. -1.
    9900012    2    1    2    0    0 -0.23917880835E+02 -0.33713710469E+02  0.13226660470E+02  0.47787264472E+02  0.19999970031E+02 0.  0.
         12    1    1    2    0    0  0.23917880835E+02  0.33713710469E+02 -0.13226660470E+02  0.43400735528E+02  0.00000000000E+00 0. -1.
         11    1    3    3    0    0 -0.78912266919E+00 -0.38846595294E+01 -0.37250185796E+01  0.54395825139E+01  0.51100000000E-03 0. -1.
        -11    1    3    3    0    0 -0.11481149572E+02 -0.10574312393E+02  0.30725559783E+01  0.15908283332E+02  0.51100000000E-03 0.  1.
         12    1    3    3    0    0 -0.11647608595E+02 -0.19254738547E+02  0.13879123071E+02  0.26439398626E+02  0.00000000000E+00 0. -1.
</event>
<event>
 7    1  0.2476315E-009  0.4778727E+02  0.7816164E-02  0.1312668E+00
        -11   -1    0    0    0    0  0.00000000000E+00  0.00000000000E+00  0.45593999997E+02  0.45594000000E+02  0.51100000000E-03 0. -1.
         11   -1    0    0    0    0 -0.00000000000E+00 -0.00000000000E+00 -0.45593999997E+02  0.45594000000E+02  0.51100000000E-03 0.  1.
    9900012    2    1    2    0    0  0.31668878667E+02 -0.29632656215E+02 -0.16158935984E+01  0.47787270714E+02  0.19999998495E+02 0.  0.
         12    1    1    2    0    0 -0.31668878667E+02  0.29632656215E+02  0.16158935984E+01  0.43400729286E+02  0.00000000000E+00 0. -1.
         11    1    3    3    0    0  0.17269295752E+02 -0.77499283800E+01 -0.42832348386E+01  0.19407113814E+02  0.51100000000E-03 0. -1.
        -11    1    3    3    0    0  0.15382954705E+02 -0.22053343725E+02  0.34540303164E+01  0.27109326635E+02  0.51100000000E-03 0.  1.
         12    1    3    3    0    0 -0.98337178991E+00  0.17061588992E+00 -0.78668907617E+00  0.12708302647E+01  0.00000000000E+00 0. -1.
</event>
<event>
 7    1  0.2476315E-009  0.4778727E+02  0.7816164E-02  0.1312668E+00
        -11   -1    0    0    0    0  0.00000000000E+00  0.00000000000E+00  0.45593999997E+02  0.45594000000E+02  0.51100000000E-03 0.  1.
         11   -1    0    0    0    0 -0.00000000000E+00 -0.00000000000E+00 -0.45593999997E+02  0.45594000000E+02  0.51100000000E-03 0. -1.
    9900012    2    1    2    0    0 -0.86369684504E+01 -0.41970859807E+02  0.68900402333E+01  0.47787274760E+02  0.20000016940E+02 0.  0.
         12    1    1    2    0    0  0.86369684504E+01  0.41970859807E+02 -0.68900402333E+01  0.43400725240E+02  0.00000000000E+00 0. -1.
         11    1    3    3    0    0 -0.41947448395E+01 -0.82766545863E+00  0.18445505697E+01  0.46565310527E+01  0.51100000000E-03 0. -1.
        -11    1    3    3    0    0 -0.68651399765E+01 -0.38857659340E+02  0.51755303217E+01  0.39797411356E+02  0.51100000000E-03 0.  1.
        -12    1    3    3    0    0  0.24229163656E+01 -0.22855350087E+01 -0.13004065802E+00  0.33333323511E+01  0.00000000000E+00 0.  1.
</event>
<event>
 7    1  0.2476315E-009  0.4778727E+02  0.7816164E-02  0.1312668E+00
        -11   -1    0    0    0    0  0.00000000000E+00  0.00000000000E+00  0.45593999997E+02  0.45594000000E+02  0.51100000000E-03 0. -1.
         11   -1    0    0    0    0 -0.00000000000E+00 -0.00000000000E+00 -0.45593999997E+02  0.45594000000E+02  0.51100000000E-03 0.  1.
    9900012    2    1    2    0    0  0.39878309178E+02  0.41496149608E+01 -0.16616992438E+02  0.47787270917E+02  0.19999999420E+02 0.  0.
         12    1    1    2    0    0 -0.39878309178E+02 -0.41496149608E+01  0.16616992438E+02  0.43400729083E+02  0.00000000000E+00 0. -1.
         11    1    3    3    0    0  0.24582716090E+01 -0.67127608498E+00  0.37589404967E+01  0.45412932965E+01  0.51100000000E-03 0. -1.
        -11    1    3    3    0    0  0.23839682568E+02  0.44479195936E+01 -0.15648096086E+02  0.28861347249E+02  0.51100000000E-03 0.  1.
        -12    1    3    3    0    0  0.13580355001E+02  0.37297145221E+00 -0.47278368488E+01  0.14384630372E+02  0.00000000000E+00 0.  1.
</event>
<event>
 7    1  0.2476315E-009  0.4778727E+02  0.7816164E-02  0.1312668E+00
        -11   -1    0    0    0    0  0.00000000000E+00  0.00000000000E+00  0.45593999997E+02  0.45594000000E+02  0.51100000000E-03 0. -1.
         11   -1    0    0    0    0 -0.00000000000E+00 -0.00000000000E+00 -0.45593999997E+02  0.45594000000E+02  0.51100000000E-03 0.  1.
    9900012    2    1    2    0    0 -0.33050400136E+02 -0.26167737074E+02 -0.10322011667E+02  0.47787270310E+02  0.19999996653E+02 0.  0.
         12    1    1    2    0    0  0.33050400136E+02  0.26167737074E+02  0.10322011667E+02  0.43400729690E+02  0.00000000000E+00 0. -1.
         11    1    3    3    0    0 -0.22427746133E+00 -0.47027047796E+01 -0.30634452419E+01  0.56169769124E+01  0.51100000000E-03 0. -1.
        -11    1    3    3    0    0 -0.29764549753E+02 -0.22508920686E+02 -0.91507442289E+01  0.38422858465E+02  0.51100000000E-03 0.  1.
        -12    1    3    3    0    0 -0.30615729221E+01  0.10438883915E+01  0.18921778040E+01  0.37474349325E+01  0.00000000000E+00 0.  1.
</event>
<event>
 7    1  0.2476315E-009  0.4778727E+02  0.7816164E-02  0.1312668E+00
        -11   -1    0    0    0    0  0.00000000000E+00  0.00000000000E+00  0.45593999997E+02  0.45594000000E+02  0.51100000000E-03 0.  1.
         11   -1    0    0    0    0 -0.00000000000E+00 -0.00000000000E+00 -0.45593999997E+02  0.45594000000E+02  0.51100000000E-03 0. -1.
    9900012    2    1    2    0    0  0.80534290374E+00 -0.42753379211E+02 -0.74245267199E+01  0.47787267193E+02  0.19999982441E+02 0.  0.
         12    1    1    2    0    0 -0.80534290374E+00  0.42753379211E+02  0.74245267199E+01  0.43400732807E+02  0.00000000000E+00 0. -1.
         11    1    3    3    0    0  0.47026626235E+01 -0.53701019089E+01 -0.35829153515E+01  0.79868838065E+01  0.51100000000E-03 0. -1.
        -11    1    3    3    0    0 -0.83609780018E+01 -0.24572176493E+02 -0.38104599628E+01  0.26233898227E+02  0.51100000000E-03 0.  1.
        -12    1    3    3    0    0  0.44636582820E+01 -0.12811100809E+02 -0.31151405640E-01  0.13566485160E+02  0.00000000000E+00 0.  1.
</event>
<event>
 7    1  0.2476315E-009  0.4778727E+02  0.7816164E-02  0.1312668E+00
        -11   -1    0    0    0    0  0.00000000000E+00  0.00000000000E+00  0.45593999997E+02  0.45594000000E+02  0.51100000000E-03 0.  1.
         11   -1    0    0    0    0 -0.00000000000E+00 -0.00000000000E+00 -0.45593999997E+02  0.45594000000E+02  0.51100000000E-03 0. -1.
    9900012    2    1    2    0    0 -0.24222010822E+02  0.32956651261E+02  0.14518153223E+02  0.47787269090E+02  0.19999991087E+02 0.  0.
         12    1    1    2    0    0  0.24222010822E+02 -0.32956651261E+02 -0.14518153223E+02  0.43400730910E+02  0.00000000000E+00 0. -1.
         11    1    3    3    0    0 -0.18881122925E+01 -0.10600225007E+01  0.48039281996E+01  0.52693777753E+01  0.51100000000E-03 0. -1.
        -11    1    3    3    0    0 -0.20033087469E+01  0.76909086323E+01  0.34817938469E+01  0.86767626555E+01  0.51100000000E-03 0.  1.
         12    1    3    3    0    0 -0.20330589782E+02  0.26325765129E+02  0.62324311765E+01  0.33841128659E+02  0.00000000000E+00 0. -1.
</event>
<event>
 7    1  0.2476315E-009  0.4778727E+02  0.7816164E-02  0.1312668E+00
        -11   -1    0    0    0    0  0.00000000000E+00  0.00000000000E+00  0.45593999997E+02  0.45594000000E+02  0.51100000000E-03 0.  1.
         11   -1    0    0    0    0 -0.00000000000E+00 -0.00000000000E+00 -0.45593999997E+02  0.45594000000E+02  0.51100000000E-03 0. -1.
    9900012    2    1    2    0    0  0.34538697199E+02 -0.12236526288E+02  0.23258751345E+02  0.47787266206E+02  0.19999977938E+02 0.  0.
         12    1    1    2    0    0 -0.34538697199E+02  0.12236526288E+02 -0.23258751345E+02  0.43400733794E+02  0.00000000000E+00 0. -1.
         11    1    3    3    0    0  0.92365210593E+01  0.11948461917E+01  0.62620536703E+01  0.11222936119E+02  0.51100000000E-03 0. -1.
        -11    1    3    3    0    0  0.18729798096E+02 -0.12051112699E+02  0.19293703025E+02  0.29466618921E+02  0.51100000000E-03 0.  1.
        -12    1    3    3    0    0  0.65723780436E+01 -0.13802597800E+01 -0.22970053501E+01  0.70977111654E+01  0.00000000000E+00 0.  1.
</event>
<event>
 7    1  0.2476315E-009  0.4778731E+02  0.7816164E-02  0.1312668E+00
        -11   -1    0    0    0    0  0.00000000000E+00  0.00000000000E+00  0.45593999997E+02  0.45594000000E+02  0.51100000000E-03 0.  1.
         11   -1    0    0    0    0 -0.00000000000E+00 -0.00000000000E+00 -0.45593999997E+02  0.45594000000E+02  0.51100000000E-03 0. -1.
    9900012    2    1    2    0    0  0.28934443907E+02 -0.23570685998E+01  0.32262390697E+02  0.47787312562E+02  0.20000189295E+02 0.  0.
         12    1    1    2    0    0 -0.28934443907E+02  0.23570685998E+01 -0.32262390697E+02  0.43400687438E+02  0.00000000000E+00 0. -1.
         11    1    3    3    0    0  0.54490543428E+01 -0.70547472232E+01  0.23390712481E+01  0.92159050656E+01  0.51100000000E-03 0. -1.
        -11    1    3    3    0    0  0.44189242985E+01 -0.29426416268E+00  0.37233017785E+01  0.57858845260E+01  0.51100000000E-03 0.  1.
         12    1    3    3    0    0  0.19066465265E+02  0.49919427861E+01  0.26200017671E+02  0.32785522970E+02  0.00000000000E+00 0. -1.
</event>
<event>
 7    1  0.2476315E-009  0.4778728E+02  0.7816164E-02  0.1312668E+00
        -11   -1    0    0    0    0  0.00000000000E+00  0.00000000000E+00  0.45593999997E+02  0.45594000000E+02  0.51100000000E-03 0. -1.
         11   -1    0    0    0    0 -0.00000000000E+00 -0.00000000000E+00 -0.45593999997E+02  0.45594000000E+02  0.51100000000E-03 0.  1.
    9900012    2    1    2    0    0 -0.20141171415E+01 -0.18590062416E+02 -0.39166000123E+02  0.47787278184E+02  0.20000032553E+02 0.  0.
         12    1    1    2    0    0  0.20141171415E+01  0.18590062416E+02  0.39166000123E+02  0.43400721816E+02  0.00000000000E+00 0. -1.
         11    1    3    3    0    0  0.30115518578E+01 -0.10305635126E+02 -0.22252769960E+02  0.24707515681E+02  0.51100000000E-03 0.  1.
        -11    1    3    3    0    0 -0.66404569811E+01 -0.75189023515E+01 -0.18265416375E+02  0.20838785884E+02  0.51100000000E-03 0. -1.
        -12    1    3    3    0    0  0.16147879817E+01 -0.76552493903E+00  0.13521862125E+01  0.22409766201E+01  0.00000000000E+00 0.  1.
</event>
<event>
 7    1  0.2476315E-009  0.4778727E+02  0.7816164E-02  0.1312668E+00
        -11   -1    0    0    0    0  0.00000000000E+00  0.00000000000E+00  0.45593999997E+02  0.45594000000E+02  0.51100000000E-03 0.  1.
         11   -1    0    0    0    0 -0.00000000000E+00 -0.00000000000E+00 -0.45593999997E+02  0.45594000000E+02  0.51100000000E-03 0. -1.
    9900012    2    1    2    0    0  0.15966935842E+02 -0.98182395812E+01  0.39144382389E+02  0.47787267964E+02  0.19999985956E+02 0.  0.
         12    1    1    2    0    0 -0.15966935842E+02  0.98182395812E+01 -0.39144382389E+02  0.43400732036E+02  0.00000000000E+00 0. -1.
         11    1    3    3    0    0  0.99716973635E+01 -0.59972804578E+01  0.17434835043E+02  0.20961287996E+02  0.51100000000E-03 0. -1.
        -11    1    3    3    0    0  0.15194538469E+01 -0.52036138413E+01  0.89930794160E+00  0.54950060998E+01  0.51100000000E-03 0.  1.
        -12    1    3    3    0    0  0.44757846319E+01  0.13826547178E+01  0.20810239404E+02  0.21330973868E+02  0.00000000000E+00 0.  1.
</event>
<event>
 7    1  0.2476315E-009  0.4778727E+02  0.7816164E-02  0.1312668E+00
        -11   -1    0    0    0    0  0.00000000000E+00  0.00000000000E+00  0.45593999997E+02  0.45594000000E+02  0.51100000000E-03 0.  1.
         11   -1    0    0    0    0 -0.00000000000E+00 -0.00000000000E+00 -0.45593999997E+02  0.45594000000E+02  0.51100000000E-03 0. -1.
    9900012    2    1    2    0    0 -0.90745782691E+01  0.40175180376E+00  0.42439529975E+02  0.47787273281E+02  0.20000010196E+02 0.  0.
         12    1    1    2    0    0  0.90745782691E+01 -0.40175180376E+00 -0.42439529975E+02  0.43400726719E+02  0.00000000000E+00 0. -1.
         11    1    3    3    0    0 -0.84787945873E+01 -0.79549461902E+01  0.14419489613E+02  0.18522764575E+02  0.51100000000E-03 0. -1.
        -11    1    3    3    0    0  0.17757951687E+00  0.33769660752E+01  0.10226450891E+02  0.10771059950E+02  0.51100000000E-03 0.  1.
         12    1    3    3    0    0 -0.77336319868E+00  0.49797319188E+01  0.17793589471E+02  0.18493448756E+02  0.00000000000E+00 0. -1.
</event>
<event>
 7    1  0.2476315E-009  0.4778729E+02  0.7816164E-02  0.1312668E+00
        -11   -1    0    0    0    0  0.00000000000E+00  0.00000000000E+00  0.45593999997E+02  0.45594000000E+02  0.51100000000E-03 0. -1.
         11   -1    0    0    0    0 -0.00000000000E+00 -0.00000000000E+00 -0.45593999997E+02  0.45594000000E+02  0.51100000000E-03 0.  1.
    9900012    2    1    2    0    0 -0.27040098872E+02 -0.19451165816E+02 -0.27822780242E+02  0.47787286883E+02  0.20000072216E+02 0.  0.
         12    1    1    2    0    0  0.27040098872E+02  0.19451165816E+02  0.27822780242E+02  0.43400713117E+02  0.00000000000E+00 0. -1.
         11    1    3    3    0    0 -0.38923941112E+01 -0.13711045522E+02 -0.88413082907E+01  0.16772365181E+02  0.51100000000E-03 0. -1.
        -11    1    3    3    0    0 -0.89222855347E+01 -0.34038920763E+00 -0.44556007991E+01  0.99787485547E+01  0.51100000000E-03 0.  1.
         12    1    3    3    0    0 -0.14225419227E+02 -0.53997310871E+01 -0.14525871152E+02  0.21036173148E+02  0.00000000000E+00 0. -1.
</event>
<event>
 7    1  0.2476315E-009  0.4778727E+02  0.7816164E-02  0.1312668E+00
        -11   -1    0    0    0    0  0.00000000000E+00  0.00000000000E+00  0.45593999997E+02  0.45594000000E+02  0.51100000000E-03 0.  1.
         11   -1    0    0    0    0 -0.00000000000E+00 -0.00000000000E+00 -0.45593999997E+02  0.45594000000E+02  0.51100000000E-03 0. -1.
    9900012    2    1    2    0    0 -0.74558791519E+01 -0.21582692968E+02  0.36908271598E+02  0.47787270950E+02  0.19999999571E+02 0.  0.
         12    1    1    2    0    0  0.74558791519E+01  0.21582692968E+02 -0.36908271598E+02  0.43400729050E+02  0.00000000000E+00 0. -1.
         11    1    3    3    0    0  0.29565332159E+01 -0.20041048563E+01  0.61214365708E+01  0.70872781012E+01  0.51100000000E-03 0. -1.
        -11    1    3    3    0    0 -0.12394988563E+02 -0.20479815102E+02  0.30008935999E+02  0.38387430341E+02  0.51100000000E-03 0.  1.
        -12    1    3    3    0    0  0.19825761949E+01  0.90122699074E+00  0.77789902828E+00  0.23125625085E+01  0.00000000000E+00 0.  1.
</event>
<event>
 7    1  0.2476315E-009  0.4778727E+02  0.7816164E-02  0.1312668E+00
        -11   -1    0    0    0    0  0.00000000000E+00  0.00000000000E+00  0.45593999997E+02  0.45594000000E+02  0.51100000000E-03 0.  1.
         11   -1    0    0    0    0 -0.00000000000E+00 -0.00000000000E+00 -0.45593999997E+02  0.45594000000E+02  0.51100000000E-03 0. -1.
    9900012    2    1    2    0    0 -0.19363184671E+02 -0.14812884433E+01  0.38813607755E+02  0.47787270939E+02  0.19999999520E+02 0.  0.
         12    1    1    2    0    0  0.19363184671E+02  0.14812884433E+01 -0.38813607755E+02  0.43400729061E+02  0.00000000000E+00 0. -1.
         11    1    3    3    0    0 -0.10635809078E+02 -0.28714583081E+01  0.14286382862E+02  0.18040688543E+02  0.51100000000E-03 0. -1.
        -11    1    3    3    0    0  0.13760267882E+01 -0.45833724637E+01  0.47111895299E+01  0.67153599986E+01  0.51100000000E-03 0.  1.
        -12    1    3    3    0    0 -0.10103402381E+02  0.59735423284E+01  0.19816035364E+02  0.23031222398E+02  0.00000000000E+00 0.  1.
</event>
<event>
 7    1  0.2476315E-009  0.4778727E+02  0.7816164E-02  0.1312668E+00
        -11   -1    0    0    0    0  0.00000000000E+00  0.00000000000E+00  0.45593999997E+02  0.45594000000E+02  0.51100000000E-03 0. -1.
         11   -1    0    0    0    0 -0.00000000000E+00 -0.00000000000E+00 -0.45593999997E+02  0.45594000000E+02  0.51100000000E-03 0.  1.
    9900012    2    1    2    0    0  0.25530865603E+02 -0.64410628189E-01 -0.35096920255E+02  0.47787273525E+02  0.20000011309E+02 0.  0.
         12    1    1    2    0    0 -0.25530865603E+02  0.64410628189E-01  0.35096920255E+02  0.43400726475E+02  0.00000000000E+00 0. -1.
         11    1    3    3    0    0  0.42507372553E+01 -0.38324992291E+01 -0.11451631500E+01  0.58367984766E+01  0.51100000000E-03 0. -1.
        -11    1    3    3    0    0  0.15137126696E+02  0.74689341521E+01 -0.19315584577E+02  0.25651693702E+02  0.51100000000E-03 0.  1.
        -12    1    3    3    0    0  0.61430016511E+01 -0.37008455512E+01 -0.14636172529E+02  0.16298781346E+02  0.00000000000E+00 0.  1.
</event>
<event>
 7    1  0.2476315E-009  0.4778727E+02  0.7816164E-02  0.1312668E+00
        -11   -1    0    0    0    0  0.00000000000E+00  0.00000000000E+00  0.45593999997E+02  0.45594000000E+02  0.51100000000E-03 0.  1.
         11   -1    0    0    0    0 -0.00000000000E+00 -0.00000000000E+00 -0.45593999997E+02  0.45594000000E+02  0.51100000000E-03 0. -1.
    9900012    2    1    2    0    0  0.38457799470E+02  0.88400996928E+01  0.18068578492E+02  0.47787271534E+02  0.20000002231E+02 0.  0.
         12    1    1    2    0    0 -0.38457799470E+02 -0.88400996928E+01 -0.18068578492E+02  0.43400728466E+02  0.00000000000E+00 0. -1.
         11    1    3    3    0    0  0.28948156981E+01 -0.35956038130E-01  0.52589153740E+01  0.60031193503E+01  0.51100000000E-03 0. -1.
        -11    1    3    3    0    0  0.25239108570E+02  0.12633794228E+02  0.59900628990E+01  0.28853183738E+02  0.51100000000E-03 0.  1.
        -12    1    3    3    0    0  0.10323875202E+02 -0.37577384967E+01  0.68196002194E+01  0.12930968446E+02  0.00000000000E+00 0.  1.
</event>
<event>
 7    1  0.2476315E-009  0.4778727E+02  0.7816164E-02  0.1312668E+00
        -11   -1    0    0    0    0  0.00000000000E+00  0.00000000000E+00  0.45593999997E+02  0.45594000000E+02  0.51100000000E-03 0.  1.
         11   -1    0    0    0    0 -0.00000000000E+00 -0.00000000000E+00 -0.45593999997E+02  0.45594000000E+02  0.51100000000E-03 0. -1.
    9900012    2    1    2    0    0  0.26241893851E+02  0.95120128196E+01  0.33234133761E+02  0.47787273882E+02  0.20000012936E+02 0.  0.
         12    1    1    2    0    0 -0.26241893851E+02 -0.95120128196E+01 -0.33234133761E+02  0.43400726118E+02  0.00000000000E+00 0. -1.
         11    1    3    3    0    0  0.93869328716E+01  0.14337853674E+00  0.22496213789E+02  0.24376519465E+02  0.51100000000E-03 0. -1.
        -11    1    3    3    0    0  0.56228373664E+01  0.38735949389E+01  0.81665098338E+01  0.10644854199E+02  0.51100000000E-03 0.  1.
         12    1    3    3    0    0  0.11232123613E+02  0.54950393440E+01  0.25714101382E+01  0.12765900217E+02  0.00000000000E+00 0. -1.
</event>
<event>
 7    1  0.2476315E-009  0.4778727E+02  0.7816164E-02  0.1312668E+00
        -11   -1    0    0    0    0  0.00000000000E+00  0.00000000000E+00  0.45593999997E+02  0.45594000000E+02  0.51100000000E-03 0.  1.
         11   -1    0    0    0    0 -0.00000000000E+00 -0.00000000000E+00 -0.45593999997E+02  0.45594000000E+02  0.51100000000E-03 0. -1.
    9900012    2    1    2    0    0  0.26840672525E+02  0.21854637716E+02  0.26183516391E+02  0.47787269339E+02  0.19999992226E+02 0.  0.
         12    1    1    2    0    0 -0.26840672525E+02 -0.21854637716E+02 -0.26183516391E+02  0.43400730661E+02  0.00000000000E+00 0. -1.
         11    1    3    3    0    0 -0.16731614253E+01  0.16505916926E+01 -0.78347182868E+00  0.24774483765E+01  0.51100000000E-03 0. -1.
        -11    1    3    3    0    0  0.29296112942E+02  0.20119405912E+02  0.26783722324E+02  0.44501915796E+02  0.51100000000E-03 0.  1.
        -12    1    3    3    0    0 -0.78227899181E+00  0.84640111968E-01  0.18326589507E+00  0.80790516639E+00  0.00000000000E+00 0.  1.
</event>
<event>
 7    1  0.2476315E-009  0.4778727E+02  0.7816164E-02  0.1312668E+00
        -11   -1    0    0    0    0  0.00000000000E+00  0.00000000000E+00  0.45593999997E+02  0.45594000000E+02  0.51100000000E-03 0.  1.
         11   -1    0    0    0    0 -0.00000000000E+00 -0.00000000000E+00 -0.45593999997E+02  0.45594000000E+02  0.51100000000E-03 0. -1.
    9900012    2    1    2    0    0 -0.16051838935E+02  0.26866182795E+01  0.40233615252E+02  0.47787271352E+02  0.20000001402E+02 0.  0.
         12    1    1    2    0    0  0.16051838935E+02 -0.26866182795E+01 -0.40233615252E+02  0.43400728648E+02  0.00000000000E+00 0. -1.
         11    1    3    3    0    0 -0.63652810049E+01 -0.24489384487E+01  0.30727281873E+02  0.31475068758E+02  0.51100000000E-03 0. -1.
        -11    1    3    3    0    0 -0.20853243153E+01  0.52467326878E+01  0.37745800667E+01  0.67914826318E+01  0.51100000000E-03 0.  1.
        -12    1    3    3    0    0 -0.76012336145E+01 -0.11117595962E+00  0.57317533124E+01  0.95207199618E+01  0.00000000000E+00 0.  1.
</event>
<event>
 7    1  0.2476315E-009  0.4778727E+02  0.7816164E-02  0.1312668E+00
        -11   -1    0    0    0    0  0.00000000000E+00  0.00000000000E+00  0.45593999997E+02  0.45594000000E+02  0.51100000000E-03 0.  1.
         11   -1    0    0    0    0 -0.00000000000E+00 -0.00000000000E+00 -0.45593999997E+02  0.45594000000E+02  0.51100000000E-03 0. -1.
    9900012    2    1    2    0    0 -0.10359910345E+00 -0.99401845457E+01  0.42246952449E+02  0.47787274282E+02  0.20000014762E+02 0.  0.
         12    1    1    2    0    0  0.10359910345E+00  0.99401845457E+01 -0.42246952449E+02  0.43400725718E+02  0.00000000000E+00 0. -1.
         11    1    3    3    0    0  0.36209749346E+01  0.36564228626E+01  0.14274902187E+02  0.15174113494E+02  0.51100000000E-03 0. -1.
        -11    1    3    3    0    0 -0.11156799391E+01 -0.53071510983E+01  0.20329274002E+02  0.21040199054E+02  0.51100000000E-03 0.  1.
         12    1    3    3    0    0 -0.26088940990E+01 -0.82894563101E+01  0.76427762608E+01  0.11572961734E+02  0.00000000000E+00 0. -1.
</event>
<event>
 7    1  0.2476315E-009  0.4778727E+02  0.7816164E-02  0.1312668E+00
        -11   -1    0    0    0    0  0.00000000000E+00  0.00000000000E+00  0.45593999997E+02  0.45594000000E+02  0.51100000000E-03 0. -1.
         11   -1    0    0    0    0 -0.00000000000E+00 -0.00000000000E+00 -0.45593999997E+02  0.45594000000E+02  0.51100000000E-03 0.  1.
    9900012    2    1    2    0    0 -0.11080236175E+02 -0.21492592392E+02 -0.36040534937E+02  0.47787270513E+02  0.19999997577E+02 0.  0.
         12    1    1    2    0    0  0.11080236175E+02  0.21492592392E+02  0.36040534937E+02  0.43400729487E+02  0.00000000000E+00 0. -1.
         11    1    3    3    0    0 -0.39600407016E+00 -0.14470326785E+02 -0.20410558321E+02  0.25022751003E+02  0.51100000000E-03 0.  1.
        -11    1    3    3    0    0 -0.96355157298E+01 -0.19076707000E+00 -0.92682941571E+01  0.13370894970E+02  0.51100000000E-03 0. -1.
         12    1    3    3    0    0 -0.10487163754E+01 -0.68314985371E+01 -0.63616824589E+01  0.93936245404E+01  0.00000000000E+00 0. -1.
</event>
<event>
 7    1  0.2476315E-009  0.4778727E+02  0.7816164E-02  0.1312668E+00
        -11   -1    0    0    0    0  0.00000000000E+00  0.00000000000E+00  0.45593999997E+02  0.45594000000E+02  0.51100000000E-03 0.  1.
         11   -1    0    0    0    0 -0.00000000000E+00 -0.00000000000E+00 -0.45593999997E+02  0.45594000000E+02  0.51100000000E-03 0. -1.
    9900012    2    1    2    0    0 -0.17717261375E+02 -0.11259421064E+02  0.37986152314E+02  0.47787266355E+02  0.19999978617E+02 0.  0.
         12    1    1    2    0    0  0.17717261375E+02  0.11259421064E+02 -0.37986152314E+02  0.43400733645E+02  0.00000000000E+00 0. -1.
         11    1    3    3    0    0 -0.18804012151E+02 -0.77681181064E+01  0.21572923145E+02  0.29653423835E+02  0.51100000000E-03 0. -1.
        -11    1    3    3    0    0  0.14015915064E+01 -0.24654933147E+01  0.16766101477E+02  0.17004272258E+02  0.51100000000E-03 0.  1.
         12    1    3    3    0    0 -0.31484073094E+00 -0.10258096431E+01 -0.35287230743E+00  0.11295702613E+01  0.00000000000E+00 0. -1.
</event>
<event>
 7    1  0.2476315E-009  0.4778727E+02  0.7816164E-02  0.1312668E+00
        -11   -1    0    0    0    0  0.00000000000E+00  0.00000000000E+00  0.45593999997E+02  0.45594000000E+02  0.51100000000E-03 0. -1.
         11   -1    0    0    0    0 -0.00000000000E+00 -0.00000000000E+00 -0.45593999997E+02  0.45594000000E+02  0.51100000000E-03 0.  1.
    9900012    2    1    2    0    0  0.24991011263E+02  0.33819671920E+02  0.10737897327E+02  0.47787270839E+02  0.19999999063E+02 0.  0.
         12    1    1    2    0    0 -0.24991011263E+02 -0.33819671920E+02 -0.10737897327E+02  0.43400729161E+02  0.00000000000E+00 0. -1.
         11    1    3    3    0    0  0.18828589460E+02  0.22916272232E+02  0.30121388914E+01  0.29811814689E+02  0.51100000000E-03 0.  1.
        -11    1    3    3    0    0  0.47687356317E+01  0.98560358523E+01  0.10189772193E+02  0.14957063209E+02  0.51100000000E-03 0. -1.
        -12    1    3    3    0    0  0.13936861718E+01  0.10473638352E+01 -0.24640137575E+01  0.30183929410E+01  0.00000000000E+00 0.  1.
</event>
<event>
 7    1  0.2476315E-009  0.4778727E+02  0.7816164E-02  0.1312668E+00
        -11   -1    0    0    0    0  0.00000000000E+00  0.00000000000E+00  0.45593999997E+02  0.45594000000E+02  0.51100000000E-03 0. -1.
         11   -1    0    0    0    0 -0.00000000000E+00 -0.00000000000E+00 -0.45593999997E+02  0.45594000000E+02  0.51100000000E-03 0.  1.
    9900012    2    1    2    0    0  0.17685758874E+02 -0.31672661895E+02  0.23826030681E+02  0.47787270553E+02  0.19999997761E+02 0.  0.
         12    1    1    2    0    0 -0.17685758874E+02  0.31672661895E+02 -0.23826030681E+02  0.43400729447E+02  0.00000000000E+00 0. -1.
         11    1    3    3    0    0  0.59414870952E+01 -0.86280259627E+01 -0.87920773124E+00  0.10512711706E+02  0.51100000000E-03 0. -1.
        -11    1    3    3    0    0  0.73423375812E+01 -0.19682861786E+02  0.23655526006E+02  0.31637143994E+02  0.51100000000E-03 0.  1.
        -12    1    3    3    0    0  0.44019341977E+01 -0.33617741467E+01  0.10497124069E+01  0.56374148536E+01  0.00000000000E+00 0.  1.
</event>
<event>
 7    1  0.2476315E-009  0.4778727E+02  0.7816164E-02  0.1312668E+00
        -11   -1    0    0    0    0  0.00000000000E+00  0.00000000000E+00  0.45593999997E+02  0.45594000000E+02  0.51100000000E-03 0.  1.
         11   -1    0    0    0    0 -0.00000000000E+00 -0.00000000000E+00 -0.45593999997E+02  0.45594000000E+02  0.51100000000E-03 0. -1.
    9900012    2    1    2    0    0  0.18283288447E+02  0.24345028214E+02  0.30929988121E+02  0.47787271892E+02  0.20000003865E+02 0.  0.
         12    1    1    2    0    0 -0.18283288447E+02 -0.24345028214E+02 -0.30929988121E+02  0.43400728108E+02  0.00000000000E+00 0. -1.
         11    1    3    3    0    0 -0.32805140317E+01  0.31094375753E+01  0.22683246019E+01  0.50572394750E+01  0.51100000000E-03 0. -1.
        -11    1    3    3    0    0  0.18247602183E+02  0.11968778555E+02  0.20556804277E+02  0.29980140892E+02  0.51100000000E-03 0.  1.
         12    1    3    3    0    0  0.33162002955E+01  0.92668120830E+01  0.81048592415E+01  0.12749891525E+02  0.00000000000E+00 0. -1.
</event>
<event>
 7    1  0.2476315E-009  0.4778727E+02  0.7816164E-02  0.1312668E+00
        -11   -1    0    0    0    0  0.00000000000E+00  0.00000000000E+00  0.45593999997E+02  0.45594000000E+02  0.51100000000E-03 0.  1.
         11   -1    0    0    0    0 -0.00000000000E+00 -0.00000000000E+00 -0.45593999997E+02  0.45594000000E+02  0.51100000000E-03 0. -1.
    9900012    2    1    2    0    0  0.24681747163E+02 -0.35333969635E+02 -0.50936416863E+01  0.47787271448E+02  0.20000001841E+02 0.  0.
         12    1    1    2    0    0 -0.24681747163E+02  0.35333969635E+02  0.50936416863E+01  0.43400728552E+02  0.00000000000E+00 0. -1.
         11    1    3    3    0    0 -0.22246854431E+01 -0.80318357525E+00 -0.21657045937E+01  0.32069620865E+01  0.51100000000E-03 0. -1.
        -11    1    3    3    0    0  0.20739180242E+02 -0.20725077495E+02 -0.99368376393E+00  0.29336493348E+02  0.51100000000E-03 0.  1.
         12    1    3    3    0    0  0.61672523635E+01 -0.13805708565E+02 -0.19342533287E+01  0.15243816013E+02  0.00000000000E+00 0. -1.
</event>
<event>
 7    1  0.2476315E-009  0.4778727E+02  0.7816164E-02  0.1312668E+00
        -11   -1    0    0    0    0  0.00000000000E+00  0.00000000000E+00  0.45593999997E+02  0.45594000000E+02  0.51100000000E-03 0.  1.
         11   -1    0    0    0    0 -0.00000000000E+00 -0.00000000000E+00 -0.45593999997E+02  0.45594000000E+02  0.51100000000E-03 0. -1.
    9900012    2    1    2    0    0  0.22654170561E+02  0.32874481046E+02 -0.17019990584E+02  0.47787273884E+02  0.20000012948E+02 0.  0.
         12    1    1    2    0    0 -0.22654170561E+02 -0.32874481046E+02  0.17019990584E+02  0.43400726116E+02  0.00000000000E+00 0. -1.
         11    1    3    3    0    0 -0.12433608876E+00  0.38097329740E+01 -0.14190863358E+01  0.40673493931E+01  0.51100000000E-03 0. -1.
        -11    1    3    3    0    0 -0.12722346327E+01  0.32179868423E+01  0.22804646441E+01  0.41442176019E+01  0.51100000000E-03 0.  1.
        -12    1    3    3    0    0  0.24050741283E+02  0.25846761230E+02 -0.17881368892E+02  0.39575706889E+02  0.00000000000E+00 0.  1.
</event>
<event>
 7    1  0.2476315E-009  0.4778727E+02  0.7816164E-02  0.1312668E+00
        -11   -1    0    0    0    0  0.00000000000E+00  0.00000000000E+00  0.45593999997E+02  0.45594000000E+02  0.51100000000E-03 0.  1.
         11   -1    0    0    0    0 -0.00000000000E+00 -0.00000000000E+00 -0.45593999997E+02  0.45594000000E+02  0.51100000000E-03 0. -1.
    9900012    2    1    2    0    0 -0.33192601277E+02  0.54398892738E+01  0.27427766600E+02  0.47787267800E+02  0.19999985207E+02 0.  0.
         12    1    1    2    0    0  0.33192601277E+02 -0.54398892738E+01 -0.27427766600E+02  0.43400732200E+02  0.00000000000E+00 0. -1.
         11    1    3    3    0    0 -0.23679212983E+02  0.60400235658E+01  0.23451710972E+02  0.33869894596E+02  0.51100000000E-03 0. -1.
        -11    1    3    3    0    0 -0.84397945924E+01  0.95096420983E+00  0.65504611263E+01  0.10725810315E+02  0.51100000000E-03 0.  1.
         12    1    3    3    0    0 -0.10735937018E+01 -0.15510985018E+01 -0.25744054990E+01  0.31915628886E+01  0.00000000000E+00 0. -1.
</event>
<event>
 7    1  0.2476315E-009  0.4778727E+02  0.7816164E-02  0.1312668E+00
        -11   -1    0    0    0    0  0.00000000000E+00  0.00000000000E+00  0.45593999997E+02  0.45594000000E+02  0.51100000000E-03 0. -1.
         11   -1    0    0    0    0 -0.00000000000E+00 -0.00000000000E+00 -0.45593999997E+02  0.45594000000E+02  0.51100000000E-03 0.  1.
    9900012    2    1    2    0    0 -0.25144723733E+02 -0.26269929122E+02 -0.23690860148E+02  0.47787272331E+02  0.20000005864E+02 0.  0.
         12    1    1    2    0    0  0.25144723733E+02  0.26269929122E+02  0.23690860148E+02  0.43400727669E+02  0.00000000000E+00 0. -1.
         11    1    3    3    0    0 -0.12340976395E+00  0.21832383036E+01  0.69101901353E-01  0.21878150731E+01  0.51100000000E-03 0. -1.
        -11    1    3    3    0    0 -0.43319665557E+01 -0.90171766672E+01 -0.96490694151E+01  0.13898919027E+02  0.51100000000E-03 0.  1.
         12    1    3    3    0    0 -0.20689347414E+02 -0.19435990758E+02 -0.14110892634E+02  0.31700538230E+02  0.00000000000E+00 0. -1.
</event>
<event>
 7    1  0.2476315E-009  0.4778727E+02  0.7816164E-02  0.1312668E+00
        -11   -1    0    0    0    0  0.00000000000E+00  0.00000000000E+00  0.45593999997E+02  0.45594000000E+02  0.51100000000E-03 0.  1.
         11   -1    0    0    0    0 -0.00000000000E+00 -0.00000000000E+00 -0.45593999997E+02  0.45594000000E+02  0.51100000000E-03 0. -1.
    9900012    2    1    2    0    0 -0.15401628527E+02  0.31241304735E+02  0.25891965532E+02  0.47787272334E+02  0.20000005880E+02 0.  0.
         12    1    1    2    0    0  0.15401628527E+02 -0.31241304735E+02 -0.25891965532E+02  0.43400727666E+02  0.00000000000E+00 0. -1.
         11    1    3    3    0    0 -0.97598292278E+01  0.23952205195E+02  0.25157815339E+02  0.36081547544E+02  0.51100000000E-03 0.  1.
        -11    1    3    3    0    0 -0.20589892620E+01  0.41542533071E+01 -0.31132424538E+01  0.55847592748E+01  0.51100000000E-03 0. -1.
         12    1    3    3    0    0 -0.35828100370E+01  0.31348462327E+01  0.38473926463E+01  0.61209655152E+01  0.00000000000E+00 0. -1.
</event>
<event>
 7    1  0.2476315E-009  0.4778727E+02  0.7816164E-02  0.1312668E+00
        -11   -1    0    0    0    0  0.00000000000E+00  0.00000000000E+00  0.45593999997E+02  0.45594000000E+02  0.51100000000E-03 0.  1.
         11   -1    0    0    0    0 -0.00000000000E+00 -0.00000000000E+00 -0.45593999997E+02  0.45594000000E+02  0.51100000000E-03 0. -1.
    9900012    2    1    2    0    0  0.22434094768E+02  0.22472713047E+02  0.29585668139E+02  0.47787271907E+02  0.20000003934E+02 0.  0.
         12    1    1    2    0    0 -0.22434094768E+02 -0.22472713047E+02 -0.29585668139E+02  0.43400728093E+02  0.00000000000E+00 0. -1.
         11    1    3    3    0    0  0.13168205799E+02  0.10610577300E+02  0.66310218940E+01  0.18164703307E+02  0.51100000000E-03 0. -1.
        -11    1    3    3    0    0  0.34771336148E+01  0.30343372306E+01  0.16757767448E+02  0.17381611856E+02  0.51100000000E-03 0.  1.
        -12    1    3    3    0    0  0.57887553546E+01  0.88277985163E+01  0.61968787966E+01  0.12240956744E+02  0.00000000000E+00 0.  1.
</event>
<event>
 7    1  0.2476315E-009  0.4778727E+02  0.7816164E-02  0.1312668E+00
        -11   -1    0    0    0    0  0.00000000000E+00  0.00000000000E+00  0.45593999997E+02  0.45594000000E+02  0.51100000000E-03 0. -1.
         11   -1    0    0    0    0 -0.00000000000E+00 -0.00000000000E+00 -0.45593999997E+02  0.45594000000E+02  0.51100000000E-03 0.  1.
    9900012    2    1    2    0    0  0.20800325461E+02 -0.34391935828E+02 -0.16375732348E+02  0.47787269600E+02  0.19999993416E+02 0.  0.
         12    1    1    2    0    0 -0.20800325461E+02  0.34391935828E+02  0.16375732348E+02  0.43400730400E+02  0.00000000000E+00 0. -1.
         11    1    3    3    0    0 -0.16545013665E+01 -0.10955457185E+02 -0.31809153526E+01  0.11527256379E+02  0.51100000000E-03 0. -1.
        -11    1    3    3    0    0  0.20374135880E+02 -0.15669801420E+02 -0.10700026397E+02  0.27841312013E+02  0.51100000000E-03 0.  1.
        -12    1    3    3    0    0  0.20806909474E+01 -0.77666772231E+01 -0.24947905981E+01  0.84187012084E+01  0.00000000000E+00 0.  1.
</event>
<event>
 7    1  0.2476315E-009  0.4778727E+02  0.7816164E-02  0.1312668E+00
        -11   -1    0    0    0    0  0.00000000000E+00  0.00000000000E+00  0.45593999997E+02  0.45594000000E+02  0.51100000000E-03 0.  1.
         11   -1    0    0    0    0 -0.00000000000E+00 -0.00000000000E+00 -0.45593999997E+02  0.45594000000E+02  0.51100000000E-03 0. -1.
    9900012    2    1    2    0    0  0.19686303912E+02 -0.10129440477E+02  0.37329171407E+02  0.47787272310E+02  0.20000005770E+02 0.  0.
         12    1    1    2    0    0 -0.19686303912E+02  0.10129440477E+02 -0.37329171407E+02  0.43400727690E+02  0.00000000000E+00 0. -1.
         11    1    3    3    0    0  0.11616193110E+01 -0.35112191439E+01  0.16104365469E+02  0.16523577298E+02  0.51100000000E-03 0. -1.
        -11    1    3    3    0    0  0.13606515092E+02 -0.10060704445E+02  0.16351762072E+02  0.23531577720E+02  0.51100000000E-03 0.  1.
        -12    1    3    3    0    0  0.49181695088E+01  0.34424831119E+01  0.48730438659E+01  0.77321172917E+01  0.00000000000E+00 0.  1.
</event>
<event>
 7    1  0.2476315E-009  0.4778726E+02  0.7816164E-02  0.1312668E+00
        -11   -1    0    0    0    0  0.00000000000E+00  0.00000000000E+00  0.45593999997E+02  0.45594000000E+02  0.51100000000E-03 0. -1.
         11   -1    0    0    0    0 -0.00000000000E+00 -0.00000000000E+00 -0.45593999997E+02  0.45594000000E+02  0.51100000000E-03 0.  1.
    9900012    2    1    2    0    0  0.24254324813E+02  0.28068153269E+02 -0.22528436369E+02  0.47787263309E+02  0.19999964733E+02 0.  0.
         12    1    1    2    0    0 -0.24254324813E+02 -0.28068153269E+02  0.22528436369E+02  0.43400736691E+02  0.00000000000E+00 0. -1.
         11    1    3    3    0    0  0.11298148038E+01  0.72107881268E+01 -0.11700384136E+02  0.13790247862E+02  0.51100000000E-03 0. -1.
        -11    1    3    3    0    0  0.51041387874E+01  0.97431418495E+01 -0.46520884306E+01  0.11942486043E+02  0.51100000000E-03 0.  1.
         12    1    3    3    0    0  0.18020371222E+02  0.11114223292E+02 -0.61759638030E+01  0.22054529405E+02  0.00000000000E+00 0. -1.
</event>
<event>
 7    1  0.2476315E-009  0.4778732E+02  0.7816164E-02  0.1312668E+00
        -11   -1    0    0    0    0  0.00000000000E+00  0.00000000000E+00  0.45593999997E+02  0.45594000000E+02  0.51100000000E-03 0.  1.
         11   -1    0    0    0    0 -0.00000000000E+00 -0.00000000000E+00 -0.45593999997E+02  0.45594000000E+02  0.51100000000E-03 0. -1.
    9900012    2    1    2    0    0 -0.12800682274E+02  0.30814684964E+02  0.27752782864E+02  0.47787317600E+02  0.20000212263E+02 0.  0.
         12    1    1    2    0    0  0.12800682274E+02 -0.30814684964E+02 -0.27752782864E+02  0.43400682400E+02  0.00000000000E+00 0. -1.
         11    1    3    3    0    0 -0.17122271434E+01 -0.28280995887E+01  0.16467193858E+01  0.36934474507E+01  0.51100000000E-03 0. -1.
        -11    1    3    3    0    0 -0.49866340899E+01  0.14223299308E+02  0.12812063361E+02  0.19781752464E+02  0.51100000000E-03 0.  1.
         12    1    3    3    0    0 -0.61018210409E+01  0.19419485245E+02  0.13294000117E+02  0.24312117685E+02  0.00000000000E+00 0. -1.
</event>
<event>
 7    1  0.2476315E-009  0.4778727E+02  0.7816164E-02  0.1312668E+00
        -11   -1    0    0    0    0  0.00000000000E+00  0.00000000000E+00  0.45593999997E+02  0.45594000000E+02  0.51100000000E-03 0.  1.
         11   -1    0    0    0    0 -0.00000000000E+00 -0.00000000000E+00 -0.45593999997E+02  0.45594000000E+02  0.51100000000E-03 0. -1.
    9900012    2    1    2    0    0  0.30903452597E+01 -0.32501642253E+02  0.28595744446E+02  0.47787267478E+02  0.19999983741E+02 0.  0.
         12    1    1    2    0    0 -0.30903452597E+01  0.32501642253E+02 -0.28595744446E+02  0.43400732522E+02  0.00000000000E+00 0. -1.
         11    1    3    3    0    0  0.10443438591E+01 -0.25875301730E+02  0.13255934848E+02  0.29091952541E+02  0.51100000000E-03 0. -1.
        -11    1    3    3    0    0  0.22149633832E+01 -0.80112183287E+01  0.15159436140E+02  0.17288556511E+02  0.51100000000E-03 0.  1.
        -12    1    3    3    0    0 -0.16896198254E+00  0.13848778049E+01  0.18037345855E+00  0.14067584265E+01  0.00000000000E+00 0.  1.
</event>
<event>
 7    1  0.2476315E-009  0.4778727E+02  0.7816164E-02  0.1312668E+00
        -11   -1    0    0    0    0  0.00000000000E+00  0.00000000000E+00  0.45593999997E+02  0.45594000000E+02  0.51100000000E-03 0. -1.
         11   -1    0    0    0    0 -0.00000000000E+00 -0.00000000000E+00 -0.45593999997E+02  0.45594000000E+02  0.51100000000E-03 0.  1.
    9900012    2    1    2    0    0 -0.23643101055E+02 -0.16640253420E+02 -0.32368642965E+02  0.47787270642E+02  0.19999998165E+02 0.  0.
         12    1    1    2    0    0  0.23643101055E+02  0.16640253420E+02  0.32368642965E+02  0.43400729358E+02  0.00000000000E+00 0. -1.
         11    1    3    3    0    0 -0.71814312559E+00  0.10260981061E+01  0.10947142028E+01  0.16634320903E+01  0.51100000000E-03 0. -1.
        -11    1    3    3    0    0 -0.19424487325E+02 -0.15753742033E+02 -0.33882336883E+02  0.42112989074E+02  0.51100000000E-03 0.  1.
        -12    1    3    3    0    0 -0.35004706049E+01 -0.19126094932E+01  0.41897971448E+00  0.40108494774E+01  0.00000000000E+00 0.  1.
</event>
<event>
 7    1  0.2476315E-009  0.4778727E+02  0.7816164E-02  0.1312668E+00
        -11   -1    0    0    0    0  0.00000000000E+00  0.00000000000E+00  0.45593999997E+02  0.45594000000E+02  0.51100000000E-03 0. -1.
         11   -1    0    0    0    0 -0.00000000000E+00 -0.00000000000E+00 -0.45593999997E+02  0.45594000000E+02  0.51100000000E-03 0.  1.
    9900012    2    1    2    0    0 -0.21306121577E+02  0.32435494280E+02 -0.19432218311E+02  0.47787271731E+02  0.20000003129E+02 0.  0.
         12    1    1    2    0    0  0.21306121577E+02 -0.32435494280E+02  0.19432218311E+02  0.43400728269E+02  0.00000000000E+00 0. -1.
         11    1    3    3    0    0 -0.15639368307E+02  0.17513842151E+02 -0.35798728488E+01  0.23751631477E+02  0.51100000000E-03 0. -1.
        -11    1    3    3    0    0 -0.63089992142E+01  0.95503834226E+01 -0.14474667875E+02  0.18453436129E+02  0.51100000000E-03 0.  1.
        -12    1    3    3    0    0  0.64224594369E+00  0.53712687056E+01 -0.13776775867E+01  0.55822041250E+01  0.00000000000E+00 0.  1.
</event>
<event>
 7    1  0.2476315E-009  0.4778727E+02  0.7816164E-02  0.1312668E+00
        -11   -1    0    0    0    0  0.00000000000E+00  0.00000000000E+00  0.45593999997E+02  0.45594000000E+02  0.51100000000E-03 0.  1.
         11   -1    0    0    0    0 -0.00000000000E+00 -0.00000000000E+00 -0.45593999997E+02  0.45594000000E+02  0.51100000000E-03 0. -1.
    9900012    2    1    2    0    0 -0.26281814019E+02  0.11600123876E+02  0.32531937361E+02  0.47787267627E+02  0.19999984417E+02 0.  0.
         12    1    1    2    0    0  0.26281814019E+02 -0.11600123876E+02 -0.32531937361E+02  0.43400732373E+02  0.00000000000E+00 0. -1.
         11    1    3    3    0    0 -0.25102580335E+02  0.12239230487E+02  0.28374219302E+02  0.39812493311E+02  0.51100000000E-03 0.  1.
        -11    1    3    3    0    0  0.37639040151E+00 -0.19450975534E+01  0.52903654301E+01  0.56491628470E+01  0.51100000000E-03 0. -1.
         12    1    3    3    0    0 -0.15556240853E+01  0.13059909425E+01 -0.11326473707E+01  0.23256114687E+01  0.00000000000E+00 0. -1.
</event>
<event>
 7    1  0.2476315E-009  0.4778730E+02  0.7816164E-02  0.1312668E+00
        -11   -1    0    0    0    0  0.00000000000E+00  0.00000000000E+00  0.45593999997E+02  0.45594000000E+02  0.51100000000E-03 0.  1.
         11   -1    0    0    0    0 -0.00000000000E+00 -0.00000000000E+00 -0.45593999997E+02  0.45594000000E+02  0.51100000000E-03 0. -1.
    9900012    2    1    2    0    0  0.38173086733E+02  0.20098518584E+02 -0.47419450611E+01  0.47787296746E+02  0.20000117183E+02 0.  0.
         12    1    1    2    0    0 -0.38173086733E+02 -0.20098518584E+02  0.47419450611E+01  0.43400703254E+02  0.00000000000E+00 0. -1.
         11    1    3    3    0    0  0.23926493695E+02  0.18499106177E+02 -0.48764325903E+01  0.30634516888E+02  0.51100000000E-03 0.  1.
        -11    1    3    3    0    0  0.18645167280E+01  0.17137704040E+01  0.35007850257E+01  0.43207554529E+01  0.51100000000E-03 0. -1.
         12    1    3    3    0    0  0.12382076309E+02 -0.11435799708E+00 -0.33662974964E+01  0.12832024405E+02  0.00000000000E+00 0. -1.
</event>
<event>
 7    1  0.2476315E-009  0.4778729E+02  0.7816164E-02  0.1312668E+00
        -11   -1    0    0    0    0  0.00000000000E+00  0.00000000000E+00  0.45593999997E+02  0.45594000000E+02  0.51100000000E-03 0.  1.
         11   -1    0    0    0    0 -0.00000000000E+00 -0.00000000000E+00 -0.45593999997E+02  0.45594000000E+02  0.51100000000E-03 0. -1.
    9900012    2    1    2    0    0  0.11589246503E+02 -0.20443631911E+02  0.36487932885E+02  0.47787286107E+02  0.20000068678E+02 0.  0.
         12    1    1    2    0    0 -0.11589246503E+02  0.20443631911E+02 -0.36487932885E+02  0.43400713893E+02  0.00000000000E+00 0. -1.
         11    1    3    3    0    0  0.37477557905E+01 -0.43378999935E+01  0.16311368809E+02  0.17289413018E+02  0.51100000000E-03 0.  1.
        -11    1    3    3    0    0  0.28296401299E+01  0.83888534786E+00 -0.81238123665E+00  0.30611362966E+01  0.51100000000E-03 0. -1.
        -12    1    3    3    0    0  0.50118505821E+01 -0.16944617265E+02  0.20988945312E+02  0.27436736792E+02  0.00000000000E+00 0.  1.
</event>
<event>
 7    1  0.2476315E-009  0.4778728E+02  0.7816164E-02  0.1312668E+00
        -11   -1    0    0    0    0  0.00000000000E+00  0.00000000000E+00  0.45593999997E+02  0.45594000000E+02  0.51100000000E-03 0. -1.
         11   -1    0    0    0    0 -0.00000000000E+00 -0.00000000000E+00 -0.45593999997E+02  0.45594000000E+02  0.51100000000E-03 0.  1.
    9900012    2    1    2    0    0 -0.18162617222E+01 -0.41764065591E+02 -0.11665614697E+02  0.47787279411E+02  0.20000038147E+02 0.  0.
         12    1    1    2    0    0  0.18162617222E+01  0.41764065591E+02  0.11665614697E+02  0.43400720589E+02  0.00000000000E+00 0. -1.
         11    1    3    3    0    0 -0.48222480625E+01 -0.22071639975E+02 -0.10315537676E+02  0.24835895099E+02  0.51100000000E-03 0. -1.
        -11    1    3    3    0    0  0.68042903578E+01 -0.14996045222E+02  0.93356192025E+00  0.16493977013E+02  0.51100000000E-03 0.  1.
         12    1    3    3    0    0 -0.37983040174E+01 -0.46963803942E+01 -0.22836389411E+01  0.64574072993E+01  0.00000000000E+00 0. -1.
</event>
<event>
 7    1  0.2476315E-009  0.4778727E+02  0.7816164E-02  0.1312668E+00
        -11   -1    0    0    0    0  0.00000000000E+00  0.00000000000E+00  0.45593999997E+02  0.45594000000E+02  0.51100000000E-03 0. -1.
         11   -1    0    0    0    0 -0.00000000000E+00 -0.00000000000E+00 -0.45593999997E+02  0.45594000000E+02  0.51100000000E-03 0.  1.
    9900012    2    1    2    0    0 -0.22262626651E+02 -0.59272565542E+01 -0.36781331749E+02  0.47787270964E+02  0.19999999633E+02 0.  0.
         12    1    1    2    0    0  0.22262626651E+02  0.59272565542E+01  0.36781331749E+02  0.43400729036E+02  0.00000000000E+00 0. -1.
         11    1    3    3    0    0 -0.24839939444E+01 -0.76926849860E+01 -0.69315985257E+01  0.10648694126E+02  0.51100000000E-03 0. -1.
        -11    1    3    3    0    0 -0.82393408140E+01  0.20052201078E+00 -0.20854444723E+02  0.22423978485E+02  0.51100000000E-03 0.  1.
        -12    1    3    3    0    0 -0.11539291893E+02  0.15649064210E+01 -0.89952884996E+01  0.14714598353E+02  0.00000000000E+00 0.  1.
</event>
<event>
 7    1  0.2476315E-009  0.4778727E+02  0.7816164E-02  0.1312668E+00
        -11   -1    0    0    0    0  0.00000000000E+00  0.00000000000E+00  0.45593999997E+02  0.45594000000E+02  0.51100000000E-03 0.  1.
         11   -1    0    0    0    0 -0.00000000000E+00 -0.00000000000E+00 -0.45593999997E+02  0.45594000000E+02  0.51100000000E-03 0. -1.
    9900012    2    1    2    0    0  0.35789153273E+02 -0.78319335844E+00  0.24538673628E+02  0.47787269739E+02  0.19999994047E+02 0.  0.
         12    1    1    2    0    0 -0.35789153273E+02  0.78319335844E+00 -0.24538673628E+02  0.43400730261E+02  0.00000000000E+00 0. -1.
         11    1    3    3    0    0  0.13318317163E+02 -0.60182888234E+01  0.91305073487E+01  0.17232630012E+02  0.51100000000E-03 0. -1.
        -11    1    3    3    0    0  0.19956011104E+02  0.66846267315E+01  0.17168118255E+02  0.27160097540E+02  0.51100000000E-03 0.  1.
        -12    1    3    3    0    0  0.25148250057E+01 -0.14495312666E+01 -0.17599519756E+01  0.33945421869E+01  0.00000000000E+00 0.  1.
</event>
<event>
 7    1  0.2476315E-009  0.4778727E+02  0.7816164E-02  0.1312668E+00
        -11   -1    0    0    0    0  0.00000000000E+00  0.00000000000E+00  0.45593999997E+02  0.45594000000E+02  0.51100000000E-03 0. -1.
         11   -1    0    0    0    0 -0.00000000000E+00 -0.00000000000E+00 -0.45593999997E+02  0.45594000000E+02  0.51100000000E-03 0.  1.
    9900012    2    1    2    0    0  0.14834555514E+02 -0.31263949049E+02 -0.26193980649E+02  0.47787272245E+02  0.20000005475E+02 0.  0.
         12    1    1    2    0    0 -0.14834555514E+02  0.31263949049E+02  0.26193980649E+02  0.43400727755E+02  0.00000000000E+00 0. -1.
         11    1    3    3    0    0  0.29184498105E+01 -0.85842805030E+00 -0.80161002046E+01  0.85739203848E+01  0.51100000000E-03 0.  1.
        -11    1    3    3    0    0  0.25565287526E+01 -0.15585808247E+02 -0.31061355504E+01  0.16096624997E+02  0.51100000000E-03 0. -1.
         12    1    3    3    0    0  0.93595769512E+01 -0.14819712752E+02 -0.15071744894E+02  0.23116726864E+02  0.00000000000E+00 0. -1.
</event>
<event>
 7    1  0.2476315E-009  0.4778727E+02  0.7816164E-02  0.1312668E+00
        -11   -1    0    0    0    0  0.00000000000E+00  0.00000000000E+00  0.45593999997E+02  0.45594000000E+02  0.51100000000E-03 0.  1.
         11   -1    0    0    0    0 -0.00000000000E+00 -0.00000000000E+00 -0.45593999997E+02  0.45594000000E+02  0.51100000000E-03 0. -1.
    9900012    2    1    2    0    0  0.41144691880E+02 -0.58566193133E+01 -0.12507511667E+02  0.47787268350E+02  0.19999987715E+02 0.  0.
         12    1    1    2    0    0 -0.41144691880E+02  0.58566193133E+01  0.12507511667E+02  0.43400731650E+02  0.00000000000E+00 0. -1.
         11    1    3    3    0    0  0.11644245068E+01  0.25020989822E+01 -0.83112678942E+00  0.28822136892E+01  0.51100000000E-03 0. -1.
        -11    1    3    3    0    0  0.29810175558E+02 -0.11757880037E+02 -0.11889743627E+02  0.34179823193E+02  0.51100000000E-03 0.  1.
        -12    1    3    3    0    0  0.10170091815E+02  0.33991617418E+01  0.21335874931E+00  0.10725231468E+02  0.00000000000E+00 0.  1.
</event>
<event>
 7    1  0.2476315E-009  0.4778727E+02  0.7816164E-02  0.1312668E+00
        -11   -1    0    0    0    0  0.00000000000E+00  0.00000000000E+00  0.45593999997E+02  0.45594000000E+02  0.51100000000E-03 0.  1.
         11   -1    0    0    0    0 -0.00000000000E+00 -0.00000000000E+00 -0.45593999997E+02  0.45594000000E+02  0.51100000000E-03 0. -1.
    9900012    2    1    2    0    0  0.12575705541E+02 -0.28991170373E+02  0.29748727704E+02  0.47787272708E+02  0.20000007585E+02 0.  0.
         12    1    1    2    0    0 -0.12575705541E+02  0.28991170373E+02 -0.29748727704E+02  0.43400727292E+02  0.00000000000E+00 0. -1.
         11    1    3    3    0    0  0.25896716266E+01  0.10666450835E+01 -0.13473771435E+01  0.31079826730E+01  0.51100000000E-03 0. -1.
        -11    1    3    3    0    0  0.79668386996E+01 -0.22760162241E+02  0.26464831034E+02  0.35803390706E+02  0.51100000000E-03 0.  1.
         12    1    3    3    0    0  0.20191952148E+01 -0.72976532151E+01  0.46312738132E+01  0.88758993289E+01  0.00000000000E+00 0. -1.
</event>
<event>
 7    1  0.2476315E-009  0.4778727E+02  0.7816164E-02  0.1312668E+00
        -11   -1    0    0    0    0  0.00000000000E+00  0.00000000000E+00  0.45593999997E+02  0.45594000000E+02  0.51100000000E-03 0.  1.
         11   -1    0    0    0    0 -0.00000000000E+00 -0.00000000000E+00 -0.45593999997E+02  0.45594000000E+02  0.51100000000E-03 0. -1.
    9900012    2    1    2    0    0  0.32131932394E+02 -0.28203778238E+02 -0.74638843262E+01  0.47787265496E+02  0.19999974702E+02 0.  0.
         12    1    1    2    0    0 -0.32131932394E+02  0.28203778238E+02  0.74638843262E+01  0.43400734504E+02  0.00000000000E+00 0. -1.
         11    1    3    3    0    0  0.23611544072E+02 -0.12428163801E+02 -0.94889908462E+01  0.28319696617E+02  0.51100000000E-03 0. -1.
        -11    1    3    3    0    0  0.11899551490E+01 -0.98886298493E+01  0.98859002383E+00  0.10008911232E+02  0.51100000000E-03 0.  1.
        -12    1    3    3    0    0  0.73304331727E+01 -0.58869845882E+01  0.10365164962E+01  0.94586576472E+01  0.00000000000E+00 0.  1.
</event>
<event>
 7    1  0.2476315E-009  0.4778727E+02  0.7816164E-02  0.1312668E+00
        -11   -1    0    0    0    0  0.00000000000E+00  0.00000000000E+00  0.45593999997E+02  0.45594000000E+02  0.51100000000E-03 0. -1.
         11   -1    0    0    0    0 -0.00000000000E+00 -0.00000000000E+00 -0.45593999997E+02  0.45594000000E+02  0.51100000000E-03 0.  1.
    9900012    2    1    2    0    0 -0.33714577174E+02 -0.45686124820E+01 -0.26945846106E+02  0.47787267789E+02  0.19999985157E+02 0.  0.
         12    1    1    2    0    0  0.33714577174E+02  0.45686124820E+01  0.26945846106E+02  0.43400732211E+02  0.00000000000E+00 0. -1.
         11    1    3    3    0    0 -0.53445826366E+01  0.21252708489E+01 -0.14346208710E+02  0.15456229953E+02  0.51100000000E-03 0. -1.
        -11    1    3    3    0    0 -0.13905876964E+02 -0.58829045548E+01 -0.46103861013E+01  0.15787261967E+02  0.51100000000E-03 0.  1.
         12    1    3    3    0    0 -0.14464117574E+02 -0.81097877609E+00 -0.79892512946E+01  0.16543775869E+02  0.00000000000E+00 0. -1.
</event>
<event>
 7    1  0.2476315E-009  0.4778727E+02  0.7816164E-02  0.1312668E+00
        -11   -1    0    0    0    0  0.00000000000E+00  0.00000000000E+00  0.45593999997E+02  0.45594000000E+02  0.51100000000E-03 0. -1.
         11   -1    0    0    0    0 -0.00000000000E+00 -0.00000000000E+00 -0.45593999997E+02  0.45594000000E+02  0.51100000000E-03 0.  1.
    9900012    2    1    2    0    0  0.27380696037E+02 -0.25814667220E+02 -0.21622300616E+02  0.47787269095E+02  0.19999991113E+02 0.  0.
         12    1    1    2    0    0 -0.27380696037E+02  0.25814667220E+02  0.21622300616E+02  0.43400730905E+02  0.00000000000E+00 0. -1.
         11    1    3    3    0    0  0.80549597168E+00 -0.11427123651E+02 -0.79711451336E+01  0.13955899602E+02  0.51100000000E-03 0. -1.
        -11    1    3    3    0    0  0.23194572377E+02 -0.14826528947E+02 -0.12497312555E+02  0.30232382799E+02  0.51100000000E-03 0.  1.
        -12    1    3    3    0    0  0.33806276876E+01  0.43898537769E+00 -0.11538429281E+01  0.35989866944E+01  0.00000000000E+00 0.  1.
</event>
<event>
 7    1  0.2476315E-009  0.4778727E+02  0.7816164E-02  0.1312668E+00
        -11   -1    0    0    0    0  0.00000000000E+00  0.00000000000E+00  0.45593999997E+02  0.45594000000E+02  0.51100000000E-03 0.  1.
         11   -1    0    0    0    0 -0.00000000000E+00 -0.00000000000E+00 -0.45593999997E+02  0.45594000000E+02  0.51100000000E-03 0. -1.
    9900012    2    1    2    0    0  0.14739124779E+02 -0.10195178334E+02  0.39527706769E+02  0.47787273474E+02  0.20000011079E+02 0.  0.
         12    1    1    2    0    0 -0.14739124779E+02  0.10195178334E+02 -0.39527706769E+02  0.43400726526E+02  0.00000000000E+00 0. -1.
         11    1    3    3    0    0  0.51778870668E+01  0.41943580960E+01  0.14884103780E+02  0.16307657708E+02  0.51100000000E-03 0. -1.
        -11    1    3    3    0    0  0.84798543828E+01 -0.52955579928E+01  0.16121312622E+02  0.18969649067E+02  0.51100000000E-03 0.  1.
         12    1    3    3    0    0  0.10813833297E+01 -0.90939784371E+01  0.85222903668E+01  0.12509966699E+02  0.00000000000E+00 0. -1.
</event>
<event>
 7    1  0.2476315E-009  0.4778727E+02  0.7816164E-02  0.1312668E+00
        -11   -1    0    0    0    0  0.00000000000E+00  0.00000000000E+00  0.45593999997E+02  0.45594000000E+02  0.51100000000E-03 0. -1.
         11   -1    0    0    0    0 -0.00000000000E+00 -0.00000000000E+00 -0.45593999997E+02  0.45594000000E+02  0.51100000000E-03 0.  1.
    9900012    2    1    2    0    0  0.30191537228E+02  0.33984099639E+01 -0.30992664590E+02  0.47787269950E+02  0.19999995010E+02 0.  0.
         12    1    1    2    0    0 -0.30191537228E+02 -0.33984099639E+01  0.30992664590E+02  0.43400730050E+02  0.00000000000E+00 0. -1.
         11    1    3    3    0    0  0.28851541502E+02 -0.17903378200E+01 -0.25346978139E+02  0.38445884794E+02  0.51100000000E-03 0. -1.
        -11    1    3    3    0    0  0.24885900217E+01  0.21426730393E+01 -0.50622088714E+01  0.60340771431E+01  0.51100000000E-03 0.  1.
         12    1    3    3    0    0 -0.11485942957E+01  0.30460747447E+01 -0.58347758027E+00  0.33073080131E+01  0.00000000000E+00 0. -1.
</event>
<event>
 7    1  0.2476315E-009  0.4778727E+02  0.7816164E-02  0.1312668E+00
        -11   -1    0    0    0    0  0.00000000000E+00  0.00000000000E+00  0.45593999997E+02  0.45594000000E+02  0.51100000000E-03 0. -1.
         11   -1    0    0    0    0 -0.00000000000E+00 -0.00000000000E+00 -0.45593999997E+02  0.45594000000E+02  0.51100000000E-03 0.  1.
    9900012    2    1    2    0    0  0.11335381713E+02  0.33421142302E+02 -0.25261815973E+02  0.47787274458E+02  0.20000015564E+02 0.  0.
         12    1    1    2    0    0 -0.11335381713E+02 -0.33421142302E+02  0.25261815973E+02  0.43400725542E+02  0.00000000000E+00 0. -1.
         11    1    3    3    0    0  0.10635357319E+02  0.16243417133E+02 -0.11915829063E+02  0.22780395255E+02  0.51100000000E-03 0. -1.
        -11    1    3    3    0    0 -0.49103822754E+01  0.40670650973E+01 -0.67806389571E+01  0.93075204821E+01  0.51100000000E-03 0.  1.
        -12    1    3    3    0    0  0.56104066691E+01  0.13110660072E+02 -0.65653479524E+01  0.15699358721E+02  0.00000000000E+00 0.  1.
</event>
<event>
 7    1  0.2476315E-009  0.4778728E+02  0.7816164E-02  0.1312668E+00
        -11   -1    0    0    0    0  0.00000000000E+00  0.00000000000E+00  0.45593999997E+02  0.45594000000E+02  0.51100000000E-03 0. -1.
         11   -1    0    0    0    0 -0.00000000000E+00 -0.00000000000E+00 -0.45593999997E+02  0.45594000000E+02  0.51100000000E-03 0.  1.
    9900012    2    1    2    0    0  0.36059212136E+02 -0.79721342965E+01 -0.22799139609E+02  0.47787280282E+02  0.20000042117E+02 0.  0.
         12    1    1    2    0    0 -0.36059212136E+02  0.79721342965E+01  0.22799139609E+02  0.43400719718E+02  0.00000000000E+00 0. -1.
         11    1    3    3    0    0  0.76296954584E+01 -0.28711208744E+01  0.14193940053E+01  0.82746762757E+01  0.51100000000E-03 0.  1.
        -11    1    3    3    0    0  0.28688802881E+02 -0.62300000240E+01 -0.24590889654E+02  0.38295850497E+02  0.51100000000E-03 0. -1.
         12    1    3    3    0    0 -0.25928620339E+00  0.11289866018E+01  0.37235603905E+00  0.12167535092E+01  0.00000000000E+00 0. -1.
</event>
<event>
 7    1  0.2476315E-009  0.4778727E+02  0.7816164E-02  0.1312668E+00
        -11   -1    0    0    0    0  0.00000000000E+00  0.00000000000E+00  0.45593999997E+02  0.45594000000E+02  0.51100000000E-03 0.  1.
         11   -1    0    0    0    0 -0.00000000000E+00 -0.00000000000E+00 -0.45593999997E+02  0.45594000000E+02  0.51100000000E-03 0. -1.
    9900012    2    1    2    0    0  0.37734655534E+02 -0.47416817704E+01  0.20910181075E+02  0.47787269051E+02  0.19999990912E+02 0.  0.
         12    1    1    2    0    0 -0.37734655534E+02  0.47416817704E+01 -0.20910181075E+02  0.43400730949E+02  0.00000000000E+00 0. -1.
         11    1    3    3    0    0  0.11605767081E+02  0.26208097165E+01 -0.94526525344E+00  0.11935493277E+02  0.51100000000E-03 0. -1.
        -11    1    3    3    0    0  0.13594880865E+02 -0.71164816197E+01  0.85308316616E+01  0.17556770360E+02  0.51100000000E-03 0.  1.
         12    1    3    3    0    0  0.12534007588E+02 -0.24600986716E+00  0.13324614667E+02  0.18295005414E+02  0.00000000000E+00 0. -1.
</event>
<event>
 7    1  0.2476315E-009  0.4778728E+02  0.7816164E-02  0.1312668E+00
        -11   -1    0    0    0    0  0.00000000000E+00  0.00000000000E+00  0.45593999997E+02  0.45594000000E+02  0.51100000000E-03 0. -1.
         11   -1    0    0    0    0 -0.00000000000E+00 -0.00000000000E+00 -0.45593999997E+02  0.45594000000E+02  0.51100000000E-03 0.  1.
    9900012    2    1    2    0    0  0.39777943834E+02 -0.17161832490E+02  0.26095193834E+01  0.47787275335E+02  0.20000019561E+02 0.  0.
         12    1    1    2    0    0 -0.39777943834E+02  0.17161832490E+02 -0.26095193834E+01  0.43400724665E+02  0.00000000000E+00 0. -1.
         11    1    3    3    0    0  0.10466472143E+02  0.34860297910E+01  0.30855711846E+01  0.11455138263E+02  0.51100000000E-03 0.  1.
        -11    1    3    3    0    0  0.14635246733E+02 -0.13856774927E+02 -0.50797833419E+00  0.20160820930E+02  0.51100000000E-03 0. -1.
        -12    1    3    3    0    0  0.14676224958E+02 -0.67910873542E+01  0.31926532954E-01  0.16171316142E+02  0.00000000000E+00 0.  1.
</event>
<event>
 7    1  0.2476315E-009  0.4778726E+02  0.7816164E-02  0.1312668E+00
        -11   -1    0    0    0    0  0.00000000000E+00  0.00000000000E+00  0.45593999997E+02  0.45594000000E+02  0.51100000000E-03 0. -1.
         11   -1    0    0    0    0 -0.00000000000E+00 -0.00000000000E+00 -0.45593999997E+02  0.45594000000E+02  0.51100000000E-03 0.  1.
    9900012    2    1    2    0    0 -0.29036785881E+02 -0.24440444127E+02 -0.21051222495E+02  0.47787260237E+02  0.19999950726E+02 0.  0.
         12    1    1    2    0    0  0.29036785881E+02  0.24440444127E+02  0.21051222495E+02  0.43400739763E+02  0.00000000000E+00 0. -1.
         11    1    3    3    0    0 -0.86062729206E+01 -0.93960035931E+01  0.13276146731E+00  0.12742466126E+02  0.51100000000E-03 0. -1.
        -11    1    3    3    0    0 -0.16771788727E+02 -0.55948007281E+01 -0.14897874008E+02  0.23120150140E+02  0.51100000000E-03 0.  1.
        -12    1    3    3    0    0 -0.36587242336E+01 -0.94496398061E+01 -0.62861099534E+01  0.11924643971E+02  0.00000000000E+00 0.  1.
</event>
<event>
 7    1  0.2476315E-009  0.4778727E+02  0.7816164E-02  0.1312668E+00
        -11   -1    0    0    0    0  0.00000000000E+00  0.00000000000E+00  0.45593999997E+02  0.45594000000E+02  0.51100000000E-03 0. -1.
         11   -1    0    0    0    0 -0.00000000000E+00 -0.00000000000E+00 -0.45593999997E+02  0.45594000000E+02  0.51100000000E-03 0.  1.
    9900012    2    1    2    0    0  0.34220822953E+02  0.11005118776E+02 -0.24319657215E+02  0.47787273164E+02  0.20000009664E+02 0.  0.
         12    1    1    2    0    0 -0.34220822953E+02 -0.11005118776E+02  0.24319657215E+02  0.43400726836E+02  0.00000000000E+00 0. -1.
         11    1    3    3    0    0  0.16225674063E+02  0.37839480745E+01 -0.23383136818E+01  0.16824341680E+02  0.51100000000E-03 0. -1.
        -11    1    3    3    0    0  0.17128809526E+02  0.39626623836E+01 -0.21125538157E+02  0.27484307734E+02  0.51100000000E-03 0.  1.
         12    1    3    3    0    0  0.86633936338E+00  0.32585083180E+01 -0.85580537685E+00  0.34786237500E+01  0.00000000000E+00 0. -1.
</event>
<event>
 7    1  0.2476315E-009  0.4778727E+02  0.7816164E-02  0.1312668E+00
        -11   -1    0    0    0    0  0.00000000000E+00  0.00000000000E+00  0.45593999997E+02  0.45594000000E+02  0.51100000000E-03 0.  1.
         11   -1    0    0    0    0 -0.00000000000E+00 -0.00000000000E+00 -0.45593999997E+02  0.45594000000E+02  0.51100000000E-03 0. -1.
    9900012    2    1    2    0    0 -0.19117815206E+02 -0.34574461895E+02 -0.17964937344E+02  0.47787271350E+02  0.20000001391E+02 0.  0.
         12    1    1    2    0    0  0.19117815206E+02  0.34574461895E+02  0.17964937344E+02  0.43400728650E+02  0.00000000000E+00 0. -1.
         11    1    3    3    0    0 -0.94092007200E+00  0.45893295859E+00  0.11634386462E+01  0.15651005677E+01  0.51100000000E-03 0. -1.
        -11    1    3    3    0    0 -0.13455731562E+02 -0.31536977292E+02 -0.10642795699E+02  0.35901347456E+02  0.51100000000E-03 0.  1.
        -12    1    3    3    0    0 -0.47211635719E+01 -0.34964175619E+01 -0.84855802920E+01  0.10320823326E+02  0.00000000000E+00 0.  1.
</event>
<event>
 7    1  0.2476315E-009  0.4778733E+02  0.7816164E-02  0.1312668E+00
        -11   -1    0    0    0    0  0.00000000000E+00  0.00000000000E+00  0.45593999997E+02  0.45594000000E+02  0.51100000000E-03 0.  1.
         11   -1    0    0    0    0 -0.00000000000E+00 -0.00000000000E+00 -0.45593999997E+02  0.45594000000E+02  0.51100000000E-03 0. -1.
    9900012    2    1    2    0    0 -0.14891420181E+02 -0.39775944438E+02  0.89296229378E+01  0.47787328153E+02  0.20000260381E+02 0.  0.
         12    1    1    2    0    0  0.14891420181E+02  0.39775944438E+02 -0.89296229378E+01  0.43400671847E+02  0.00000000000E+00 0. -1.
         11    1    3    3    0    0 -0.85099674130E+01 -0.10290765385E+02 -0.48475147242E+01  0.14206259073E+02  0.51100000000E-03 0. -1.
        -11    1    3    3    0    0 -0.55132800096E+01 -0.18693073255E+02  0.11098177329E+02  0.22427589805E+02  0.51100000000E-03 0.  1.
        -12    1    3    3    0    0 -0.86817275834E+00 -0.10792105798E+02  0.26789603334E+01  0.11153479276E+02  0.00000000000E+00 0.  1.
</event>
<event>
 7    1  0.2476315E-009  0.4778727E+02  0.7816164E-02  0.1312668E+00
        -11   -1    0    0    0    0  0.00000000000E+00  0.00000000000E+00  0.45593999997E+02  0.45594000000E+02  0.51100000000E-03 0.  1.
         11   -1    0    0    0    0 -0.00000000000E+00 -0.00000000000E+00 -0.45593999997E+02  0.45594000000E+02  0.51100000000E-03 0. -1.
    9900012    2    1    2    0    0 -0.41653207976E+02  0.12007656698E+02 -0.21094757480E+01  0.47787269107E+02  0.19999991168E+02 0.  0.
         12    1    1    2    0    0  0.41653207976E+02 -0.12007656698E+02  0.21094757480E+01  0.43400730893E+02  0.00000000000E+00 0. -1.
         11    1    3    3    0    0 -0.13731778281E+02 -0.73152950233E+00 -0.48060289723E+01  0.14566907184E+02  0.51100000000E-03 0. -1.
        -11    1    3    3    0    0 -0.24910453284E+02  0.15161433813E+02  0.31421026916E+01  0.29330403469E+02  0.51100000000E-03 0.  1.
         12    1    3    3    0    0 -0.30109764114E+01 -0.24222476126E+01 -0.44554946731E+00  0.38899584541E+01  0.00000000000E+00 0. -1.
</event>
<event>
 7    1  0.2476315E-009  0.4778726E+02  0.7816164E-02  0.1312668E+00
        -11   -1    0    0    0    0  0.00000000000E+00  0.00000000000E+00  0.45593999997E+02  0.45594000000E+02  0.51100000000E-03 0. -1.
         11   -1    0    0    0    0 -0.00000000000E+00 -0.00000000000E+00 -0.45593999997E+02  0.45594000000E+02  0.51100000000E-03 0.  1.
    9900012    2    1    2    0    0  0.35648192212E+02 -0.11574969176E+02 -0.21882655549E+02  0.47787261143E+02  0.19999954857E+02 0.  0.
         12    1    1    2    0    0 -0.35648192212E+02  0.11574969176E+02  0.21882655549E+02  0.43400738857E+02  0.00000000000E+00 0. -1.
         11    1    3    3    0    0  0.35564931641E+01 -0.78250384986E+00  0.32084209171E+00  0.36556662608E+01  0.51100000000E-03 0. -1.
        -11    1    3    3    0    0  0.23604604337E+02 -0.75407418917E+01 -0.59103594731E+01  0.25474938342E+02  0.51100000000E-03 0.  1.
        -12    1    3    3    0    0  0.84870947114E+01 -0.32517234348E+01 -0.16293138167E+02  0.18656656541E+02  0.00000000000E+00 0.  1.
</event>
<event>
 7    1  0.2476315E-009  0.4778727E+02  0.7816164E-02  0.1312668E+00
        -11   -1    0    0    0    0  0.00000000000E+00  0.00000000000E+00  0.45593999997E+02  0.45594000000E+02  0.51100000000E-03 0.  1.
         11   -1    0    0    0    0 -0.00000000000E+00 -0.00000000000E+00 -0.45593999997E+02  0.45594000000E+02  0.51100000000E-03 0. -1.
    9900012    2    1    2    0    0 -0.26857868479E+02  0.18745379773E+00  0.34091684973E+02  0.47787271637E+02  0.20000002703E+02 0.  0.
         12    1    1    2    0    0  0.26857868479E+02 -0.18745379773E+00 -0.34091684973E+02  0.43400728363E+02  0.00000000000E+00 0. -1.
         11    1    3    3    0    0  0.22264250511E+01 -0.30393008228E+01  0.23766208638E+01  0.44545083893E+01  0.51100000000E-03 0. -1.
        -11    1    3    3    0    0 -0.24278848363E+02  0.40708674853E+01  0.27183701008E+02  0.36674078594E+02  0.51100000000E-03 0.  1.
         12    1    3    3    0    0 -0.48054451664E+01 -0.84411286478E+00  0.45313631005E+01  0.66586846543E+01  0.00000000000E+00 0. -1.
</event>
<event>
 7    1  0.2476315E-009  0.4778727E+02  0.7816164E-02  0.1312668E+00
        -11   -1    0    0    0    0  0.00000000000E+00  0.00000000000E+00  0.45593999997E+02  0.45594000000E+02  0.51100000000E-03 0.  1.
         11   -1    0    0    0    0 -0.00000000000E+00 -0.00000000000E+00 -0.45593999997E+02  0.45594000000E+02  0.51100000000E-03 0. -1.
    9900012    2    1    2    0    0 -0.21112710538E+02  0.27272772287E+01  0.37821140951E+02  0.47787270857E+02  0.19999999145E+02 0.  0.
         12    1    1    2    0    0  0.21112710538E+02 -0.27272772287E+01 -0.37821140951E+02  0.43400729143E+02  0.00000000000E+00 0. -1.
         11    1    3    3    0    0 -0.38460724846E+01  0.71676875871E+01  0.10819954498E+02  0.13536596119E+02  0.51100000000E-03 0. -1.
        -11    1    3    3    0    0 -0.71220771045E+01 -0.64320610985E+01  0.75040360891E+01  0.12182198083E+02  0.51100000000E-03 0.  1.
        -12    1    3    3    0    0 -0.10144560948E+02  0.19916507400E+01  0.19497150364E+02  0.22068476654E+02  0.00000000000E+00 0.  1.
</event>
<event>
 7    1  0.2476315E-009  0.4778727E+02  0.7816164E-02  0.1312668E+00
        -11   -1    0    0    0    0  0.00000000000E+00  0.00000000000E+00  0.45593999997E+02  0.45594000000E+02  0.51100000000E-03 0.  1.
         11   -1    0    0    0    0 -0.00000000000E+00 -0.00000000000E+00 -0.45593999997E+02  0.45594000000E+02  0.51100000000E-03 0. -1.
    9900012    2    1    2    0    0  0.18226015147E+02 -0.12856614295E+02  0.37230941023E+02  0.47787272716E+02  0.20000007623E+02 0.  0.
         12    1    1    2    0    0 -0.18226015147E+02  0.12856614295E+02 -0.37230941023E+02  0.43400727284E+02  0.00000000000E+00 0. -1.
         11    1    3    3    0    0 -0.12435546947E+01 -0.35453183314E+01  0.60505435752E+00  0.38054962077E+01  0.51100000000E-03 0. -1.
        -11    1    3    3    0    0  0.17403767500E+02 -0.10318857886E+02  0.25151848194E+02  0.32279798932E+02  0.51100000000E-03 0.  1.
        -12    1    3    3    0    0  0.20658023411E+01  0.10075619228E+01  0.11474038472E+02  0.11701977576E+02  0.00000000000E+00 0.  1.
</event>
<event>
 7    1  0.2476315E-009  0.4778727E+02  0.7816164E-02  0.1312668E+00
        -11   -1    0    0    0    0  0.00000000000E+00  0.00000000000E+00  0.45593999997E+02  0.45594000000E+02  0.51100000000E-03 0.  1.
         11   -1    0    0    0    0 -0.00000000000E+00 -0.00000000000E+00 -0.45593999997E+02  0.45594000000E+02  0.51100000000E-03 0. -1.
    9900012    2    1    2    0    0 -0.35909116588E+02 -0.14313443648E+02  0.19730274450E+02  0.47787273589E+02  0.20000011600E+02 0.  0.
         12    1    1    2    0    0  0.35909116588E+02  0.14313443648E+02 -0.19730274450E+02  0.43400726411E+02  0.00000000000E+00 0. -1.
         11    1    3    3    0    0 -0.32636364714E+02 -0.93515749238E+01  0.19444262344E+02  0.39123696064E+02  0.51100000000E-03 0.  1.
        -11    1    3    3    0    0 -0.18919614614E+00 -0.30393105804E+01 -0.26149192569E+01  0.40138518865E+01  0.51100000000E-03 0. -1.
        -12    1    3    3    0    0 -0.30835557272E+01 -0.19225581435E+01  0.29009313631E+01  0.46497256383E+01  0.00000000000E+00 0.  1.
</event>
<event>
 7    1  0.2476315E-009  0.4778727E+02  0.7816164E-02  0.1312668E+00
        -11   -1    0    0    0    0  0.00000000000E+00  0.00000000000E+00  0.45593999997E+02  0.45594000000E+02  0.51100000000E-03 0.  1.
         11   -1    0    0    0    0 -0.00000000000E+00 -0.00000000000E+00 -0.45593999997E+02  0.45594000000E+02  0.51100000000E-03 0. -1.
    9900012    2    1    2    0    0 -0.23149788133E+02 -0.86828973769E+01  0.35669560533E+02  0.47787274821E+02  0.20000017217E+02 0.  0.
         12    1    1    2    0    0  0.23149788133E+02  0.86828973769E+01 -0.35669560533E+02  0.43400725179E+02  0.00000000000E+00 0. -1.
         11    1    3    3    0    0 -0.14623224870E+01 -0.53669640856E+01  0.72829688781E+01  0.91642962901E+01  0.51100000000E-03 0. -1.
        -11    1    3    3    0    0 -0.21635663477E+02 -0.56320093074E+01  0.20254372764E+02  0.30167218620E+02  0.51100000000E-03 0.  1.
        -12    1    3    3    0    0 -0.51802169448E-01  0.23160760161E+01  0.81322188908E+01  0.84557599106E+01  0.00000000000E+00 0.  1.
</event>
<event>
 7    1  0.2476315E-009  0.4778727E+02  0.7816164E-02  0.1312668E+00
        -11   -1    0    0    0    0  0.00000000000E+00  0.00000000000E+00  0.45593999997E+02  0.45594000000E+02  0.51100000000E-03 0.  1.
         11   -1    0    0    0    0 -0.00000000000E+00 -0.00000000000E+00 -0.45593999997E+02  0.45594000000E+02  0.51100000000E-03 0. -1.
    9900012    2    1    2    0    0  0.96044891388E+01  0.42324164944E+02  0.20553338470E+00  0.47787269662E+02  0.19999993699E+02 0.  0.
         12    1    1    2    0    0 -0.96044891388E+01 -0.42324164944E+02 -0.20553338470E+00  0.43400730338E+02  0.00000000000E+00 0. -1.
         11    1    3    3    0    0  0.32811090192E+01  0.32429517843E+02  0.19023278093E+01  0.32650546018E+02  0.51100000000E-03 0.  1.
        -11    1    3    3    0    0  0.34161173433E+01  0.27424363649E+01 -0.50795427235E+01  0.67076500699E+01  0.51100000000E-03 0. -1.
        -12    1    3    3    0    0  0.29072627763E+01  0.71522107367E+01  0.33827482989E+01  0.84290735746E+01  0.00000000000E+00 0.  1.
</event>
<event>
 7    1  0.2476315E-009  0.4778727E+02  0.7816164E-02  0.1312668E+00
        -11   -1    0    0    0    0  0.00000000000E+00  0.00000000000E+00  0.45593999997E+02  0.45594000000E+02  0.51100000000E-03 0.  1.
         11   -1    0    0    0    0 -0.00000000000E+00 -0.00000000000E+00 -0.45593999997E+02  0.45594000000E+02  0.51100000000E-03 0. -1.
    9900012    2    1    2    0    0  0.14758680510E+02 -0.10231231621E+02  0.39511099667E+02  0.47787265585E+02  0.19999975107E+02 0.  0.
         12    1    1    2    0    0 -0.14758680510E+02  0.10231231621E+02 -0.39511099667E+02  0.43400734415E+02  0.00000000000E+00 0. -1.
         11    1    3    3    0    0  0.17917124070E+01 -0.23597393299E+01 -0.63951064895E-01  0.29635608741E+01  0.51100000000E-03 0. -1.
        -11    1    3    3    0    0  0.26925689322E+01  0.10552207877E+01  0.23857327512E+02  0.24031968180E+02  0.51100000000E-03 0.  1.
        -12    1    3    3    0    0  0.10274399171E+02 -0.89267130787E+01  0.15717723220E+02  0.20791736530E+02  0.00000000000E+00 0.  1.
</event>
<event>
 7    1  0.2476315E-009  0.4778727E+02  0.7816164E-02  0.1312668E+00
        -11   -1    0    0    0    0  0.00000000000E+00  0.00000000000E+00  0.45593999997E+02  0.45594000000E+02  0.51100000000E-03 0.  1.
         11   -1    0    0    0    0 -0.00000000000E+00 -0.00000000000E+00 -0.45593999997E+02  0.45594000000E+02  0.51100000000E-03 0. -1.
    9900012    2    1    2    0    0 -0.81603556982E+01  0.37888904502E+02  0.19531070274E+02  0.47787271947E+02  0.20000004116E+02 0.  0.
         12    1    1    2    0    0  0.81603556982E+01 -0.37888904502E+02 -0.19531070274E+02  0.43400728053E+02  0.00000000000E+00 0. -1.
         11    1    3    3    0    0  0.14704184764E+01 -0.83001091154E+00  0.34337073474E+01  0.38264075864E+01  0.51100000000E-03 0. -1.
        -11    1    3    3    0    0 -0.80197111681E+01  0.16327430947E+02  0.97124872902E+01  0.20621182754E+02  0.51100000000E-03 0.  1.
         12    1    3    3    0    0 -0.16110630065E+01  0.22391484467E+02  0.63848756363E+01  0.23339681607E+02  0.00000000000E+00 0. -1.
</event>
<event>
 7    1  0.2476315E-009  0.4778727E+02  0.7816164E-02  0.1312668E+00
        -11   -1    0    0    0    0  0.00000000000E+00  0.00000000000E+00  0.45593999997E+02  0.45594000000E+02  0.51100000000E-03 0. -1.
         11   -1    0    0    0    0 -0.00000000000E+00 -0.00000000000E+00 -0.45593999997E+02  0.45594000000E+02  0.51100000000E-03 0.  1.
    9900012    2    1    2    0    0 -0.98782602299E+01 -0.37339885777E+02 -0.19793333341E+02  0.47787272590E+02  0.20000007046E+02 0.  0.
         12    1    1    2    0    0  0.98782602299E+01  0.37339885777E+02  0.19793333341E+02  0.43400727410E+02  0.00000000000E+00 0. -1.
         11    1    3    3    0    0 -0.97955888083E+01 -0.10100439106E+02 -0.33412966297E+01  0.14461559171E+02  0.51100000000E-03 0. -1.
        -11    1    3    3    0    0 -0.33467366722E+01 -0.10976043672E+02 -0.27233867931E+01  0.11793685469E+02  0.51100000000E-03 0.  1.
         12    1    3    3    0    0  0.32640652506E+01 -0.16263402998E+02 -0.13728649918E+02  0.21532027950E+02  0.00000000000E+00 0. -1.
</event>
<event>
 7    1  0.2476315E-009  0.4778727E+02  0.7816164E-02  0.1312668E+00
        -11   -1    0    0    0    0  0.00000000000E+00  0.00000000000E+00  0.45593999997E+02  0.45594000000E+02  0.51100000000E-03 0.  1.
         11   -1    0    0    0    0 -0.00000000000E+00 -0.00000000000E+00 -0.45593999997E+02  0.45594000000E+02  0.51100000000E-03 0. -1.
    9900012    2    1    2    0    0  0.13865398213E+02  0.26081146898E+02  0.31798545128E+02  0.47787274621E+02  0.20000016307E+02 0.  0.
         12    1    1    2    0    0 -0.13865398213E+02 -0.26081146898E+02 -0.31798545128E+02  0.43400725379E+02  0.00000000000E+00 0. -1.
         11    1    3    3    0    0  0.15496686174E+01 -0.29008882681E+00  0.81020027415E+01  0.82539731666E+01  0.51100000000E-03 0. -1.
        -11    1    3    3    0    0  0.14267187244E+02  0.25012083496E+02  0.23462692161E+02  0.37143705744E+02  0.51100000000E-03 0.  1.
        -12    1    3    3    0    0 -0.19514576477E+01  0.13591522292E+01  0.23385022568E+00  0.23895957108E+01  0.00000000000E+00 0.  1.
</event>
<event>
 7    1  0.2476315E-009  0.4778727E+02  0.7816164E-02  0.1312668E+00
        -11   -1    0    0    0    0  0.00000000000E+00  0.00000000000E+00  0.45593999997E+02  0.45594000000E+02  0.51100000000E-03 0.  1.
         11   -1    0    0    0    0 -0.00000000000E+00 -0.00000000000E+00 -0.45593999997E+02  0.45594000000E+02  0.51100000000E-03 0. -1.
    9900012    2    1    2    0    0  0.38402433095E+02 -0.17979973580E+02  0.92518638009E+01  0.47787270728E+02  0.19999998557E+02 0.  0.
         12    1    1    2    0    0 -0.38402433095E+02  0.17979973580E+02 -0.92518638009E+01  0.43400729272E+02  0.00000000000E+00 0. -1.
         11    1    3    3    0    0  0.20231796090E+02  0.11336638653E+01  0.17009484063E+01  0.20334797577E+02  0.51100000000E-03 0. -1.
        -11    1    3    3    0    0  0.15828917792E+02 -0.16128498179E+02  0.65594016038E+01  0.23531018712E+02  0.51100000000E-03 0.  1.
         12    1    3    3    0    0  0.23417192132E+01 -0.29851392669E+01  0.99151379078E+00  0.39214544385E+01  0.00000000000E+00 0. -1.
</event>
<event>
 7    1  0.2476315E-009  0.4778727E+02  0.7816164E-02  0.1312668E+00
        -11   -1    0    0    0    0  0.00000000000E+00  0.00000000000E+00  0.45593999997E+02  0.45594000000E+02  0.51100000000E-03 0.  1.
         11   -1    0    0    0    0 -0.00000000000E+00 -0.00000000000E+00 -0.45593999997E+02  0.45594000000E+02  0.51100000000E-03 0. -1.
    9900012    2    1    2    0    0  0.64880910105E+01 -0.21059309248E+02  0.37390284978E+02  0.47787271415E+02  0.20000001688E+02 0.  0.
         12    1    1    2    0    0 -0.64880910105E+01  0.21059309248E+02 -0.37390284978E+02  0.43400728585E+02  0.00000000000E+00 0. -1.
         11    1    3    3    0    0 -0.20450813965E+01 -0.10546478975E+02  0.48476363265E+01  0.11786015226E+02  0.51100000000E-03 0. -1.
        -11    1    3    3    0    0  0.60611249367E+01 -0.21376069259E+01  0.10758564721E+02  0.12532091365E+02  0.51100000000E-03 0.  1.
         12    1    3    3    0    0  0.24720474702E+01 -0.83752233472E+01  0.21784083931E+02  0.23469164824E+02  0.00000000000E+00 0. -1.
</event>
<event>
 7    1  0.2476315E-009  0.4778726E+02  0.7816164E-02  0.1312668E+00
        -11   -1    0    0    0    0  0.00000000000E+00  0.00000000000E+00  0.45593999997E+02  0.45594000000E+02  0.51100000000E-03 0. -1.
         11   -1    0    0    0    0 -0.00000000000E+00 -0.00000000000E+00 -0.45593999997E+02  0.45594000000E+02  0.51100000000E-03 0.  1.
    9900012    2    1    2    0    0  0.83701917533E+01  0.15552074509E+01 -0.42557549491E+02  0.47787264996E+02  0.19999972423E+02 0.  0.
         12    1    1    2    0    0 -0.83701917533E+01 -0.15552074509E+01  0.42557549491E+02  0.43400735004E+02  0.00000000000E+00 0. -1.
         11    1    3    3    0    0  0.10632733757E+02 -0.60264279261E+01 -0.28595153391E+02  0.31097518524E+02  0.51100000000E-03 0.  1.
        -11    1    3    3    0    0 -0.26209237384E+01  0.40686760934E+01 -0.45738570515E+01  0.66590941564E+01  0.51100000000E-03 0. -1.
        -12    1    3    3    0    0  0.35838173503E+00  0.35129592836E+01 -0.93885390489E+01  0.10030652315E+02  0.00000000000E+00 0.  1.
</event>
<event>
 7    1  0.2476315E-009  0.4778727E+02  0.7816164E-02  0.1312668E+00
        -11   -1    0    0    0    0  0.00000000000E+00  0.00000000000E+00  0.45593999997E+02  0.45594000000E+02  0.51100000000E-03 0. -1.
         11   -1    0    0    0    0 -0.00000000000E+00 -0.00000000000E+00 -0.45593999997E+02  0.45594000000E+02  0.51100000000E-03 0.  1.
    9900012    2    1    2    0    0 -0.39236229428E+02 -0.76641053097E+01 -0.16893888683E+02  0.47787266311E+02  0.19999978420E+02 0.  0.
         12    1    1    2    0    0  0.39236229428E+02  0.76641053097E+01  0.16893888683E+02  0.43400733689E+02  0.00000000000E+00 0. -1.
         11    1    3    3    0    0 -0.67144962878E+01 -0.89153794932E+01 -0.27646528921E+01  0.11498337175E+02  0.51100000000E-03 0. -1.
        -11    1    3    3    0    0 -0.32452999063E+02  0.62626288891E+00 -0.12939189131E+02  0.34942981684E+02  0.51100000000E-03 0.  1.
        -12    1    3    3    0    0 -0.68734077196E-01  0.62501129460E+00 -0.11900466599E+01  0.13459474524E+01  0.00000000000E+00 0.  1.
</event>
<event>
 7    1  0.2476315E-009  0.4778727E+02  0.7816164E-02  0.1312668E+00
        -11   -1    0    0    0    0  0.00000000000E+00  0.00000000000E+00  0.45593999997E+02  0.45594000000E+02  0.51100000000E-03 0. -1.
         11   -1    0    0    0    0 -0.00000000000E+00 -0.00000000000E+00 -0.45593999997E+02  0.45594000000E+02  0.51100000000E-03 0.  1.
    9900012    2    1    2    0    0  0.20079877639E+02 -0.27007671557E+02 -0.27404516810E+02  0.47787270162E+02  0.19999995976E+02 0.  0.
         12    1    1    2    0    0 -0.20079877639E+02  0.27007671557E+02  0.27404516810E+02  0.43400729838E+02  0.00000000000E+00 0. -1.
         11    1    3    3    0    0  0.90503747423E+01 -0.83546594177E+01 -0.15470364208E+02  0.19774776509E+02  0.51100000000E-03 0.  1.
        -11    1    3    3    0    0  0.10467622115E+02 -0.20458221948E+02 -0.93485127949E+01  0.24809366170E+02  0.51100000000E-03 0. -1.
        -12    1    3    3    0    0  0.56188078077E+00  0.18052098086E+01 -0.25856398068E+01  0.32031274834E+01  0.00000000000E+00 0.  1.
</event>
<event>
 7    1  0.2476315E-009  0.4778727E+02  0.7816164E-02  0.1312668E+00
        -11   -1    0    0    0    0  0.00000000000E+00  0.00000000000E+00  0.45593999997E+02  0.45594000000E+02  0.51100000000E-03 0.  1.
         11   -1    0    0    0    0 -0.00000000000E+00 -0.00000000000E+00 -0.45593999997E+02  0.45594000000E+02  0.51100000000E-03 0. -1.
    9900012    2    1    2    0    0 -0.15745473366E+02 -0.27006711943E+02  0.30105490283E+02  0.47787274584E+02  0.20000016136E+02 0.  0.
         12    1    1    2    0    0  0.15745473366E+02  0.27006711943E+02 -0.30105490283E+02  0.43400725416E+02  0.00000000000E+00 0. -1.
         11    1    3    3    0    0 -0.33342798162E+00  0.19195441146E+00  0.29190669892E+01  0.29443119847E+01  0.51100000000E-03 0. -1.
        -11    1    3    3    0    0 -0.49036727907E+01 -0.18161462906E+02  0.64219502982E+01  0.19877781255E+02  0.51100000000E-03 0.  1.
        -12    1    3    3    0    0 -0.10508372594E+02 -0.90372034481E+01  0.20764472995E+02  0.24965181344E+02  0.00000000000E+00 0.  1.
</event>
<event>
 7    1  0.2476315E-009  0.4778723E+02  0.7816164E-02  0.1312668E+00
        -11   -1    0    0    0    0  0.00000000000E+00  0.00000000000E+00  0.45593999997E+02  0.45594000000E+02  0.51100000000E-03 0.  1.
         11   -1    0    0    0    0 -0.00000000000E+00 -0.00000000000E+00 -0.45593999997E+02  0.45594000000E+02  0.51100000000E-03 0. -1.
    9900012    2    1    2    0    0 -0.49999688833E+01 -0.40098051336E+01  0.42924921777E+02  0.47787226556E+02  0.19999797156E+02 0.  0.
         12    1    1    2    0    0  0.49999688833E+01  0.40098051336E+01 -0.42924921777E+02  0.43400773444E+02  0.00000000000E+00 0. -1.
         11    1    3    3    0    0 -0.67310571285E+01 -0.78829206476E+01  0.32347673172E+02  0.33967919099E+02  0.51100000000E-03 0.  1.
        -11    1    3    3    0    0  0.39403187273E+00  0.54231325789E+01  0.10435821003E+02  0.11767412135E+02  0.51100000000E-03 0. -1.
        -12    1    3    3    0    0  0.13370563725E+01 -0.15500170650E+01  0.14142760160E+00  0.20518953217E+01  0.00000000000E+00 0.  1.
</event>
<event>
 7    1  0.2476315E-009  0.4778727E+02  0.7816164E-02  0.1312668E+00
        -11   -1    0    0    0    0  0.00000000000E+00  0.00000000000E+00  0.45593999997E+02  0.45594000000E+02  0.51100000000E-03 0.  1.
         11   -1    0    0    0    0 -0.00000000000E+00 -0.00000000000E+00 -0.45593999997E+02  0.45594000000E+02  0.51100000000E-03 0. -1.
    9900012    2    1    2    0    0 -0.79501627919E+01 -0.20275688617E+00  0.42665881503E+02  0.47787266790E+02  0.19999980602E+02 0.  0.
         12    1    1    2    0    0  0.79501627919E+01  0.20275688617E+00 -0.42665881503E+02  0.43400733210E+02  0.00000000000E+00 0. -1.
         11    1    3    3    0    0  0.45852431498E+01 -0.40520575217E+01  0.51630632613E+01  0.80063004817E+01  0.51100000000E-03 0. -1.
        -11    1    3    3    0    0 -0.90400529099E+01  0.25655227529E+01  0.29359352323E+02  0.30826547531E+02  0.51100000000E-03 0.  1.
         12    1    3    3    0    0 -0.34953530318E+01  0.12837778827E+01  0.81434659182E+01  0.89544187768E+01  0.00000000000E+00 0. -1.
</event>
<event>
 7    1  0.2476315E-009  0.4778727E+02  0.7816164E-02  0.1312668E+00
        -11   -1    0    0    0    0  0.00000000000E+00  0.00000000000E+00  0.45593999997E+02  0.45594000000E+02  0.51100000000E-03 0.  1.
         11   -1    0    0    0    0 -0.00000000000E+00 -0.00000000000E+00 -0.45593999997E+02  0.45594000000E+02  0.51100000000E-03 0. -1.
    9900012    2    1    2    0    0  0.31504483501E+02 -0.20393537631E+02  0.21798954789E+02  0.47787270886E+02  0.19999999275E+02 0.  0.
         12    1    1    2    0    0 -0.31504483501E+02  0.20393537631E+02 -0.21798954789E+02  0.43400729114E+02  0.00000000000E+00 0. -1.
         11    1    3    3    0    0 -0.11295455780E+01  0.69124237020E+00 -0.10453256335E+01  0.16871263047E+01  0.51100000000E-03 0. -1.
        -11    1    3    3    0    0  0.23132438965E+02 -0.19277212683E+02  0.14967781709E+02  0.33626702943E+02  0.51100000000E-03 0.  1.
        -12    1    3    3    0    0  0.95015901137E+01 -0.18075673189E+01  0.78764987132E+01  0.12473441637E+02  0.00000000000E+00 0.  1.
</event>
<event>
 7    1  0.2476315E-009  0.4778727E+02  0.7816164E-02  0.1312668E+00
        -11   -1    0    0    0    0  0.00000000000E+00  0.00000000000E+00  0.45593999997E+02  0.45594000000E+02  0.51100000000E-03 0. -1.
         11   -1    0    0    0    0 -0.00000000000E+00 -0.00000000000E+00 -0.45593999997E+02  0.45594000000E+02  0.51100000000E-03 0.  1.
    9900012    2    1    2    0    0 -0.16894188537E+02 -0.30500606764E+02  0.25844200973E+02  0.47787270246E+02  0.19999996359E+02 0.  0.
         12    1    1    2    0    0  0.16894188537E+02  0.30500606764E+02 -0.25844200973E+02  0.43400729754E+02  0.00000000000E+00 0. -1.
         11    1    3    3    0    0 -0.74938264086E+01 -0.15249782431E+02  0.21418890083E+02  0.27340119808E+02  0.51100000000E-03 0. -1.
        -11    1    3    3    0    0 -0.10710218396E+02 -0.14932904911E+02  0.48990406087E+01  0.19018439114E+02  0.51100000000E-03 0.  1.
        -12    1    3    3    0    0  0.13098562678E+01 -0.31791942148E+00 -0.47372971939E+00  0.14287113242E+01  0.00000000000E+00 0.  1.
</event>
<event>
 7    1  0.2476315E-009  0.4778727E+02  0.7816164E-02  0.1312668E+00
        -11   -1    0    0    0    0  0.00000000000E+00  0.00000000000E+00  0.45593999997E+02  0.45594000000E+02  0.51100000000E-03 0.  1.
         11   -1    0    0    0    0 -0.00000000000E+00 -0.00000000000E+00 -0.45593999997E+02  0.45594000000E+02  0.51100000000E-03 0. -1.
    9900012    2    1    2    0    0  0.18701936815E+02 -0.24360268739E+02  0.30666559879E+02  0.47787273871E+02  0.20000012889E+02 0.  0.
         12    1    1    2    0    0 -0.18701936815E+02  0.24360268739E+02 -0.30666559879E+02  0.43400726129E+02  0.00000000000E+00 0. -1.
         11    1    3    3    0    0 -0.14744315803E+01 -0.14209745943E+01  0.17570528892E+01  0.26982128158E+01  0.51100000000E-03 0. -1.
        -11    1    3    3    0    0  0.32704113300E-02 -0.63415714563E+01  0.13099882880E+02  0.14554122130E+02  0.51100000000E-03 0.  1.
        -12    1    3    3    0    0  0.20173097984E+02 -0.16597722689E+02  0.15809624110E+02  0.30534938926E+02  0.00000000000E+00 0.  1.
</event>
<event>
 7    1  0.2476315E-009  0.4778727E+02  0.7816164E-02  0.1312668E+00
        -11   -1    0    0    0    0  0.00000000000E+00  0.00000000000E+00  0.45593999997E+02  0.45594000000E+02  0.51100000000E-03 0.  1.
         11   -1    0    0    0    0 -0.00000000000E+00 -0.00000000000E+00 -0.45593999997E+02  0.45594000000E+02  0.51100000000E-03 0. -1.
    9900012    2    1    2    0    0  0.92432268397E+01  0.51327432510E+01  0.42093241139E+02  0.47787271374E+02  0.20000001504E+02 0.  0.
         12    1    1    2    0    0 -0.92432268397E+01 -0.51327432510E+01 -0.42093241139E+02  0.43400728626E+02  0.00000000000E+00 0. -1.
         11    1    3    3    0    0  0.22501393343E+01  0.36755406794E+01 -0.28812131497E+00  0.43192291515E+01  0.51100000000E-03 0. -1.
        -11    1    3    3    0    0  0.29898293753E+01  0.39279202031E+01  0.20371140172E+02  0.20960701061E+02  0.51100000000E-03 0.  1.
         12    1    3    3    0    0  0.40032581301E+01 -0.24707176315E+01  0.22010222282E+02  0.22507341161E+02  0.00000000000E+00 0. -1.
</event>
<event>
 7    1  0.2476315E-009  0.4778727E+02  0.7816164E-02  0.1312668E+00
        -11   -1    0    0    0    0  0.00000000000E+00  0.00000000000E+00  0.45593999997E+02  0.45594000000E+02  0.51100000000E-03 0.  1.
         11   -1    0    0    0    0 -0.00000000000E+00 -0.00000000000E+00 -0.45593999997E+02  0.45594000000E+02  0.51100000000E-03 0. -1.
    9900012    2    1    2    0    0 -0.88010304602E+01 -0.15194191935E+02  0.39690075108E+02  0.47787266506E+02  0.19999979307E+02 0.  0.
         12    1    1    2    0    0  0.88010304602E+01  0.15194191935E+02 -0.39690075108E+02  0.43400733494E+02  0.00000000000E+00 0. -1.
         11    1    3    3    0    0 -0.60635263983E+01 -0.12668532005E+01  0.12420317008E+02  0.13879320742E+02  0.51100000000E-03 0.  1.
        -11    1    3    3    0    0 -0.34395453524E+01 -0.83533216573E+01  0.38433832329E+01  0.98173341533E+01  0.51100000000E-03 0. -1.
        -12    1    3    3    0    0  0.70204129050E+00 -0.55740170774E+01  0.23426374867E+02  0.24090611611E+02  0.00000000000E+00 0.  1.
</event>
<event>
 7    1  0.2476315E-009  0.4778727E+02  0.7816164E-02  0.1312668E+00
        -11   -1    0    0    0    0  0.00000000000E+00  0.00000000000E+00  0.45593999997E+02  0.45594000000E+02  0.51100000000E-03 0.  1.
         11   -1    0    0    0    0 -0.00000000000E+00 -0.00000000000E+00 -0.45593999997E+02  0.45594000000E+02  0.51100000000E-03 0. -1.
    9900012    2    1    2    0    0  0.18476467356E+01  0.33151015421E+02  0.27950305575E+02  0.47787271853E+02  0.20000003688E+02 0.  0.
         12    1    1    2    0    0 -0.18476467356E+01 -0.33151015421E+02 -0.27950305575E+02  0.43400728147E+02  0.00000000000E+00 0. -1.
         11    1    3    3    0    0  0.60413279089E+01  0.11830647161E+02  0.28650390400E+01  0.13589345242E+02  0.51100000000E-03 0. -1.
        -11    1    3    3    0    0 -0.33841454929E+01  0.20046931328E+02  0.18653073119E+02  0.27591104244E+02  0.51100000000E-03 0.  1.
        -12    1    3    3    0    0 -0.80953568040E+00  0.12734369321E+01  0.64321934166E+01  0.66068223668E+01  0.00000000000E+00 0.  1.
</event>
<event>
 7    1  0.2476315E-009  0.4778727E+02  0.7816164E-02  0.1312668E+00
        -11   -1    0    0    0    0  0.00000000000E+00  0.00000000000E+00  0.45593999997E+02  0.45594000000E+02  0.51100000000E-03 0.  1.
         11   -1    0    0    0    0 -0.00000000000E+00 -0.00000000000E+00 -0.45593999997E+02  0.45594000000E+02  0.51100000000E-03 0. -1.
    9900012    2    1    2    0    0  0.43099412380E+02 -0.12856420336E+01  0.49407638672E+01  0.47787269931E+02  0.19999994921E+02 0.  0.
         12    1    1    2    0    0 -0.43099412380E+02  0.12856420336E+01 -0.49407638672E+01  0.43400730069E+02  0.00000000000E+00 0. -1.
         11    1    3    3    0    0  0.26669574215E+02  0.52410890104E+00  0.10645456492E+02  0.28720491345E+02  0.51100000000E-03 0. -1.
        -11    1    3    3    0    0  0.14049484441E+02 -0.41249413625E+01 -0.34213637644E+01  0.15036917389E+02  0.51100000000E-03 0.  1.
        -12    1    3    3    0    0  0.23803537246E+01  0.23151904278E+01 -0.22833288606E+01  0.40298611957E+01  0.00000000000E+00 0.  1.
</event>
<event>
 7    1  0.2476315E-009  0.4778727E+02  0.7816164E-02  0.1312668E+00
        -11   -1    0    0    0    0  0.00000000000E+00  0.00000000000E+00  0.45593999997E+02  0.45594000000E+02  0.51100000000E-03 0.  1.
         11   -1    0    0    0    0 -0.00000000000E+00 -0.00000000000E+00 -0.45593999997E+02  0.45594000000E+02  0.51100000000E-03 0. -1.
    9900012    2    1    2    0    0  0.33489575162E+02  0.17817776153E+02  0.21085507064E+02  0.47787269595E+02  0.19999993390E+02 0.  0.
         12    1    1    2    0    0 -0.33489575162E+02 -0.17817776153E+02 -0.21085507064E+02  0.43400730405E+02  0.00000000000E+00 0. -1.
         11    1    3    3    0    0  0.17405800437E+02  0.17787246487E+02  0.15334397751E+02  0.29231691383E+02  0.51100000000E-03 0. -1.
        -11    1    3    3    0    0  0.16375489012E+02 -0.36751937585E+00  0.65301876507E+01  0.17633350842E+02  0.51100000000E-03 0.  1.
         12    1    3    3    0    0 -0.29171428689E+00  0.39804904178E+00 -0.77907833853E+00  0.92222737023E+00  0.00000000000E+00 0. -1.
</event>
<event>
 7    1  0.2476315E-009  0.4778727E+02  0.7816164E-02  0.1312668E+00
        -11   -1    0    0    0    0  0.00000000000E+00  0.00000000000E+00  0.45593999997E+02  0.45594000000E+02  0.51100000000E-03 0.  1.
         11   -1    0    0    0    0 -0.00000000000E+00 -0.00000000000E+00 -0.45593999997E+02  0.45594000000E+02  0.51100000000E-03 0. -1.
    9900012    2    1    2    0    0 -0.54060208271E+01 -0.41573300954E+02  0.11227596145E+02  0.47787270414E+02  0.19999997128E+02 0.  0.
         12    1    1    2    0    0  0.54060208271E+01  0.41573300954E+02 -0.11227596145E+02  0.43400729586E+02  0.00000000000E+00 0. -1.
         11    1    3    3    0    0  0.43933938416E+01 -0.10632207844E+02  0.34036505566E+01  0.11997107587E+02  0.51100000000E-03 0. -1.
        -11    1    3    3    0    0 -0.10934817130E+02 -0.27671165682E+02  0.10353105114E+02  0.31503181134E+02  0.51100000000E-03 0.  1.
         12    1    3    3    0    0  0.11354024608E+01 -0.32699274283E+01 -0.25291595251E+01  0.42869816932E+01  0.00000000000E+00 0. -1.
</event>
<event>
 7    1  0.2476315E-009  0.4778727E+02  0.7816164E-02  0.1312668E+00
        -11   -1    0    0    0    0  0.00000000000E+00  0.00000000000E+00  0.45593999997E+02  0.45594000000E+02  0.51100000000E-03 0. -1.
         11   -1    0    0    0    0 -0.00000000000E+00 -0.00000000000E+00 -0.45593999997E+02  0.45594000000E+02  0.51100000000E-03 0.  1.
    9900012    2    1    2    0    0  0.21035892155E+02  0.46837091630E+01 -0.37671974672E+02  0.47787267679E+02  0.19999984658E+02 0.  0.
         12    1    1    2    0    0 -0.21035892155E+02 -0.46837091630E+01  0.37671974672E+02  0.43400732321E+02  0.00000000000E+00 0. -1.
         11    1    3    3    0    0 -0.22536964166E+01 -0.11024128871E+01 -0.10724919337E+02  0.11014461256E+02  0.51100000000E-03 0. -1.
        -11    1    3    3    0    0  0.22334913026E+02  0.48129383616E+01 -0.27047398023E+02  0.35405853409E+02  0.51100000000E-03 0.  1.
        -12    1    3    3    0    0  0.95467554559E+00  0.97318368849E+00  0.10034268794E+00  0.13669530145E+01  0.00000000000E+00 0.  1.
</event>
<event>
 7    1  0.2476315E-009  0.4778726E+02  0.7816164E-02  0.1312668E+00
        -11   -1    0    0    0    0  0.00000000000E+00  0.00000000000E+00  0.45593999997E+02  0.45594000000E+02  0.51100000000E-03 0. -1.
         11   -1    0    0    0    0 -0.00000000000E+00 -0.00000000000E+00 -0.45593999997E+02  0.45594000000E+02  0.51100000000E-03 0.  1.
    9900012    2    1    2    0    0 -0.21741832354E+02 -0.19333602475E+01 -0.37512385634E+02  0.47787260007E+02  0.19999949676E+02 0.  0.
         12    1    1    2    0    0  0.21741832354E+02  0.19333602475E+01  0.37512385634E+02  0.43400739993E+02  0.00000000000E+00 0. -1.
         11    1    3    3    0    0 -0.20284997927E+01  0.42774885190E+01 -0.83277452508E+00  0.48067903126E+01  0.51100000000E-03 0. -1.
        -11    1    3    3    0    0 -0.78724002920E+01 -0.38546921050E+01 -0.23626337802E+02  0.25199943963E+02  0.51100000000E-03 0.  1.
         12    1    3    3    0    0 -0.11840932270E+02 -0.23561566614E+01 -0.13053273308E+02  0.17780525731E+02  0.00000000000E+00 0. -1.
</event>
<event>
 7    1  0.2476315E-009  0.4778728E+02  0.7816164E-02  0.1312668E+00
        -11   -1    0    0    0    0  0.00000000000E+00  0.00000000000E+00  0.45593999997E+02  0.45594000000E+02  0.51100000000E-03 0.  1.
         11   -1    0    0    0    0 -0.00000000000E+00 -0.00000000000E+00 -0.45593999997E+02  0.45594000000E+02  0.51100000000E-03 0. -1.
    9900012    2    1    2    0    0  0.41440367401E+02 -0.10484513999E+01  0.12853748576E+02  0.47787283956E+02  0.20000058869E+02 0.  0.
         12    1    1    2    0    0 -0.41440367401E+02  0.10484513999E+01 -0.12853748576E+02  0.43400716044E+02  0.00000000000E+00 0. -1.
         11    1    3    3    0    0  0.12051899248E+02  0.67738228376E+01  0.61720769957E+01  0.15140260434E+02  0.51100000000E-03 0. -1.
        -11    1    3    3    0    0  0.14725248264E+02 -0.28805008050E+01 -0.16124376482E+01  0.15090731485E+02  0.51100000000E-03 0.  1.
         12    1    3    3    0    0  0.14663219890E+02 -0.49417734325E+01  0.82941092283E+01  0.17556292037E+02  0.00000000000E+00 0. -1.
</event>
<event>
 7    1  0.2476315E-009  0.4778727E+02  0.7816164E-02  0.1312668E+00
        -11   -1    0    0    0    0  0.00000000000E+00  0.00000000000E+00  0.45593999997E+02  0.45594000000E+02  0.51100000000E-03 0. -1.
         11   -1    0    0    0    0 -0.00000000000E+00 -0.00000000000E+00 -0.45593999997E+02  0.45594000000E+02  0.51100000000E-03 0.  1.
    9900012    2    1    2    0    0  0.37430014755E+02 -0.21608625875E+02  0.39603708371E+01  0.47787271274E+02  0.20000001049E+02 0.  0.
         12    1    1    2    0    0 -0.37430014755E+02  0.21608625875E+02 -0.39603708371E+01  0.43400728726E+02  0.00000000000E+00 0. -1.
         11    1    3    3    0    0  0.96981737776E+01 -0.43336599554E+01 -0.57691678940E+01  0.12087947786E+02  0.51100000000E-03 0. -1.
        -11    1    3    3    0    0  0.24039796143E+02 -0.18443558814E+02  0.97398487708E+01  0.31826738989E+02  0.51100000000E-03 0.  1.
        -12    1    3    3    0    0  0.36920448340E+01  0.11685928943E+01 -0.10310039754E-01  0.38725844995E+01  0.00000000000E+00 0.  1.
</event>
<event>
 7    1  0.2476315E-009  0.4778726E+02  0.7816164E-02  0.1312668E+00
        -11   -1    0    0    0    0  0.00000000000E+00  0.00000000000E+00  0.45593999997E+02  0.45594000000E+02  0.51100000000E-03 0.  1.
         11   -1    0    0    0    0 -0.00000000000E+00 -0.00000000000E+00 -0.45593999997E+02  0.45594000000E+02  0.51100000000E-03 0. -1.
    9900012    2    1    2    0    0  0.45672022234E+00 -0.58538076719E+01  0.43001723905E+02  0.47787263642E+02  0.19999966250E+02 0.  0.
         12    1    1    2    0    0 -0.45672022234E+00  0.58538076719E+01 -0.43001723905E+02  0.43400736358E+02  0.00000000000E+00 0. -1.
         11    1    3    3    0    0 -0.70363195597E+00  0.41551391476E+01  0.21026192501E+01  0.47097013958E+01  0.51100000000E-03 0. -1.
        -11    1    3    3    0    0 -0.10428457473E+01 -0.52966471032E+01  0.34058888877E+02  0.34484052975E+02  0.51100000000E-03 0.  1.
         12    1    3    3    0    0  0.22031979256E+01 -0.47122997163E+01  0.68402157779E+01  0.85935092717E+01  0.00000000000E+00 0. -1.
</event>
<event>
 7    1  0.2476315E-009  0.4778727E+02  0.7816164E-02  0.1312668E+00
        -11   -1    0    0    0    0  0.00000000000E+00  0.00000000000E+00  0.45593999997E+02  0.45594000000E+02  0.51100000000E-03 0.  1.
         11   -1    0    0    0    0 -0.00000000000E+00 -0.00000000000E+00 -0.45593999997E+02  0.45594000000E+02  0.51100000000E-03 0. -1.
    9900012    2    1    2    0    0 -0.18188861883E+02  0.10824500196E+02  0.37889559061E+02  0.47787272046E+02  0.20000004567E+02 0.  0.
         12    1    1    2    0    0  0.18188861883E+02 -0.10824500196E+02 -0.37889559061E+02  0.43400727954E+02  0.00000000000E+00 0. -1.
         11    1    3    3    0    0  0.11415770169E+01 -0.21861921043E+01  0.62695011641E+00  0.25447398123E+01  0.51100000000E-03 0. -1.
        -11    1    3    3    0    0 -0.15743567015E+02  0.13579344646E+02  0.25332186573E+02  0.32771606311E+02  0.51100000000E-03 0.  1.
         12    1    3    3    0    0 -0.35868718853E+01 -0.56865234561E+00  0.11930422372E+02  0.12470925923E+02  0.00000000000E+00 0. -1.
</event>
<event>
 7    1  0.2476315E-009  0.4778727E+02  0.7816164E-02  0.1312668E+00
        -11   -1    0    0    0    0  0.00000000000E+00  0.00000000000E+00  0.45593999997E+02  0.45594000000E+02  0.51100000000E-03 0. -1.
         11   -1    0    0    0    0 -0.00000000000E+00 -0.00000000000E+00 -0.45593999997E+02  0.45594000000E+02  0.51100000000E-03 0.  1.
    9900012    2    1    2    0    0 -0.27487949342E+02 -0.93922705514E+01 -0.32246260394E+02  0.47787269424E+02  0.19999992612E+02 0.  0.
         12    1    1    2    0    0  0.27487949342E+02  0.93922705514E+01  0.32246260394E+02  0.43400730576E+02  0.00000000000E+00 0. -1.
         11    1    3    3    0    0 -0.19883118997E+02 -0.47757880445E+01 -0.17399789617E+02  0.26849567063E+02  0.51100000000E-03 0. -1.
        -11    1    3    3    0    0  0.38868102783E+00 -0.10690756817E+01 -0.11527950180E+02  0.11583938509E+02  0.51100000000E-03 0.  1.
        -12    1    3    3    0    0 -0.79935113735E+01 -0.35474068252E+01 -0.33185205959E+01  0.93537638524E+01  0.00000000000E+00 0.  1.
</event>
<event>
 7    1  0.2476315E-009  0.4778726E+02  0.7816164E-02  0.1312668E+00
        -11   -1    0    0    0    0  0.00000000000E+00  0.00000000000E+00  0.45593999997E+02  0.45594000000E+02  0.51100000000E-03 0.  1.
         11   -1    0    0    0    0 -0.00000000000E+00 -0.00000000000E+00 -0.45593999997E+02  0.45594000000E+02  0.51100000000E-03 0. -1.
    9900012    2    1    2    0    0  0.29018576168E+02  0.59008740988E+01  0.31728944714E+02  0.47787262556E+02  0.19999961300E+02 0.  0.
         12    1    1    2    0    0 -0.29018576168E+02 -0.59008740988E+01 -0.31728944714E+02  0.43400737444E+02  0.00000000000E+00 0. -1.
         11    1    3    3    0    0  0.22640723109E+02  0.10464294059E+01  0.19776661374E+02  0.30080121222E+02  0.51100000000E-03 0. -1.
        -11    1    3    3    0    0  0.47457542190E+01  0.69102322965E+01  0.12475757934E+02  0.15030569843E+02  0.51100000000E-03 0.  1.
         12    1    3    3    0    0  0.16320988407E+01 -0.20557876036E+01 -0.52347459432E+00  0.26765714912E+01  0.00000000000E+00 0. -1.
</event>
<event>
 7    1  0.2476315E-009  0.4778728E+02  0.7816164E-02  0.1312668E+00
        -11   -1    0    0    0    0  0.00000000000E+00  0.00000000000E+00  0.45593999997E+02  0.45594000000E+02  0.51100000000E-03 0. -1.
         11   -1    0    0    0    0 -0.00000000000E+00 -0.00000000000E+00 -0.45593999997E+02  0.45594000000E+02  0.51100000000E-03 0.  1.
    9900012    2    1    2    0    0 -0.16359910210E+02 -0.27525253158E+02 -0.29297383641E+02  0.47787275217E+02  0.20000019023E+02 0.  0.
         12    1    1    2    0    0  0.16359910210E+02  0.27525253158E+02  0.29297383641E+02  0.43400724783E+02  0.00000000000E+00 0. -1.
         11    1    3    3    0    0 -0.87492226621E+01 -0.11501089882E+02 -0.57098956511E+01  0.15537917308E+02  0.51100000000E-03 0. -1.
        -11    1    3    3    0    0 -0.45312862190E+01 -0.31943597913E+01 -0.16211795733E+02  0.17133558020E+02  0.51100000000E-03 0.  1.
        -12    1    3    3    0    0 -0.30794013290E+01 -0.12829803484E+02 -0.73756922570E+01  0.15115799888E+02  0.00000000000E+00 0.  1.
</event>
<event>
 7    1  0.2476315E-009  0.4778726E+02  0.7816164E-02  0.1312668E+00
        -11   -1    0    0    0    0  0.00000000000E+00  0.00000000000E+00  0.45593999997E+02  0.45594000000E+02  0.51100000000E-03 0. -1.
         11   -1    0    0    0    0 -0.00000000000E+00 -0.00000000000E+00 -0.45593999997E+02  0.45594000000E+02  0.51100000000E-03 0.  1.
    9900012    2    1    2    0    0 -0.31024501544E+02 -0.29194862939E+02 -0.82924140609E+01  0.47787264418E+02  0.19999969787E+02 0.  0.
         12    1    1    2    0    0  0.31024501544E+02  0.29194862939E+02  0.82924140609E+01  0.43400735582E+02  0.00000000000E+00 0. -1.
         11    1    3    3    0    0 -0.35918370503E+01 -0.31938265895E+01  0.33341757409E+01  0.58496623673E+01  0.51100000000E-03 0. -1.
        -11    1    3    3    0    0 -0.81787572690E+01 -0.55384319618E+01 -0.95898746044E+01  0.13767061932E+02  0.51100000000E-03 0.  1.
        -12    1    3    3    0    0 -0.19253907225E+02 -0.20462604388E+02 -0.20367151974E+01  0.28170540118E+02  0.00000000000E+00 0.  1.
</event>
<event>
 7    1  0.2476315E-009  0.4778727E+02  0.7816164E-02  0.1312668E+00
        -11   -1    0    0    0    0  0.00000000000E+00  0.00000000000E+00  0.45593999997E+02  0.45594000000E+02  0.51100000000E-03 0.  1.
         11   -1    0    0    0    0 -0.00000000000E+00 -0.00000000000E+00 -0.45593999997E+02  0.45594000000E+02  0.51100000000E-03 0. -1.
    9900012    2    1    2    0    0 -0.41933720332E+02  0.59740933531E+01 -0.94602755974E+01  0.47787268362E+02  0.19999987772E+02 0.  0.
         12    1    1    2    0    0  0.41933720332E+02 -0.59740933531E+01  0.94602755974E+01  0.43400731638E+02  0.00000000000E+00 0. -1.
         11    1    3    3    0    0 -0.32447299456E+01  0.50959957904E+01 -0.36228280778E+01  0.70443118228E+01  0.51100000000E-03 0. -1.
        -11    1    3    3    0    0 -0.20340849577E+02 -0.51971699692E+01 -0.31430929150E+01  0.21228277616E+02  0.51100000000E-03 0.  1.
         12    1    3    3    0    0 -0.18348140810E+02  0.60752675320E+01 -0.26943546047E+01  0.19514678924E+02  0.00000000000E+00 0. -1.
</event>
<event>
 7    1  0.2476315E-009  0.4778728E+02  0.7816164E-02  0.1312668E+00
        -11   -1    0    0    0    0  0.00000000000E+00  0.00000000000E+00  0.45593999997E+02  0.45594000000E+02  0.51100000000E-03 0. -1.
         11   -1    0    0    0    0 -0.00000000000E+00 -0.00000000000E+00 -0.45593999997E+02  0.45594000000E+02  0.51100000000E-03 0.  1.
    9900012    2    1    2    0    0  0.40884569469E+02  0.99089244168E+01 -0.10671802329E+02  0.47787283777E+02  0.20000058052E+02 0.  0.
         12    1    1    2    0    0 -0.40884569469E+02 -0.99089244168E+01  0.10671802329E+02  0.43400716223E+02  0.00000000000E+00 0. -1.
         11    1    3    3    0    0  0.86876749041E+01  0.19434718709E+01  0.36620535427E+01  0.96261838006E+01  0.51100000000E-03 0. -1.
        -11    1    3    3    0    0  0.12141548805E+02 -0.23716872386E+01 -0.79776453064E+01  0.14720221895E+02  0.51100000000E-03 0.  1.
        -12    1    3    3    0    0  0.20055345760E+02  0.10337139784E+02 -0.63562105654E+01  0.23440878081E+02  0.00000000000E+00 0.  1.
</event>
<event>
 7    1  0.2476315E-009  0.4778727E+02  0.7816164E-02  0.1312668E+00
        -11   -1    0    0    0    0  0.00000000000E+00  0.00000000000E+00  0.45593999997E+02  0.45594000000E+02  0.51100000000E-03 0.  1.
         11   -1    0    0    0    0 -0.00000000000E+00 -0.00000000000E+00 -0.45593999997E+02  0.45594000000E+02  0.51100000000E-03 0. -1.
    9900012    2    1    2    0    0 -0.22266151018E+02  0.19757468432E+02  0.31582973372E+02  0.47787271354E+02  0.20000001410E+02 0.  0.
         12    1    1    2    0    0  0.22266151018E+02 -0.19757468432E+02 -0.31582973372E+02  0.43400728646E+02  0.00000000000E+00 0. -1.
         11    1    3    3    0    0 -0.76517390105E+01  0.17249169942E+01  0.37723186890E+01  0.87037254709E+01  0.51100000000E-03 0.  1.
        -11    1    3    3    0    0  0.16178713876E+01 -0.11893899657E+01  0.38411063691E+01  0.43343113314E+01  0.51100000000E-03 0. -1.
        -12    1    3    3    0    0 -0.16232283395E+02  0.19221941403E+02  0.23969548314E+02  0.34749234551E+02  0.00000000000E+00 0.  1.
</event>
<event>
 7    1  0.2476315E-009  0.4778727E+02  0.7816164E-02  0.1312668E+00
        -11   -1    0    0    0    0  0.00000000000E+00  0.00000000000E+00  0.45593999997E+02  0.45594000000E+02  0.51100000000E-03 0. -1.
         11   -1    0    0    0    0 -0.00000000000E+00 -0.00000000000E+00 -0.45593999997E+02  0.45594000000E+02  0.51100000000E-03 0.  1.
    9900012    2    1    2    0    0  0.36011940413E+02 -0.13250515854E+02 -0.20277747383E+02  0.47787273489E+02  0.20000011145E+02 0.  0.
         12    1    1    2    0    0 -0.36011940413E+02  0.13250515854E+02  0.20277747383E+02  0.43400726511E+02  0.00000000000E+00 0. -1.
         11    1    3    3    0    0  0.62736267998E+01 -0.76639377800E+01 -0.23421146123E+01  0.10177417975E+02  0.51100000000E-03 0. -1.
        -11    1    3    3    0    0  0.61975081822E+01  0.32909741408E+01 -0.77836641032E+01  0.10479744539E+02  0.51100000000E-03 0.  1.
        -12    1    3    3    0    0  0.23540805431E+02 -0.88775522150E+01 -0.10151968668E+02  0.27130110975E+02  0.00000000000E+00 0.  1.
</event>
<event>
 7    1  0.2476315E-009  0.4778727E+02  0.7816164E-02  0.1312668E+00
        -11   -1    0    0    0    0  0.00000000000E+00  0.00000000000E+00  0.45593999997E+02  0.45594000000E+02  0.51100000000E-03 0.  1.
         11   -1    0    0    0    0 -0.00000000000E+00 -0.00000000000E+00 -0.45593999997E+02  0.45594000000E+02  0.51100000000E-03 0. -1.
    9900012    2    1    2    0    0 -0.10251348581E+02  0.87830402213E+00  0.42163513168E+02  0.47787269495E+02  0.19999992935E+02 0.  0.
         12    1    1    2    0    0  0.10251348581E+02 -0.87830402213E+00 -0.42163513168E+02  0.43400730505E+02  0.00000000000E+00 0. -1.
         11    1    3    3    0    0 -0.12881117451E+02 -0.64741966248E+01  0.29809296157E+02  0.33112422840E+02  0.51100000000E-03 0. -1.
        -11    1    3    3    0    0  0.10835522643E+01  0.47958968741E+01  0.81206659243E+01  0.94931516185E+01  0.51100000000E-03 0.  1.
         12    1    3    3    0    0  0.15462166052E+01  0.25566037729E+01  0.42335510869E+01  0.51816950361E+01  0.00000000000E+00 0. -1.
</event>
<event>
 7    1  0.2476315E-009  0.4778727E+02  0.7816164E-02  0.1312668E+00
        -11   -1    0    0    0    0  0.00000000000E+00  0.00000000000E+00  0.45593999997E+02  0.45594000000E+02  0.51100000000E-03 0. -1.
         11   -1    0    0    0    0 -0.00000000000E+00 -0.00000000000E+00 -0.45593999997E+02  0.45594000000E+02  0.51100000000E-03 0.  1.
    9900012    2    1    2    0    0  0.11054671478E+02 -0.17063301445E+02 -0.38343985969E+02  0.47787271000E+02  0.19999999799E+02 0.  0.
         12    1    1    2    0    0 -0.11054671478E+02  0.17063301445E+02  0.38343985969E+02  0.43400729000E+02  0.00000000000E+00 0. -1.
         11    1    3    3    0    0  0.80552709104E+01 -0.18636042334E+02 -0.24768996814E+02  0.32026436998E+02  0.51100000000E-03 0. -1.
        -11    1    3    3    0    0  0.30587114712E+01 -0.24678566502E+01 -0.74458435521E+01  0.84194191470E+01  0.51100000000E-03 0.  1.
         12    1    3    3    0    0 -0.59310903751E-01  0.40405975395E+01 -0.61291456031E+01  0.73414148557E+01  0.00000000000E+00 0. -1.
</event>
<event>
 7    1  0.2476315E-009  0.4778727E+02  0.7816164E-02  0.1312668E+00
        -11   -1    0    0    0    0  0.00000000000E+00  0.00000000000E+00  0.45593999997E+02  0.45594000000E+02  0.51100000000E-03 0. -1.
         11   -1    0    0    0    0 -0.00000000000E+00 -0.00000000000E+00 -0.45593999997E+02  0.45594000000E+02  0.51100000000E-03 0.  1.
    9900012    2    1    2    0    0  0.44474254813E+01  0.14436500706E+02 -0.40686990144E+02  0.47787270594E+02  0.19999997945E+02 0.  0.
         12    1    1    2    0    0 -0.44474254813E+01 -0.14436500706E+02  0.40686990144E+02  0.43400729406E+02  0.00000000000E+00 0. -1.
         11    1    3    3    0    0 -0.20382581675E+01  0.12688182313E+02 -0.23228111789E+02  0.26545991116E+02  0.51100000000E-03 0.  1.
        -11    1    3    3    0    0  0.76057151157E+01  0.85268073209E+00 -0.60856466927E+01  0.97779886879E+01  0.51100000000E-03 0. -1.
         12    1    3    3    0    0 -0.11200314669E+01  0.89563766065E+00 -0.11373231662E+02  0.11463290790E+02  0.00000000000E+00 0. -1.
</event>
<event>
 7    1  0.2476315E-009  0.4778727E+02  0.7816164E-02  0.1312668E+00
        -11   -1    0    0    0    0  0.00000000000E+00  0.00000000000E+00  0.45593999997E+02  0.45594000000E+02  0.51100000000E-03 0.  1.
         11   -1    0    0    0    0 -0.00000000000E+00 -0.00000000000E+00 -0.45593999997E+02  0.45594000000E+02  0.51100000000E-03 0. -1.
    9900012    2    1    2    0    0 -0.36173859282E+02 -0.77860671206E+01  0.22681541853E+02  0.47787271004E+02  0.19999999815E+02 0.  0.
         12    1    1    2    0    0  0.36173859282E+02  0.77860671206E+01 -0.22681541853E+02  0.43400728996E+02  0.00000000000E+00 0. -1.
         11    1    3    3    0    0 -0.82205374962E+00 -0.11926763921E+01 -0.98885455508E+00  0.17538765452E+01  0.51100000000E-03 0. -1.
        -11    1    3    3    0    0 -0.31649403364E+01  0.21964854138E+01 -0.16068814914E+01  0.41741422945E+01  0.51100000000E-03 0.  1.
        -12    1    3    3    0    0 -0.32186865196E+02 -0.87898761423E+01  0.25277277899E+02  0.41859252164E+02  0.00000000000E+00 0.  1.
</event>
<event>
 7    1  0.2476315E-009  0.4778727E+02  0.7816164E-02  0.1312668E+00
        -11   -1    0    0    0    0  0.00000000000E+00  0.00000000000E+00  0.45593999997E+02  0.45594000000E+02  0.51100000000E-03 0. -1.
         11   -1    0    0    0    0 -0.00000000000E+00 -0.00000000000E+00 -0.45593999997E+02  0.45594000000E+02  0.51100000000E-03 0.  1.
    9900012    2    1    2    0    0 -0.97891864679E+01  0.54884419175E+01 -0.41924600992E+02  0.47787270343E+02  0.19999996804E+02 0.  0.
         12    1    1    2    0    0  0.97891864679E+01 -0.54884419175E+01  0.41924600992E+02  0.43400729657E+02  0.00000000000E+00 0. -1.
         11    1    3    3    0    0 -0.50901012156E+01  0.87319865367E+01 -0.12865370513E+02  0.16360760311E+02  0.51100000000E-03 0. -1.
        -11    1    3    3    0    0  0.18501363765E+01 -0.30380694197E+01 -0.33178450106E+01  0.48642539188E+01  0.51100000000E-03 0.  1.
         12    1    3    3    0    0 -0.65492216288E+01 -0.20547519950E+00 -0.25741385469E+02  0.26562256114E+02  0.00000000000E+00 0. -1.
</event>
<event>
 7    1  0.2476315E-009  0.4778728E+02  0.7816164E-02  0.1312668E+00
        -11   -1    0    0    0    0  0.00000000000E+00  0.00000000000E+00  0.45593999997E+02  0.45594000000E+02  0.51100000000E-03 0. -1.
         11   -1    0    0    0    0 -0.00000000000E+00 -0.00000000000E+00 -0.45593999997E+02  0.45594000000E+02  0.51100000000E-03 0.  1.
    9900012    2    1    2    0    0 -0.42928953143E+02 -0.12391261739E+01 -0.62603480960E+01  0.47787280997E+02  0.20000045379E+02 0.  0.
         12    1    1    2    0    0  0.42928953143E+02  0.12391261739E+01  0.62603480960E+01  0.43400719003E+02  0.00000000000E+00 0. -1.
         11    1    3    3    0    0 -0.69937356285E+01 -0.29902441543E+01  0.58540948349E+01  0.95981417338E+01  0.51100000000E-03 0. -1.
        -11    1    3    3    0    0 -0.23450478593E+02  0.24487622611E+01 -0.94678775879E+01  0.25407913907E+02  0.51100000000E-03 0.  1.
        -12    1    3    3    0    0 -0.12484738922E+02 -0.69764428071E+00 -0.26465653430E+01  0.12781225356E+02  0.00000000000E+00 0.  1.
</event>
<event>
 7    1  0.2476315E-009  0.4778727E+02  0.7816164E-02  0.1312668E+00
        -11   -1    0    0    0    0  0.00000000000E+00  0.00000000000E+00  0.45593999997E+02  0.45594000000E+02  0.51100000000E-03 0. -1.
         11   -1    0    0    0    0 -0.00000000000E+00 -0.00000000000E+00 -0.45593999997E+02  0.45594000000E+02  0.51100000000E-03 0.  1.
    9900012    2    1    2    0    0 -0.24481617221E+02  0.34236331427E+02 -0.10589983782E+02  0.47787265814E+02  0.19999976154E+02 0.  0.
         12    1    1    2    0    0  0.24481617221E+02 -0.34236331427E+02  0.10589983782E+02  0.43400734186E+02  0.00000000000E+00 0. -1.
         11    1    3    3    0    0 -0.16300154932E+02  0.27694220697E+02 -0.65248137011E+01  0.32790823486E+02  0.51100000000E-03 0. -1.
        -11    1    3    3    0    0 -0.37937839847E+01  0.43628826682E+01 -0.71591151663E+01  0.92021993200E+01  0.51100000000E-03 0.  1.
         12    1    3    3    0    0 -0.43876783037E+01  0.21792280624E+01  0.30939450852E+01  0.57942430079E+01  0.00000000000E+00 0. -1.
</event>
<event>
 7    1  0.2476315E-009  0.4778727E+02  0.7816164E-02  0.1312668E+00
        -11   -1    0    0    0    0  0.00000000000E+00  0.00000000000E+00  0.45593999997E+02  0.45594000000E+02  0.51100000000E-03 0.  1.
         11   -1    0    0    0    0 -0.00000000000E+00 -0.00000000000E+00 -0.45593999997E+02  0.45594000000E+02  0.51100000000E-03 0. -1.
    9900012    2    1    2    0    0 -0.18639408780E+02  0.38350972035E+02 -0.80869325670E+01  0.47787273116E+02  0.20000009444E+02 0.  0.
         12    1    1    2    0    0  0.18639408780E+02 -0.38350972035E+02  0.80869325670E+01  0.43400726884E+02  0.00000000000E+00 0. -1.
         11    1    3    3    0    0 -0.40178888565E+01  0.95107081608E+00 -0.48038514304E+01  0.63344262082E+01  0.51100000000E-03 0. -1.
        -11    1    3    3    0    0  0.10338407842E+01  0.39239805664E+01  0.11864969247E+01  0.42277920320E+01  0.51100000000E-03 0.  1.
         12    1    3    3    0    0 -0.15655360708E+02  0.33475920653E+02 -0.44695780613E+01  0.37225054876E+02  0.00000000000E+00 0. -1.
</event>
<event>
 7    1  0.2476315E-009  0.4778727E+02  0.7816164E-02  0.1312668E+00
        -11   -1    0    0    0    0  0.00000000000E+00  0.00000000000E+00  0.45593999997E+02  0.45594000000E+02  0.51100000000E-03 0.  1.
         11   -1    0    0    0    0 -0.00000000000E+00 -0.00000000000E+00 -0.45593999997E+02  0.45594000000E+02  0.51100000000E-03 0. -1.
    9900012    2    1    2    0    0  0.15874968966E+02 -0.28138453598E+02  0.28979919923E+02  0.47787274553E+02  0.20000015998E+02 0.  0.
         12    1    1    2    0    0 -0.15874968966E+02  0.28138453598E+02 -0.28979919923E+02  0.43400725447E+02  0.00000000000E+00 0. -1.
         11    1    3    3    0    0  0.12326817335E+02 -0.22176087128E+02  0.17141381462E+02  0.30619539915E+02  0.51100000000E-03 0.  1.
        -11    1    3    3    0    0 -0.36594645304E+01 -0.18902181459E+01  0.45580516238E+01  0.61433248453E+01  0.51100000000E-03 0. -1.
         12    1    3    3    0    0  0.72076161607E+01 -0.40721483239E+01  0.72804868374E+01  0.11024409793E+02  0.00000000000E+00 0. -1.
</event>
<event>
 7    1  0.2476315E-009  0.4778727E+02  0.7816164E-02  0.1312668E+00
        -11   -1    0    0    0    0  0.00000000000E+00  0.00000000000E+00  0.45593999997E+02  0.45594000000E+02  0.51100000000E-03 0.  1.
         11   -1    0    0    0    0 -0.00000000000E+00 -0.00000000000E+00 -0.45593999997E+02  0.45594000000E+02  0.51100000000E-03 0. -1.
    9900012    2    1    2    0    0  0.34100931886E+02 -0.19052278449E+02  0.18914550889E+02  0.47787272991E+02  0.20000008874E+02 0.  0.
         12    1    1    2    0    0 -0.34100931886E+02  0.19052278449E+02 -0.18914550889E+02  0.43400727009E+02  0.00000000000E+00 0. -1.
         11    1    3    3    0    0  0.60148002736E+01 -0.11225619113E+02  0.45461898786E+01  0.13522580725E+02  0.51100000000E-03 0. -1.
        -11    1    3    3    0    0  0.12050077889E+02  0.59410331413E+00  0.17520239075E+01  0.12191264246E+02  0.51100000000E-03 0.  1.
        -12    1    3    3    0    0  0.16036053723E+02 -0.84207626510E+01  0.12616337103E+02  0.22073428020E+02  0.00000000000E+00 0.  1.
</event>
<event>
 7    1  0.2476315E-009  0.4778730E+02  0.7816164E-02  0.1312668E+00
        -11   -1    0    0    0    0  0.00000000000E+00  0.00000000000E+00  0.45593999997E+02  0.45594000000E+02  0.51100000000E-03 0.  1.
         11   -1    0    0    0    0 -0.00000000000E+00 -0.00000000000E+00 -0.45593999997E+02  0.45594000000E+02  0.51100000000E-03 0. -1.
    9900012    2    1    2    0    0 -0.30024612968E+02  0.13675495540E+02  0.28197952706E+02  0.47787296100E+02  0.20000114239E+02 0.  0.
         12    1    1    2    0    0  0.30024612968E+02 -0.13675495540E+02 -0.28197952706E+02  0.43400703900E+02  0.00000000000E+00 0. -1.
         11    1    3    3    0    0 -0.55641966524E+01  0.58814009131E+01  0.56984900340E+00  0.81163963207E+01  0.51100000000E-03 0. -1.
        -11    1    3    3    0    0 -0.23022264457E+02  0.32459695244E+01  0.25308040053E+02  0.34366522525E+02  0.51100000000E-03 0.  1.
        -12    1    3    3    0    0 -0.14381518590E+01  0.45481251024E+01  0.23200636499E+01  0.53043772543E+01  0.00000000000E+00 0.  1.
</event>
<event>
 7    1  0.2476315E-009  0.4778727E+02  0.7816164E-02  0.1312668E+00
        -11   -1    0    0    0    0  0.00000000000E+00  0.00000000000E+00  0.45593999997E+02  0.45594000000E+02  0.51100000000E-03 0. -1.
         11   -1    0    0    0    0 -0.00000000000E+00 -0.00000000000E+00 -0.45593999997E+02  0.45594000000E+02  0.51100000000E-03 0.  1.
    9900012    2    1    2    0    0  0.30166805932E+02  0.13374088054E+02 -0.28190795893E+02  0.47787269770E+02  0.19999994188E+02 0.  0.
         12    1    1    2    0    0 -0.30166805932E+02 -0.13374088054E+02  0.28190795893E+02  0.43400730230E+02  0.00000000000E+00 0. -1.
         11    1    3    3    0    0  0.23874956622E+02  0.11648662410E+02 -0.12910407305E+02  0.29536138994E+02  0.51100000000E-03 0. -1.
        -11    1    3    3    0    0  0.67149048912E+01 -0.38915659497E+00 -0.70541044751E+01  0.97468856954E+01  0.51100000000E-03 0.  1.
         12    1    3    3    0    0 -0.42305558084E+00  0.21145822388E+01 -0.82262841131E+01  0.85042450799E+01  0.00000000000E+00 0. -1.
</event>
<event>
 7    1  0.2476315E-009  0.4778727E+02  0.7816164E-02  0.1312668E+00
        -11   -1    0    0    0    0  0.00000000000E+00  0.00000000000E+00  0.45593999997E+02  0.45594000000E+02  0.51100000000E-03 0.  1.
         11   -1    0    0    0    0 -0.00000000000E+00 -0.00000000000E+00 -0.45593999997E+02  0.45594000000E+02  0.51100000000E-03 0. -1.
    9900012    2    1    2    0    0 -0.35457454133E+02 -0.23709220654E+02 -0.80165367090E+01  0.47787273526E+02  0.20000011316E+02 0.  0.
         12    1    1    2    0    0  0.35457454133E+02  0.23709220654E+02  0.80165367090E+01  0.43400726474E+02  0.00000000000E+00 0. -1.
         11    1    3    3    0    0 -0.35322001873E+02 -0.20623987233E+02 -0.62421152023E+01  0.41375798097E+02  0.51100000000E-03 0.  1.
        -11    1    3    3    0    0 -0.21458921781E+01 -0.29131409138E+01  0.15250962828E+00  0.36213951278E+01  0.51100000000E-03 0. -1.
         12    1    3    3    0    0  0.20104399174E+01 -0.17209250719E+00 -0.19269311350E+01  0.27900803020E+01  0.00000000000E+00 0. -1.
</event>
<event>
 7    1  0.2476315E-009  0.4778726E+02  0.7816164E-02  0.1312668E+00
        -11   -1    0    0    0    0  0.00000000000E+00  0.00000000000E+00  0.45593999997E+02  0.45594000000E+02  0.51100000000E-03 0. -1.
         11   -1    0    0    0    0 -0.00000000000E+00 -0.00000000000E+00 -0.45593999997E+02  0.45594000000E+02  0.51100000000E-03 0.  1.
    9900012    2    1    2    0    0 -0.28401623372E+02  0.29568440791E+02 -0.14236537995E+02  0.47787263657E+02  0.19999966319E+02 0.  0.
         12    1    1    2    0    0  0.28401623372E+02 -0.29568440791E+02  0.14236537995E+02  0.43400736343E+02  0.00000000000E+00 0. -1.
         11    1    3    3    0    0  0.23608447255E+01  0.38692684572E+01  0.90394020647E-01  0.45335413919E+01  0.51100000000E-03 0. -1.
        -11    1    3    3    0    0 -0.22106161018E+02  0.18484591336E+02 -0.65184428210E+01  0.29544078406E+02  0.51100000000E-03 0.  1.
         12    1    3    3    0    0 -0.86563070798E+01  0.72145809979E+01 -0.78084891949E+01  0.13709643859E+02  0.00000000000E+00 0. -1.
</event>
<event>
 7    1  0.2476315E-009  0.4778727E+02  0.7816164E-02  0.1312668E+00
        -11   -1    0    0    0    0  0.00000000000E+00  0.00000000000E+00  0.45593999997E+02  0.45594000000E+02  0.51100000000E-03 0.  1.
         11   -1    0    0    0    0 -0.00000000000E+00 -0.00000000000E+00 -0.45593999997E+02  0.45594000000E+02  0.51100000000E-03 0. -1.
    9900012    2    1    2    0    0  0.10613301286E+02 -0.80122635116E+01  0.41313252381E+02  0.47787270132E+02  0.19999995840E+02 0.  0.
         12    1    1    2    0    0 -0.10613301286E+02  0.80122635116E+01 -0.41313252381E+02  0.43400729868E+02  0.00000000000E+00 0. -1.
         11    1    3    3    0    0  0.36653964590E+01 -0.10121609348E+02  0.16111225147E+02  0.19376627235E+02  0.51100000000E-03 0. -1.
        -11    1    3    3    0    0  0.47436260863E+01 -0.41682653731E+01  0.14403745344E+02  0.15727183628E+02  0.51100000000E-03 0.  1.
         12    1    3    3    0    0  0.22042787409E+01  0.62776112096E+01  0.10798281889E+02  0.12683459269E+02  0.00000000000E+00 0. -1.
</event>
<event>
 7    1  0.2476315E-009  0.4778727E+02  0.7816164E-02  0.1312668E+00
        -11   -1    0    0    0    0  0.00000000000E+00  0.00000000000E+00  0.45593999997E+02  0.45594000000E+02  0.51100000000E-03 0.  1.
         11   -1    0    0    0    0 -0.00000000000E+00 -0.00000000000E+00 -0.45593999997E+02  0.45594000000E+02  0.51100000000E-03 0. -1.
    9900012    2    1    2    0    0 -0.38863980839E+00  0.19488058528E+02  0.38777416154E+02  0.47787268789E+02  0.19999989718E+02 0.  0.
         12    1    1    2    0    0  0.38863980839E+00 -0.19488058528E+02 -0.38777416154E+02  0.43400731211E+02  0.00000000000E+00 0. -1.
         11    1    3    3    0    0  0.24157788409E+01 -0.32678855356E+01  0.22711308169E+01  0.46554375445E+01  0.51100000000E-03 0. -1.
        -11    1    3    3    0    0 -0.10972034894E+01  0.14035183827E+02  0.22867375911E+02  0.26853437804E+02  0.51100000000E-03 0.  1.
         12    1    3    3    0    0 -0.17072151599E+01  0.87207602368E+01  0.13638909425E+02  0.16278393441E+02  0.00000000000E+00 0. -1.
</event>
<event>
 7    1  0.2476315E-009  0.4778727E+02  0.7816164E-02  0.1312668E+00
        -11   -1    0    0    0    0  0.00000000000E+00  0.00000000000E+00  0.45593999997E+02  0.45594000000E+02  0.51100000000E-03 0.  1.
         11   -1    0    0    0    0 -0.00000000000E+00 -0.00000000000E+00 -0.45593999997E+02  0.45594000000E+02  0.51100000000E-03 0. -1.
    9900012    2    1    2    0    0 -0.66655689324E+01  0.37548429398E+02  0.20719770082E+02  0.47787271530E+02  0.20000002215E+02 0.  0.
         12    1    1    2    0    0  0.66655689324E+01 -0.37548429398E+02 -0.20719770082E+02  0.43400728470E+02  0.00000000000E+00 0. -1.
         11    1    3    3    0    0  0.26359353790E+01 -0.10338568101E+01  0.70233513806E+00  0.29172401570E+01  0.51100000000E-03 0. -1.
        -11    1    3    3    0    0 -0.95773278401E+01  0.33517219069E+02  0.15795895721E+02  0.38270608887E+02  0.51100000000E-03 0.  1.
        -12    1    3    3    0    0  0.27582352873E+00  0.50650671391E+01  0.42215392230E+01  0.65994224864E+01  0.00000000000E+00 0.  1.
</event>
<event>
 7    1  0.2476315E-009  0.4778727E+02  0.7816164E-02  0.1312668E+00
        -11   -1    0    0    0    0  0.00000000000E+00  0.00000000000E+00  0.45593999997E+02  0.45594000000E+02  0.51100000000E-03 0.  1.
         11   -1    0    0    0    0 -0.00000000000E+00 -0.00000000000E+00 -0.45593999997E+02  0.45594000000E+02  0.51100000000E-03 0. -1.
    9900012    2    1    2    0    0 -0.17137042951E+02 -0.28957658688E+01  0.39768826249E+02  0.47787271408E+02  0.20000001657E+02 0.  0.
         12    1    1    2    0    0  0.17137042951E+02  0.28957658688E+01 -0.39768826249E+02  0.43400728592E+02  0.00000000000E+00 0. -1.
         11    1    3    3    0    0 -0.29953648230E+01 -0.33062820052E+01  0.20368866869E+02  0.20851725322E+02  0.51100000000E-03 0.  1.
        -11    1    3    3    0    0 -0.44393180817E+01  0.17774224093E+01 -0.44594599709E+00  0.48026704598E+01  0.51100000000E-03 0. -1.
         12    1    3    3    0    0 -0.97023600468E+01 -0.13669062728E+01  0.19845905378E+02  0.22132875626E+02  0.00000000000E+00 0. -1.
</event>
<event>
 7    1  0.2476315E-009  0.4778727E+02  0.7816164E-02  0.1312668E+00
        -11   -1    0    0    0    0  0.00000000000E+00  0.00000000000E+00  0.45593999997E+02  0.45594000000E+02  0.51100000000E-03 0. -1.
         11   -1    0    0    0    0 -0.00000000000E+00 -0.00000000000E+00 -0.45593999997E+02  0.45594000000E+02  0.51100000000E-03 0.  1.
    9900012    2    1    2    0    0  0.32158738416E+02 -0.22877368577E+02  0.18057258509E+02  0.47787273804E+02  0.20000012583E+02 0.  0.
         12    1    1    2    0    0 -0.32158738416E+02  0.22877368577E+02 -0.18057258509E+02  0.43400726196E+02  0.00000000000E+00 0. -1.
         11    1    3    3    0    0 -0.69644713237E+00 -0.41201604670E+01 -0.55930580384E+00  0.42158728782E+01  0.51100000000E-03 0. -1.
        -11    1    3    3    0    0  0.21673373944E+02 -0.10705711584E+02  0.17307501782E+02  0.29730405594E+02  0.51100000000E-03 0.  1.
         12    1    3    3    0    0  0.11181811605E+02 -0.80514965255E+01  0.13090625308E+01  0.13840995332E+02  0.00000000000E+00 0. -1.
</event>
<event>
 7    1  0.2476315E-009  0.4778729E+02  0.7816164E-02  0.1312668E+00
        -11   -1    0    0    0    0  0.00000000000E+00  0.00000000000E+00  0.45593999997E+02  0.45594000000E+02  0.51100000000E-03 0.  1.
         11   -1    0    0    0    0 -0.00000000000E+00 -0.00000000000E+00 -0.45593999997E+02  0.45594000000E+02  0.51100000000E-03 0. -1.
    9900012    2    1    2    0    0  0.37068510169E+01 -0.31380865234E+02  0.29751009455E+02  0.47787285595E+02  0.20000066340E+02 0.  0.
         12    1    1    2    0    0 -0.37068510169E+01  0.31380865234E+02 -0.29751009455E+02  0.43400714405E+02  0.00000000000E+00 0. -1.
         11    1    3    3    0    0 -0.39071892450E+01 -0.11201604536E+02  0.32235024673E+01  0.12293617873E+02  0.51100000000E-03 0. -1.
        -11    1    3    3    0    0  0.94446847505E+01 -0.16160989855E+02  0.23891747445E+02  0.30351198648E+02  0.51100000000E-03 0.  1.
        -12    1    3    3    0    0 -0.18306444885E+01 -0.40182708429E+01  0.26357595429E+01  0.51424690741E+01  0.00000000000E+00 0.  1.
</event>
<event>
 7    1  0.2476315E-009  0.4778724E+02  0.7816164E-02  0.1312668E+00
        -11   -1    0    0    0    0  0.00000000000E+00  0.00000000000E+00  0.45593999997E+02  0.45594000000E+02  0.51100000000E-03 0.  1.
         11   -1    0    0    0    0 -0.00000000000E+00 -0.00000000000E+00 -0.45593999997E+02  0.45594000000E+02  0.51100000000E-03 0. -1.
    9900012    2    1    2    0    0 -0.14391189061E+01  0.43128270703E+02 -0.46376099489E+01  0.47787237068E+02  0.19999845086E+02 0.  0.
         12    1    1    2    0    0  0.14391189061E+01 -0.43128270703E+02  0.46376099489E+01  0.43400762932E+02  0.00000000000E+00 0. -1.
         11    1    3    3    0    0 -0.74081303348E+01  0.19012642328E+02 -0.78185122504E+01  0.21851546797E+02  0.51100000000E-03 0. -1.
        -11    1    3    3    0    0  0.71631402570E+01  0.16353886493E+02  0.16029982105E+01  0.17925673915E+02  0.51100000000E-03 0.  1.
        -12    1    3    3    0    0 -0.11941288284E+01  0.77617418817E+01  0.15779040910E+01  0.80100163556E+01  0.00000000000E+00 0.  1.
</event>
<event>
 7    1  0.2476315E-009  0.4778727E+02  0.7816164E-02  0.1312668E+00
        -11   -1    0    0    0    0  0.00000000000E+00  0.00000000000E+00  0.45593999997E+02  0.45594000000E+02  0.51100000000E-03 0. -1.
         11   -1    0    0    0    0 -0.00000000000E+00 -0.00000000000E+00 -0.45593999997E+02  0.45594000000E+02  0.51100000000E-03 0.  1.
    9900012    2    1    2    0    0 -0.28080472346E+02 -0.33060709787E+02 -0.14490589536E+01  0.47787271542E+02  0.20000002271E+02 0.  0.
         12    1    1    2    0    0  0.28080472346E+02  0.33060709787E+02  0.14490589536E+01  0.43400728458E+02  0.00000000000E+00 0. -1.
         11    1    3    3    0    0 -0.10424278504E+02 -0.18460529571E+02 -0.78193617584E+00  0.21214809893E+02  0.51100000000E-03 0. -1.
        -11    1    3    3    0    0 -0.44504906116E+01  0.51338171381E+00  0.39561034595E+01  0.59767200295E+01  0.51100000000E-03 0.  1.
        -12    1    3    3    0    0 -0.13205703231E+02 -0.15113561930E+02 -0.46232262373E+01  0.20595741620E+02  0.00000000000E+00 0.  1.
</event>
<event>
 7    1  0.2476315E-009  0.4778725E+02  0.7816164E-02  0.1312668E+00
        -11   -1    0    0    0    0  0.00000000000E+00  0.00000000000E+00  0.45593999997E+02  0.45594000000E+02  0.51100000000E-03 0.  1.
         11   -1    0    0    0    0 -0.00000000000E+00 -0.00000000000E+00 -0.45593999997E+02  0.45594000000E+02  0.51100000000E-03 0. -1.
    9900012    2    1    2    0    0  0.39338542624E+02  0.67239831049E+00  0.18320801646E+02  0.47787253138E+02  0.19999918355E+02 0.  0.
         12    1    1    2    0    0 -0.39338542624E+02 -0.67239831049E+00 -0.18320801646E+02  0.43400746862E+02  0.00000000000E+00 0. -1.
         11    1    3    3    0    0  0.21487739071E+00 -0.12983804751E+01 -0.10143224852E+01  0.16615698951E+01  0.51100000000E-03 0. -1.
        -11    1    3    3    0    0  0.19105466172E+02 -0.60525223052E+01  0.67043218711E+01  0.21132907891E+02  0.51100000000E-03 0.  1.
        -12    1    3    3    0    0  0.20018199061E+02  0.80233010908E+01  0.12630802260E+02  0.24992775352E+02  0.00000000000E+00 0.  1.
</event>
<event>
 7    1  0.2476315E-009  0.4778729E+02  0.7816164E-02  0.1312668E+00
        -11   -1    0    0    0    0  0.00000000000E+00  0.00000000000E+00  0.45593999997E+02  0.45594000000E+02  0.51100000000E-03 0.  1.
         11   -1    0    0    0    0 -0.00000000000E+00 -0.00000000000E+00 -0.45593999997E+02  0.45594000000E+02  0.51100000000E-03 0. -1.
    9900012    2    1    2    0    0 -0.15967643462E+02  0.87403206912E+01  0.39398762273E+02  0.47787293644E+02  0.20000103042E+02 0.  0.
         12    1    1    2    0    0  0.15967643462E+02 -0.87403206912E+01 -0.39398762273E+02  0.43400706356E+02  0.00000000000E+00 0. -1.
         11    1    3    3    0    0  0.79504205669E+00 -0.15287506063E+01 -0.98454844348E+00  0.19845670023E+01  0.51100000000E-03 0. -1.
        -11    1    3    3    0    0 -0.13912129291E+02  0.43846920986E+01  0.23056049009E+02  0.27282856566E+02  0.51100000000E-03 0.  1.
         12    1    3    3    0    0 -0.28505562272E+01  0.58843791989E+01  0.17327261708E+02  0.18519870076E+02  0.00000000000E+00 0. -1.
</event>
<event>
 7    1  0.2476315E-009  0.4778727E+02  0.7816164E-02  0.1312668E+00
        -11   -1    0    0    0    0  0.00000000000E+00  0.00000000000E+00  0.45593999997E+02  0.45594000000E+02  0.51100000000E-03 0. -1.
         11   -1    0    0    0    0 -0.00000000000E+00 -0.00000000000E+00 -0.45593999997E+02  0.45594000000E+02  0.51100000000E-03 0.  1.
    9900012    2    1    2    0    0 -0.13447314493E+02  0.17248914457E+02 -0.37486905210E+02  0.47787269831E+02  0.19999994466E+02 0.  0.
         12    1    1    2    0    0  0.13447314493E+02 -0.17248914457E+02  0.37486905210E+02  0.43400730169E+02  0.00000000000E+00 0. -1.
         11    1    3    3    0    0 -0.58917984050E+01 -0.31948206359E+01 -0.10919504407E+02  0.12812327817E+02  0.51100000000E-03 0. -1.
        -11    1    3    3    0    0 -0.40387219088E+01  0.12896760598E+02 -0.11434364430E+02  0.17702609942E+02  0.51100000000E-03 0.  1.
        -12    1    3    3    0    0 -0.35167941787E+01  0.75469744948E+01 -0.15133036373E+02  0.17272332071E+02  0.00000000000E+00 0.  1.
</event>
<event>
 7    1  0.2476315E-009  0.4778727E+02  0.7816164E-02  0.1312668E+00
        -11   -1    0    0    0    0  0.00000000000E+00  0.00000000000E+00  0.45593999997E+02  0.45594000000E+02  0.51100000000E-03 0.  1.
         11   -1    0    0    0    0 -0.00000000000E+00 -0.00000000000E+00 -0.45593999997E+02  0.45594000000E+02  0.51100000000E-03 0. -1.
    9900012    2    1    2    0    0 -0.16860396979E+02 -0.39989418384E+02 -0.44350572648E+00  0.47787271132E+02  0.20000000399E+02 0.  0.
         12    1    1    2    0    0  0.16860396979E+02  0.39989418384E+02  0.44350572648E+00  0.43400728868E+02  0.00000000000E+00 0. -1.
         11    1    3    3    0    0 -0.48624882135E+01 -0.17749495553E+02 -0.57127180623E+01  0.19269756924E+02  0.51100000000E-03 0. -1.
        -11    1    3    3    0    0  0.56786246369E+00 -0.44508589115E+01  0.50248271068E+01  0.67365792909E+01  0.51100000000E-03 0.  1.
        -12    1    3    3    0    0 -0.12565771229E+02 -0.17789063920E+02  0.24438522907E+00  0.21780934917E+02  0.00000000000E+00 0.  1.
</event>
<event>
 7    1  0.2476315E-009  0.4778728E+02  0.7816164E-02  0.1312668E+00
        -11   -1    0    0    0    0  0.00000000000E+00  0.00000000000E+00  0.45593999997E+02  0.45594000000E+02  0.51100000000E-03 0.  1.
         11   -1    0    0    0    0 -0.00000000000E+00 -0.00000000000E+00 -0.45593999997E+02  0.45594000000E+02  0.51100000000E-03 0. -1.
    9900012    2    1    2    0    0  0.31873917791E+02  0.23309971830E+02  0.18008926255E+02  0.47787275963E+02  0.20000022425E+02 0.  0.
         12    1    1    2    0    0 -0.31873917791E+02 -0.23309971830E+02 -0.18008926255E+02  0.43400724037E+02  0.00000000000E+00 0. -1.
         11    1    3    3    0    0 -0.89823289270E+00  0.20093878893E+01  0.57930278923E-01  0.22017761461E+01  0.51100000000E-03 0. -1.
        -11    1    3    3    0    0  0.18507301569E+02  0.32377303474E+01  0.96182435216E+01  0.21107195879E+02  0.51100000000E-03 0.  1.
        -12    1    3    3    0    0  0.14264849115E+02  0.18062853593E+02  0.83327524548E+01  0.24478303938E+02  0.00000000000E+00 0.  1.
</event>
<event>
 7    1  0.2476315E-009  0.4778727E+02  0.7816164E-02  0.1312668E+00
        -11   -1    0    0    0    0  0.00000000000E+00  0.00000000000E+00  0.45593999997E+02  0.45594000000E+02  0.51100000000E-03 0. -1.
         11   -1    0    0    0    0 -0.00000000000E+00 -0.00000000000E+00 -0.45593999997E+02  0.45594000000E+02  0.51100000000E-03 0.  1.
    9900012    2    1    2    0    0  0.33124459477E+01 -0.26014850393E+02 -0.34581476407E+02  0.47787271324E+02  0.20000001273E+02 0.  0.
         12    1    1    2    0    0 -0.33124459477E+01  0.26014850393E+02  0.34581476407E+02  0.43400728676E+02  0.00000000000E+00 0. -1.
         11    1    3    3    0    0 -0.92617467846E+00  0.26235192279E+01 -0.12411442835E+01  0.30464884815E+01  0.51100000000E-03 0. -1.
        -11    1    3    3    0    0  0.24229652853E+01 -0.26827971715E+02 -0.32061915672E+02  0.41875735980E+02  0.51100000000E-03 0.  1.
         12    1    3    3    0    0  0.18156553408E+01 -0.18103979064E+01 -0.12784164520E+01  0.28650468618E+01  0.00000000000E+00 0. -1.
</event>
<event>
 7    1  0.2476315E-009  0.4778727E+02  0.7816164E-02  0.1312668E+00
        -11   -1    0    0    0    0  0.00000000000E+00  0.00000000000E+00  0.45593999997E+02  0.45594000000E+02  0.51100000000E-03 0.  1.
         11   -1    0    0    0    0 -0.00000000000E+00 -0.00000000000E+00 -0.45593999997E+02  0.45594000000E+02  0.51100000000E-03 0. -1.
    9900012    2    1    2    0    0 -0.15969382719E+02 -0.35698861309E+02  0.18820017494E+02  0.47787274871E+02  0.20000017448E+02 0.  0.
         12    1    1    2    0    0  0.15969382719E+02  0.35698861309E+02 -0.18820017494E+02  0.43400725129E+02  0.00000000000E+00 0. -1.
         11    1    3    3    0    0 -0.28269890072E+01 -0.98854430374E+00 -0.25968285502E+01  0.39639128986E+01  0.51100000000E-03 0. -1.
        -11    1    3    3    0    0 -0.14226254516E+01 -0.29825681938E+01 -0.74363307033E+00  0.33871177438E+01  0.51100000000E-03 0.  1.
         12    1    3    3    0    0 -0.11719768261E+02 -0.31727748812E+02  0.22160479115E+02  0.40436244229E+02  0.00000000000E+00 0. -1.
</event>
<event>
 7    1  0.2476315E-009  0.4778727E+02  0.7816164E-02  0.1312668E+00
        -11   -1    0    0    0    0  0.00000000000E+00  0.00000000000E+00  0.45593999997E+02  0.45594000000E+02  0.51100000000E-03 0. -1.
         11   -1    0    0    0    0 -0.00000000000E+00 -0.00000000000E+00 -0.45593999997E+02  0.45594000000E+02  0.51100000000E-03 0.  1.
    9900012    2    1    2    0    0  0.26849063774E+02 -0.17503196185E+02 -0.29264124910E+02  0.47787272944E+02  0.20000008660E+02 0.  0.
         12    1    1    2    0    0 -0.26849063774E+02  0.17503196185E+02  0.29264124910E+02  0.43400727056E+02  0.00000000000E+00 0. -1.
         11    1    3    3    0    0  0.29289341979E+01 -0.57095346887E+01 -0.27286395350E-01  0.64170231966E+01  0.51100000000E-03 0. -1.
        -11    1    3    3    0    0  0.15535942343E+02 -0.15086988180E+01 -0.19131032977E+02  0.24690850525E+02  0.51100000000E-03 0.  1.
        -12    1    3    3    0    0  0.83841872330E+01 -0.10284962678E+02 -0.10105805538E+02  0.16679399222E+02  0.00000000000E+00 0.  1.
</event>
<event>
 7    1  0.2476315E-009  0.4778727E+02  0.7816164E-02  0.1312668E+00
        -11   -1    0    0    0    0  0.00000000000E+00  0.00000000000E+00  0.45593999997E+02  0.45594000000E+02  0.51100000000E-03 0.  1.
         11   -1    0    0    0    0 -0.00000000000E+00 -0.00000000000E+00 -0.45593999997E+02  0.45594000000E+02  0.51100000000E-03 0. -1.
    9900012    2    1    2    0    0  0.17956021108E+01  0.21178315592E+02  0.37840163999E+02  0.47787271323E+02  0.20000001269E+02 0.  0.
         12    1    1    2    0    0 -0.17956021108E+01 -0.21178315592E+02 -0.37840163999E+02  0.43400728677E+02  0.00000000000E+00 0. -1.
         11    1    3    3    0    0 -0.67166552442E+01  0.86183462528E+01  0.69998832515E+01  0.12976429231E+02  0.51100000000E-03 0. -1.
        -11    1    3    3    0    0  0.39681396471E+01  0.18740437055E+01  0.10664085781E+02  0.11531734383E+02  0.51100000000E-03 0.  1.
         12    1    3    3    0    0  0.45441177079E+01  0.10685925634E+02  0.20176194967E+02  0.23279107709E+02  0.00000000000E+00 0. -1.
</event>
<event>
 7    1  0.2476315E-009  0.4778727E+02  0.7816164E-02  0.1312668E+00
        -11   -1    0    0    0    0  0.00000000000E+00  0.00000000000E+00  0.45593999997E+02  0.45594000000E+02  0.51100000000E-03 0.  1.
         11   -1    0    0    0    0 -0.00000000000E+00 -0.00000000000E+00 -0.45593999997E+02  0.45594000000E+02  0.51100000000E-03 0. -1.
    9900012    2    1    2    0    0  0.20663682957E+02 -0.49311394755E+01  0.37845994783E+02  0.47787271308E+02  0.20000001201E+02 0.  0.
         12    1    1    2    0    0 -0.20663682957E+02  0.49311394755E+01 -0.37845994783E+02  0.43400728692E+02  0.00000000000E+00 0. -1.
         11    1    3    3    0    0  0.15126366143E+02 -0.85525548393E+01  0.20307701261E+02  0.26727436797E+02  0.51100000000E-03 0. -1.
        -11    1    3    3    0    0  0.75897496679E+01  0.13916992870E+00  0.12096513252E+02  0.14281081941E+02  0.51100000000E-03 0.  1.
         12    1    3    3    0    0 -0.20524328540E+01  0.34822454351E+01  0.54417802711E+01  0.67787525703E+01  0.00000000000E+00 0. -1.
</event>
<event>
 7    1  0.2476315E-009  0.4778727E+02  0.7816164E-02  0.1312668E+00
        -11   -1    0    0    0    0  0.00000000000E+00  0.00000000000E+00  0.45593999997E+02  0.45594000000E+02  0.51100000000E-03 0.  1.
         11   -1    0    0    0    0 -0.00000000000E+00 -0.00000000000E+00 -0.45593999997E+02  0.45594000000E+02  0.51100000000E-03 0. -1.
    9900012    2    1    2    0    0  0.75373109531E+01 -0.43182590708E+01  0.42522518262E+02  0.47787274463E+02  0.20000015588E+02 0.  0.
         12    1    1    2    0    0 -0.75373109531E+01  0.43182590708E+01 -0.42522518262E+02  0.43400725537E+02  0.00000000000E+00 0. -1.
         11    1    3    3    0    0  0.62401436794E+01  0.35021796256E+01  0.14000507458E+02  0.15723195115E+02  0.51100000000E-03 0. -1.
        -11    1    3    3    0    0 -0.12968260055E+01 -0.41136759657E+01  0.13523109135E+01  0.45202690967E+01  0.51100000000E-03 0.  1.
        -12    1    3    3    0    0  0.25939932792E+01 -0.37067627308E+01  0.27169699890E+02  0.27543810252E+02  0.00000000000E+00 0.  1.
</event>
<event>
 7    1  0.2476315E-009  0.4778727E+02  0.7816164E-02  0.1312668E+00
        -11   -1    0    0    0    0  0.00000000000E+00  0.00000000000E+00  0.45593999997E+02  0.45594000000E+02  0.51100000000E-03 0.  1.
         11   -1    0    0    0    0 -0.00000000000E+00 -0.00000000000E+00 -0.45593999997E+02  0.45594000000E+02  0.51100000000E-03 0. -1.
    9900012    2    1    2    0    0 -0.10727020628E+02 -0.40990492326E+02  0.93985948435E+01  0.47787273996E+02  0.20000013457E+02 0.  0.
         12    1    1    2    0    0  0.10727020628E+02  0.40990492326E+02 -0.93985948435E+01  0.43400726004E+02  0.00000000000E+00 0. -1.
         11    1    3    3    0    0 -0.68127967256E+01 -0.22123537790E+02  0.52596778266E+01  0.23738772813E+02  0.51100000000E-03 0.  1.
        -11    1    3    3    0    0 -0.49465064422E+01 -0.43097408456E+01 -0.36485971581E+01  0.75069337031E+01  0.51100000000E-03 0. -1.
        -12    1    3    3    0    0  0.10322825395E+01 -0.14557213690E+02  0.77875141750E+01  0.16541567480E+02  0.00000000000E+00 0.  1.
</event>
<event>
 7    1  0.2476315E-009  0.4778727E+02  0.7816164E-02  0.1312668E+00
        -11   -1    0    0    0    0  0.00000000000E+00  0.00000000000E+00  0.45593999997E+02  0.45594000000E+02  0.51100000000E-03 0. -1.
         11   -1    0    0    0    0 -0.00000000000E+00 -0.00000000000E+00 -0.45593999997E+02  0.45594000000E+02  0.51100000000E-03 0.  1.
    9900012    2    1    2    0    0 -0.43010457751E+02  0.37574191524E+01  0.44278343281E+01  0.47787269690E+02  0.19999993823E+02 0.  0.
         12    1    1    2    0    0  0.43010457751E+02 -0.37574191524E+01 -0.44278343281E+01  0.43400730310E+02  0.00000000000E+00 0. -1.
         11    1    3    3    0    0 -0.76057169433E+01  0.15836480359E+01 -0.69792576560E+01  0.10443414624E+02  0.51100000000E-03 0. -1.
        -11    1    3    3    0    0 -0.60360870965E+01 -0.91773407778E-01  0.10966126900E+01  0.61355789823E+01  0.51100000000E-03 0.  1.
         12    1    3    3    0    0 -0.29368653711E+02  0.22655445243E+01  0.10310479294E+02  0.31208276083E+02  0.00000000000E+00 0. -1.
</event>
<event>
 7    1  0.2476315E-009  0.4778722E+02  0.7816164E-02  0.1312668E+00
        -11   -1    0    0    0    0  0.00000000000E+00  0.00000000000E+00  0.45593999997E+02  0.45594000000E+02  0.51100000000E-03 0. -1.
         11   -1    0    0    0    0 -0.00000000000E+00 -0.00000000000E+00 -0.45593999997E+02  0.45594000000E+02  0.51100000000E-03 0.  1.
    9900012    2    1    2    0    0  0.41116678686E+02 -0.93627383355E+00 -0.13862520929E+02  0.47787223954E+02  0.19999785295E+02 0.  0.
         12    1    1    2    0    0 -0.41116678686E+02  0.93627383355E+00  0.13862520929E+02  0.43400776046E+02  0.00000000000E+00 0. -1.
         11    1    3    3    0    0  0.11621971142E+02 -0.72580797133E+01 -0.16595522430E+00  0.13703192174E+02  0.51100000000E-03 0. -1.
        -11    1    3    3    0    0  0.17192837101E+02  0.64699245589E+01 -0.11247952353E+02  0.21539962947E+02  0.51100000000E-03 0.  1.
        -12    1    3    3    0    0  0.12301870443E+02 -0.14811867911E+00 -0.24486133516E+01  0.12544068833E+02  0.00000000000E+00 0.  1.
</event>
<event>
 7    1  0.2476315E-009  0.4778727E+02  0.7816164E-02  0.1312668E+00
        -11   -1    0    0    0    0  0.00000000000E+00  0.00000000000E+00  0.45593999997E+02  0.45594000000E+02  0.51100000000E-03 0.  1.
         11   -1    0    0    0    0 -0.00000000000E+00 -0.00000000000E+00 -0.45593999997E+02  0.45594000000E+02  0.51100000000E-03 0. -1.
    9900012    2    1    2    0    0 -0.34362444333E+02 -0.83997942961E+01  0.25145366058E+02  0.47787267760E+02  0.19999985025E+02 0.  0.
         12    1    1    2    0    0  0.34362444333E+02  0.83997942961E+01 -0.25145366058E+02  0.43400732240E+02  0.00000000000E+00 0. -1.
         11    1    3    3    0    0 -0.58990521336E+01 -0.53228198187E+01 -0.75743136995E+00  0.79815367842E+01  0.51100000000E-03 0. -1.
        -11    1    3    3    0    0 -0.13564315660E+02 -0.56532870955E+01  0.16036251850E+02  0.21751130729E+02  0.51100000000E-03 0.  1.
         12    1    3    3    0    0 -0.14899076539E+02  0.25763126181E+01  0.98665455781E+01  0.18054600247E+02  0.00000000000E+00 0. -1.
</event>
<event>
 7    1  0.2476315E-009  0.4778727E+02  0.7816164E-02  0.1312668E+00
        -11   -1    0    0    0    0  0.00000000000E+00  0.00000000000E+00  0.45593999997E+02  0.45594000000E+02  0.51100000000E-03 0. -1.
         11   -1    0    0    0    0 -0.00000000000E+00 -0.00000000000E+00 -0.45593999997E+02  0.45594000000E+02  0.51100000000E-03 0.  1.
    9900012    2    1    2    0    0 -0.38990097477E+02  0.74672220968E+01  0.17539569300E+02  0.47787267307E+02  0.19999982957E+02 0.  0.
         12    1    1    2    0    0  0.38990097477E+02 -0.74672220968E+01 -0.17539569300E+02  0.43400732693E+02  0.00000000000E+00 0. -1.
         11    1    3    3    0    0 -0.26724135907E+01  0.32439061064E+01 -0.19581992655E+01  0.46367300818E+01  0.51100000000E-03 0. -1.
        -11    1    3    3    0    0 -0.70780016165E+01 -0.33487433299E+01  0.14447566772E+01  0.79623809812E+01  0.51100000000E-03 0.  1.
        -12    1    3    3    0    0 -0.29239682270E+02  0.75720593203E+01  0.18053011888E+02  0.35188156243E+02  0.00000000000E+00 0.  1.
</event>
<event>
 7    1  0.2476315E-009  0.4778727E+02  0.7816164E-02  0.1312668E+00
        -11   -1    0    0    0    0  0.00000000000E+00  0.00000000000E+00  0.45593999997E+02  0.45594000000E+02  0.51100000000E-03 0. -1.
         11   -1    0    0    0    0 -0.00000000000E+00 -0.00000000000E+00 -0.45593999997E+02  0.45594000000E+02  0.51100000000E-03 0.  1.
    9900012    2    1    2    0    0  0.42762041919E+02  0.34843919496E+01 -0.65490504992E+01  0.47787270988E+02  0.19999999743E+02 0.  0.
         12    1    1    2    0    0 -0.42762041919E+02 -0.34843919496E+01  0.65490504992E+01  0.43400729012E+02  0.00000000000E+00 0. -1.
         11    1    3    3    0    0  0.27529920504E+02  0.57350665811E+01  0.18311412839E+01  0.28180500178E+02  0.51100000000E-03 0. -1.
        -11    1    3    3    0    0  0.60834998109E+01  0.30460146697E+01 -0.52136050770E+01  0.85713974052E+01  0.51100000000E-03 0.  1.
         12    1    3    3    0    0  0.91486216042E+01 -0.52966893012E+01 -0.31665867060E+01  0.11035373405E+02  0.00000000000E+00 0. -1.
</event>
<event>
 7    1  0.2476315E-009  0.4778727E+02  0.7816164E-02  0.1312668E+00
        -11   -1    0    0    0    0  0.00000000000E+00  0.00000000000E+00  0.45593999997E+02  0.45594000000E+02  0.51100000000E-03 0.  1.
         11   -1    0    0    0    0 -0.00000000000E+00 -0.00000000000E+00 -0.45593999997E+02  0.45594000000E+02  0.51100000000E-03 0. -1.
    9900012    2    1    2    0    0  0.44467526798E+01 -0.84253742003E+00  0.43164104067E+02  0.47787270069E+02  0.19999995551E+02 0.  0.
         12    1    1    2    0    0 -0.44467526798E+01  0.84253742003E+00 -0.43164104067E+02  0.43400729931E+02  0.00000000000E+00 0. -1.
         11    1    3    3    0    0  0.10410852390E+01 -0.78891938236E-01 -0.87879864992E+00  0.13646866824E+01  0.51100000000E-03 0. -1.
        -11    1    3    3    0    0  0.42516880748E+01 -0.66801284808E+01  0.32170594158E+02  0.33130772656E+02  0.51100000000E-03 0.  1.
        -12    1    3    3    0    0 -0.84602063405E+00  0.59164829990E+01  0.11872308558E+02  0.13291810730E+02  0.00000000000E+00 0.  1.
</event>
<event>
 7    1  0.2476315E-009  0.4778727E+02  0.7816164E-02  0.1312668E+00
        -11   -1    0    0    0    0  0.00000000000E+00  0.00000000000E+00  0.45593999997E+02  0.45594000000E+02  0.51100000000E-03 0. -1.
         11   -1    0    0    0    0 -0.00000000000E+00 -0.00000000000E+00 -0.45593999997E+02  0.45594000000E+02  0.51100000000E-03 0.  1.
    9900012    2    1    2    0    0  0.65685935252E+00 -0.39723391816E+02 -0.17471235467E+02  0.47787269703E+02  0.19999993883E+02 0.  0.
         12    1    1    2    0    0 -0.65685935252E+00  0.39723391816E+02  0.17471235467E+02  0.43400730297E+02  0.00000000000E+00 0. -1.
         11    1    3    3    0    0 -0.11838009065E+01 -0.12854328508E+02  0.35355785216E+00  0.12913564550E+02  0.51100000000E-03 0. -1.
        -11    1    3    3    0    0 -0.13616703766E+00 -0.24838698246E+02 -0.19502550719E+02  0.31580515462E+02  0.51100000000E-03 0.  1.
        -12    1    3    3    0    0  0.19768272967E+01 -0.20303650629E+01  0.16777574001E+01  0.32931896914E+01  0.00000000000E+00 0.  1.
</event>
<event>
 7    1  0.2476315E-009  0.4778727E+02  0.7816164E-02  0.1312668E+00
        -11   -1    0    0    0    0  0.00000000000E+00  0.00000000000E+00  0.45593999997E+02  0.45594000000E+02  0.51100000000E-03 0.  1.
         11   -1    0    0    0    0 -0.00000000000E+00 -0.00000000000E+00 -0.45593999997E+02  0.45594000000E+02  0.51100000000E-03 0. -1.
    9900012    2    1    2    0    0 -0.35239935105E+02 -0.92461378597E+01 -0.23585573784E+02  0.47787269796E+02  0.19999994307E+02 0.  0.
         12    1    1    2    0    0  0.35239935105E+02  0.92461378597E+01  0.23585573784E+02  0.43400730204E+02  0.00000000000E+00 0. -1.
         11    1    3    3    0    0 -0.63994065039E+01  0.58406218883E+01 -0.63358566362E+01  0.10733515138E+02  0.51100000000E-03 0.  1.
        -11    1    3    3    0    0 -0.28443278132E+02 -0.15061225757E+02 -0.17446934505E+02  0.36609508548E+02  0.51100000000E-03 0. -1.
        -12    1    3    3    0    0 -0.39725046901E+00 -0.25533991199E-01  0.19721735789E+00  0.44424610982E+00  0.00000000000E+00 0.  1.
</event>
<event>
 7    1  0.2476315E-009  0.4778727E+02  0.7816164E-02  0.1312668E+00
        -11   -1    0    0    0    0  0.00000000000E+00  0.00000000000E+00  0.45593999997E+02  0.45594000000E+02  0.51100000000E-03 0. -1.
         11   -1    0    0    0    0 -0.00000000000E+00 -0.00000000000E+00 -0.45593999997E+02  0.45594000000E+02  0.51100000000E-03 0.  1.
    9900012    2    1    2    0    0  0.22012985113E+02 -0.19310904978E+02  0.32033430477E+02  0.47787271518E+02  0.20000002158E+02 0.  0.
         12    1    1    2    0    0 -0.22012985113E+02  0.19310904978E+02 -0.32033430477E+02  0.43400728482E+02  0.00000000000E+00 0. -1.
         11    1    3    3    0    0  0.39784962819E+01 -0.15602284288E+01 -0.10200708624E+01  0.43935509830E+01  0.51100000000E-03 0. -1.
        -11    1    3    3    0    0  0.19123123819E+02 -0.14556049639E+02  0.25082515607E+02  0.34737660185E+02  0.51100000000E-03 0.  1.
        -12    1    3    3    0    0 -0.10886349875E+01 -0.31946269103E+01  0.79709857329E+01  0.86560603502E+01  0.00000000000E+00 0.  1.
</event>
<event>
 7    1  0.2476315E-009  0.4778727E+02  0.7816164E-02  0.1312668E+00
        -11   -1    0    0    0    0  0.00000000000E+00  0.00000000000E+00  0.45593999997E+02  0.45594000000E+02  0.51100000000E-03 0.  1.
         11   -1    0    0    0    0 -0.00000000000E+00 -0.00000000000E+00 -0.45593999997E+02  0.45594000000E+02  0.51100000000E-03 0. -1.
    9900012    2    1    2    0    0  0.59031920906E+01 -0.35971073501E+02  0.23555415576E+02  0.47787269492E+02  0.19999992920E+02 0.  0.
         12    1    1    2    0    0 -0.59031920906E+01  0.35971073501E+02 -0.23555415576E+02  0.43400730508E+02  0.00000000000E+00 0. -1.
         11    1    3    3    0    0 -0.51091895979E+01 -0.83587047887E+01  0.89018112487E+01  0.13236842821E+02  0.51100000000E-03 0. -1.
        -11    1    3    3    0    0  0.11876399893E+02 -0.20773276440E+02  0.87621495794E+01  0.25482408716E+02  0.51100000000E-03 0.  1.
        -12    1    3    3    0    0 -0.86401820489E+00 -0.68390922731E+01  0.58914547482E+01  0.90680179548E+01  0.00000000000E+00 0.  1.
</event>
<event>
 7    1  0.2476315E-009  0.4778725E+02  0.7816164E-02  0.1312668E+00
        -11   -1    0    0    0    0  0.00000000000E+00  0.00000000000E+00  0.45593999997E+02  0.45594000000E+02  0.51100000000E-03 0.  1.
         11   -1    0    0    0    0 -0.00000000000E+00 -0.00000000000E+00 -0.45593999997E+02  0.45594000000E+02  0.51100000000E-03 0. -1.
    9900012    2    1    2    0    0 -0.24258834754E+02 -0.25078766953E+02  0.25810651204E+02  0.47787247345E+02  0.19999891942E+02 0.  0.
         12    1    1    2    0    0  0.24258834754E+02  0.25078766953E+02 -0.25810651204E+02  0.43400752655E+02  0.00000000000E+00 0. -1.
         11    1    3    3    0    0 -0.11160034026E+02 -0.20073516161E+02  0.10523147640E+02  0.25263195503E+02  0.51100000000E-03 0. -1.
        -11    1    3    3    0    0 -0.12861156002E+02 -0.16072014924E+01  0.10682285762E+02  0.16795941763E+02  0.51100000000E-03 0.  1.
        -12    1    3    3    0    0 -0.23764472567E+00 -0.33980492992E+01  0.46052178031E+01  0.57281100783E+01  0.00000000000E+00 0.  1.
</event>
<event>
 7    1  0.2476315E-009  0.4778727E+02  0.7816164E-02  0.1312668E+00
        -11   -1    0    0    0    0  0.00000000000E+00  0.00000000000E+00  0.45593999997E+02  0.45594000000E+02  0.51100000000E-03 0.  1.
         11   -1    0    0    0    0 -0.00000000000E+00 -0.00000000000E+00 -0.45593999997E+02  0.45594000000E+02  0.51100000000E-03 0. -1.
    9900012    2    1    2    0    0  0.51420913237E+01 -0.19178609371E+02  0.38592269509E+02  0.47787269287E+02  0.19999991986E+02 0.  0.
         12    1    1    2    0    0 -0.51420913237E+01  0.19178609371E+02 -0.38592269509E+02  0.43400730713E+02  0.00000000000E+00 0. -1.
         11    1    3    3    0    0 -0.34590897029E+01 -0.10441985763E+01  0.11851494334E+02  0.12390059340E+02  0.51100000000E-03 0. -1.
        -11    1    3    3    0    0  0.35133869748E+01 -0.16111313315E+02  0.14384719042E+02  0.21882377544E+02  0.51100000000E-03 0.  1.
        -12    1    3    3    0    0  0.50877940518E+01 -0.20230974791E+01  0.12356056133E+02  0.13514832403E+02  0.00000000000E+00 0.  1.
</event>
<event>
 7    1  0.2476315E-009  0.4778727E+02  0.7816164E-02  0.1312668E+00
        -11   -1    0    0    0    0  0.00000000000E+00  0.00000000000E+00  0.45593999997E+02  0.45594000000E+02  0.51100000000E-03 0.  1.
         11   -1    0    0    0    0 -0.00000000000E+00 -0.00000000000E+00 -0.45593999997E+02  0.45594000000E+02  0.51100000000E-03 0. -1.
    9900012    2    1    2    0    0 -0.34158540537E+02  0.20177527607E+02  0.17597865501E+02  0.47787269797E+02  0.19999994314E+02 0.  0.
         12    1    1    2    0    0  0.34158540537E+02 -0.20177527607E+02 -0.17597865501E+02  0.43400730203E+02  0.00000000000E+00 0. -1.
         11    1    3    3    0    0 -0.34794403403E+01 -0.10510138708E+01  0.56241094550E-01  0.36351476669E+01  0.51100000000E-03 0. -1.
        -11    1    3    3    0    0 -0.24573630626E+02  0.22206107890E+02  0.18433765312E+02  0.37904857915E+02  0.51100000000E-03 0.  1.
        -12    1    3    3    0    0 -0.61054695713E+01 -0.97756641262E+00 -0.89214090598E+00  0.62472642151E+01  0.00000000000E+00 0.  1.
</event>
<event>
 7    1  0.2476315E-009  0.4778727E+02  0.7816164E-02  0.1312668E+00
        -11   -1    0    0    0    0  0.00000000000E+00  0.00000000000E+00  0.45593999997E+02  0.45594000000E+02  0.51100000000E-03 0.  1.
         11   -1    0    0    0    0 -0.00000000000E+00 -0.00000000000E+00 -0.45593999997E+02  0.45594000000E+02  0.51100000000E-03 0. -1.
    9900012    2    1    2    0    0  0.65357513651E+00  0.41355211656E+01  0.43198304703E+02  0.47787271607E+02  0.20000002567E+02 0.  0.
         12    1    1    2    0    0 -0.65357513651E+00 -0.41355211656E+01 -0.43198304703E+02  0.43400728393E+02  0.00000000000E+00 0. -1.
         11    1    3    3    0    0  0.18145222214E+01  0.11039253278E+02  0.25731512687E+02  0.28058302680E+02  0.51100000000E-03 0. -1.
        -11    1    3    3    0    0 -0.11544896085E+01 -0.61098584712E+01  0.75519385596E+01  0.97823817684E+01  0.51100000000E-03 0.  1.
        -12    1    3    3    0    0 -0.64574763694E-02 -0.79387364099E+00  0.99148534563E+01  0.99465871593E+01  0.00000000000E+00 0.  1.
</event>
<event>
 7    1  0.2476315E-009  0.4778727E+02  0.7816164E-02  0.1312668E+00
        -11   -1    0    0    0    0  0.00000000000E+00  0.00000000000E+00  0.45593999997E+02  0.45594000000E+02  0.51100000000E-03 0. -1.
         11   -1    0    0    0    0 -0.00000000000E+00 -0.00000000000E+00 -0.45593999997E+02  0.45594000000E+02  0.51100000000E-03 0.  1.
    9900012    2    1    2    0    0 -0.11144889888E+02  0.39576637839E+02  0.13896196876E+02  0.47787272807E+02  0.20000008038E+02 0.  0.
         12    1    1    2    0    0  0.11144889888E+02 -0.39576637839E+02 -0.13896196876E+02  0.43400727193E+02  0.00000000000E+00 0. -1.
         11    1    3    3    0    0  0.16487797372E+01  0.46658861439E+01  0.32483205022E+01  0.59195062696E+01  0.51100000000E-03 0. -1.
        -11    1    3    3    0    0 -0.72147472692E+01  0.30442126558E+02  0.13626377957E+02  0.34124094479E+02  0.51100000000E-03 0.  1.
        -12    1    3    3    0    0 -0.55789223565E+01  0.44686251368E+01 -0.29785015833E+01  0.77436720588E+01  0.00000000000E+00 0.  1.
</event>
<event>
 7    1  0.2476315E-009  0.4778727E+02  0.7816164E-02  0.1312668E+00
        -11   -1    0    0    0    0  0.00000000000E+00  0.00000000000E+00  0.45593999997E+02  0.45594000000E+02  0.51100000000E-03 0.  1.
         11   -1    0    0    0    0 -0.00000000000E+00 -0.00000000000E+00 -0.45593999997E+02  0.45594000000E+02  0.51100000000E-03 0. -1.
    9900012    2    1    2    0    0  0.14588957824E+02 -0.19982846077E+01  0.40826372372E+02  0.47787268291E+02  0.19999987448E+02 0.  0.
         12    1    1    2    0    0 -0.14588957824E+02  0.19982846077E+01 -0.40826372372E+02  0.43400731709E+02  0.00000000000E+00 0. -1.
         11    1    3    3    0    0 -0.19763654228E+01 -0.42700366280E+01  0.16649342830E+02  0.17301440692E+02  0.51100000000E-03 0. -1.
        -11    1    3    3    0    0  0.46917858576E+01 -0.24355519736E+01  0.10600636438E+02  0.11845600918E+02  0.51100000000E-03 0.  1.
         12    1    3    3    0    0  0.11873537389E+02  0.47073039939E+01  0.13576393104E+02  0.18640226682E+02  0.00000000000E+00 0. -1.
</event>
<event>
 7    1  0.2476315E-009  0.4778727E+02  0.7816164E-02  0.1312668E+00
        -11   -1    0    0    0    0  0.00000000000E+00  0.00000000000E+00  0.45593999997E+02  0.45594000000E+02  0.51100000000E-03 0.  1.
         11   -1    0    0    0    0 -0.00000000000E+00 -0.00000000000E+00 -0.45593999997E+02  0.45594000000E+02  0.51100000000E-03 0. -1.
    9900012    2    1    2    0    0  0.18555605546E+00 -0.41971507621E+02  0.11044510634E+02  0.47787273069E+02  0.20000009229E+02 0.  0.
         12    1    1    2    0    0 -0.18555605546E+00  0.41971507621E+02 -0.11044510634E+02  0.43400726931E+02  0.00000000000E+00 0. -1.
         11    1    3    3    0    0 -0.31119555176E+01 -0.14207165093E+02 -0.31087523878E+01  0.14872530006E+02  0.51100000000E-03 0. -1.
        -11    1    3    3    0    0  0.49596297601E+01 -0.61408930524E+01  0.51978306924E+01  0.94512400777E+01  0.51100000000E-03 0.  1.
        -12    1    3    3    0    0 -0.16621181871E+01 -0.21623449476E+02  0.89554323294E+01  0.23463502985E+02  0.00000000000E+00 0.  1.
</event>
<event>
 7    1  0.2476315E-009  0.4778727E+02  0.7816164E-02  0.1312668E+00
        -11   -1    0    0    0    0  0.00000000000E+00  0.00000000000E+00  0.45593999997E+02  0.45594000000E+02  0.51100000000E-03 0.  1.
         11   -1    0    0    0    0 -0.00000000000E+00 -0.00000000000E+00 -0.45593999997E+02  0.45594000000E+02  0.51100000000E-03 0. -1.
    9900012    2    1    2    0    0  0.16742350855E+02  0.40018465285E+02  0.13563528145E+01  0.47787267646E+02  0.19999984506E+02 0.  0.
         12    1    1    2    0    0 -0.16742350855E+02 -0.40018465285E+02 -0.13563528145E+01  0.43400732354E+02  0.00000000000E+00 0. -1.
         11    1    3    3    0    0  0.26032896635E+00  0.17082624143E+02 -0.16051134022E+01  0.17159842891E+02  0.51100000000E-03 0. -1.
        -11    1    3    3    0    0  0.17742846082E+02  0.17592565402E+02  0.21618775801E+01  0.25079486826E+02  0.51100000000E-03 0.  1.
        -12    1    3    3    0    0 -0.12608241929E+01  0.53432757398E+01  0.79958863659E+00  0.55479379290E+01  0.00000000000E+00 0.  1.
</event>
<event>
 7    1  0.2476315E-009  0.4778727E+02  0.7816164E-02  0.1312668E+00
        -11   -1    0    0    0    0  0.00000000000E+00  0.00000000000E+00  0.45593999997E+02  0.45594000000E+02  0.51100000000E-03 0.  1.
         11   -1    0    0    0    0 -0.00000000000E+00 -0.00000000000E+00 -0.45593999997E+02  0.45594000000E+02  0.51100000000E-03 0. -1.
    9900012    2    1    2    0    0  0.28454911716E+02  0.29271883965E+02  0.14734237093E+02  0.47787274956E+02  0.20000017833E+02 0.  0.
         12    1    1    2    0    0 -0.28454911716E+02 -0.29271883965E+02 -0.14734237093E+02  0.43400725044E+02  0.00000000000E+00 0. -1.
         11    1    3    3    0    0  0.17468416494E+02  0.10969792304E+02  0.42621087607E+01  0.21062941137E+02  0.51100000000E-03 0. -1.
        -11    1    3    3    0    0  0.10149701724E+02  0.18590021648E+02  0.12442307360E+02  0.24564534652E+02  0.51100000000E-03 0.  1.
        -12    1    3    3    0    0  0.83679349847E+00 -0.28792998664E+00 -0.19701790284E+01  0.21597991667E+01  0.00000000000E+00 0.  1.
</event>
<event>
 7    1  0.2476315E-009  0.4778727E+02  0.7816164E-02  0.1312668E+00
        -11   -1    0    0    0    0  0.00000000000E+00  0.00000000000E+00  0.45593999997E+02  0.45594000000E+02  0.51100000000E-03 0.  1.
         11   -1    0    0    0    0 -0.00000000000E+00 -0.00000000000E+00 -0.45593999997E+02  0.45594000000E+02  0.51100000000E-03 0. -1.
    9900012    2    1    2    0    0 -0.47417273045E+01 -0.33948437860E+02  0.26620347443E+02  0.47787270640E+02  0.19999998156E+02 0.  0.
         12    1    1    2    0    0  0.47417273045E+01  0.33948437860E+02 -0.26620347443E+02  0.43400729360E+02  0.00000000000E+00 0. -1.
         11    1    3    3    0    0 -0.59260432134E+01 -0.22792179066E+01  0.71610530995E+01  0.95704495290E+01  0.51100000000E-03 0. -1.
        -11    1    3    3    0    0 -0.12701996277E+01 -0.12987873260E+02  0.12671087022E+02  0.18189411906E+02  0.51100000000E-03 0.  1.
         12    1    3    3    0    0  0.24545155366E+01 -0.18681346694E+02  0.67882073218E+01  0.20027409205E+02  0.00000000000E+00 0. -1.
</event>
<event>
 7    1  0.2476315E-009  0.4778727E+02  0.7816164E-02  0.1312668E+00
        -11   -1    0    0    0    0  0.00000000000E+00  0.00000000000E+00  0.45593999997E+02  0.45594000000E+02  0.51100000000E-03 0.  1.
         11   -1    0    0    0    0 -0.00000000000E+00 -0.00000000000E+00 -0.45593999997E+02  0.45594000000E+02  0.51100000000E-03 0. -1.
    9900012    2    1    2    0    0 -0.27389804379E+02  0.70198171356E+00  0.33659018272E+02  0.47787266443E+02  0.19999979021E+02 0.  0.
         12    1    1    2    0    0  0.27389804379E+02 -0.70198171356E+00 -0.33659018272E+02  0.43400733557E+02  0.00000000000E+00 0. -1.
         11    1    3    3    0    0 -0.14269057455E+01  0.41592491295E+01  0.45547667964E+01  0.63309805053E+01  0.51100000000E-03 0. -1.
        -11    1    3    3    0    0 -0.25235497925E+02 -0.22770098943E+01  0.30388755641E+02  0.39566293726E+02  0.51100000000E-03 0.  1.
        -12    1    3    3    0    0 -0.72740070877E+00 -0.11802575216E+01 -0.12845041655E+01  0.18899922115E+01  0.00000000000E+00 0.  1.
</event>
<event>
 7    1  0.2476315E-009  0.4778727E+02  0.7816164E-02  0.1312668E+00
        -11   -1    0    0    0    0  0.00000000000E+00  0.00000000000E+00  0.45593999997E+02  0.45594000000E+02  0.51100000000E-03 0. -1.
         11   -1    0    0    0    0 -0.00000000000E+00 -0.00000000000E+00 -0.45593999997E+02  0.45594000000E+02  0.51100000000E-03 0.  1.
    9900012    2    1    2    0    0  0.38592983141E+02 -0.19650834862E+02 -0.28371843023E+01  0.47787271051E+02  0.20000000032E+02 0.  0.
         12    1    1    2    0    0 -0.38592983141E+02  0.19650834862E+02  0.28371843023E+01  0.43400728949E+02  0.00000000000E+00 0. -1.
         11    1    3    3    0    0 -0.72569275448E+00  0.76379066851E+00 -0.13188013834E+01  0.16879702335E+01  0.51100000000E-03 0. -1.
        -11    1    3    3    0    0  0.21037048571E+02 -0.17301623935E+02  0.16411368883E+01  0.27287303529E+02  0.51100000000E-03 0.  1.
        -12    1    3    3    0    0  0.18281627325E+02 -0.31130015960E+01 -0.31595198072E+01  0.18811997289E+02  0.00000000000E+00 0.  1.
</event>
<event>
 7    1  0.2476315E-009  0.4778727E+02  0.7816164E-02  0.1312668E+00
        -11   -1    0    0    0    0  0.00000000000E+00  0.00000000000E+00  0.45593999997E+02  0.45594000000E+02  0.51100000000E-03 0.  1.
         11   -1    0    0    0    0 -0.00000000000E+00 -0.00000000000E+00 -0.45593999997E+02  0.45594000000E+02  0.51100000000E-03 0. -1.
    9900012    2    1    2    0    0  0.53377373542E+01  0.18988189411E+02  0.38659803712E+02  0.47787271893E+02  0.20000003869E+02 0.  0.
         12    1    1    2    0    0 -0.53377373542E+01 -0.18988189411E+02 -0.38659803712E+02  0.43400728107E+02  0.00000000000E+00 0. -1.
         11    1    3    3    0    0 -0.97905626469E+00 -0.26152693240E+01  0.52155051795E+00  0.28408097456E+01  0.51100000000E-03 0. -1.
        -11    1    3    3    0    0  0.18802025887E+01  0.80037669458E+01  0.21418437866E+02  0.22942208437E+02  0.51100000000E-03 0.  1.
         12    1    3    3    0    0  0.44365910302E+01  0.13599691789E+02  0.16719815328E+02  0.22004253710E+02  0.00000000000E+00 0. -1.
</event>
<event>
 7    1  0.2476315E-009  0.4778727E+02  0.7816164E-02  0.1312668E+00
        -11   -1    0    0    0    0  0.00000000000E+00  0.00000000000E+00  0.45593999997E+02  0.45594000000E+02  0.51100000000E-03 0. -1.
         11   -1    0    0    0    0 -0.00000000000E+00 -0.00000000000E+00 -0.45593999997E+02  0.45594000000E+02  0.51100000000E-03 0.  1.
    9900012    2    1    2    0    0  0.13251177910E+02  0.61612359649E+01 -0.40866475001E+02  0.47787270471E+02  0.19999997386E+02 0.  0.
         12    1    1    2    0    0 -0.13251177910E+02 -0.61612359649E+01  0.40866475001E+02  0.43400729529E+02  0.00000000000E+00 0. -1.
         11    1    3    3    0    0  0.16206844289E+01  0.79397254470E+01 -0.52774157120E+01  0.96704175220E+01  0.51100000000E-03 0. -1.
        -11    1    3    3    0    0  0.10505937848E+02  0.10223580242E+00 -0.22333322267E+02  0.24681216865E+02  0.51100000000E-03 0.  1.
         12    1    3    3    0    0  0.11245556333E+01 -0.18807252845E+01 -0.13255737022E+02  0.13435636084E+02  0.00000000000E+00 0. -1.
</event>
<event>
 7    1  0.2476315E-009  0.4778727E+02  0.7816164E-02  0.1312668E+00
        -11   -1    0    0    0    0  0.00000000000E+00  0.00000000000E+00  0.45593999997E+02  0.45594000000E+02  0.51100000000E-03 0. -1.
         11   -1    0    0    0    0 -0.00000000000E+00 -0.00000000000E+00 -0.45593999997E+02  0.45594000000E+02  0.51100000000E-03 0.  1.
    9900012    2    1    2    0    0  0.26887348835E+02  0.65101913427E+01 -0.33441158493E+02  0.47787271895E+02  0.20000003879E+02 0.  0.
         12    1    1    2    0    0 -0.26887348835E+02 -0.65101913427E+01  0.33441158493E+02  0.43400728105E+02  0.00000000000E+00 0. -1.
         11    1    3    3    0    0  0.10356527185E+02 -0.65491705413E+01 -0.11555853920E+02  0.16843011910E+02  0.51100000000E-03 0.  1.
        -11    1    3    3    0    0  0.62147305582E+01  0.66242794175E+01 -0.13112070213E+02  0.15950872679E+02  0.51100000000E-03 0. -1.
         12    1    3    3    0    0  0.10316091092E+02  0.64350824665E+01 -0.87732343598E+01  0.14993387306E+02  0.00000000000E+00 0. -1.
</event>
<event>
 7    1  0.2476315E-009  0.4778727E+02  0.7816164E-02  0.1312668E+00
        -11   -1    0    0    0    0  0.00000000000E+00  0.00000000000E+00  0.45593999997E+02  0.45594000000E+02  0.51100000000E-03 0. -1.
         11   -1    0    0    0    0 -0.00000000000E+00 -0.00000000000E+00 -0.45593999997E+02  0.45594000000E+02  0.51100000000E-03 0.  1.
    9900012    2    1    2    0    0  0.26206012844E+02 -0.13517774360E+02 -0.31845534378E+02  0.47787269676E+02  0.19999993760E+02 0.  0.
         12    1    1    2    0    0 -0.26206012844E+02  0.13517774360E+02  0.31845534378E+02  0.43400730324E+02  0.00000000000E+00 0. -1.
         11    1    3    3    0    0  0.19332697003E+02 -0.62701497817E+01 -0.22097992603E+02  0.30023144889E+02  0.51100000000E-03 0. -1.
        -11    1    3    3    0    0  0.86685581710E+01 -0.14742170031E+01 -0.61225307220E+01  0.10714597484E+02  0.51100000000E-03 0.  1.
         12    1    3    3    0    0 -0.17952423302E+01 -0.57734075755E+01 -0.36250110536E+01  0.70495273030E+01  0.00000000000E+00 0. -1.
</event>
<event>
 7    1  0.2476315E-009  0.4778727E+02  0.7816164E-02  0.1312668E+00
        -11   -1    0    0    0    0  0.00000000000E+00  0.00000000000E+00  0.45593999997E+02  0.45594000000E+02  0.51100000000E-03 0.  1.
         11   -1    0    0    0    0 -0.00000000000E+00 -0.00000000000E+00 -0.45593999997E+02  0.45594000000E+02  0.51100000000E-03 0. -1.
    9900012    2    1    2    0    0 -0.14369916892E+02 -0.27872572148E+02  0.30004146052E+02  0.47787267634E+02  0.19999984449E+02 0.  0.
         12    1    1    2    0    0  0.14369916892E+02  0.27872572148E+02 -0.30004146052E+02  0.43400732366E+02  0.00000000000E+00 0. -1.
         11    1    3    3    0    0 -0.13239181055E+02 -0.22915371240E+02  0.21603312436E+02  0.34162746707E+02  0.51100000000E-03 0. -1.
        -11    1    3    3    0    0  0.11048875909E+01  0.73928399142E+00  0.72835615952E+01  0.74038900032E+01  0.51100000000E-03 0.  1.
         12    1    3    3    0    0 -0.22356234273E+01 -0.56964848994E+01  0.11172720208E+01  0.62206309235E+01  0.00000000000E+00 0. -1.
</event>
<event>
 7    1  0.2476315E-009  0.4778724E+02  0.7816164E-02  0.1312668E+00
        -11   -1    0    0    0    0  0.00000000000E+00  0.00000000000E+00  0.45593999997E+02  0.45594000000E+02  0.51100000000E-03 0.  1.
         11   -1    0    0    0    0 -0.00000000000E+00 -0.00000000000E+00 -0.45593999997E+02  0.45594000000E+02  0.51100000000E-03 0. -1.
    9900012    2    1    2    0    0  0.38173030662E+01 -0.39340709492E+02 -0.17926591832E+02  0.47787240551E+02  0.19999860966E+02 0.  0.
         12    1    1    2    0    0 -0.38173030662E+01  0.39340709492E+02  0.17926591832E+02  0.43400759449E+02  0.00000000000E+00 0. -1.
         11    1    3    3    0    0 -0.17100463559E+01 -0.32014181966E+02 -0.95967030278E+01  0.33465337512E+02  0.51100000000E-03 0. -1.
        -11    1    3    3    0    0  0.43068083487E+01 -0.29792012435E+01 -0.47071095470E+00  0.52579280392E+01  0.51100000000E-03 0.  1.
         12    1    3    3    0    0  0.12205410734E+01 -0.43473262823E+01 -0.78591778499E+01  0.90639749996E+01  0.00000000000E+00 0. -1.
</event>
<event>
 7    1  0.2476315E-009  0.4778727E+02  0.7816164E-02  0.1312668E+00
        -11   -1    0    0    0    0  0.00000000000E+00  0.00000000000E+00  0.45593999997E+02  0.45594000000E+02  0.51100000000E-03 0.  1.
         11   -1    0    0    0    0 -0.00000000000E+00 -0.00000000000E+00 -0.45593999997E+02  0.45594000000E+02  0.51100000000E-03 0. -1.
    9900012    2    1    2    0    0 -0.12488167279E+02 -0.40803821835E+02 -0.79194184696E+01  0.47787269739E+02  0.19999994046E+02 0.  0.
         12    1    1    2    0    0  0.12488167279E+02  0.40803821835E+02  0.79194184696E+01  0.43400730261E+02  0.00000000000E+00 0. -1.
         11    1    3    3    0    0 -0.29659894020E+01 -0.11662741416E+02 -0.40553286535E+01  0.12698910238E+02  0.51100000000E-03 0. -1.
        -11    1    3    3    0    0  0.47579020375E+01 -0.90694029893E+01 -0.11754254989E+01  0.10308895564E+02  0.51100000000E-03 0.  1.
        -12    1    3    3    0    0 -0.14280079914E+02 -0.20071677429E+02 -0.26886643171E+01  0.24779463937E+02  0.00000000000E+00 0.  1.
</event>
<event>
 7    1  0.2476315E-009  0.4778727E+02  0.7816164E-02  0.1312668E+00
        -11   -1    0    0    0    0  0.00000000000E+00  0.00000000000E+00  0.45593999997E+02  0.45594000000E+02  0.51100000000E-03 0.  1.
         11   -1    0    0    0    0 -0.00000000000E+00 -0.00000000000E+00 -0.45593999997E+02  0.45594000000E+02  0.51100000000E-03 0. -1.
    9900012    2    1    2    0    0 -0.21975291408E+02  0.23439214326E+02  0.29177268617E+02  0.47787271842E+02  0.20000003638E+02 0.  0.
         12    1    1    2    0    0  0.21975291408E+02 -0.23439214326E+02 -0.29177268617E+02  0.43400728158E+02  0.00000000000E+00 0. -1.
         11    1    3    3    0    0  0.15421029995E+01  0.52428541781E+01  0.51642227340E-02  0.54649454274E+01  0.51100000000E-03 0. -1.
        -11    1    3    3    0    0 -0.21580458225E+02  0.16504391569E+02  0.22859390345E+02  0.35505814249E+02  0.51100000000E-03 0.  1.
        -12    1    3    3    0    0 -0.19369361820E+01  0.16919685790E+01  0.63127140488E+01  0.68165121658E+01  0.00000000000E+00 0.  1.
</event>
<event>
 7    1  0.2476315E-009  0.4778727E+02  0.7816164E-02  0.1312668E+00
        -11   -1    0    0    0    0  0.00000000000E+00  0.00000000000E+00  0.45593999997E+02  0.45594000000E+02  0.51100000000E-03 0.  1.
         11   -1    0    0    0    0 -0.00000000000E+00 -0.00000000000E+00 -0.45593999997E+02  0.45594000000E+02  0.51100000000E-03 0. -1.
    9900012    2    1    2    0    0  0.34805252021E+02 -0.25460385167E+02 -0.48975864833E+01  0.47787272650E+02  0.20000007322E+02 0.  0.
         12    1    1    2    0    0 -0.34805252021E+02  0.25460385167E+02  0.48975864833E+01  0.43400727350E+02  0.00000000000E+00 0. -1.
         11    1    3    3    0    0  0.29817611492E+02 -0.11253958256E+02 -0.17451455335E+01  0.31918443958E+02  0.51100000000E-03 0. -1.
        -11    1    3    3    0    0  0.11293502571E+01 -0.71893780663E+01 -0.29662524585E+01  0.78588321583E+01  0.51100000000E-03 0.  1.
         12    1    3    3    0    0  0.38582902718E+01 -0.70170488453E+01 -0.18618849135E+00  0.80099965339E+01  0.00000000000E+00 0. -1.
</event>
<event>
 7    1  0.2476315E-009  0.4778726E+02  0.7816164E-02  0.1312668E+00
        -11   -1    0    0    0    0  0.00000000000E+00  0.00000000000E+00  0.45593999997E+02  0.45594000000E+02  0.51100000000E-03 0.  1.
         11   -1    0    0    0    0 -0.00000000000E+00 -0.00000000000E+00 -0.45593999997E+02  0.45594000000E+02  0.51100000000E-03 0. -1.
    9900012    2    1    2    0    0 -0.39780294899E+02 -0.49500117024E+01 -0.16632788323E+02  0.47787261234E+02  0.19999955268E+02 0.  0.
         12    1    1    2    0    0  0.39780294899E+02  0.49500117024E+01  0.16632788323E+02  0.43400738766E+02  0.00000000000E+00 0. -1.
         11    1    3    3    0    0 -0.11199740799E+01 -0.34642135530E+01 -0.45999620060E+01  0.58664101628E+01  0.51100000000E-03 0. -1.
        -11    1    3    3    0    0 -0.23362886334E+02 -0.17743818478E+01 -0.17688493315E+01  0.23496844831E+02  0.51100000000E-03 0.  1.
         12    1    3    3    0    0 -0.15297434485E+02  0.28858369843E+00 -0.10263976985E+02  0.18424006240E+02  0.00000000000E+00 0. -1.
</event>
<event>
 7    1  0.2476315E-009  0.4778727E+02  0.7816164E-02  0.1312668E+00
        -11   -1    0    0    0    0  0.00000000000E+00  0.00000000000E+00  0.45593999997E+02  0.45594000000E+02  0.51100000000E-03 0.  1.
         11   -1    0    0    0    0 -0.00000000000E+00 -0.00000000000E+00 -0.45593999997E+02  0.45594000000E+02  0.51100000000E-03 0. -1.
    9900012    2    1    2    0    0 -0.12927640795E+02  0.21685671601E+01  0.41373864050E+02  0.47787271821E+02  0.20000003539E+02 0.  0.
         12    1    1    2    0    0  0.12927640795E+02 -0.21685671601E+01 -0.41373864050E+02  0.43400728179E+02  0.00000000000E+00 0. -1.
         11    1    3    3    0    0 -0.33386091896E+01 -0.61787133923E+01  0.26764247772E+02  0.27670340973E+02  0.51100000000E-03 0. -1.
        -11    1    3    3    0    0 -0.99045919009E+01  0.63875944338E+01  0.13112879872E+02  0.17630936508E+02  0.51100000000E-03 0.  1.
         12    1    3    3    0    0  0.31556029600E+00  0.19596861187E+01  0.14967364070E+01  0.24859943395E+01  0.00000000000E+00 0. -1.
</event>
<event>
 7    1  0.2476315E-009  0.4778727E+02  0.7816164E-02  0.1312668E+00
        -11   -1    0    0    0    0  0.00000000000E+00  0.00000000000E+00  0.45593999997E+02  0.45594000000E+02  0.51100000000E-03 0.  1.
         11   -1    0    0    0    0 -0.00000000000E+00 -0.00000000000E+00 -0.45593999997E+02  0.45594000000E+02  0.51100000000E-03 0. -1.
    9900012    2    1    2    0    0  0.37701799263E+02 -0.20650955763E+02 -0.59779212405E+01  0.47787272081E+02  0.20000004724E+02 0.  0.
         12    1    1    2    0    0 -0.37701799263E+02  0.20650955763E+02  0.59779212405E+01  0.43400727919E+02  0.00000000000E+00 0. -1.
         11    1    3    3    0    0  0.10131598996E+00 -0.11871456229E+01  0.68811168584E+00  0.13758915702E+01  0.51100000000E-03 0. -1.
        -11    1    3    3    0    0  0.12047792300E+02 -0.84355934162E+01 -0.10838107358E+02  0.18269458310E+02  0.51100000000E-03 0.  1.
        -12    1    3    3    0    0  0.25552690972E+02 -0.11028216724E+02  0.41720744316E+01  0.28141922200E+02  0.00000000000E+00 0.  1.
</event>
<event>
 7    1  0.2476315E-009  0.4778727E+02  0.7816164E-02  0.1312668E+00
        -11   -1    0    0    0    0  0.00000000000E+00  0.00000000000E+00  0.45593999997E+02  0.45594000000E+02  0.51100000000E-03 0.  1.
         11   -1    0    0    0    0 -0.00000000000E+00 -0.00000000000E+00 -0.45593999997E+02  0.45594000000E+02  0.51100000000E-03 0. -1.
    9900012    2    1    2    0    0 -0.11982232540E+02 -0.35982919447E+02  0.21101633532E+02  0.47787270440E+02  0.19999997245E+02 0.  0.
         12    1    1    2    0    0  0.11982232540E+02  0.35982919447E+02 -0.21101633532E+02  0.43400729560E+02  0.00000000000E+00 0. -1.
         11    1    3    3    0    0 -0.18387148119E+01 -0.11103884644E+01  0.66765890819E+01  0.70136065424E+01  0.51100000000E-03 0. -1.
        -11    1    3    3    0    0 -0.10394059642E+02 -0.22274772495E+02  0.51150976595E+01  0.25107094413E+02  0.51100000000E-03 0.  1.
         12    1    3    3    0    0  0.25054191324E+00 -0.12597758488E+02  0.93099467906E+01  0.15666569484E+02  0.00000000000E+00 0. -1.
</event>
<event>
 7    1  0.2476315E-009  0.4778727E+02  0.7816164E-02  0.1312668E+00
        -11   -1    0    0    0    0  0.00000000000E+00  0.00000000000E+00  0.45593999997E+02  0.45594000000E+02  0.51100000000E-03 0.  1.
         11   -1    0    0    0    0 -0.00000000000E+00 -0.00000000000E+00 -0.45593999997E+02  0.45594000000E+02  0.51100000000E-03 0. -1.
    9900012    2    1    2    0    0  0.16486445001E+02 -0.19548783019E+02  0.35066586538E+02  0.47787271000E+02  0.19999999797E+02 0.  0.
         12    1    1    2    0    0 -0.16486445001E+02  0.19548783019E+02 -0.35066586538E+02  0.43400729000E+02  0.00000000000E+00 0. -1.
         11    1    3    3    0    0 -0.11258743662E+01 -0.42002125438E+01  0.12709998930E+02  0.13433296378E+02  0.51100000000E-03 0. -1.
        -11    1    3    3    0    0 -0.43753958221E+00 -0.29340886561E+00  0.52676187854E+01  0.52938962568E+01  0.51100000000E-03 0.  1.
        -12    1    3    3    0    0  0.18049858949E+02 -0.15055161610E+02  0.17088968822E+02  0.29060078365E+02  0.00000000000E+00 0.  1.
</event>
<event>
 7    1  0.2476315E-009  0.4778728E+02  0.7816164E-02  0.1312668E+00
        -11   -1    0    0    0    0  0.00000000000E+00  0.00000000000E+00  0.45593999997E+02  0.45594000000E+02  0.51100000000E-03 0.  1.
         11   -1    0    0    0    0 -0.00000000000E+00 -0.00000000000E+00 -0.45593999997E+02  0.45594000000E+02  0.51100000000E-03 0. -1.
    9900012    2    1    2    0    0 -0.89295771125E+00  0.31914194552E+02  0.29399143522E+02  0.47787276190E+02  0.20000023463E+02 0.  0.
         12    1    1    2    0    0  0.89295771125E+00 -0.31914194552E+02 -0.29399143522E+02  0.43400723810E+02  0.00000000000E+00 0. -1.
         11    1    3    3    0    0 -0.64672931658E+01  0.15700494286E+02  0.78402853584E+01  0.18702980417E+02  0.51100000000E-03 0. -1.
        -11    1    3    3    0    0  0.54762253854E+01  0.35528391804E+01  0.49111367084E+01  0.81689029094E+01  0.51100000000E-03 0.  1.
        -12    1    3    3    0    0  0.98110069185E-01  0.12660861086E+02  0.16647721455E+02  0.20915392864E+02  0.00000000000E+00 0.  1.
</event>
<event>
 7    1  0.2476315E-009  0.4778727E+02  0.7816164E-02  0.1312668E+00
        -11   -1    0    0    0    0  0.00000000000E+00  0.00000000000E+00  0.45593999997E+02  0.45594000000E+02  0.51100000000E-03 0.  1.
         11   -1    0    0    0    0 -0.00000000000E+00 -0.00000000000E+00 -0.45593999997E+02  0.45594000000E+02  0.51100000000E-03 0. -1.
    9900012    2    1    2    0    0  0.41320394449E+02  0.65702313024E+01 -0.11536056671E+02  0.47787267975E+02  0.19999986005E+02 0.  0.
         12    1    1    2    0    0 -0.41320394449E+02 -0.65702313024E+01  0.11536056671E+02  0.43400732025E+02  0.00000000000E+00 0. -1.
         11    1    3    3    0    0  0.26284606686E+02  0.33011145499E+01  0.69904910285E-02  0.26491091994E+02  0.51100000000E-03 0. -1.
        -11    1    3    3    0    0  0.13493629963E+02  0.31789071919E+01 -0.52622205955E+01  0.14828164633E+02  0.51100000000E-03 0.  1.
         12    1    3    3    0    0  0.15421578003E+01  0.90209560551E-01 -0.62808265666E+01  0.64680113486E+01  0.00000000000E+00 0. -1.
</event>
<event>
 7    1  0.2476315E-009  0.4778724E+02  0.7816164E-02  0.1312668E+00
        -11   -1    0    0    0    0  0.00000000000E+00  0.00000000000E+00  0.45593999997E+02  0.45594000000E+02  0.51100000000E-03 0.  1.
         11   -1    0    0    0    0 -0.00000000000E+00 -0.00000000000E+00 -0.45593999997E+02  0.45594000000E+02  0.51100000000E-03 0. -1.
    9900012    2    1    2    0    0 -0.17145673282E+02 -0.27404793196E+02 -0.28959089351E+02  0.47787243573E+02  0.19999874747E+02 0.  0.
         12    1    1    2    0    0  0.17145673282E+02  0.27404793196E+02  0.28959089351E+02  0.43400756427E+02  0.00000000000E+00 0. -1.
         11    1    3    3    0    0 -0.15885871821E+02 -0.18620534543E+02 -0.25115501725E+02  0.35069554565E+02  0.51100000000E-03 0. -1.
        -11    1    3    3    0    0 -0.32402521230E+01 -0.54239525793E+01 -0.55975008642E+01  0.84410018119E+01  0.51100000000E-03 0.  1.
         12    1    3    3    0    0  0.19804506627E+01 -0.33603060731E+01  0.17539132378E+01  0.42766871967E+01  0.00000000000E+00 0. -1.
</event>
<event>
 7    1  0.2476315E-009  0.4778728E+02  0.7816164E-02  0.1312668E+00
        -11   -1    0    0    0    0  0.00000000000E+00  0.00000000000E+00  0.45593999997E+02  0.45594000000E+02  0.51100000000E-03 0. -1.
         11   -1    0    0    0    0 -0.00000000000E+00 -0.00000000000E+00 -0.45593999997E+02  0.45594000000E+02  0.51100000000E-03 0.  1.
    9900012    2    1    2    0    0 -0.92060998044E+01  0.96140299240E+01 -0.41309089099E+02  0.47787277804E+02  0.20000030819E+02 0.  0.
         12    1    1    2    0    0  0.92060998044E+01 -0.96140299240E+01  0.41309089099E+02  0.43400722196E+02  0.00000000000E+00 0. -1.
         11    1    3    3    0    0 -0.45946090263E+01 -0.25557308955E+01 -0.24470695157E+01  0.57991673532E+01  0.51100000000E-03 0. -1.
        -11    1    3    3    0    0 -0.44559612591E+01  0.13675960367E+02 -0.35105071251E+02  0.37937494784E+02  0.51100000000E-03 0.  1.
        -12    1    3    3    0    0 -0.15552951891E+00 -0.15061995476E+01 -0.37569483319E+01  0.40506156664E+01  0.00000000000E+00 0.  1.
</event>
<event>
 7    1  0.2476315E-009  0.4778727E+02  0.7816164E-02  0.1312668E+00
        -11   -1    0    0    0    0  0.00000000000E+00  0.00000000000E+00  0.45593999997E+02  0.45594000000E+02  0.51100000000E-03 0.  1.
         11   -1    0    0    0    0 -0.00000000000E+00 -0.00000000000E+00 -0.45593999997E+02  0.45594000000E+02  0.51100000000E-03 0. -1.
    9900012    2    1    2    0    0 -0.29536961977E+02  0.16223386020E+02  0.27349455178E+02  0.47787273332E+02  0.20000010428E+02 0.  0.
         12    1    1    2    0    0  0.29536961977E+02 -0.16223386020E+02 -0.27349455178E+02  0.43400726668E+02  0.00000000000E+00 0. -1.
         11    1    3    3    0    0 -0.34981471188E+01  0.19614804373E+01  0.98349909502E+01  0.10621275160E+02  0.51100000000E-03 0. -1.
        -11    1    3    3    0    0 -0.25026652314E+02  0.13117407757E+02  0.10751085424E+02  0.30232193938E+02  0.51100000000E-03 0.  1.
        -12    1    3    3    0    0 -0.10121625445E+01  0.11444978265E+01  0.67633788045E+01  0.69338042332E+01  0.00000000000E+00 0.  1.
</event>
<event>
 7    1  0.2476315E-009  0.4778727E+02  0.7816164E-02  0.1312668E+00
        -11   -1    0    0    0    0  0.00000000000E+00  0.00000000000E+00  0.45593999997E+02  0.45594000000E+02  0.51100000000E-03 0.  1.
         11   -1    0    0    0    0 -0.00000000000E+00 -0.00000000000E+00 -0.45593999997E+02  0.45594000000E+02  0.51100000000E-03 0. -1.
    9900012    2    1    2    0    0 -0.12031530318E+02  0.35666725376E+02  0.21604401119E+02  0.47787272258E+02  0.20000005533E+02 0.  0.
         12    1    1    2    0    0  0.12031530318E+02 -0.35666725376E+02 -0.21604401119E+02  0.43400727742E+02  0.00000000000E+00 0. -1.
         11    1    3    3    0    0 -0.24181364316E+01  0.92730919707E+01  0.11097146760E+02  0.14662342411E+02  0.51100000000E-03 0. -1.
        -11    1    3    3    0    0 -0.11140997338E+02  0.16683662600E+02  0.20646795018E+01  0.20167531360E+02  0.51100000000E-03 0.  1.
         12    1    3    3    0    0  0.15276034517E+01  0.97099708048E+01  0.84425748570E+01  0.12957398487E+02  0.00000000000E+00 0. -1.
</event>
<event>
 7    1  0.2476315E-009  0.4778727E+02  0.7816164E-02  0.1312668E+00
        -11   -1    0    0    0    0  0.00000000000E+00  0.00000000000E+00  0.45593999997E+02  0.45594000000E+02  0.51100000000E-03 0.  1.
         11   -1    0    0    0    0 -0.00000000000E+00 -0.00000000000E+00 -0.45593999997E+02  0.45594000000E+02  0.51100000000E-03 0. -1.
    9900012    2    1    2    0    0 -0.90308116741E+01 -0.42393689518E+02  0.22007022558E+01  0.47787267738E+02  0.19999984926E+02 0.  0.
         12    1    1    2    0    0  0.90308116741E+01  0.42393689518E+02 -0.22007022558E+01  0.43400732262E+02  0.00000000000E+00 0. -1.
         11    1    3    3    0    0 -0.92844535792E+01 -0.24762123648E+02 -0.11127662368E+01  0.26468889187E+02  0.51100000000E-03 0. -1.
        -11    1    3    3    0    0  0.29473174287E+01 -0.34919941497E+01 -0.31396087694E+01  0.55441723145E+01  0.51100000000E-03 0.  1.
         12    1    3    3    0    0 -0.26936755236E+01 -0.14139571720E+02  0.64530772620E+01  0.15774206237E+02  0.00000000000E+00 0. -1.
</event>
<event>
 7    1  0.2476315E-009  0.4778727E+02  0.7816164E-02  0.1312668E+00
        -11   -1    0    0    0    0  0.00000000000E+00  0.00000000000E+00  0.45593999997E+02  0.45594000000E+02  0.51100000000E-03 0.  1.
         11   -1    0    0    0    0 -0.00000000000E+00 -0.00000000000E+00 -0.45593999997E+02  0.45594000000E+02  0.51100000000E-03 0. -1.
    9900012    2    1    2    0    0 -0.36991915888E+02  0.22526843632E+02 -0.27861504524E+01  0.47787272363E+02  0.20000006012E+02 0.  0.
         12    1    1    2    0    0  0.36991915888E+02 -0.22526843632E+02  0.27861504524E+01  0.43400727637E+02  0.00000000000E+00 0. -1.
         11    1    3    3    0    0 -0.68462984343E+01  0.10407270209E+02 -0.74508449935E+01  0.14515445802E+02  0.51100000000E-03 0. -1.
        -11    1    3    3    0    0 -0.24384367990E+02  0.10221567527E+02  0.16327469802E+01  0.26490445597E+02  0.51100000000E-03 0.  1.
        -12    1    3    3    0    0 -0.57612494638E+01  0.18980058963E+01  0.30319475609E+01  0.67813809639E+01  0.00000000000E+00 0.  1.
</event>
<event>
 7    1  0.2476315E-009  0.4778727E+02  0.7816164E-02  0.1312668E+00
        -11   -1    0    0    0    0  0.00000000000E+00  0.00000000000E+00  0.45593999997E+02  0.45594000000E+02  0.51100000000E-03 0.  1.
         11   -1    0    0    0    0 -0.00000000000E+00 -0.00000000000E+00 -0.45593999997E+02  0.45594000000E+02  0.51100000000E-03 0. -1.
    9900012    2    1    2    0    0 -0.44261275489E+01  0.13138619800E+02  0.41126746108E+02  0.47787272117E+02  0.20000004892E+02 0.  0.
         12    1    1    2    0    0  0.44261275489E+01 -0.13138619800E+02 -0.41126746108E+02  0.43400727883E+02  0.00000000000E+00 0. -1.
         11    1    3    3    0    0 -0.33229055050E+01 -0.24831115648E+01  0.98563028916E+01  0.10693654707E+02  0.51100000000E-03 0. -1.
        -11    1    3    3    0    0  0.49580877750E+01  0.11680640907E+02  0.18879840384E+02  0.22747931325E+02  0.51100000000E-03 0.  1.
        -12    1    3    3    0    0 -0.60613098189E+01  0.39410904580E+01  0.12390602832E+02  0.14345686085E+02  0.00000000000E+00 0.  1.
</event>
<event>
 7    1  0.2476315E-009  0.4778727E+02  0.7816164E-02  0.1312668E+00
        -11   -1    0    0    0    0  0.00000000000E+00  0.00000000000E+00  0.45593999997E+02  0.45594000000E+02  0.51100000000E-03 0.  1.
         11   -1    0    0    0    0 -0.00000000000E+00 -0.00000000000E+00 -0.45593999997E+02  0.45594000000E+02  0.51100000000E-03 0. -1.
    9900012    2    1    2    0    0 -0.69698580330E+01 -0.32305381406E+02  0.28131952420E+02  0.47787270332E+02  0.19999996751E+02 0.  0.
         12    1    1    2    0    0  0.69698580330E+01  0.32305381406E+02 -0.28131952420E+02  0.43400729668E+02  0.00000000000E+00 0. -1.
         11    1    3    3    0    0  0.20253097363E+01  0.30325943722E+00  0.76514310375E+01  0.79207476287E+01  0.51100000000E-03 0. -1.
        -11    1    3    3    0    0 -0.51936746322E+01 -0.23928080076E+02  0.16828498240E+02  0.29710698840E+02  0.51100000000E-03 0.  1.
         12    1    3    3    0    0 -0.38014931371E+01 -0.86805607673E+01  0.36520231424E+01  0.10155823863E+02  0.00000000000E+00 0. -1.
</event>
<event>
 7    1  0.2476315E-009  0.4778727E+02  0.7816164E-02  0.1312668E+00
        -11   -1    0    0    0    0  0.00000000000E+00  0.00000000000E+00  0.45593999997E+02  0.45594000000E+02  0.51100000000E-03 0.  1.
         11   -1    0    0    0    0 -0.00000000000E+00 -0.00000000000E+00 -0.45593999997E+02  0.45594000000E+02  0.51100000000E-03 0. -1.
    9900012    2    1    2    0    0 -0.46132004749E+01  0.28257155975E+02  0.32617094540E+02  0.47787270298E+02  0.19999996598E+02 0.  0.
         12    1    1    2    0    0  0.46132004749E+01 -0.28257155975E+02 -0.32617094540E+02  0.43400729702E+02  0.00000000000E+00 0. -1.
         11    1    3    3    0    0  0.27919151960E+01  0.11584307233E+02  0.18978533985E+02  0.22409277476E+02  0.51100000000E-03 0. -1.
        -11    1    3    3    0    0 -0.49967401558E+01  0.17979992818E+02  0.11872606097E+02  0.22118009171E+02  0.51100000000E-03 0.  1.
         12    1    3    3    0    0 -0.24083755151E+01 -0.13071440753E+01  0.17659544575E+01  0.32599836505E+01  0.00000000000E+00 0. -1.
</event>
<event>
 7    1  0.2476315E-009  0.4778727E+02  0.7816164E-02  0.1312668E+00
        -11   -1    0    0    0    0  0.00000000000E+00  0.00000000000E+00  0.45593999997E+02  0.45594000000E+02  0.51100000000E-03 0.  1.
         11   -1    0    0    0    0 -0.00000000000E+00 -0.00000000000E+00 -0.45593999997E+02  0.45594000000E+02  0.51100000000E-03 0. -1.
    9900012    2    1    2    0    0 -0.13165222870E+02  0.12946007176E+01  0.41335508168E+02  0.47787270517E+02  0.19999997593E+02 0.  0.
         12    1    1    2    0    0  0.13165222870E+02 -0.12946007176E+01 -0.41335508168E+02  0.43400729483E+02  0.00000000000E+00 0. -1.
         11    1    3    3    0    0 -0.29697341277E+01  0.30682083290E+00  0.32122723557E+01  0.43854479544E+01  0.51100000000E-03 0. -1.
        -11    1    3    3    0    0 -0.13055495761E+02  0.64445077941E+01  0.25809498417E+02  0.29632884758E+02  0.51100000000E-03 0.  1.
        -12    1    3    3    0    0  0.28600070191E+01 -0.54567279094E+01  0.12313737395E+02  0.13768937805E+02  0.00000000000E+00 0.  1.
</event>
<event>
 7    1  0.2476315E-009  0.4778727E+02  0.7816164E-02  0.1312668E+00
        -11   -1    0    0    0    0  0.00000000000E+00  0.00000000000E+00  0.45593999997E+02  0.45594000000E+02  0.51100000000E-03 0. -1.
         11   -1    0    0    0    0 -0.00000000000E+00 -0.00000000000E+00 -0.45593999997E+02  0.45594000000E+02  0.51100000000E-03 0.  1.
    9900012    2    1    2    0    0  0.17277543661E+02  0.39751107023E+02  0.22269239813E+01  0.47787271723E+02  0.20000003094E+02 0.  0.
         12    1    1    2    0    0 -0.17277543661E+02 -0.39751107023E+02 -0.22269239813E+01  0.43400728277E+02  0.00000000000E+00 0. -1.
         11    1    3    3    0    0  0.55945477177E+00  0.16739130582E+01 -0.20898261451E+01  0.27353881161E+01  0.51100000000E-03 0. -1.
        -11    1    3    3    0    0  0.38000651937E+01  0.27562393922E+02 -0.86574575857E-01  0.27823255554E+02  0.51100000000E-03 0.  1.
        -12    1    3    3    0    0  0.12918023696E+02  0.10514800043E+02  0.44033247022E+01  0.17228628053E+02  0.00000000000E+00 0.  1.
</event>
<event>
 7    1  0.2476315E-009  0.4778727E+02  0.7816164E-02  0.1312668E+00
        -11   -1    0    0    0    0  0.00000000000E+00  0.00000000000E+00  0.45593999997E+02  0.45594000000E+02  0.51100000000E-03 0. -1.
         11   -1    0    0    0    0 -0.00000000000E+00 -0.00000000000E+00 -0.45593999997E+02  0.45594000000E+02  0.51100000000E-03 0.  1.
    9900012    2    1    2    0    0  0.80865659754E+01  0.35246457524E+02 -0.23998291116E+02  0.47787270815E+02  0.19999998954E+02 0.  0.
         12    1    1    2    0    0 -0.80865659754E+01 -0.35246457524E+02  0.23998291116E+02  0.43400729185E+02  0.00000000000E+00 0. -1.
         11    1    3    3    0    0  0.31662308899E+01  0.10934962452E+02  0.73632959473E+00  0.11407918452E+02  0.51100000000E-03 0. -1.
        -11    1    3    3    0    0  0.29456955339E+01  0.57697413965E+01 -0.12495097864E+02  0.14074605104E+02  0.51100000000E-03 0.  1.
         12    1    3    3    0    0  0.19746395516E+01  0.18541753675E+02 -0.12239522847E+02  0.22304747258E+02  0.00000000000E+00 0. -1.
</event>
<event>
 7    1  0.2476315E-009  0.4778727E+02  0.7816164E-02  0.1312668E+00
        -11   -1    0    0    0    0  0.00000000000E+00  0.00000000000E+00  0.45593999997E+02  0.45594000000E+02  0.51100000000E-03 0.  1.
         11   -1    0    0    0    0 -0.00000000000E+00 -0.00000000000E+00 -0.45593999997E+02  0.45594000000E+02  0.51100000000E-03 0. -1.
    9900012    2    1    2    0    0 -0.12167576249E+02 -0.40932658753E+02  0.77518093260E+01  0.47787274059E+02  0.20000013747E+02 0.  0.
         12    1    1    2    0    0  0.12167576249E+02  0.40932658753E+02 -0.77518093260E+01  0.43400725941E+02  0.00000000000E+00 0. -1.
         11    1    3    3    0    0  0.45341130379E+01 -0.12528031916E+02  0.41902994702E+01  0.13966688034E+02  0.51100000000E-03 0. -1.
        -11    1    3    3    0    0 -0.14157338648E+02 -0.27177771221E+02  0.41831210405E+01  0.30928303996E+02  0.51100000000E-03 0.  1.
         12    1    3    3    0    0 -0.25443506388E+01 -0.12268556155E+01 -0.62161118472E+00  0.28922820298E+01  0.00000000000E+00 0. -1.
</event>
<event>
 7    1  0.2476315E-009  0.4778727E+02  0.7816164E-02  0.1312668E+00
        -11   -1    0    0    0    0  0.00000000000E+00  0.00000000000E+00  0.45593999997E+02  0.45594000000E+02  0.51100000000E-03 0.  1.
         11   -1    0    0    0    0 -0.00000000000E+00 -0.00000000000E+00 -0.45593999997E+02  0.45594000000E+02  0.51100000000E-03 0. -1.
    9900012    2    1    2    0    0  0.16298626553E+02 -0.12554011077E+02  0.38214855837E+02  0.47787266962E+02  0.19999981386E+02 0.  0.
         12    1    1    2    0    0 -0.16298626553E+02  0.12554011077E+02 -0.38214855837E+02  0.43400733038E+02  0.00000000000E+00 0. -1.
         11    1    3    3    0    0  0.85307944435E+01  0.29313205017E+01  0.18593174235E+02  0.20665749977E+02  0.51100000000E-03 0. -1.
        -11    1    3    3    0    0  0.69913286651E+01 -0.11739969233E+02  0.10506645377E+02  0.17236448342E+02  0.51100000000E-03 0.  1.
        -12    1    3    3    0    0  0.77650344455E+00 -0.37453623451E+01  0.91150362246E+01  0.98850686427E+01  0.00000000000E+00 0.  1.
</event>
<event>
 7    1  0.2476315E-009  0.4778724E+02  0.7816164E-02  0.1312668E+00
        -11   -1    0    0    0    0  0.00000000000E+00  0.00000000000E+00  0.45593999997E+02  0.45594000000E+02  0.51100000000E-03 0.  1.
         11   -1    0    0    0    0 -0.00000000000E+00 -0.00000000000E+00 -0.45593999997E+02  0.45594000000E+02  0.51100000000E-03 0. -1.
    9900012    2    1    2    0    0  0.11444130753E+01  0.34560332681E+02  0.26227838499E+02  0.47787242073E+02  0.19999867907E+02 0.  0.
         12    1    1    2    0    0 -0.11444130753E+01 -0.34560332681E+02 -0.26227838499E+02  0.43400757927E+02  0.00000000000E+00 0. -1.
         11    1    3    3    0    0  0.14516699169E+01  0.37364953067E+00 -0.25330933089E+01  0.29433860589E+01  0.51100000000E-03 0. -1.
        -11    1    3    3    0    0 -0.82960124877E+00  0.24957475964E+02  0.23015093141E+02  0.33959657790E+02  0.51100000000E-03 0.  1.
         12    1    3    3    0    0  0.52234440724E+00  0.92292071870E+01  0.57458386670E+01  0.10884198223E+02  0.00000000000E+00 0. -1.
</event>
<event>
 7    1  0.2476315E-009  0.4778726E+02  0.7816164E-02  0.1312668E+00
        -11   -1    0    0    0    0  0.00000000000E+00  0.00000000000E+00  0.45593999997E+02  0.45594000000E+02  0.51100000000E-03 0.  1.
         11   -1    0    0    0    0 -0.00000000000E+00 -0.00000000000E+00 -0.45593999997E+02  0.45594000000E+02  0.51100000000E-03 0. -1.
    9900012    2    1    2    0    0 -0.14769831815E+02  0.15506618375E+02  0.37749450106E+02  0.47787261197E+02  0.19999955103E+02 0.  0.
         12    1    1    2    0    0  0.14769831815E+02 -0.15506618375E+02 -0.37749450106E+02  0.43400738803E+02  0.00000000000E+00 0. -1.
         11    1    3    3    0    0 -0.10866049367E+02  0.40600720538E+01  0.65813118317E+01  0.13336749214E+02  0.51100000000E-03 0. -1.
        -11    1    3    3    0    0 -0.11731337746E+01  0.91069392859E+01  0.28583467918E+02  0.30022112259E+02  0.51100000000E-03 0.  1.
        -12    1    3    3    0    0 -0.27306486739E+01  0.23396070357E+01  0.25846703564E+01  0.44283997237E+01  0.00000000000E+00 0.  1.
</event>
<event>
 7    1  0.2476315E-009  0.4778727E+02  0.7816164E-02  0.1312668E+00
        -11   -1    0    0    0    0  0.00000000000E+00  0.00000000000E+00  0.45593999997E+02  0.45594000000E+02  0.51100000000E-03 0. -1.
         11   -1    0    0    0    0 -0.00000000000E+00 -0.00000000000E+00 -0.45593999997E+02  0.45594000000E+02  0.51100000000E-03 0.  1.
    9900012    2    1    2    0    0 -0.28449715447E+02 -0.31590159217E+02 -0.87349142656E+01  0.47787271946E+02  0.20000004112E+02 0.  0.
         12    1    1    2    0    0  0.28449715447E+02  0.31590159217E+02  0.87349142656E+01  0.43400728054E+02  0.00000000000E+00 0. -1.
         11    1    3    3    0    0 -0.13414178823E+02 -0.28012366595E+02 -0.53153763179E+01  0.31510095230E+02  0.51100000000E-03 0. -1.
        -11    1    3    3    0    0 -0.11630254005E+02 -0.14096305437E+01 -0.35397396626E+01  0.12238448579E+02  0.51100000000E-03 0.  1.
        -12    1    3    3    0    0 -0.34052826189E+01 -0.21681620783E+01  0.12020171484E+00  0.40387281370E+01  0.00000000000E+00 0.  1.
</event>
<event>
 7    1  0.2476315E-009  0.4778725E+02  0.7816164E-02  0.1312668E+00
        -11   -1    0    0    0    0  0.00000000000E+00  0.00000000000E+00  0.45593999997E+02  0.45594000000E+02  0.51100000000E-03 0. -1.
         11   -1    0    0    0    0 -0.00000000000E+00 -0.00000000000E+00 -0.45593999997E+02  0.45594000000E+02  0.51100000000E-03 0.  1.
    9900012    2    1    2    0    0  0.21060655481E+02  0.37377354644E+02 -0.65579631755E+01  0.47787254264E+02  0.19999923489E+02 0.  0.
         12    1    1    2    0    0 -0.21060655481E+02 -0.37377354644E+02  0.65579631755E+01  0.43400745736E+02  0.00000000000E+00 0. -1.
         11    1    3    3    0    0  0.14141934651E+01  0.19960419515E+02 -0.31223745637E+01  0.20252592762E+02  0.51100000000E-03 0. -1.
        -11    1    3    3    0    0  0.75394086491E+01  0.24607325099E+01  0.28482412905E+00  0.79359317228E+01  0.51100000000E-03 0.  1.
        -12    1    3    3    0    0  0.12107053366E+02  0.14956202619E+02 -0.37204127408E+01  0.19598729779E+02  0.00000000000E+00 0.  1.
</event>
<event>
 7    1  0.2476315E-009  0.4778727E+02  0.7816164E-02  0.1312668E+00
        -11   -1    0    0    0    0  0.00000000000E+00  0.00000000000E+00  0.45593999997E+02  0.45594000000E+02  0.51100000000E-03 0. -1.
         11   -1    0    0    0    0 -0.00000000000E+00 -0.00000000000E+00 -0.45593999997E+02  0.45594000000E+02  0.51100000000E-03 0.  1.
    9900012    2    1    2    0    0  0.38220785593E+02 -0.40915438129E+01 -0.20150782379E+02  0.47787271751E+02  0.20000003219E+02 0.  0.
         12    1    1    2    0    0 -0.38220785593E+02  0.40915438129E+01  0.20150782379E+02  0.43400728249E+02  0.00000000000E+00 0. -1.
         11    1    3    3    0    0  0.32796355133E+01 -0.74750370858E+01 -0.32105069148E+01  0.87715188790E+01  0.51100000000E-03 0.  1.
        -11    1    3    3    0    0  0.20855297132E+02  0.28122484762E+01 -0.10457592635E+02  0.23499221348E+02  0.51100000000E-03 0. -1.
        -12    1    3    3    0    0  0.14085852947E+02  0.57124479668E+00 -0.64826828292E+01  0.15516531524E+02  0.00000000000E+00 0.  1.
</event>
<event>
 7    1  0.2476315E-009  0.4778722E+02  0.7816164E-02  0.1312668E+00
        -11   -1    0    0    0    0  0.00000000000E+00  0.00000000000E+00  0.45593999997E+02  0.45594000000E+02  0.51100000000E-03 0. -1.
         11   -1    0    0    0    0 -0.00000000000E+00 -0.00000000000E+00 -0.45593999997E+02  0.45594000000E+02  0.51100000000E-03 0.  1.
    9900012    2    1    2    0    0 -0.69165273596E+01 -0.13690731987E+02 -0.40599915976E+02  0.47787220395E+02  0.19999769066E+02 0.  0.
         12    1    1    2    0    0  0.69165273596E+01  0.13690731987E+02  0.40599915976E+02  0.43400779605E+02  0.00000000000E+00 0. -1.
         11    1    3    3    0    0 -0.91298512048E+01 -0.48898043582E+01 -0.16031537490E+02  0.19085978210E+02  0.51100000000E-03 0. -1.
        -11    1    3    3    0    0  0.66208364050E+01 -0.79235665246E+01 -0.17757077168E+02  0.20540987585E+02  0.51100000000E-03 0.  1.
        -12    1    3    3    0    0 -0.44075125598E+01 -0.87736110412E+00 -0.68113013189E+01  0.81602545995E+01  0.00000000000E+00 0.  1.
</event>
<event>
 7    1  0.2476315E-009  0.4778725E+02  0.7816164E-02  0.1312668E+00
        -11   -1    0    0    0    0  0.00000000000E+00  0.00000000000E+00  0.45593999997E+02  0.45594000000E+02  0.51100000000E-03 0. -1.
         11   -1    0    0    0    0 -0.00000000000E+00 -0.00000000000E+00 -0.45593999997E+02  0.45594000000E+02  0.51100000000E-03 0.  1.
    9900012    2    1    2    0    0 -0.19181775639E+02  0.37301211077E+02  0.11149184242E+02  0.47787249157E+02  0.19999900207E+02 0.  0.
         12    1    1    2    0    0  0.19181775639E+02 -0.37301211077E+02 -0.11149184242E+02  0.43400750843E+02  0.00000000000E+00 0. -1.
         11    1    3    3    0    0 -0.36377856286E+01  0.10117007285E+02  0.98088626258E+01  0.14553388161E+02  0.51100000000E-03 0. -1.
        -11    1    3    3    0    0 -0.12645234828E+02  0.11076746508E+02 -0.27091315783E-01  0.16810621977E+02  0.51100000000E-03 0.  1.
        -12    1    3    3    0    0 -0.28987551824E+01  0.16107457284E+02  0.13674129324E+01  0.16423239020E+02  0.00000000000E+00 0.  1.
</event>
<event>
 7    1  0.2476315E-009  0.4778727E+02  0.7816164E-02  0.1312668E+00
        -11   -1    0    0    0    0  0.00000000000E+00  0.00000000000E+00  0.45593999997E+02  0.45594000000E+02  0.51100000000E-03 0.  1.
         11   -1    0    0    0    0 -0.00000000000E+00 -0.00000000000E+00 -0.45593999997E+02  0.45594000000E+02  0.51100000000E-03 0. -1.
    9900012    2    1    2    0    0  0.35419233686E+02 -0.24839482376E+02  0.34786750492E+01  0.47787272130E+02  0.20000004949E+02 0.  0.
         12    1    1    2    0    0 -0.35419233686E+02  0.24839482376E+02 -0.34786750492E+01  0.43400727870E+02  0.00000000000E+00 0. -1.
         11    1    3    3    0    0  0.45890823167E+01 -0.64482155729E+01  0.39869392817E+01  0.88619888107E+01  0.51100000000E-03 0. -1.
        -11    1    3    3    0    0  0.71538267262E+01 -0.88569859970E+01 -0.59223533599E+01  0.12833460459E+02  0.51100000000E-03 0.  1.
        -12    1    3    3    0    0  0.23676324643E+02 -0.95342808060E+01  0.54140891274E+01  0.26091822860E+02  0.00000000000E+00 0.  1.
</event>
<event>
 7    1  0.2476315E-009  0.4778727E+02  0.7816164E-02  0.1312668E+00
        -11   -1    0    0    0    0  0.00000000000E+00  0.00000000000E+00  0.45593999997E+02  0.45594000000E+02  0.51100000000E-03 0.  1.
         11   -1    0    0    0    0 -0.00000000000E+00 -0.00000000000E+00 -0.45593999997E+02  0.45594000000E+02  0.51100000000E-03 0. -1.
    9900012    2    1    2    0    0 -0.88362186235E+01  0.33471335453E+02  0.26176596862E+02  0.47787270975E+02  0.19999999686E+02 0.  0.
         12    1    1    2    0    0  0.88362186235E+01 -0.33471335453E+02 -0.26176596862E+02  0.43400729025E+02  0.00000000000E+00 0. -1.
         11    1    3    3    0    0  0.23595910298E+01  0.26580263531E+01  0.35251413905E+00  0.35716999315E+01  0.51100000000E-03 0. -1.
        -11    1    3    3    0    0 -0.92906354643E+01  0.20487692276E+02  0.25077868196E+02  0.33689180988E+02  0.51100000000E-03 0.  1.
        -12    1    3    3    0    0 -0.19051741889E+01  0.10325616825E+02  0.74621452722E+00  0.10526390056E+02  0.00000000000E+00 0.  1.
</event>
<event>
 7    1  0.2476315E-009  0.4778727E+02  0.7816164E-02  0.1312668E+00
        -11   -1    0    0    0    0  0.00000000000E+00  0.00000000000E+00  0.45593999997E+02  0.45594000000E+02  0.51100000000E-03 0.  1.
         11   -1    0    0    0    0 -0.00000000000E+00 -0.00000000000E+00 -0.45593999997E+02  0.45594000000E+02  0.51100000000E-03 0. -1.
    9900012    2    1    2    0    0  0.17688860558E+02 -0.18840216171E+02  0.34867954042E+02  0.47787265533E+02  0.19999974871E+02 0.  0.
         12    1    1    2    0    0 -0.17688860558E+02  0.18840216171E+02 -0.34867954042E+02  0.43400734467E+02  0.00000000000E+00 0. -1.
         11    1    3    3    0    0  0.59102187440E+01 -0.15132238282E+02  0.81504606587E+01  0.18175404542E+02  0.51100000000E-03 0. -1.
        -11    1    3    3    0    0  0.92499223878E+01 -0.14579687135E+01  0.18878421052E+02  0.21073241768E+02  0.51100000000E-03 0.  1.
         12    1    3    3    0    0  0.25287194265E+01 -0.22500091751E+01  0.78390723310E+01  0.85386192230E+01  0.00000000000E+00 0. -1.
</event>
<event>
 7    1  0.2476315E-009  0.4778728E+02  0.7816164E-02  0.1312668E+00
        -11   -1    0    0    0    0  0.00000000000E+00  0.00000000000E+00  0.45593999997E+02  0.45594000000E+02  0.51100000000E-03 0.  1.
         11   -1    0    0    0    0 -0.00000000000E+00 -0.00000000000E+00 -0.45593999997E+02  0.45594000000E+02  0.51100000000E-03 0. -1.
    9900012    2    1    2    0    0  0.27416080672E+02  0.33550218693E+02 -0.25227374722E+01  0.47787275834E+02  0.20000021838E+02 0.  0.
         12    1    1    2    0    0 -0.27416080672E+02 -0.33550218693E+02  0.25227374722E+01  0.43400724166E+02  0.00000000000E+00 0. -1.
         11    1    3    3    0    0  0.36575024627E+01  0.19017503487E+02  0.52081693743E+00  0.19373022833E+02  0.51100000000E-03 0. -1.
        -11    1    3    3    0    0  0.12469919984E+02  0.62509282858E+01  0.54955605082E+00  0.13959764359E+02  0.51100000000E-03 0.  1.
        -12    1    3    3    0    0  0.11288658225E+02  0.82817869198E+01 -0.35931104604E+01  0.14454488641E+02  0.00000000000E+00 0.  1.
</event>
<event>
 7    1  0.2476315E-009  0.4778727E+02  0.7816164E-02  0.1312668E+00
        -11   -1    0    0    0    0  0.00000000000E+00  0.00000000000E+00  0.45593999997E+02  0.45594000000E+02  0.51100000000E-03 0.  1.
         11   -1    0    0    0    0 -0.00000000000E+00 -0.00000000000E+00 -0.45593999997E+02  0.45594000000E+02  0.51100000000E-03 0. -1.
    9900012    2    1    2    0    0  0.21170473993E+02 -0.36609286058E+02  0.97567764367E+01  0.47787268656E+02  0.19999989109E+02 0.  0.
         12    1    1    2    0    0 -0.21170473993E+02  0.36609286058E+02 -0.97567764367E+01  0.43400731344E+02  0.00000000000E+00 0. -1.
         11    1    3    3    0    0  0.51281774798E+01 -0.35065302284E+01 -0.14061731218E+01  0.63695589814E+01  0.51100000000E-03 0. -1.
        -11    1    3    3    0    0  0.60832670492E-01  0.14989299156E+01  0.14479577833E+01  0.20849636709E+01  0.51100000000E-03 0.  1.
        -12    1    3    3    0    0  0.15981463842E+02 -0.34601685746E+02  0.97149917752E+01  0.39332746003E+02  0.00000000000E+00 0.  1.
</event>
<event>
 7    1  0.2476315E-009  0.4778723E+02  0.7816164E-02  0.1312668E+00
        -11   -1    0    0    0    0  0.00000000000E+00  0.00000000000E+00  0.45593999997E+02  0.45594000000E+02  0.51100000000E-03 0. -1.
         11   -1    0    0    0    0 -0.00000000000E+00 -0.00000000000E+00 -0.45593999997E+02  0.45594000000E+02  0.51100000000E-03 0.  1.
    9900012    2    1    2    0    0  0.13069242560E+02 -0.41314479825E+02 -0.24363270663E+01  0.47787227727E+02  0.19999802499E+02 0.  0.
         12    1    1    2    0    0 -0.13069242560E+02  0.41314479825E+02  0.24363270663E+01  0.43400772273E+02  0.00000000000E+00 0. -1.
         11    1    3    3    0    0  0.82345877452E+01 -0.30968357848E+02 -0.68479384356E+01  0.32768000919E+02  0.51100000000E-03 0. -1.
        -11    1    3    3    0    0  0.18919395885E+01 -0.46933702072E+01 -0.24776862987E+01  0.56343667758E+01  0.51100000000E-03 0.  1.
         12    1    3    3    0    0  0.29427152268E+01 -0.56527517694E+01  0.68892976680E+01  0.93848600326E+01  0.00000000000E+00 0. -1.
</event>
<event>
 7    1  0.2476315E-009  0.4778728E+02  0.7816164E-02  0.1312668E+00
        -11   -1    0    0    0    0  0.00000000000E+00  0.00000000000E+00  0.45593999997E+02  0.45594000000E+02  0.51100000000E-03 0.  1.
         11   -1    0    0    0    0 -0.00000000000E+00 -0.00000000000E+00 -0.45593999997E+02  0.45594000000E+02  0.51100000000E-03 0. -1.
    9900012    2    1    2    0    0 -0.80599702900E+01  0.20303987663E+02  0.37502100875E+02  0.47787278737E+02  0.20000035073E+02 0.  0.
         12    1    1    2    0    0  0.80599702900E+01 -0.20303987663E+02 -0.37502100875E+02  0.43400721263E+02  0.00000000000E+00 0. -1.
         11    1    3    3    0    0 -0.12552219740E+01  0.17310500148E+02  0.14574108266E+02  0.22663486704E+02  0.51100000000E-03 0. -1.
        -11    1    3    3    0    0 -0.28819486121E+01  0.33721803623E+01  0.46529015601E+01  0.64285862667E+01  0.51100000000E-03 0.  1.
         12    1    3    3    0    0 -0.39227997038E+01 -0.37869284658E+00  0.18275091049E+02  0.18695205767E+02  0.00000000000E+00 0. -1.
</event>
<event>
 7    1  0.2476315E-009  0.4778727E+02  0.7816164E-02  0.1312668E+00
        -11   -1    0    0    0    0  0.00000000000E+00  0.00000000000E+00  0.45593999997E+02  0.45594000000E+02  0.51100000000E-03 0. -1.
         11   -1    0    0    0    0 -0.00000000000E+00 -0.00000000000E+00 -0.45593999997E+02  0.45594000000E+02  0.51100000000E-03 0.  1.
    9900012    2    1    2    0    0 -0.42327585951E+02  0.47712958167E+01  0.83206763810E+01  0.47787268996E+02  0.19999990662E+02 0.  0.
         12    1    1    2    0    0  0.42327585951E+02 -0.47712958167E+01 -0.83206763810E+01  0.43400731004E+02  0.00000000000E+00 0. -1.
         11    1    3    3    0    0 -0.70699398608E+01  0.66732544496E+01 -0.23756180283E+01  0.10007993598E+02  0.51100000000E-03 0. -1.
        -11    1    3    3    0    0 -0.11186786657E+02  0.81039982906E+00 -0.20066246756E+00  0.11217896829E+02  0.51100000000E-03 0.  1.
         12    1    3    3    0    0 -0.24070859434E+02 -0.27123584620E+01  0.10896956877E+02  0.26561378569E+02  0.00000000000E+00 0. -1.
</event>
<event>
 7    1  0.2476315E-009  0.4778727E+02  0.7816164E-02  0.1312668E+00
        -11   -1    0    0    0    0  0.00000000000E+00  0.00000000000E+00  0.45593999997E+02  0.45594000000E+02  0.51100000000E-03 0.  1.
         11   -1    0    0    0    0 -0.00000000000E+00 -0.00000000000E+00 -0.45593999997E+02  0.45594000000E+02  0.51100000000E-03 0. -1.
    9900012    2    1    2    0    0  0.17621220019E+02  0.17993879237E+02  0.35345950386E+02  0.47787270817E+02  0.19999998963E+02 0.  0.
         12    1    1    2    0    0 -0.17621220019E+02 -0.17993879237E+02 -0.35345950386E+02  0.43400729183E+02  0.00000000000E+00 0. -1.
         11    1    3    3    0    0 -0.15012697921E+01  0.20857220103E+01  0.28966228122E+01  0.38722695245E+01  0.51100000000E-03 0. -1.
        -11    1    3    3    0    0  0.10606883432E+02  0.11949314484E+02  0.30340186569E+02  0.34290217470E+02  0.51100000000E-03 0.  1.
        -12    1    3    3    0    0  0.85156063789E+01  0.39588427427E+01  0.21091410041E+01  0.96247838228E+01  0.00000000000E+00 0.  1.
</event>
<event>
 7    1  0.2476315E-009  0.4778727E+02  0.7816164E-02  0.1312668E+00
        -11   -1    0    0    0    0  0.00000000000E+00  0.00000000000E+00  0.45593999997E+02  0.45594000000E+02  0.51100000000E-03 0. -1.
         11   -1    0    0    0    0 -0.00000000000E+00 -0.00000000000E+00 -0.45593999997E+02  0.45594000000E+02  0.51100000000E-03 0.  1.
    9900012    2    1    2    0    0 -0.21800994143E+02 -0.37498848141E+02  0.14752317444E+01  0.47787271132E+02  0.20000000400E+02 0.  0.
         12    1    1    2    0    0  0.21800994143E+02  0.37498848141E+02 -0.14752317444E+01  0.43400728868E+02  0.00000000000E+00 0. -1.
         11    1    3    3    0    0 -0.19672405880E+01  0.90842042358E+00  0.21293712298E+01  0.30380067960E+01  0.51100000000E-03 0. -1.
        -11    1    3    3    0    0 -0.20400923473E+02 -0.38469289116E+02  0.40533249208E+00  0.43545931823E+02  0.51100000000E-03 0.  1.
        -12    1    3    3    0    0  0.56716991809E+00  0.62020551435E-01 -0.10594719775E+01  0.12033325126E+01  0.00000000000E+00 0.  1.
</event>
<event>
 7    1  0.2476315E-009  0.4778726E+02  0.7816164E-02  0.1312668E+00
        -11   -1    0    0    0    0  0.00000000000E+00  0.00000000000E+00  0.45593999997E+02  0.45594000000E+02  0.51100000000E-03 0. -1.
         11   -1    0    0    0    0 -0.00000000000E+00 -0.00000000000E+00 -0.45593999997E+02  0.45594000000E+02  0.51100000000E-03 0.  1.
    9900012    2    1    2    0    0 -0.16501584586E+01  0.16257329462E+02 -0.40206970442E+02  0.47787259727E+02  0.19999948398E+02 0.  0.
         12    1    1    2    0    0  0.16501584586E+01 -0.16257329462E+02  0.40206970442E+02  0.43400740273E+02  0.00000000000E+00 0. -1.
         11    1    3    3    0    0  0.36223175577E+01  0.60354578302E+01 -0.32181519381E+02  0.32942345479E+02  0.51100000000E-03 0. -1.
        -11    1    3    3    0    0 -0.47759520526E+01  0.10677983129E+02 -0.79977084417E+01  0.14170122875E+02  0.51100000000E-03 0.  1.
         12    1    3    3    0    0 -0.49652396366E+00 -0.45611149691E+00 -0.27742618680E-01  0.67479137294E+00  0.00000000000E+00 0. -1.
</event>
<event>
 7    1  0.2476315E-009  0.4778728E+02  0.7816164E-02  0.1312668E+00
        -11   -1    0    0    0    0  0.00000000000E+00  0.00000000000E+00  0.45593999997E+02  0.45594000000E+02  0.51100000000E-03 0.  1.
         11   -1    0    0    0    0 -0.00000000000E+00 -0.00000000000E+00 -0.45593999997E+02  0.45594000000E+02  0.51100000000E-03 0. -1.
    9900012    2    1    2    0    0  0.32707798651E+02  0.28176685455E+02 -0.44605631958E+01  0.47787282035E+02  0.20000050111E+02 0.  0.
         12    1    1    2    0    0 -0.32707798651E+02 -0.28176685455E+02  0.44605631958E+01  0.43400717965E+02  0.00000000000E+00 0. -1.
         11    1    3    3    0    0  0.56727852421E+00 -0.18744410464E+01  0.13618270280E+01  0.23853526523E+01  0.51100000000E-03 0. -1.
        -11    1    3    3    0    0  0.17657427625E+02  0.21571586552E+02 -0.64274540482E+01  0.28608220191E+02  0.51100000000E-03 0.  1.
         12    1    3    3    0    0  0.14483092502E+02  0.84795399494E+01  0.60506382438E+00  0.16793709192E+02  0.00000000000E+00 0. -1.
</event>
<event>
 7    1  0.2476315E-009  0.4778728E+02  0.7816164E-02  0.1312668E+00
        -11   -1    0    0    0    0  0.00000000000E+00  0.00000000000E+00  0.45593999997E+02  0.45594000000E+02  0.51100000000E-03 0.  1.
         11   -1    0    0    0    0 -0.00000000000E+00 -0.00000000000E+00 -0.45593999997E+02  0.45594000000E+02  0.51100000000E-03 0. -1.
    9900012    2    1    2    0    0  0.23265257843E+02 -0.35062282397E+02  0.10629526888E+02  0.47787277527E+02  0.20000029555E+02 0.  0.
         12    1    1    2    0    0 -0.23265257843E+02  0.35062282397E+02 -0.10629526888E+02  0.43400722473E+02  0.00000000000E+00 0. -1.
         11    1    3    3    0    0  0.15572624198E+01 -0.41858733659E+01  0.39402837446E+01  0.59558742707E+01  0.51100000000E-03 0. -1.
        -11    1    3    3    0    0  0.10067805486E+02 -0.16811457363E+02  0.11798035464E+02  0.22873116251E+02  0.51100000000E-03 0.  1.
        -12    1    3    3    0    0  0.11640189937E+02 -0.14064951668E+02 -0.51087923207E+01  0.18958287005E+02  0.00000000000E+00 0.  1.
</event>
<event>
 7    1  0.2476315E-009  0.4778727E+02  0.7816164E-02  0.1312668E+00
        -11   -1    0    0    0    0  0.00000000000E+00  0.00000000000E+00  0.45593999997E+02  0.45594000000E+02  0.51100000000E-03 0.  1.
         11   -1    0    0    0    0 -0.00000000000E+00 -0.00000000000E+00 -0.45593999997E+02  0.45594000000E+02  0.51100000000E-03 0. -1.
    9900012    2    1    2    0    0  0.19439814387E+02 -0.29337297131E+02  0.25397632678E+02  0.47787272679E+02  0.20000007454E+02 0.  0.
         12    1    1    2    0    0 -0.19439814387E+02  0.29337297131E+02 -0.25397632678E+02  0.43400727321E+02  0.00000000000E+00 0. -1.
         11    1    3    3    0    0  0.10405016754E+02 -0.16497686134E+02  0.65026428247E+01  0.20560213651E+02  0.51100000000E-03 0. -1.
        -11    1    3    3    0    0  0.70874709824E+01 -0.14150307170E+02  0.19175644845E+02  0.24863000491E+02  0.51100000000E-03 0.  1.
        -12    1    3    3    0    0  0.19473266510E+01  0.13106961729E+01 -0.28065499222E+00  0.23640585374E+01  0.00000000000E+00 0.  1.
</event>
<event>
 7    1  0.2476315E-009  0.4778727E+02  0.7816164E-02  0.1312668E+00
        -11   -1    0    0    0    0  0.00000000000E+00  0.00000000000E+00  0.45593999997E+02  0.45594000000E+02  0.51100000000E-03 0.  1.
         11   -1    0    0    0    0 -0.00000000000E+00 -0.00000000000E+00 -0.45593999997E+02  0.45594000000E+02  0.51100000000E-03 0. -1.
    9900012    2    1    2    0    0  0.36187088069E+02 -0.15923919589E+02  0.17903809975E+02  0.47787274549E+02  0.20000015981E+02 0.  0.
         12    1    1    2    0    0 -0.36187088069E+02  0.15923919589E+02 -0.17903809975E+02  0.43400725451E+02  0.00000000000E+00 0. -1.
         11    1    3    3    0    0  0.15980084103E+01  0.51757262749E+00  0.59414649820E+01  0.61743435844E+01  0.51100000000E-03 0. -1.
        -11    1    3    3    0    0  0.24260213972E+02 -0.15067730478E+02  0.12510651320E+02  0.31178692731E+02  0.51100000000E-03 0.  1.
         12    1    3    3    0    0  0.10328865687E+02 -0.13737617386E+01 -0.54830632666E+00  0.10434238234E+02  0.00000000000E+00 0. -1.
</event>
<event>
 7    1  0.2476315E-009  0.4778727E+02  0.7816164E-02  0.1312668E+00
        -11   -1    0    0    0    0  0.00000000000E+00  0.00000000000E+00  0.45593999997E+02  0.45594000000E+02  0.51100000000E-03 0.  1.
         11   -1    0    0    0    0 -0.00000000000E+00 -0.00000000000E+00 -0.45593999997E+02  0.45594000000E+02  0.51100000000E-03 0. -1.
    9900012    2    1    2    0    0  0.74095894678E+01 -0.33110618636E+02  0.27063039992E+02  0.47787271710E+02  0.20000003033E+02 0.  0.
         12    1    1    2    0    0 -0.74095894678E+01  0.33110618636E+02 -0.27063039992E+02  0.43400728290E+02  0.00000000000E+00 0. -1.
         11    1    3    3    0    0 -0.49616020943E+01 -0.12027751570E+02  0.10742044784E+02  0.16872339185E+02  0.51100000000E-03 0. -1.
        -11    1    3    3    0    0  0.48055651320E+01 -0.10809950640E+02  0.24729301680E+01  0.12085688766E+02  0.51100000000E-03 0.  1.
         12    1    3    3    0    0  0.75656264302E+01 -0.10272916426E+02  0.13848065040E+02  0.18829243759E+02  0.00000000000E+00 0. -1.
</event>
<event>
 7    1  0.2476315E-009  0.4778727E+02  0.7816164E-02  0.1312668E+00
        -11   -1    0    0    0    0  0.00000000000E+00  0.00000000000E+00  0.45593999997E+02  0.45594000000E+02  0.51100000000E-03 0.  1.
         11   -1    0    0    0    0 -0.00000000000E+00 -0.00000000000E+00 -0.45593999997E+02  0.45594000000E+02  0.51100000000E-03 0. -1.
    9900012    2    1    2    0    0  0.15977369576E+02 -0.34236921187E+02  0.21358377910E+02  0.47787269385E+02  0.19999992435E+02 0.  0.
         12    1    1    2    0    0 -0.15977369576E+02  0.34236921187E+02 -0.21358377910E+02  0.43400730615E+02  0.00000000000E+00 0. -1.
         11    1    3    3    0    0 -0.18319027138E+01 -0.16240226074E+02  0.76397228960E+01  0.18040681159E+02  0.51100000000E-03 0. -1.
        -11    1    3    3    0    0  0.16747427729E+02 -0.14505681182E+02  0.13789864579E+02  0.26096963185E+02  0.51100000000E-03 0.  1.
        -12    1    3    3    0    0  0.10618445607E+01 -0.34910139314E+01 -0.71209565856E-01  0.36496250414E+01  0.00000000000E+00 0.  1.
</event>
<event>
 7    1  0.2476315E-009  0.4778727E+02  0.7816164E-02  0.1312668E+00
        -11   -1    0    0    0    0  0.00000000000E+00  0.00000000000E+00  0.45593999997E+02  0.45594000000E+02  0.51100000000E-03 0. -1.
         11   -1    0    0    0    0 -0.00000000000E+00 -0.00000000000E+00 -0.45593999997E+02  0.45594000000E+02  0.51100000000E-03 0.  1.
    9900012    2    1    2    0    0  0.38662270771E+02 -0.15812563383E+02  0.11781977490E+02  0.47787270335E+02  0.19999996766E+02 0.  0.
         12    1    1    2    0    0 -0.38662270771E+02  0.15812563383E+02 -0.11781977490E+02  0.43400729665E+02  0.00000000000E+00 0. -1.
         11    1    3    3    0    0  0.10570113128E+01 -0.56348838443E+01 -0.37820501441E+00  0.57456268716E+01  0.51100000000E-03 0. -1.
        -11    1    3    3    0    0  0.29126490718E+02 -0.78167014412E+01  0.47350817403E+01  0.30526615966E+02  0.51100000000E-03 0.  1.
        -12    1    3    3    0    0  0.84787687400E+01 -0.23609780973E+01  0.74251007640E+01  0.11515027498E+02  0.00000000000E+00 0.  1.
</event>
<event>
 7    1  0.2476315E-009  0.4778724E+02  0.7816164E-02  0.1312668E+00
        -11   -1    0    0    0    0  0.00000000000E+00  0.00000000000E+00  0.45593999997E+02  0.45594000000E+02  0.51100000000E-03 0. -1.
         11   -1    0    0    0    0 -0.00000000000E+00 -0.00000000000E+00 -0.45593999997E+02  0.45594000000E+02  0.51100000000E-03 0.  1.
    9900012    2    1    2    0    0 -0.28432929027E+01 -0.30376408024E+02 -0.30867708213E+02  0.47787240913E+02  0.19999862620E+02 0.  0.
         12    1    1    2    0    0  0.28432929027E+01  0.30376408024E+02  0.30867708213E+02  0.43400759087E+02  0.00000000000E+00 0. -1.
         11    1    3    3    0    0 -0.40742830578E+01 -0.18859682748E+02 -0.64578371781E+01  0.20346770679E+02  0.51100000000E-03 0. -1.
        -11    1    3    3    0    0  0.25796726115E+01 -0.73741051879E+01 -0.12305263953E+02  0.14575721571E+02  0.51100000000E-03 0.  1.
         12    1    3    3    0    0 -0.13486824564E+01 -0.41426200888E+01 -0.12104607082E+02  0.12864748664E+02  0.00000000000E+00 0. -1.
</event>
<event>
 7    1  0.2476315E-009  0.4778727E+02  0.7816164E-02  0.1312668E+00
        -11   -1    0    0    0    0  0.00000000000E+00  0.00000000000E+00  0.45593999997E+02  0.45594000000E+02  0.51100000000E-03 0.  1.
         11   -1    0    0    0    0 -0.00000000000E+00 -0.00000000000E+00 -0.45593999997E+02  0.45594000000E+02  0.51100000000E-03 0. -1.
    9900012    2    1    2    0    0 -0.17870866868E+01  0.34949759300E+02  0.25669910760E+02  0.47787266453E+02  0.19999979066E+02 0.  0.
         12    1    1    2    0    0  0.17870866868E+01 -0.34949759300E+02 -0.25669910760E+02  0.43400733547E+02  0.00000000000E+00 0. -1.
         11    1    3    3    0    0  0.33672033679E+01 -0.14691445612E+00  0.36662841413E+01  0.49800885578E+01  0.51100000000E-03 0. -1.
        -11    1    3    3    0    0  0.10662071931E+01  0.23686853019E+02  0.13667228277E+02  0.27367808330E+02  0.51100000000E-03 0.  1.
        -12    1    3    3    0    0 -0.62204972478E+01  0.11409820737E+02  0.83363983424E+01  0.15439369566E+02  0.00000000000E+00 0.  1.
</event>
<event>
 7    1  0.2476315E-009  0.4778727E+02  0.7816164E-02  0.1312668E+00
        -11   -1    0    0    0    0  0.00000000000E+00  0.00000000000E+00  0.45593999997E+02  0.45594000000E+02  0.51100000000E-03 0.  1.
         11   -1    0    0    0    0 -0.00000000000E+00 -0.00000000000E+00 -0.45593999997E+02  0.45594000000E+02  0.51100000000E-03 0. -1.
    9900012    2    1    2    0    0  0.18040016400E+02 -0.15962468468E+02  0.36102363804E+02  0.47787271163E+02  0.20000000541E+02 0.  0.
         12    1    1    2    0    0 -0.18040016400E+02  0.15962468468E+02 -0.36102363804E+02  0.43400728837E+02  0.00000000000E+00 0. -1.
         11    1    3    3    0    0 -0.77174044173E-01  0.14494220417E+01  0.10621733425E+01  0.17986085062E+01  0.51100000000E-03 0. -1.
        -11    1    3    3    0    0 -0.12743752397E+01 -0.51905951426E+01  0.13560434243E+02  0.14575722531E+02  0.51100000000E-03 0.  1.
        -12    1    3    3    0    0  0.19391565684E+02 -0.12221295367E+02  0.21479756219E+02  0.31412940126E+02  0.00000000000E+00 0.  1.
</event>
<event>
 7    1  0.2476315E-009  0.4778727E+02  0.7816164E-02  0.1312668E+00
        -11   -1    0    0    0    0  0.00000000000E+00  0.00000000000E+00  0.45593999997E+02  0.45594000000E+02  0.51100000000E-03 0.  1.
         11   -1    0    0    0    0 -0.00000000000E+00 -0.00000000000E+00 -0.45593999997E+02  0.45594000000E+02  0.51100000000E-03 0. -1.
    9900012    2    1    2    0    0 -0.17217706781E+02  0.36313253814E+02  0.16386622410E+02  0.47787271626E+02  0.20000002653E+02 0.  0.
         12    1    1    2    0    0  0.17217706781E+02 -0.36313253814E+02 -0.16386622410E+02  0.43400728374E+02  0.00000000000E+00 0. -1.
         11    1    3    3    0    0  0.11465510067E+01  0.44274266880E+01  0.64734257711E+01  0.79260284988E+01  0.51100000000E-03 0. -1.
        -11    1    3    3    0    0 -0.16901263301E+02  0.18348586488E+02  0.73435249865E+01  0.26004820452E+02  0.51100000000E-03 0.  1.
        -12    1    3    3    0    0 -0.14629944871E+01  0.13537240638E+02  0.25696716526E+01  0.13856422675E+02  0.00000000000E+00 0.  1.
</event>
<event>
 7    1  0.2476315E-009  0.4778727E+02  0.7816164E-02  0.1312668E+00
        -11   -1    0    0    0    0  0.00000000000E+00  0.00000000000E+00  0.45593999997E+02  0.45594000000E+02  0.51100000000E-03 0. -1.
         11   -1    0    0    0    0 -0.00000000000E+00 -0.00000000000E+00 -0.45593999997E+02  0.45594000000E+02  0.51100000000E-03 0.  1.
    9900012    2    1    2    0    0  0.37802091498E+02 -0.31043044294E+01 -0.21094752669E+02  0.47787269387E+02  0.19999992442E+02 0.  0.
         12    1    1    2    0    0 -0.37802091498E+02  0.31043044294E+01  0.21094752669E+02  0.43400730613E+02  0.00000000000E+00 0. -1.
         11    1    3    3    0    0  0.35985718073E+01  0.45468447229E+01  0.99178437868E+00  0.58827844174E+01  0.51100000000E-03 0. -1.
        -11    1    3    3    0    0  0.28118518570E+02 -0.37868845155E+01 -0.18300210120E+02  0.33762246246E+02  0.51100000000E-03 0.  1.
        -12    1    3    3    0    0  0.60850011206E+01 -0.38642646368E+01 -0.37863269274E+01  0.81422387230E+01  0.00000000000E+00 0.  1.
</event>
<event>
 7    1  0.2476315E-009  0.4778727E+02  0.7816164E-02  0.1312668E+00
        -11   -1    0    0    0    0  0.00000000000E+00  0.00000000000E+00  0.45593999997E+02  0.45594000000E+02  0.51100000000E-03 0.  1.
         11   -1    0    0    0    0 -0.00000000000E+00 -0.00000000000E+00 -0.45593999997E+02  0.45594000000E+02  0.51100000000E-03 0. -1.
    9900012    2    1    2    0    0  0.27892326943E+01 -0.19642194393E+02  0.38600876003E+02  0.47787271345E+02  0.20000001369E+02 0.  0.
         12    1    1    2    0    0 -0.27892326943E+01  0.19642194393E+02 -0.38600876003E+02  0.43400728655E+02  0.00000000000E+00 0. -1.
         11    1    3    3    0    0 -0.13254487212E+00  0.18129359306E+01  0.33443328402E+01  0.38064244691E+01  0.51100000000E-03 0. -1.
        -11    1    3    3    0    0  0.52651653537E+01 -0.31537787891E+01  0.30263171633E+01  0.68430170748E+01  0.51100000000E-03 0.  1.
        -12    1    3    3    0    0 -0.23433877873E+01 -0.18301351534E+02  0.32230226000E+02  0.37137829801E+02  0.00000000000E+00 0.  1.
</event>
<event>
 7    1  0.2476315E-009  0.4778727E+02  0.7816164E-02  0.1312668E+00
        -11   -1    0    0    0    0  0.00000000000E+00  0.00000000000E+00  0.45593999997E+02  0.45594000000E+02  0.51100000000E-03 0. -1.
         11   -1    0    0    0    0 -0.00000000000E+00 -0.00000000000E+00 -0.45593999997E+02  0.45594000000E+02  0.51100000000E-03 0.  1.
    9900012    2    1    2    0    0 -0.25485162321E+02  0.33748356833E+02  0.97559373020E+01  0.47787269590E+02  0.19999993368E+02 0.  0.
         12    1    1    2    0    0  0.25485162321E+02 -0.33748356833E+02 -0.97559373020E+01  0.43400730410E+02  0.00000000000E+00 0. -1.
         11    1    3    3    0    0 -0.47305261192E+01  0.40680173912E+01 -0.28092969856E-01  0.62391852301E+01  0.51100000000E-03 0. -1.
        -11    1    3    3    0    0 -0.20100917970E+02  0.23218452933E+02  0.11345680335E+01  0.30731591315E+02  0.51100000000E-03 0.  1.
        -12    1    3    3    0    0 -0.65371823201E+00  0.64618865088E+01  0.86494622384E+01  0.10816493045E+02  0.00000000000E+00 0.  1.
</event>
<event>
 7    1  0.2476315E-009  0.4778727E+02  0.7816164E-02  0.1312668E+00
        -11   -1    0    0    0    0  0.00000000000E+00  0.00000000000E+00  0.45593999997E+02  0.45594000000E+02  0.51100000000E-03 0.  1.
         11   -1    0    0    0    0 -0.00000000000E+00 -0.00000000000E+00 -0.45593999997E+02  0.45594000000E+02  0.51100000000E-03 0. -1.
    9900012    2    1    2    0    0 -0.42425240789E+00  0.26957843336E+02  0.34010555060E+02  0.47787272323E+02  0.20000005830E+02 0.  0.
         12    1    1    2    0    0  0.42425240789E+00 -0.26957843336E+02 -0.34010555060E+02  0.43400727677E+02  0.00000000000E+00 0. -1.
         11    1    3    3    0    0  0.78647233158E-01 -0.23498473918E+01  0.42837018151E+00  0.23898680770E+01  0.51100000000E-03 0. -1.
        -11    1    3    3    0    0 -0.42557808680E+01  0.12971557282E+02  0.12975150083E+02  0.18834210603E+02  0.51100000000E-03 0.  1.
         12    1    3    3    0    0  0.37528812270E+01  0.16336133445E+02  0.20607034795E+02  0.26563193643E+02  0.00000000000E+00 0. -1.
</event>
<event>
 7    1  0.2476315E-009  0.4778727E+02  0.7816164E-02  0.1312668E+00
        -11   -1    0    0    0    0  0.00000000000E+00  0.00000000000E+00  0.45593999997E+02  0.45594000000E+02  0.51100000000E-03 0.  1.
         11   -1    0    0    0    0 -0.00000000000E+00 -0.00000000000E+00 -0.45593999997E+02  0.45594000000E+02  0.51100000000E-03 0. -1.
    9900012    2    1    2    0    0  0.22544734667E+01 -0.32508052058E+02  0.28666478628E+02  0.47787273092E+02  0.20000009337E+02 0.  0.
         12    1    1    2    0    0 -0.22544734667E+01  0.32508052058E+02 -0.28666478628E+02  0.43400726908E+02  0.00000000000E+00 0. -1.
         11    1    3    3    0    0 -0.16617801383E+01  0.22628985817E+01  0.26785592629E+01  0.38803225645E+01  0.51100000000E-03 0. -1.
        -11    1    3    3    0    0  0.50926623025E+01 -0.23329219518E+02  0.17065677722E+02  0.29350043425E+02  0.51100000000E-03 0.  1.
         12    1    3    3    0    0 -0.11764086975E+01 -0.11441731121E+02  0.89222416432E+01  0.14556907103E+02  0.00000000000E+00 0. -1.
</event>
<event>
 7    1  0.2476315E-009  0.4778727E+02  0.7816164E-02  0.1312668E+00
        -11   -1    0    0    0    0  0.00000000000E+00  0.00000000000E+00  0.45593999997E+02  0.45594000000E+02  0.51100000000E-03 0.  1.
         11   -1    0    0    0    0 -0.00000000000E+00 -0.00000000000E+00 -0.45593999997E+02  0.45594000000E+02  0.51100000000E-03 0. -1.
    9900012    2    1    2    0    0 -0.19741565494E+02  0.37025141340E+02  0.11092011090E+02  0.47787271787E+02  0.20000003386E+02 0.  0.
         12    1    1    2    0    0  0.19741565494E+02 -0.37025141340E+02 -0.11092011090E+02  0.43400728213E+02  0.00000000000E+00 0. -1.
         11    1    3    3    0    0 -0.93387163819E+01  0.23243413499E+02  0.12694493198E+02  0.28082344143E+02  0.51100000000E-03 0. -1.
        -11    1    3    3    0    0 -0.85825006096E+01  0.58286187675E+01  0.23526891977E+01  0.10638010160E+02  0.51100000000E-03 0.  1.
         12    1    3    3    0    0 -0.18203485026E+01  0.79531090733E+01 -0.39551713057E+01  0.90669174839E+01  0.00000000000E+00 0. -1.
</event>
<event>
 7    1  0.2476315E-009  0.4778727E+02  0.7816164E-02  0.1312668E+00
        -11   -1    0    0    0    0  0.00000000000E+00  0.00000000000E+00  0.45593999997E+02  0.45594000000E+02  0.51100000000E-03 0.  1.
         11   -1    0    0    0    0 -0.00000000000E+00 -0.00000000000E+00 -0.45593999997E+02  0.45594000000E+02  0.51100000000E-03 0. -1.
    9900012    2    1    2    0    0 -0.28555687249E+02  0.39916437712E+01  0.32438607160E+02  0.47787265804E+02  0.19999976108E+02 0.  0.
         12    1    1    2    0    0  0.28555687249E+02 -0.39916437712E+01 -0.32438607160E+02  0.43400734196E+02  0.00000000000E+00 0. -1.
         11    1    3    3    0    0 -0.14800575838E+01 -0.25002220162E+01 -0.96604957483E+00  0.30618511760E+01  0.51100000000E-03 0. -1.
        -11    1    3    3    0    0 -0.19405056018E+02  0.37372116945E+01  0.15714782966E+02  0.25248313889E+02  0.51100000000E-03 0.  1.
         12    1    3    3    0    0 -0.76705736474E+01  0.27546540929E+01  0.17689873768E+02  0.19477100739E+02  0.00000000000E+00 0. -1.
</event>
<event>
 7    1  0.2476315E-009  0.4778727E+02  0.7816164E-02  0.1312668E+00
        -11   -1    0    0    0    0  0.00000000000E+00  0.00000000000E+00  0.45593999997E+02  0.45594000000E+02  0.51100000000E-03 0.  1.
         11   -1    0    0    0    0 -0.00000000000E+00 -0.00000000000E+00 -0.45593999997E+02  0.45594000000E+02  0.51100000000E-03 0. -1.
    9900012    2    1    2    0    0  0.99064931762E+01 -0.48352197305E+01  0.41977442926E+02  0.47787266464E+02  0.19999979114E+02 0.  0.
         12    1    1    2    0    0 -0.99064931762E+01  0.48352197305E+01 -0.41977442926E+02  0.43400733536E+02  0.00000000000E+00 0. -1.
         11    1    3    3    0    0  0.35694517549E+01  0.29785338347E+01  0.31860216040E+01  0.56359013083E+01  0.51100000000E-03 0. -1.
        -11    1    3    3    0    0  0.44037014788E+01  0.21007653304E+01  0.22175748317E+02  0.22706158094E+02  0.51100000000E-03 0.  1.
        -12    1    3    3    0    0  0.19333399424E+01 -0.99145188955E+01  0.16615673005E+02  0.19445207061E+02  0.00000000000E+00 0.  1.
</event>
<event>
 7    1  0.2476315E-009  0.4778727E+02  0.7816164E-02  0.1312668E+00
        -11   -1    0    0    0    0  0.00000000000E+00  0.00000000000E+00  0.45593999997E+02  0.45594000000E+02  0.51100000000E-03 0.  1.
         11   -1    0    0    0    0 -0.00000000000E+00 -0.00000000000E+00 -0.45593999997E+02  0.45594000000E+02  0.51100000000E-03 0. -1.
    9900012    2    1    2    0    0 -0.89368584334E+01 -0.34960039752E+02  0.24115383251E+02  0.47787268123E+02  0.19999986679E+02 0.  0.
         12    1    1    2    0    0  0.89368584334E+01  0.34960039752E+02 -0.24115383251E+02  0.43400731877E+02  0.00000000000E+00 0. -1.
         11    1    3    3    0    0 -0.20490941145E+01 -0.20699140360E+02  0.21519396320E+02  0.29928875966E+02  0.51100000000E-03 0. -1.
        -11    1    3    3    0    0 -0.72288213496E+01 -0.14475376034E+02  0.37732105033E+01  0.16614135162E+02  0.51100000000E-03 0.  1.
        -12    1    3    3    0    0  0.34105703066E+00  0.21447664221E+00 -0.11772235724E+01  0.12442569942E+01  0.00000000000E+00 0.  1.
</event>
<event>
 7    1  0.2476315E-009  0.4778728E+02  0.7816164E-02  0.1312668E+00
        -11   -1    0    0    0    0  0.00000000000E+00  0.00000000000E+00  0.45593999997E+02  0.45594000000E+02  0.51100000000E-03 0. -1.
         11   -1    0    0    0    0 -0.00000000000E+00 -0.00000000000E+00 -0.45593999997E+02  0.45594000000E+02  0.51100000000E-03 0.  1.
    9900012    2    1    2    0    0 -0.37955724133E+02  0.17221064844E+02 -0.12100432720E+02  0.47787279489E+02  0.20000038503E+02 0.  0.
         12    1    1    2    0    0  0.37955724133E+02 -0.17221064844E+02  0.12100432720E+02  0.43400720511E+02  0.00000000000E+00 0. -1.
         11    1    3    3    0    0 -0.16495331812E+01 -0.96906739119E+00 -0.61862441388E+01  0.64753122033E+01  0.51100000000E-03 0. -1.
        -11    1    3    3    0    0 -0.29239462376E+02  0.16566074218E+02 -0.42648303367E+01  0.33875798929E+02  0.51100000000E-03 0.  1.
         12    1    3    3    0    0 -0.70667285765E+01  0.16240580171E+01 -0.16493582447E+01  0.74361683572E+01  0.00000000000E+00 0. -1.
</event>
<event>
 7    1  0.2476315E-009  0.4778727E+02  0.7816164E-02  0.1312668E+00
        -11   -1    0    0    0    0  0.00000000000E+00  0.00000000000E+00  0.45593999997E+02  0.45594000000E+02  0.51100000000E-03 0.  1.
         11   -1    0    0    0    0 -0.00000000000E+00 -0.00000000000E+00 -0.45593999997E+02  0.45594000000E+02  0.51100000000E-03 0. -1.
    9900012    2    1    2    0    0 -0.29916520040E+02  0.29822458269E+02 -0.99622452499E+01  0.47787268222E+02  0.19999987130E+02 0.  0.
         12    1    1    2    0    0  0.29916520040E+02 -0.29822458269E+02  0.99622452499E+01  0.43400731778E+02  0.00000000000E+00 0. -1.
         11    1    3    3    0    0 -0.21465035630E+02  0.10774698346E+02 -0.49014572192E+01  0.24512571513E+02  0.51100000000E-03 0. -1.
        -11    1    3    3    0    0 -0.89960465463E+01  0.15359406620E+02 -0.69331898436E+01  0.19102600525E+02  0.51100000000E-03 0.  1.
         12    1    3    3    0    0  0.54456213703E+00  0.36883533030E+01  0.18724018129E+01  0.41720961827E+01  0.00000000000E+00 0. -1.
</event>
<event>
 7    1  0.2476315E-009  0.4778727E+02  0.7816164E-02  0.1312668E+00
        -11   -1    0    0    0    0  0.00000000000E+00  0.00000000000E+00  0.45593999997E+02  0.45594000000E+02  0.51100000000E-03 0. -1.
         11   -1    0    0    0    0 -0.00000000000E+00 -0.00000000000E+00 -0.45593999997E+02  0.45594000000E+02  0.51100000000E-03 0.  1.
    9900012    2    1    2    0    0  0.38826934910E+02 -0.39594928605E+01 -0.18984588429E+02  0.47787273554E+02  0.20000011443E+02 0.  0.
         12    1    1    2    0    0 -0.38826934910E+02  0.39594928605E+01  0.18984588429E+02  0.43400726446E+02  0.00000000000E+00 0. -1.
         11    1    3    3    0    0  0.32571973964E+02 -0.19747093632E+01 -0.12139057349E+02  0.34816514452E+02  0.51100000000E-03 0. -1.
        -11    1    3    3    0    0 -0.94374563577E+00 -0.68932607724E+00 -0.53871301579E+01  0.55124402822E+01  0.51100000000E-03 0.  1.
        -12    1    3    3    0    0  0.71987065816E+01 -0.12954574201E+01 -0.14584009221E+01  0.74583188202E+01  0.00000000000E+00 0.  1.
</event>
<event>
 7    1  0.2476315E-009  0.4778727E+02  0.7816164E-02  0.1312668E+00
        -11   -1    0    0    0    0  0.00000000000E+00  0.00000000000E+00  0.45593999997E+02  0.45594000000E+02  0.51100000000E-03 0. -1.
         11   -1    0    0    0    0 -0.00000000000E+00 -0.00000000000E+00 -0.45593999997E+02  0.45594000000E+02  0.51100000000E-03 0.  1.
    9900012    2    1    2    0    0 -0.19464108489E+02 -0.29420006473E+02 -0.25283096143E+02  0.47787271311E+02  0.20000001215E+02 0.  0.
         12    1    1    2    0    0  0.19464108489E+02  0.29420006473E+02  0.25283096143E+02  0.43400728689E+02  0.00000000000E+00 0. -1.
         11    1    3    3    0    0 -0.65658144286E+00  0.91664337916E+00 -0.27416436967E+01  0.29644467775E+01  0.51100000000E-03 0. -1.
        -11    1    3    3    0    0  0.16024717578E+01 -0.82590837379E+01 -0.71753513192E+01  0.11057397829E+02  0.51100000000E-03 0.  1.
        -12    1    3    3    0    0 -0.20409998804E+02 -0.22077566114E+02 -0.15366101127E+02  0.33765426705E+02  0.00000000000E+00 0.  1.
</event>
<event>
 7    1  0.2476315E-009  0.4778727E+02  0.7816164E-02  0.1312668E+00
        -11   -1    0    0    0    0  0.00000000000E+00  0.00000000000E+00  0.45593999997E+02  0.45594000000E+02  0.51100000000E-03 0.  1.
         11   -1    0    0    0    0 -0.00000000000E+00 -0.00000000000E+00 -0.45593999997E+02  0.45594000000E+02  0.51100000000E-03 0. -1.
    9900012    2    1    2    0    0  0.39512522448E+02 -0.17841967115E+02 -0.20119006453E+01  0.47787274604E+02  0.20000016229E+02 0.  0.
         12    1    1    2    0    0 -0.39512522448E+02  0.17841967115E+02  0.20119006453E+01  0.43400725396E+02  0.00000000000E+00 0. -1.
         11    1    3    3    0    0  0.10386693179E+02 -0.62325447933E+01 -0.66302400027E+01  0.13808985935E+02  0.51100000000E-03 0. -1.
        -11    1    3    3    0    0  0.14840760651E+02 -0.79495422310E+01 -0.34253574371E+01  0.17180700574E+02  0.51100000000E-03 0.  1.
         12    1    3    3    0    0  0.14285068617E+02 -0.36598800905E+01  0.80436967946E+01  0.16797588095E+02  0.00000000000E+00 0. -1.
</event>
<event>
 7    1  0.2476315E-009  0.4778727E+02  0.7816164E-02  0.1312668E+00
        -11   -1    0    0    0    0  0.00000000000E+00  0.00000000000E+00  0.45593999997E+02  0.45594000000E+02  0.51100000000E-03 0.  1.
         11   -1    0    0    0    0 -0.00000000000E+00 -0.00000000000E+00 -0.45593999997E+02  0.45594000000E+02  0.51100000000E-03 0. -1.
    9900012    2    1    2    0    0  0.14059442619E+02 -0.78129484903E+01  0.40310209385E+02  0.47787273375E+02  0.20000010627E+02 0.  0.
         12    1    1    2    0    0 -0.14059442619E+02  0.78129484903E+01 -0.40310209385E+02  0.43400726625E+02  0.00000000000E+00 0. -1.
         11    1    3    3    0    0  0.15452605339E+02 -0.29982208251E+01  0.24095444813E+02  0.28781292551E+02  0.51100000000E-03 0. -1.
        -11    1    3    3    0    0  0.45925476253E+00  0.20640631815E+01  0.72686534385E+01  0.75699798430E+01  0.51100000000E-03 0.  1.
         12    1    3    3    0    0 -0.18524174821E+01 -0.68787908467E+01  0.89461111334E+01  0.11436000982E+02  0.00000000000E+00 0. -1.
</event>
<event>
 7    1  0.2476315E-009  0.4778727E+02  0.7816164E-02  0.1312668E+00
        -11   -1    0    0    0    0  0.00000000000E+00  0.00000000000E+00  0.45593999997E+02  0.45594000000E+02  0.51100000000E-03 0.  1.
         11   -1    0    0    0    0 -0.00000000000E+00 -0.00000000000E+00 -0.45593999997E+02  0.45594000000E+02  0.51100000000E-03 0. -1.
    9900012    2    1    2    0    0 -0.25547918273E+02  0.13607982832E+02  0.32338057947E+02  0.47787270552E+02  0.19999997755E+02 0.  0.
         12    1    1    2    0    0  0.25547918273E+02 -0.13607982832E+02 -0.32338057947E+02  0.43400729448E+02  0.00000000000E+00 0. -1.
         11    1    3    3    0    0  0.32308062136E+00 -0.29743387141E+01  0.18359614502E+01  0.35102459432E+01  0.51100000000E-03 0. -1.
        -11    1    3    3    0    0 -0.13414934366E+02  0.31656124203E+01  0.13448128802E+02  0.19257043765E+02  0.51100000000E-03 0.  1.
         12    1    3    3    0    0 -0.12456064528E+02  0.13416709125E+02  0.17053967695E+02  0.25019980844E+02  0.00000000000E+00 0. -1.
</event>
<event>
 7    1  0.2476315E-009  0.4778733E+02  0.7816164E-02  0.1312668E+00
        -11   -1    0    0    0    0  0.00000000000E+00  0.00000000000E+00  0.45593999997E+02  0.45594000000E+02  0.51100000000E-03 0.  1.
         11   -1    0    0    0    0 -0.00000000000E+00 -0.00000000000E+00 -0.45593999997E+02  0.45594000000E+02  0.51100000000E-03 0. -1.
    9900012    2    1    2    0    0 -0.35715984544E+01 -0.32659698261E+02  0.28358530001E+02  0.47787326851E+02  0.20000254442E+02 0.  0.
         12    1    1    2    0    0  0.35715984544E+01  0.32659698261E+02 -0.28358530001E+02  0.43400673149E+02  0.00000000000E+00 0. -1.
         11    1    3    3    0    0 -0.68029082056E+01 -0.70991008783E+01  0.12550736669E+02  0.15943581296E+02  0.51100000000E-03 0.  1.
        -11    1    3    3    0    0  0.46983095457E+01 -0.93047185901E+01  0.10203646462E+02  0.14586510961E+02  0.51100000000E-03 0. -1.
         12    1    3    3    0    0 -0.14669997945E+01 -0.16255878792E+02  0.56041468702E+01  0.17257234595E+02  0.00000000000E+00 0. -1.
</event>
<event>
 7    1  0.2476315E-009  0.4778729E+02  0.7816164E-02  0.1312668E+00
        -11   -1    0    0    0    0  0.00000000000E+00  0.00000000000E+00  0.45593999997E+02  0.45594000000E+02  0.51100000000E-03 0. -1.
         11   -1    0    0    0    0 -0.00000000000E+00 -0.00000000000E+00 -0.45593999997E+02  0.45594000000E+02  0.51100000000E-03 0.  1.
    9900012    2    1    2    0    0  0.27563485278E+02 -0.14710963595E+02 -0.30124138470E+02  0.47787286997E+02  0.20000072735E+02 0.  0.
         12    1    1    2    0    0 -0.27563485278E+02  0.14710963595E+02  0.30124138470E+02  0.43400713003E+02  0.00000000000E+00 0. -1.
         11    1    3    3    0    0  0.21806742059E+02 -0.11828985543E+02 -0.15576141350E+02  0.29292918561E+02  0.51100000000E-03 0. -1.
        -11    1    3    3    0    0  0.37054570234E+01 -0.21823768075E+01 -0.15530408254E+02  0.16114799443E+02  0.51100000000E-03 0.  1.
        -12    1    3    3    0    0  0.20512861959E+01 -0.69960124402E+00  0.98241113385E+00  0.23795689933E+01  0.00000000000E+00 0.  1.
</event>
<event>
 7    1  0.2476315E-009  0.4778727E+02  0.7816164E-02  0.1312668E+00
        -11   -1    0    0    0    0  0.00000000000E+00  0.00000000000E+00  0.45593999997E+02  0.45594000000E+02  0.51100000000E-03 0. -1.
         11   -1    0    0    0    0 -0.00000000000E+00 -0.00000000000E+00 -0.45593999997E+02  0.45594000000E+02  0.51100000000E-03 0.  1.
    9900012    2    1    2    0    0  0.12838704555E+02  0.17944645870E+02 -0.37373527132E+02  0.47787272122E+02  0.20000004912E+02 0.  0.
         12    1    1    2    0    0 -0.12838704555E+02 -0.17944645870E+02  0.37373527132E+02  0.43400727878E+02  0.00000000000E+00 0. -1.
         11    1    3    3    0    0  0.92813653381E+01  0.72141159569E+01 -0.75443007888E+01  0.13967952113E+02  0.51100000000E-03 0. -1.
        -11    1    3    3    0    0  0.74879272025E+01  0.70912975051E+01 -0.16547504879E+02  0.19498088934E+02  0.51100000000E-03 0.  1.
         12    1    3    3    0    0 -0.39305879859E+01  0.36392324081E+01 -0.13281721465E+02  0.14321231075E+02  0.00000000000E+00 0. -1.
</event>
<event>
 7    1  0.2476315E-009  0.4778726E+02  0.7816164E-02  0.1312668E+00
        -11   -1    0    0    0    0  0.00000000000E+00  0.00000000000E+00  0.45593999997E+02  0.45594000000E+02  0.51100000000E-03 0. -1.
         11   -1    0    0    0    0 -0.00000000000E+00 -0.00000000000E+00 -0.45593999997E+02  0.45594000000E+02  0.51100000000E-03 0.  1.
    9900012    2    1    2    0    0 -0.36178963794E+02 -0.11958793237E+02  0.20777253661E+02  0.47787257764E+02  0.19999939451E+02 0.  0.
         12    1    1    2    0    0  0.36178963794E+02  0.11958793237E+02 -0.20777253661E+02  0.43400742236E+02  0.00000000000E+00 0. -1.
         11    1    3    3    0    0 -0.38922407167E+01  0.39808843539E+01  0.48657315530E+01  0.73940734270E+01  0.51100000000E-03 0. -1.
        -11    1    3    3    0    0 -0.14563847548E+02 -0.74233575837E+01  0.23677253949E+01  0.16517203669E+02  0.51100000000E-03 0.  1.
         12    1    3    3    0    0 -0.17722875529E+02 -0.85163200072E+01  0.13543796713E+02  0.23875980669E+02  0.00000000000E+00 0. -1.
</event>
<event>
 7    1  0.2476315E-009  0.4778728E+02  0.7816164E-02  0.1312668E+00
        -11   -1    0    0    0    0  0.00000000000E+00  0.00000000000E+00  0.45593999997E+02  0.45594000000E+02  0.51100000000E-03 0. -1.
         11   -1    0    0    0    0 -0.00000000000E+00 -0.00000000000E+00 -0.45593999997E+02  0.45594000000E+02  0.51100000000E-03 0.  1.
    9900012    2    1    2    0    0  0.16956564594E+02  0.10927395093E+02 -0.38427718212E+02  0.47787279116E+02  0.20000036799E+02 0.  0.
         12    1    1    2    0    0 -0.16956564594E+02 -0.10927395093E+02  0.38427718212E+02  0.43400720884E+02  0.00000000000E+00 0. -1.
         11    1    3    3    0    0 -0.29433528017E+01  0.30004410327E+01 -0.42297651521E+01  0.59629594674E+01  0.51100000000E-03 0. -1.
        -11    1    3    3    0    0  0.11042981138E+02  0.51935036457E+01 -0.28349185103E+02  0.30864157348E+02  0.51100000000E-03 0.  1.
         12    1    3    3    0    0  0.88569362572E+01  0.27334504150E+01 -0.58487679561E+01  0.10960162300E+02  0.00000000000E+00 0. -1.
</event>
<event>
 7    1  0.2476315E-009  0.4778727E+02  0.7816164E-02  0.1312668E+00
        -11   -1    0    0    0    0  0.00000000000E+00  0.00000000000E+00  0.45593999997E+02  0.45594000000E+02  0.51100000000E-03 0.  1.
         11   -1    0    0    0    0 -0.00000000000E+00 -0.00000000000E+00 -0.45593999997E+02  0.45594000000E+02  0.51100000000E-03 0. -1.
    9900012    2    1    2    0    0  0.22568368713E+02 -0.77683918536E+01  0.36248366211E+02  0.47787271535E+02  0.20000002235E+02 0.  0.
         12    1    1    2    0    0 -0.22568368713E+02  0.77683918536E+01 -0.36248366211E+02  0.43400728465E+02  0.00000000000E+00 0. -1.
         11    1    3    3    0    0  0.98877002578E+01 -0.77393784070E+01  0.62709214606E+01  0.14035278791E+02  0.51100000000E-03 0. -1.
        -11    1    3    3    0    0  0.56297334837E+01 -0.43315651567E+01  0.16188238442E+02  0.17678105666E+02  0.51100000000E-03 0.  1.
         12    1    3    3    0    0  0.70509349716E+01  0.43025517102E+01  0.13789206308E+02  0.16073887078E+02  0.00000000000E+00 0. -1.
</event>
<event>
 7    1  0.2476315E-009  0.4778727E+02  0.7816164E-02  0.1312668E+00
        -11   -1    0    0    0    0  0.00000000000E+00  0.00000000000E+00  0.45593999997E+02  0.45594000000E+02  0.51100000000E-03 0.  1.
         11   -1    0    0    0    0 -0.00000000000E+00 -0.00000000000E+00 -0.45593999997E+02  0.45594000000E+02  0.51100000000E-03 0. -1.
    9900012    2    1    2    0    0 -0.39362979746E+02 -0.12858083288E+02  0.12994187112E+02  0.47787269833E+02  0.19999994476E+02 0.  0.
         12    1    1    2    0    0  0.39362979746E+02  0.12858083288E+02 -0.12994187112E+02  0.43400730167E+02  0.00000000000E+00 0. -1.
         11    1    3    3    0    0 -0.33567649035E+01  0.15945896120E+01 -0.30537542974E+01  0.48099898355E+01  0.51100000000E-03 0. -1.
        -11    1    3    3    0    0 -0.27435516020E+02 -0.14563707579E+02  0.14450709465E+02  0.34258314641E+02  0.51100000000E-03 0.  1.
        -12    1    3    3    0    0 -0.85706988224E+01  0.11103467864E+00  0.15972319450E+01  0.87189653566E+01  0.00000000000E+00 0.  1.
</event>
<event>
 7    1  0.2476315E-009  0.4778727E+02  0.7816164E-02  0.1312668E+00
        -11   -1    0    0    0    0  0.00000000000E+00  0.00000000000E+00  0.45593999997E+02  0.45594000000E+02  0.51100000000E-03 0.  1.
         11   -1    0    0    0    0 -0.00000000000E+00 -0.00000000000E+00 -0.45593999997E+02  0.45594000000E+02  0.51100000000E-03 0. -1.
    9900012    2    1    2    0    0 -0.40397486151E+02 -0.13498203953E+02 -0.83345418273E+01  0.47787274376E+02  0.20000015188E+02 0.  0.
         12    1    1    2    0    0  0.40397486151E+02  0.13498203953E+02  0.83345418273E+01  0.43400725624E+02  0.00000000000E+00 0. -1.
         11    1    3    3    0    0 -0.13850906177E+02  0.50662002694E+00 -0.91434244421E+01  0.16604411359E+02  0.51100000000E-03 0. -1.
        -11    1    3    3    0    0 -0.24087625108E+02 -0.11210527173E+02 -0.18123819459E+01  0.26630327287E+02  0.51100000000E-03 0.  1.
         12    1    3    3    0    0 -0.24589548658E+01 -0.27942968070E+01  0.26212645606E+01  0.45525357301E+01  0.00000000000E+00 0. -1.
</event>
<event>
 7    1  0.2476315E-009  0.4778727E+02  0.7816164E-02  0.1312668E+00
        -11   -1    0    0    0    0  0.00000000000E+00  0.00000000000E+00  0.45593999997E+02  0.45594000000E+02  0.51100000000E-03 0.  1.
         11   -1    0    0    0    0 -0.00000000000E+00 -0.00000000000E+00 -0.45593999997E+02  0.45594000000E+02  0.51100000000E-03 0. -1.
    9900012    2    1    2    0    0 -0.73826082163E+01 -0.20375045151E+02  0.37602897341E+02  0.47787271234E+02  0.20000000863E+02 0.  0.
         12    1    1    2    0    0  0.73826082163E+01  0.20375045151E+02 -0.37602897341E+02  0.43400728766E+02  0.00000000000E+00 0. -1.
         11    1    3    3    0    0  0.25680888565E+00 -0.55182023715E+00 -0.19956025535E+01  0.20863571580E+01  0.51100000000E-03 0. -1.
        -11    1    3    3    0    0 -0.67478574332E+01 -0.10633481047E+02  0.16009061482E+02  0.20368960428E+02  0.51100000000E-03 0.  1.
         12    1    3    3    0    0 -0.89155966870E+00 -0.91897438670E+01  0.23589438412E+02  0.25331953647E+02  0.00000000000E+00 0. -1.
</event>
<event>
 7    1  0.2476315E-009  0.4778727E+02  0.7816164E-02  0.1312668E+00
        -11   -1    0    0    0    0  0.00000000000E+00  0.00000000000E+00  0.45593999997E+02  0.45594000000E+02  0.51100000000E-03 0. -1.
         11   -1    0    0    0    0 -0.00000000000E+00 -0.00000000000E+00 -0.45593999997E+02  0.45594000000E+02  0.51100000000E-03 0.  1.
    9900012    2    1    2    0    0 -0.63825517025E+01  0.42501057731E+02 -0.60453907210E+01  0.47787267017E+02  0.19999981636E+02 0.  0.
         12    1    1    2    0    0  0.63825517025E+01 -0.42501057731E+02  0.60453907210E+01  0.43400732983E+02  0.00000000000E+00 0. -1.
         11    1    3    3    0    0 -0.13817395709E+01  0.20930669731E+02  0.38469367811E+01  0.21326065331E+02  0.51100000000E-03 0. -1.
        -11    1    3    3    0    0 -0.13450906228E+01  0.10154822977E+02 -0.10220252665E+02  0.14470081661E+02  0.51100000000E-03 0.  1.
        -12    1    3    3    0    0 -0.36557215088E+01  0.11415565023E+02  0.32792516246E+00  0.11991120025E+02  0.00000000000E+00 0.  1.
</event>
<event>
 7    1  0.2476315E-009  0.4778727E+02  0.7816164E-02  0.1312668E+00
        -11   -1    0    0    0    0  0.00000000000E+00  0.00000000000E+00  0.45593999997E+02  0.45594000000E+02  0.51100000000E-03 0.  1.
         11   -1    0    0    0    0 -0.00000000000E+00 -0.00000000000E+00 -0.45593999997E+02  0.45594000000E+02  0.51100000000E-03 0. -1.
    9900012    2    1    2    0    0 -0.47046925963E+01 -0.41554773017E+02  0.11605600326E+02  0.47787271298E+02  0.20000001157E+02 0.  0.
         12    1    1    2    0    0  0.47046925963E+01  0.41554773017E+02 -0.11605600326E+02  0.43400728702E+02  0.00000000000E+00 0. -1.
         11    1    3    3    0    0 -0.19742958358E+01 -0.65463401010E+01 -0.48843276492E+01  0.84029203025E+01  0.51100000000E-03 0. -1.
        -11    1    3    3    0    0 -0.41981542605E+01 -0.30663583978E+02  0.12775459729E+02  0.33482715737E+02  0.51100000000E-03 0.  1.
         12    1    3    3    0    0  0.14677575000E+01 -0.43448489378E+01  0.37144682461E+01  0.59016352583E+01  0.00000000000E+00 0. -1.
</event>
<event>
 7    1  0.2476315E-009  0.4778727E+02  0.7816164E-02  0.1312668E+00
        -11   -1    0    0    0    0  0.00000000000E+00  0.00000000000E+00  0.45593999997E+02  0.45594000000E+02  0.51100000000E-03 0. -1.
         11   -1    0    0    0    0 -0.00000000000E+00 -0.00000000000E+00 -0.45593999997E+02  0.45594000000E+02  0.51100000000E-03 0.  1.
    9900012    2    1    2    0    0 -0.91264849121E+01 -0.39584358114E+02 -0.15277734502E+02  0.47787270678E+02  0.19999998329E+02 0.  0.
         12    1    1    2    0    0  0.91264849121E+01  0.39584358114E+02  0.15277734502E+02  0.43400729322E+02  0.00000000000E+00 0. -1.
         11    1    3    3    0    0  0.85424250181E-01 -0.11419386058E+00 -0.38158505305E+01  0.38185145112E+01  0.51100000000E-03 0. -1.
        -11    1    3    3    0    0 -0.77677084301E+01 -0.34881797309E+02 -0.14176425072E+02  0.38445391217E+02  0.51100000000E-03 0.  1.
         12    1    3    3    0    0 -0.14442007322E+01 -0.45883669451E+01  0.27145411011E+01  0.55233649496E+01  0.00000000000E+00 0. -1.
</event>
<event>
 7    1  0.2476315E-009  0.4778727E+02  0.7816164E-02  0.1312668E+00
        -11   -1    0    0    0    0  0.00000000000E+00  0.00000000000E+00  0.45593999997E+02  0.45594000000E+02  0.51100000000E-03 0. -1.
         11   -1    0    0    0    0 -0.00000000000E+00 -0.00000000000E+00 -0.45593999997E+02  0.45594000000E+02  0.51100000000E-03 0.  1.
    9900012    2    1    2    0    0 -0.15993027233E+02 -0.68623201488E+01 -0.39758712332E+02  0.47787267700E+02  0.19999984749E+02 0.  0.
         12    1    1    2    0    0  0.15993027233E+02  0.68623201488E+01  0.39758712332E+02  0.43400732300E+02  0.00000000000E+00 0. -1.
         11    1    3    3    0    0 -0.44555796823E+00  0.27806091431E+01 -0.17527290201E+02  0.17752076249E+02  0.51100000000E-03 0. -1.
        -11    1    3    3    0    0 -0.11742532407E+02 -0.24037058308E+01 -0.14033796407E+02  0.18455685057E+02  0.51100000000E-03 0.  1.
         12    1    3    3    0    0 -0.38049368579E+01 -0.72392234611E+01 -0.81976257246E+01  0.11579506394E+02  0.00000000000E+00 0. -1.
</event>
<event>
 7    1  0.2476315E-009  0.4778727E+02  0.7816164E-02  0.1312668E+00
        -11   -1    0    0    0    0  0.00000000000E+00  0.00000000000E+00  0.45593999997E+02  0.45594000000E+02  0.51100000000E-03 0.  1.
         11   -1    0    0    0    0 -0.00000000000E+00 -0.00000000000E+00 -0.45593999997E+02  0.45594000000E+02  0.51100000000E-03 0. -1.
    9900012    2    1    2    0    0 -0.36307281683E+02 -0.22083138168E+02 -0.88170053268E+01  0.47787271003E+02  0.19999999810E+02 0.  0.
         12    1    1    2    0    0  0.36307281683E+02  0.22083138168E+02  0.88170053268E+01  0.43400728997E+02  0.00000000000E+00 0. -1.
         11    1    3    3    0    0 -0.31614126908E+02 -0.15066905531E+02 -0.10719074134E+02  0.36624625773E+02  0.51100000000E-03 0. -1.
        -11    1    3    3    0    0 -0.86373568643E-01  0.11237908180E+01  0.13981438275E+01  0.17958765603E+01  0.51100000000E-03 0.  1.
        -12    1    3    3    0    0 -0.46067812065E+01 -0.81400234547E+01  0.50392497944E+00  0.93667686698E+01  0.00000000000E+00 0.  1.
</event>
<event>
 7    1  0.2476315E-009  0.4778728E+02  0.7816164E-02  0.1312668E+00
        -11   -1    0    0    0    0  0.00000000000E+00  0.00000000000E+00  0.45593999997E+02  0.45594000000E+02  0.51100000000E-03 0.  1.
         11   -1    0    0    0    0 -0.00000000000E+00 -0.00000000000E+00 -0.45593999997E+02  0.45594000000E+02  0.51100000000E-03 0. -1.
    9900012    2    1    2    0    0 -0.36488834803E+02  0.22443246371E+02  0.69633302733E+01  0.47787281787E+02  0.20000048978E+02 0.  0.
         12    1    1    2    0    0  0.36488834803E+02 -0.22443246371E+02 -0.69633302733E+01  0.43400718213E+02  0.00000000000E+00 0. -1.
         11    1    3    3    0    0 -0.75536797228E+01 -0.14018450254E+01 -0.11795186701E+01  0.77726772340E+01  0.51100000000E-03 0. -1.
        -11    1    3    3    0    0 -0.21080165835E+02  0.14134006412E+02  0.10205879711E+02  0.27355136808E+02  0.51100000000E-03 0.  1.
        -12    1    3    3    0    0 -0.78549892458E+01  0.97110849841E+01 -0.20630307676E+01  0.12659467744E+02  0.00000000000E+00 0.  1.
</event>
<event>
 7    1  0.2476315E-009  0.4778728E+02  0.7816164E-02  0.1312668E+00
        -11   -1    0    0    0    0  0.00000000000E+00  0.00000000000E+00  0.45593999997E+02  0.45594000000E+02  0.51100000000E-03 0.  1.
         11   -1    0    0    0    0 -0.00000000000E+00 -0.00000000000E+00 -0.45593999997E+02  0.45594000000E+02  0.51100000000E-03 0. -1.
    9900012    2    1    2    0    0  0.33288744924E+02  0.55723370425E+01  0.27284261184E+02  0.47787281261E+02  0.20000046582E+02 0.  0.
         12    1    1    2    0    0 -0.33288744924E+02 -0.55723370425E+01 -0.27284261184E+02  0.43400718739E+02  0.00000000000E+00 0. -1.
         11    1    3    3    0    0  0.19056311560E+02  0.93890317145E+01  0.11911893745E+02  0.24355495061E+02  0.51100000000E-03 0. -1.
        -11    1    3    3    0    0  0.14200670082E+02 -0.13637203486E+01  0.15381238002E+02  0.20978590198E+02  0.51100000000E-03 0.  1.
         12    1    3    3    0    0  0.31763281610E-01 -0.24529743234E+01 -0.88705635580E-02  0.24531960020E+01  0.00000000000E+00 0. -1.
</event>
<event>
 7    1  0.2476315E-009  0.4778727E+02  0.7816164E-02  0.1312668E+00
        -11   -1    0    0    0    0  0.00000000000E+00  0.00000000000E+00  0.45593999997E+02  0.45594000000E+02  0.51100000000E-03 0.  1.
         11   -1    0    0    0    0 -0.00000000000E+00 -0.00000000000E+00 -0.45593999997E+02  0.45594000000E+02  0.51100000000E-03 0. -1.
    9900012    2    1    2    0    0  0.42133083565E+02  0.68054239804E+01  0.78811557414E+01  0.47787272563E+02  0.20000006925E+02 0.  0.
         12    1    1    2    0    0 -0.42133083565E+02 -0.68054239804E+01 -0.78811557414E+01  0.43400727437E+02  0.00000000000E+00 0. -1.
         11    1    3    3    0    0  0.19368696698E+01 -0.25443930104E+01  0.43475231038E+01  0.53968840370E+01  0.51100000000E-03 0. -1.
        -11    1    3    3    0    0  0.59822330541E+01  0.22035502514E+01  0.38292713798E+01  0.74368047968E+01  0.51100000000E-03 0.  1.
         12    1    3    3    0    0  0.34213980841E+02  0.71462667393E+01 -0.29563874224E+00  0.34953583730E+02  0.00000000000E+00 0. -1.
</event>
<event>
 7    1  0.2476315E-009  0.4778728E+02  0.7816164E-02  0.1312668E+00
        -11   -1    0    0    0    0  0.00000000000E+00  0.00000000000E+00  0.45593999997E+02  0.45594000000E+02  0.51100000000E-03 0.  1.
         11   -1    0    0    0    0 -0.00000000000E+00 -0.00000000000E+00 -0.45593999997E+02  0.45594000000E+02  0.51100000000E-03 0. -1.
    9900012    2    1    2    0    0 -0.35843272222E+01  0.74118641047E+01  0.42612667520E+02  0.47787279219E+02  0.20000037270E+02 0.  0.
         12    1    1    2    0    0  0.35843272222E+01 -0.74118641047E+01 -0.42612667520E+02  0.43400720781E+02  0.00000000000E+00 0. -1.
         11    1    3    3    0    0 -0.13490021231E-01  0.37015223358E+01 -0.77641812513E+00  0.37820992781E+01  0.51100000000E-03 0. -1.
        -11    1    3    3    0    0 -0.34662529372E+00 -0.60904777333E+00  0.19624157724E+02  0.19636666085E+02  0.51100000000E-03 0.  1.
         12    1    3    3    0    0 -0.32242119072E+01  0.43193895422E+01  0.23764927921E+02  0.24368513856E+02  0.00000000000E+00 0. -1.
</event>
<event>
 7    1  0.2476315E-009  0.4778727E+02  0.7816164E-02  0.1312668E+00
        -11   -1    0    0    0    0  0.00000000000E+00  0.00000000000E+00  0.45593999997E+02  0.45594000000E+02  0.51100000000E-03 0. -1.
         11   -1    0    0    0    0 -0.00000000000E+00 -0.00000000000E+00 -0.45593999997E+02  0.45594000000E+02  0.51100000000E-03 0.  1.
    9900012    2    1    2    0    0  0.32734371909E+02 -0.68648783381E+01 -0.27657866841E+02  0.47787271238E+02  0.20000000882E+02 0.  0.
         12    1    1    2    0    0 -0.32734371909E+02  0.68648783381E+01  0.27657866841E+02  0.43400728762E+02  0.00000000000E+00 0. -1.
         11    1    3    3    0    0  0.15533832972E+02  0.40815658854E+01 -0.10030741795E+02  0.18936074781E+02  0.51100000000E-03 0. -1.
        -11    1    3    3    0    0  0.18023749744E+01 -0.65981285206E+01 -0.52732616985E+01  0.86366165091E+01  0.51100000000E-03 0.  1.
         12    1    3    3    0    0  0.15398163963E+02 -0.43483157029E+01 -0.12353863347E+02  0.20214579948E+02  0.00000000000E+00 0. -1.
</event>
<event>
 7    1  0.2476315E-009  0.4778727E+02  0.7816164E-02  0.1312668E+00
        -11   -1    0    0    0    0  0.00000000000E+00  0.00000000000E+00  0.45593999997E+02  0.45594000000E+02  0.51100000000E-03 0. -1.
         11   -1    0    0    0    0 -0.00000000000E+00 -0.00000000000E+00 -0.45593999997E+02  0.45594000000E+02  0.51100000000E-03 0.  1.
    9900012    2    1    2    0    0  0.48410862306E+01 -0.30581998997E+02  0.30412639621E+02  0.47787269278E+02  0.19999991944E+02 0.  0.
         12    1    1    2    0    0 -0.48410862306E+01  0.30581998997E+02 -0.30412639621E+02  0.43400730722E+02  0.00000000000E+00 0. -1.
         11    1    3    3    0    0  0.75512149529E+01 -0.18789168553E+02  0.15082552990E+02  0.25249497166E+02  0.51100000000E-03 0. -1.
        -11    1    3    3    0    0 -0.41035530240E+01 -0.68666914084E+01  0.15470653683E+02  0.17416421100E+02  0.51100000000E-03 0.  1.
         12    1    3    3    0    0  0.13934243017E+01 -0.49261390353E+01 -0.14056705200E+00  0.51213510108E+01  0.00000000000E+00 0. -1.
</event>
<event>
 7    1  0.2476315E-009  0.4778727E+02  0.7816164E-02  0.1312668E+00
        -11   -1    0    0    0    0  0.00000000000E+00  0.00000000000E+00  0.45593999997E+02  0.45594000000E+02  0.51100000000E-03 0.  1.
         11   -1    0    0    0    0 -0.00000000000E+00 -0.00000000000E+00 -0.45593999997E+02  0.45594000000E+02  0.51100000000E-03 0. -1.
    9900012    2    1    2    0    0  0.31967008538E+02 -0.13744452167E+02  0.25938844792E+02  0.47787271096E+02  0.20000000234E+02 0.  0.
         12    1    1    2    0    0 -0.31967008538E+02  0.13744452167E+02 -0.25938844792E+02  0.43400728904E+02  0.00000000000E+00 0. -1.
         11    1    3    3    0    0  0.11729610005E+02  0.38101670545E+01  0.80957768505E+01  0.14752719306E+02  0.51100000000E-03 0. -1.
        -11    1    3    3    0    0  0.19419250078E+02 -0.16841688217E+02  0.18585070287E+02  0.31719939682E+02  0.51100000000E-03 0.  1.
         12    1    3    3    0    0  0.81814845538E+00 -0.71293100457E+00 -0.74200234554E+00  0.13146121075E+01  0.00000000000E+00 0. -1.
</event>
<event>
 7    1  0.2476315E-009  0.4778727E+02  0.7816164E-02  0.1312668E+00
        -11   -1    0    0    0    0  0.00000000000E+00  0.00000000000E+00  0.45593999997E+02  0.45594000000E+02  0.51100000000E-03 0.  1.
         11   -1    0    0    0    0 -0.00000000000E+00 -0.00000000000E+00 -0.45593999997E+02  0.45594000000E+02  0.51100000000E-03 0. -1.
    9900012    2    1    2    0    0 -0.25006457243E+02 -0.81281530923E+01  0.34528733231E+02  0.47787271952E+02  0.20000004139E+02 0.  0.
         12    1    1    2    0    0  0.25006457243E+02  0.81281530923E+01 -0.34528733231E+02  0.43400728048E+02  0.00000000000E+00 0. -1.
         11    1    3    3    0    0 -0.65901308174E+00 -0.20150687461E+01  0.20421862322E+01  0.29436924366E+01  0.51100000000E-03 0. -1.
        -11    1    3    3    0    0 -0.15305800422E+02 -0.12538180868E+02  0.21823931169E+02  0.29457723571E+02  0.51100000000E-03 0.  1.
        -12    1    3    3    0    0 -0.90416437387E+01  0.64250965217E+01  0.10662615830E+02  0.15385855945E+02  0.00000000000E+00 0.  1.
</event>
<event>
 7    1  0.2476315E-009  0.4778727E+02  0.7816164E-02  0.1312668E+00
        -11   -1    0    0    0    0  0.00000000000E+00  0.00000000000E+00  0.45593999997E+02  0.45594000000E+02  0.51100000000E-03 0.  1.
         11   -1    0    0    0    0 -0.00000000000E+00 -0.00000000000E+00 -0.45593999997E+02  0.45594000000E+02  0.51100000000E-03 0. -1.
    9900012    2    1    2    0    0  0.31968336108E+02 -0.28690030707E+02 -0.62073033164E+01  0.47787274315E+02  0.20000014913E+02 0.  0.
         12    1    1    2    0    0 -0.31968336108E+02  0.28690030707E+02  0.62073033164E+01  0.43400725685E+02  0.00000000000E+00 0. -1.
         11    1    3    3    0    0  0.26980025217E+00  0.23605687101E+00  0.32172378886E+01  0.32371491957E+01  0.51100000000E-03 0. -1.
        -11    1    3    3    0    0  0.55725644853E+01 -0.21006510347E+01 -0.78629291799E-01  0.59558704266E+01  0.51100000000E-03 0.  1.
         12    1    3    3    0    0  0.26125971371E+02 -0.26825436543E+02 -0.93459119132E+01  0.38594254693E+02  0.00000000000E+00 0. -1.
</event>
<event>
 7    1  0.2476315E-009  0.4778724E+02  0.7816164E-02  0.1312668E+00
        -11   -1    0    0    0    0  0.00000000000E+00  0.00000000000E+00  0.45593999997E+02  0.45594000000E+02  0.51100000000E-03 0. -1.
         11   -1    0    0    0    0 -0.00000000000E+00 -0.00000000000E+00 -0.45593999997E+02  0.45594000000E+02  0.51100000000E-03 0.  1.
    9900012    2    1    2    0    0 -0.17091318790E+02 -0.27452878995E+02 -0.28945681311E+02  0.47787237223E+02  0.19999845794E+02 0.  0.
         12    1    1    2    0    0  0.17091318790E+02  0.27452878995E+02  0.28945681311E+02  0.43400762777E+02  0.00000000000E+00 0. -1.
         11    1    3    3    0    0  0.87796766106E+00 -0.12556707106E+02 -0.12100005429E+02  0.17460007222E+02  0.51100000000E-03 0. -1.
        -11    1    3    3    0    0 -0.12403437763E+02 -0.14093300723E+02 -0.93980133813E+01  0.20994976765E+02  0.51100000000E-03 0.  1.
         12    1    3    3    0    0 -0.55658486877E+01 -0.80287116588E+00 -0.74476625008E+01  0.93322532354E+01  0.00000000000E+00 0. -1.
</event>
<event>
 7    1  0.2476315E-009  0.4778727E+02  0.7816164E-02  0.1312668E+00
        -11   -1    0    0    0    0  0.00000000000E+00  0.00000000000E+00  0.45593999997E+02  0.45594000000E+02  0.51100000000E-03 0.  1.
         11   -1    0    0    0    0 -0.00000000000E+00 -0.00000000000E+00 -0.45593999997E+02  0.45594000000E+02  0.51100000000E-03 0. -1.
    9900012    2    1    2    0    0 -0.30455095535E+01  0.16161713371E+02  0.40164003042E+02  0.47787271344E+02  0.20000001365E+02 0.  0.
         12    1    1    2    0    0  0.30455095535E+01 -0.16161713371E+02 -0.40164003042E+02  0.43400728656E+02  0.00000000000E+00 0. -1.
         11    1    3    3    0    0  0.14896872123E+01  0.76546988532E+01  0.35207656909E+02  0.36060957943E+02  0.51100000000E-03 0.  1.
        -11    1    3    3    0    0 -0.33782501250E+01  0.84983222917E+01  0.33345646938E+01  0.97341346631E+01  0.51100000000E-03 0. -1.
         12    1    3    3    0    0 -0.11569466408E+01  0.86922257786E-02  0.16217814397E+01  0.19921787376E+01  0.00000000000E+00 0. -1.
</event>
<event>
 7    1  0.2476315E-009  0.4778726E+02  0.7816164E-02  0.1312668E+00
        -11   -1    0    0    0    0  0.00000000000E+00  0.00000000000E+00  0.45593999997E+02  0.45594000000E+02  0.51100000000E-03 0.  1.
         11   -1    0    0    0    0 -0.00000000000E+00 -0.00000000000E+00 -0.45593999997E+02  0.45594000000E+02  0.51100000000E-03 0. -1.
    9900012    2    1    2    0    0  0.28090720860E+02  0.58212352412E+01  0.32567607843E+02  0.47787257394E+02  0.19999937763E+02 0.  0.
         12    1    1    2    0    0 -0.28090720860E+02 -0.58212352412E+01 -0.32567607843E+02  0.43400742606E+02  0.00000000000E+00 0. -1.
         11    1    3    3    0    0  0.82490775404E+01 -0.38376755505E+01  0.17193894529E+01  0.92591216781E+01  0.51100000000E-03 0. -1.
        -11    1    3    3    0    0  0.17504727564E+02  0.67628701780E+01  0.21920284379E+02  0.28855688653E+02  0.51100000000E-03 0.  1.
         12    1    3    3    0    0  0.23369157557E+01  0.28960406137E+01  0.89279340109E+01  0.96724470630E+01  0.00000000000E+00 0. -1.
</event>
<event>
 7    1  0.2476315E-009  0.4778727E+02  0.7816164E-02  0.1312668E+00
        -11   -1    0    0    0    0  0.00000000000E+00  0.00000000000E+00  0.45593999997E+02  0.45594000000E+02  0.51100000000E-03 0.  1.
         11   -1    0    0    0    0 -0.00000000000E+00 -0.00000000000E+00 -0.45593999997E+02  0.45594000000E+02  0.51100000000E-03 0. -1.
    9900012    2    1    2    0    0  0.16933690060E+02  0.26866968421E+02  0.29581068895E+02  0.47787268576E+02  0.19999988745E+02 0.  0.
         12    1    1    2    0    0 -0.16933690060E+02 -0.26866968421E+02 -0.29581068895E+02  0.43400731424E+02  0.00000000000E+00 0. -1.
         11    1    3    3    0    0  0.54500382774E+01 -0.11697042448E+01  0.18658402984E+01  0.58781362289E+01  0.51100000000E-03 0. -1.
        -11    1    3    3    0    0  0.26113670301E+01  0.27707553190E+01  0.73105730728E+01  0.82426210466E+01  0.51100000000E-03 0.  1.
         12    1    3    3    0    0  0.88722847526E+01  0.25265917347E+02  0.20404655524E+02  0.33666511300E+02  0.00000000000E+00 0. -1.
</event>
<event>
 7    1  0.2476315E-009  0.4778727E+02  0.7816164E-02  0.1312668E+00
        -11   -1    0    0    0    0  0.00000000000E+00  0.00000000000E+00  0.45593999997E+02  0.45594000000E+02  0.51100000000E-03 0. -1.
         11   -1    0    0    0    0 -0.00000000000E+00 -0.00000000000E+00 -0.45593999997E+02  0.45594000000E+02  0.51100000000E-03 0.  1.
    9900012    2    1    2    0    0  0.40579850183E+02 -0.15390992847E+02 -0.12787107582E+00  0.47787271288E+02  0.20000001112E+02 0.  0.
         12    1    1    2    0    0 -0.40579850183E+02  0.15390992847E+02  0.12787107582E+00  0.43400728712E+02  0.00000000000E+00 0. -1.
         11    1    3    3    0    0  0.23768106149E+01 -0.20381048639E+01  0.14457140739E+01  0.34486503998E+01  0.51100000000E-03 0. -1.
        -11    1    3    3    0    0  0.30676778650E+02 -0.17470291841E+02  0.11984800479E+01  0.35322969864E+02  0.51100000000E-03 0.  1.
        -12    1    3    3    0    0  0.75262609183E+01  0.41174038575E+01 -0.27720651976E+01  0.90156510245E+01  0.00000000000E+00 0.  1.
</event>
<event>
 7    1  0.2476315E-009  0.4778727E+02  0.7816164E-02  0.1312668E+00
        -11   -1    0    0    0    0  0.00000000000E+00  0.00000000000E+00  0.45593999997E+02  0.45594000000E+02  0.51100000000E-03 0.  1.
         11   -1    0    0    0    0 -0.00000000000E+00 -0.00000000000E+00 -0.45593999997E+02  0.45594000000E+02  0.51100000000E-03 0. -1.
    9900012    2    1    2    0    0 -0.28152550999E+02  0.32395734751E+02 -0.64477433612E+01  0.47787272445E+02  0.20000006386E+02 0.  0.
         12    1    1    2    0    0  0.28152550999E+02 -0.32395734751E+02  0.64477433612E+01  0.43400727555E+02  0.00000000000E+00 0. -1.
         11    1    3    3    0    0 -0.10290398404E+02  0.53515955794E+01 -0.90821687809E+01  0.14731519426E+02  0.51100000000E-03 0. -1.
        -11    1    3    3    0    0 -0.13856035297E+02  0.16306014984E+02  0.53979842012E+00  0.21404841074E+02  0.51100000000E-03 0.  1.
         12    1    3    3    0    0 -0.40061172977E+01  0.10738124189E+02  0.20946269995E+01  0.11650911945E+02  0.00000000000E+00 0. -1.
</event>
<event>
 7    1  0.2476315E-009  0.4778727E+02  0.7816164E-02  0.1312668E+00
        -11   -1    0    0    0    0  0.00000000000E+00  0.00000000000E+00  0.45593999997E+02  0.45594000000E+02  0.51100000000E-03 0.  1.
         11   -1    0    0    0    0 -0.00000000000E+00 -0.00000000000E+00 -0.45593999997E+02  0.45594000000E+02  0.51100000000E-03 0. -1.
    9900012    2    1    2    0    0  0.21096652688E+01 -0.27543458683E+02  0.33474331303E+02  0.47787266597E+02  0.19999979722E+02 0.  0.
         12    1    1    2    0    0 -0.21096652688E+01  0.27543458683E+02 -0.33474331303E+02  0.43400733403E+02  0.00000000000E+00 0. -1.
         11    1    3    3    0    0 -0.15161201683E+01 -0.45080862836E+00  0.90905273738E+01  0.92271088094E+01  0.51100000000E-03 0. -1.
        -11    1    3    3    0    0  0.80066021536E+01 -0.18145310242E+02  0.14911890907E+02  0.24813755309E+02  0.51100000000E-03 0.  1.
        -12    1    3    3    0    0 -0.43808167165E+01 -0.89473398124E+01  0.94719130217E+01  0.13746402479E+02  0.00000000000E+00 0.  1.
</event>
<event>
 7    1  0.2476315E-009  0.4778729E+02  0.7816164E-02  0.1312668E+00
        -11   -1    0    0    0    0  0.00000000000E+00  0.00000000000E+00  0.45593999997E+02  0.45594000000E+02  0.51100000000E-03 0.  1.
         11   -1    0    0    0    0 -0.00000000000E+00 -0.00000000000E+00 -0.45593999997E+02  0.45594000000E+02  0.51100000000E-03 0. -1.
    9900012    2    1    2    0    0 -0.20002769259E+02 -0.38393953096E+02 -0.30684719178E+01  0.47787286500E+02  0.20000070469E+02 0.  0.
         12    1    1    2    0    0  0.20002769259E+02  0.38393953096E+02  0.30684719178E+01  0.43400713500E+02  0.00000000000E+00 0. -1.
         11    1    3    3    0    0 -0.12645119011E+02 -0.31798627122E+02 -0.24852210561E+01  0.34310756996E+02  0.51100000000E-03 0. -1.
        -11    1    3    3    0    0 -0.63590489452E+01 -0.81222303287E+01 -0.27188463542E+01  0.10667720223E+02  0.51100000000E-03 0.  1.
         12    1    3    3    0    0 -0.99860130291E+00  0.15269043550E+01  0.21355954926E+01  0.28088092814E+01  0.00000000000E+00 0. -1.
</event>
<event>
 7    1  0.2476315E-009  0.4778727E+02  0.7816164E-02  0.1312668E+00
        -11   -1    0    0    0    0  0.00000000000E+00  0.00000000000E+00  0.45593999997E+02  0.45594000000E+02  0.51100000000E-03 0. -1.
         11   -1    0    0    0    0 -0.00000000000E+00 -0.00000000000E+00 -0.45593999997E+02  0.45594000000E+02  0.51100000000E-03 0.  1.
    9900012    2    1    2    0    0  0.25832430062E+02  0.30564908208E+02 -0.16795702916E+02  0.47787266214E+02  0.19999977978E+02 0.  0.
         12    1    1    2    0    0 -0.25832430062E+02 -0.30564908208E+02  0.16795702916E+02  0.43400733786E+02  0.00000000000E+00 0. -1.
         11    1    3    3    0    0  0.86426826904E+01  0.51073616253E+01 -0.91231170352E+01  0.13565115980E+02  0.51100000000E-03 0. -1.
        -11    1    3    3    0    0  0.18179076511E+02  0.21905075140E+02 -0.35428523557E+01  0.28685587718E+02  0.51100000000E-03 0.  1.
        -12    1    3    3    0    0 -0.98932913935E+00  0.35524714430E+01 -0.41297335253E+01  0.55365625156E+01  0.00000000000E+00 0.  1.
</event>
<event>
 7    1  0.2476315E-009  0.4778727E+02  0.7816164E-02  0.1312668E+00
        -11   -1    0    0    0    0  0.00000000000E+00  0.00000000000E+00  0.45593999997E+02  0.45594000000E+02  0.51100000000E-03 0.  1.
         11   -1    0    0    0    0 -0.00000000000E+00 -0.00000000000E+00 -0.45593999997E+02  0.45594000000E+02  0.51100000000E-03 0. -1.
    9900012    2    1    2    0    0 -0.23139986800E+02  0.29423523993E+02  0.21964077687E+02  0.47787268878E+02  0.19999990123E+02 0.  0.
         12    1    1    2    0    0  0.23139986800E+02 -0.29423523993E+02 -0.21964077687E+02  0.43400731122E+02  0.00000000000E+00 0. -1.
         11    1    3    3    0    0 -0.15295690130E+02  0.78843292029E+01  0.33376562384E+01  0.17528854297E+02  0.51100000000E-03 0. -1.
        -11    1    3    3    0    0 -0.20965547782E+01  0.78531814235E+01  0.10680039910E+02  0.13421298490E+02  0.51100000000E-03 0.  1.
         12    1    3    3    0    0 -0.57477418919E+01  0.13686013366E+02  0.79463815384E+01  0.16837116091E+02  0.00000000000E+00 0. -1.
</event>
<event>
 7    1  0.2476315E-009  0.4778727E+02  0.7816164E-02  0.1312668E+00
        -11   -1    0    0    0    0  0.00000000000E+00  0.00000000000E+00  0.45593999997E+02  0.45594000000E+02  0.51100000000E-03 0. -1.
         11   -1    0    0    0    0 -0.00000000000E+00 -0.00000000000E+00 -0.45593999997E+02  0.45594000000E+02  0.51100000000E-03 0.  1.
    9900012    2    1    2    0    0 -0.17808658943E+02 -0.39332173089E+02  0.44108503985E+01  0.47787265277E+02  0.19999973702E+02 0.  0.
         12    1    1    2    0    0  0.17808658943E+02  0.39332173089E+02 -0.44108503985E+01  0.43400734723E+02  0.00000000000E+00 0. -1.
         11    1    3    3    0    0 -0.32742941235E+01 -0.28444015843E+01 -0.16762988963E+01  0.46499032926E+01  0.51100000000E-03 0. -1.
        -11    1    3    3    0    0 -0.45934993488E+01 -0.22728107102E+02  0.10713848621E+02  0.25543172106E+02  0.51100000000E-03 0.  1.
        -12    1    3    3    0    0 -0.99408654709E+01 -0.13759664404E+02 -0.46266993265E+01  0.17594189878E+02  0.00000000000E+00 0.  1.
</event>
<event>
 7    1  0.2476315E-009  0.4778727E+02  0.7816164E-02  0.1312668E+00
        -11   -1    0    0    0    0  0.00000000000E+00  0.00000000000E+00  0.45593999997E+02  0.45594000000E+02  0.51100000000E-03 0.  1.
         11   -1    0    0    0    0 -0.00000000000E+00 -0.00000000000E+00 -0.45593999997E+02  0.45594000000E+02  0.51100000000E-03 0. -1.
    9900012    2    1    2    0    0  0.42818372408E+02 -0.70622300520E+01  0.57886499419E+00  0.47787271969E+02  0.20000004214E+02 0.  0.
         12    1    1    2    0    0 -0.42818372408E+02  0.70622300520E+01 -0.57886499419E+00  0.43400728031E+02  0.00000000000E+00 0. -1.
         11    1    3    3    0    0  0.61687707211E+00 -0.78433378120E+00  0.25272288064E+01  0.27170944966E+01  0.51100000000E-03 0. -1.
        -11    1    3    3    0    0  0.30741458448E+02  0.18629424418E+01  0.49686212522E+00  0.30801861864E+02  0.51100000000E-03 0.  1.
        -12    1    3    3    0    0  0.11460036887E+02 -0.81408387125E+01 -0.24452259374E+01  0.14268315608E+02  0.00000000000E+00 0.  1.
</event>
<event>
 7    1  0.2476315E-009  0.4778727E+02  0.7816164E-02  0.1312668E+00
        -11   -1    0    0    0    0  0.00000000000E+00  0.00000000000E+00  0.45593999997E+02  0.45594000000E+02  0.51100000000E-03 0. -1.
         11   -1    0    0    0    0 -0.00000000000E+00 -0.00000000000E+00 -0.45593999997E+02  0.45594000000E+02  0.51100000000E-03 0.  1.
    9900012    2    1    2    0    0 -0.31312746371E+02 -0.11836572219E+02 -0.27623012972E+02  0.47787269904E+02  0.19999994800E+02 0.  0.
         12    1    1    2    0    0  0.31312746371E+02  0.11836572219E+02  0.27623012972E+02  0.43400730096E+02  0.00000000000E+00 0. -1.
         11    1    3    3    0    0 -0.89666300979E+00  0.23441972337E+01 -0.69923015776E+01  0.74291013478E+01  0.51100000000E-03 0. -1.
        -11    1    3    3    0    0 -0.32332785033E+01 -0.33592523403E+01 -0.61372534342E+01  0.77074344721E+01  0.51100000000E-03 0.  1.
         12    1    3    3    0    0 -0.27182804858E+02 -0.10821517112E+02 -0.14493457961E+02  0.32650734084E+02  0.00000000000E+00 0. -1.
</event>
<event>
 7    1  0.2476315E-009  0.4778726E+02  0.7816164E-02  0.1312668E+00
        -11   -1    0    0    0    0  0.00000000000E+00  0.00000000000E+00  0.45593999997E+02  0.45594000000E+02  0.51100000000E-03 0.  1.
         11   -1    0    0    0    0 -0.00000000000E+00 -0.00000000000E+00 -0.45593999997E+02  0.45594000000E+02  0.51100000000E-03 0. -1.
    9900012    2    1    2    0    0 -0.33363279505E+02 -0.24409929016E+02  0.13216319353E+02  0.47787260938E+02  0.19999953920E+02 0.  0.
         12    1    1    2    0    0  0.33363279505E+02  0.24409929016E+02 -0.13216319353E+02  0.43400739062E+02  0.00000000000E+00 0. -1.
         11    1    3    3    0    0 -0.16630586640E+02 -0.23080709652E+02  0.82866414581E+01  0.29630457252E+02  0.51100000000E-03 0. -1.
        -11    1    3    3    0    0 -0.51778189361E+01  0.72822450225E+00  0.35930975055E+01  0.63443257960E+01  0.51100000000E-03 0.  1.
         12    1    3    3    0    0 -0.11554873929E+02 -0.20574438666E+01  0.13365803892E+01  0.11812477890E+02  0.00000000000E+00 0. -1.
</event>
<event>
 7    1  0.2476315E-009  0.4778727E+02  0.7816164E-02  0.1312668E+00
        -11   -1    0    0    0    0  0.00000000000E+00  0.00000000000E+00  0.45593999997E+02  0.45594000000E+02  0.51100000000E-03 0.  1.
         11   -1    0    0    0    0 -0.00000000000E+00 -0.00000000000E+00 -0.45593999997E+02  0.45594000000E+02  0.51100000000E-03 0. -1.
    9900012    2    1    2    0    0 -0.35869220072E+02 -0.16834420337E+02  0.17709454369E+02  0.47787269237E+02  0.19999991761E+02 0.  0.
         12    1    1    2    0    0  0.35869220072E+02  0.16834420337E+02 -0.17709454369E+02  0.43400730763E+02  0.00000000000E+00 0. -1.
         11    1    3    3    0    0 -0.82783398423E+01 -0.69636165363E+01  0.10838032764E+02  0.15312929839E+02  0.51100000000E-03 0. -1.
        -11    1    3    3    0    0 -0.19667403938E+02 -0.12794536182E+01  0.19920734585E+01  0.19809395148E+02  0.51100000000E-03 0.  1.
        -12    1    3    3    0    0 -0.79234762919E+01 -0.85913501827E+01  0.48793481469E+01  0.12664944250E+02  0.00000000000E+00 0.  1.
</event>
<event>
 7    1  0.2476315E-009  0.4778723E+02  0.7816164E-02  0.1312668E+00
        -11   -1    0    0    0    0  0.00000000000E+00  0.00000000000E+00  0.45593999997E+02  0.45594000000E+02  0.51100000000E-03 0.  1.
         11   -1    0    0    0    0 -0.00000000000E+00 -0.00000000000E+00 -0.45593999997E+02  0.45594000000E+02  0.51100000000E-03 0. -1.
    9900012    2    1    2    0    0  0.17689144050E+01 -0.41255444743E+02 -0.13359863211E+02  0.47787231296E+02  0.19999818769E+02 0.  0.
         12    1    1    2    0    0 -0.17689144050E+01  0.41255444743E+02  0.13359863211E+02  0.43400768704E+02  0.00000000000E+00 0. -1.
         11    1    3    3    0    0 -0.10889500491E+00 -0.17097902312E+01 -0.17210739652E+01  0.24284432486E+01  0.51100000000E-03 0. -1.
        -11    1    3    3    0    0  0.57003903615E+00 -0.27626931346E+02 -0.16762623696E+02  0.32319619947E+02  0.51100000000E-03 0.  1.
        -12    1    3    3    0    0  0.13077703737E+01 -0.11918723166E+02  0.51238344507E+01  0.13039168100E+02  0.00000000000E+00 0.  1.
</event>
<event>
 7    1  0.2476315E-009  0.4778728E+02  0.7816164E-02  0.1312668E+00
        -11   -1    0    0    0    0  0.00000000000E+00  0.00000000000E+00  0.45593999997E+02  0.45594000000E+02  0.51100000000E-03 0.  1.
         11   -1    0    0    0    0 -0.00000000000E+00 -0.00000000000E+00 -0.45593999997E+02  0.45594000000E+02  0.51100000000E-03 0. -1.
    9900012    2    1    2    0    0  0.86472281323E+01  0.36916681301E+02  0.21118877741E+02  0.47787275240E+02  0.20000019130E+02 0.  0.
         12    1    1    2    0    0 -0.86472281323E+01 -0.36916681301E+02 -0.21118877741E+02  0.43400724760E+02  0.00000000000E+00 0. -1.
         11    1    3    3    0    0  0.13687495833E+01  0.34822090145E+02  0.19541302277E+02  0.39953897587E+02  0.51100000000E-03 0.  1.
        -11    1    3    3    0    0  0.47304081757E+01  0.10504916930E+01  0.48130194618E+00  0.48694913625E+01  0.51100000000E-03 0. -1.
         12    1    3    3    0    0  0.25480703734E+01  0.10440994637E+01  0.10962735173E+01  0.29638862904E+01  0.00000000000E+00 0. -1.
</event>
<event>
 7    1  0.2476315E-009  0.4778727E+02  0.7816164E-02  0.1312668E+00
        -11   -1    0    0    0    0  0.00000000000E+00  0.00000000000E+00  0.45593999997E+02  0.45594000000E+02  0.51100000000E-03 0. -1.
         11   -1    0    0    0    0 -0.00000000000E+00 -0.00000000000E+00 -0.45593999997E+02  0.45594000000E+02  0.51100000000E-03 0.  1.
    9900012    2    1    2    0    0  0.16427757075E+02 -0.17260356166E+02 -0.36274401824E+02  0.47787270453E+02  0.19999997305E+02 0.  0.
         12    1    1    2    0    0 -0.16427757075E+02  0.17260356166E+02  0.36274401824E+02  0.43400729547E+02  0.00000000000E+00 0. -1.
         11    1    3    3    0    0  0.10198365579E+02 -0.12015732114E+02 -0.25900636636E+02  0.30318764110E+02  0.51100000000E-03 0.  1.
        -11    1    3    3    0    0 -0.31488557281E+01 -0.85094030404E+00 -0.78560607439E+00  0.33550810665E+01  0.51100000000E-03 0. -1.
         12    1    3    3    0    0  0.93782472242E+01 -0.43936837474E+01 -0.95881591136E+01  0.14113425277E+02  0.00000000000E+00 0. -1.
</event>
<event>
 7    1  0.2476315E-009  0.4778727E+02  0.7816164E-02  0.1312668E+00
        -11   -1    0    0    0    0  0.00000000000E+00  0.00000000000E+00  0.45593999997E+02  0.45594000000E+02  0.51100000000E-03 0.  1.
         11   -1    0    0    0    0 -0.00000000000E+00 -0.00000000000E+00 -0.45593999997E+02  0.45594000000E+02  0.51100000000E-03 0. -1.
    9900012    2    1    2    0    0  0.21287149087E+01  0.42592106185E+02  0.80625314687E+01  0.47787270166E+02  0.19999995996E+02 0.  0.
         12    1    1    2    0    0 -0.21287149087E+01 -0.42592106185E+02 -0.80625314687E+01  0.43400729834E+02  0.00000000000E+00 0. -1.
         11    1    3    3    0    0  0.21323141705E+01  0.12046896874E+02 -0.63588280293E+01  0.13788008638E+02  0.51100000000E-03 0. -1.
        -11    1    3    3    0    0  0.19300697118E+01  0.15447616076E+02  0.73931432931E+01  0.17234052905E+02  0.51100000000E-03 0.  1.
         12    1    3    3    0    0 -0.19336689736E+01  0.15097593234E+02  0.70282162049E+01  0.16765208623E+02  0.00000000000E+00 0. -1.
</event>
<event>
 7    1  0.2476315E-009  0.4778727E+02  0.7816164E-02  0.1312668E+00
        -11   -1    0    0    0    0  0.00000000000E+00  0.00000000000E+00  0.45593999997E+02  0.45594000000E+02  0.51100000000E-03 0.  1.
         11   -1    0    0    0    0 -0.00000000000E+00 -0.00000000000E+00 -0.45593999997E+02  0.45594000000E+02  0.51100000000E-03 0. -1.
    9900012    2    1    2    0    0 -0.90529166902E+01  0.42290373248E+02 -0.36321488385E+01  0.47787268725E+02  0.19999989423E+02 0.  0.
         12    1    1    2    0    0  0.90529166902E+01 -0.42290373248E+02  0.36321488385E+01  0.43400731275E+02  0.00000000000E+00 0. -1.
         11    1    3    3    0    0 -0.64483616565E+01  0.25368855887E+02 -0.70930399458E+01  0.27119576564E+02  0.51100000000E-03 0. -1.
        -11    1    3    3    0    0  0.22724492585E+00 -0.34081488321E+00  0.31452200445E+01  0.31717825320E+01  0.51100000000E-03 0.  1.
        -12    1    3    3    0    0 -0.28317999596E+01  0.17262332244E+02  0.31567106276E+00  0.17495909629E+02  0.00000000000E+00 0.  1.
</event>
<event>
 7    1  0.2476315E-009  0.4778727E+02  0.7816164E-02  0.1312668E+00
        -11   -1    0    0    0    0  0.00000000000E+00  0.00000000000E+00  0.45593999997E+02  0.45594000000E+02  0.51100000000E-03 0.  1.
         11   -1    0    0    0    0 -0.00000000000E+00 -0.00000000000E+00 -0.45593999997E+02  0.45594000000E+02  0.51100000000E-03 0. -1.
    9900012    2    1    2    0    0  0.13620411304E+01  0.41652739942E+02  0.12116832902E+02  0.47787267975E+02  0.19999986007E+02 0.  0.
         12    1    1    2    0    0 -0.13620411304E+01 -0.41652739942E+02 -0.12116832902E+02  0.43400732025E+02  0.00000000000E+00 0. -1.
         11    1    3    3    0    0  0.89140666617E+01  0.15313988357E+02  0.44662505492E+01  0.18273648187E+02  0.51100000000E-03 0. -1.
        -11    1    3    3    0    0 -0.40334838654E+01  0.87017533091E+01  0.63068812122E+01  0.11478948281E+02  0.51100000000E-03 0.  1.
         12    1    3    3    0    0 -0.35185416659E+01  0.17636998275E+02  0.13437011410E+01  0.18034671507E+02  0.00000000000E+00 0. -1.
</event>
<event>
 7    1  0.2476315E-009  0.4778727E+02  0.7816164E-02  0.1312668E+00
        -11   -1    0    0    0    0  0.00000000000E+00  0.00000000000E+00  0.45593999997E+02  0.45594000000E+02  0.51100000000E-03 0.  1.
         11   -1    0    0    0    0 -0.00000000000E+00 -0.00000000000E+00 -0.45593999997E+02  0.45594000000E+02  0.51100000000E-03 0. -1.
    9900012    2    1    2    0    0  0.15648992386E+02  0.23867122252E+02  0.32696988686E+02  0.47787267790E+02  0.19999985160E+02 0.  0.
         12    1    1    2    0    0 -0.15648992386E+02 -0.23867122252E+02 -0.32696988686E+02  0.43400732210E+02  0.00000000000E+00 0. -1.
         11    1    3    3    0    0 -0.29321323603E+01  0.43783172001E+01  0.25408023862E+01  0.58500204025E+01  0.51100000000E-03 0. -1.
        -11    1    3    3    0    0  0.15929856011E+02  0.91979246044E+01  0.17233972125E+02  0.25206584954E+02  0.51100000000E-03 0.  1.
        -12    1    3    3    0    0  0.26512687349E+01  0.10290880448E+02  0.12922214175E+02  0.16730662434E+02  0.00000000000E+00 0.  1.
</event>
<event>
 7    1  0.2476315E-009  0.4778727E+02  0.7816164E-02  0.1312668E+00
        -11   -1    0    0    0    0  0.00000000000E+00  0.00000000000E+00  0.45593999997E+02  0.45594000000E+02  0.51100000000E-03 0.  1.
         11   -1    0    0    0    0 -0.00000000000E+00 -0.00000000000E+00 -0.45593999997E+02  0.45594000000E+02  0.51100000000E-03 0. -1.
    9900012    2    1    2    0    0  0.46666254407E+01  0.16370511568E+02  0.39923080424E+02  0.47787269678E+02  0.19999993768E+02 0.  0.
         12    1    1    2    0    0 -0.46666254407E+01 -0.16370511568E+02 -0.39923080424E+02  0.43400730322E+02  0.00000000000E+00 0. -1.
         11    1    3    3    0    0  0.49435564544E+01  0.11541431345E+02  0.99143318966E+01  0.15998042541E+02  0.51100000000E-03 0. -1.
        -11    1    3    3    0    0 -0.10274458486E+01  0.56371556978E+01  0.30138872983E+02  0.30678735865E+02  0.51100000000E-03 0.  1.
        -12    1    3    3    0    0  0.75051483481E+00 -0.80807547539E+00 -0.13012445554E+00  0.11104912720E+01  0.00000000000E+00 0.  1.
</event>
<event>
 7    1  0.2476315E-009  0.4778726E+02  0.7816164E-02  0.1312668E+00
        -11   -1    0    0    0    0  0.00000000000E+00  0.00000000000E+00  0.45593999997E+02  0.45594000000E+02  0.51100000000E-03 0. -1.
         11   -1    0    0    0    0 -0.00000000000E+00 -0.00000000000E+00 -0.45593999997E+02  0.45594000000E+02  0.51100000000E-03 0.  1.
    9900012    2    1    2    0    0  0.30491138314E+02 -0.30319479042E+02  0.58858802673E+01  0.47787263698E+02  0.19999966505E+02 0.  0.
         12    1    1    2    0    0 -0.30491138314E+02  0.30319479042E+02 -0.58858802673E+01  0.43400736302E+02  0.00000000000E+00 0. -1.
         11    1    3    3    0    0  0.15447135362E+02 -0.91189845109E+01  0.72866537544E+01  0.19361435706E+02  0.51100000000E-03 0. -1.
        -11    1    3    3    0    0  0.11133504488E+02 -0.21750484360E+02 -0.97293544434E+00  0.24453733779E+02  0.51100000000E-03 0.  1.
         12    1    3    3    0    0  0.39104984641E+01  0.54998982912E+00 -0.42783804272E+00  0.39720942134E+01  0.00000000000E+00 0. -1.
</event>
<event>
 7    1  0.2476315E-009  0.4778727E+02  0.7816164E-02  0.1312668E+00
        -11   -1    0    0    0    0  0.00000000000E+00  0.00000000000E+00  0.45593999997E+02  0.45594000000E+02  0.51100000000E-03 0. -1.
         11   -1    0    0    0    0 -0.00000000000E+00 -0.00000000000E+00 -0.45593999997E+02  0.45594000000E+02  0.51100000000E-03 0.  1.
    9900012    2    1    2    0    0  0.35673233817E+02  0.19932261570E+02 -0.14620144048E+02  0.47787271041E+02  0.19999999984E+02 0.  0.
         12    1    1    2    0    0 -0.35673233817E+02 -0.19932261570E+02  0.14620144048E+02  0.43400728959E+02  0.00000000000E+00 0. -1.
         11    1    3    3    0    0  0.29042893605E+02  0.67853217404E+01 -0.12020039420E+02  0.32156050877E+02  0.51100000000E-03 0. -1.
        -11    1    3    3    0    0  0.39464416160E+01  0.96611627298E+01 -0.37410165143E+01  0.11086373237E+02  0.51100000000E-03 0.  1.
         12    1    3    3    0    0  0.26838985954E+01  0.34857770996E+01  0.11409118870E+01  0.45448469273E+01  0.00000000000E+00 0. -1.
</event>
<event>
 7    1  0.2476315E-009  0.4778727E+02  0.7816164E-02  0.1312668E+00
        -11   -1    0    0    0    0  0.00000000000E+00  0.00000000000E+00  0.45593999997E+02  0.45594000000E+02  0.51100000000E-03 0.  1.
         11   -1    0    0    0    0 -0.00000000000E+00 -0.00000000000E+00 -0.45593999997E+02  0.45594000000E+02  0.51100000000E-03 0. -1.
    9900012    2    1    2    0    0 -0.15561688948E+02  0.19940212189E+02  0.35268193140E+02  0.47787266453E+02  0.19999979066E+02 0.  0.
         12    1    1    2    0    0  0.15561688948E+02 -0.19940212189E+02 -0.35268193140E+02  0.43400733547E+02  0.00000000000E+00 0. -1.
         11    1    3    3    0    0 -0.24439498038E+00  0.11908449442E+02  0.24344782859E+02  0.27102386421E+02  0.51100000000E-03 0. -1.
        -11    1    3    3    0    0 -0.56334048176E+01  0.21651223623E+01  0.23241550836E+01  0.64672020068E+01  0.51100000000E-03 0.  1.
         12    1    3    3    0    0 -0.96838891500E+01  0.58666403852E+01  0.85992551969E+01  0.14217678025E+02  0.00000000000E+00 0. -1.
</event>
<event>
 7    1  0.2476315E-009  0.4778727E+02  0.7816164E-02  0.1312668E+00
        -11   -1    0    0    0    0  0.00000000000E+00  0.00000000000E+00  0.45593999997E+02  0.45594000000E+02  0.51100000000E-03 0. -1.
         11   -1    0    0    0    0 -0.00000000000E+00 -0.00000000000E+00 -0.45593999997E+02  0.45594000000E+02  0.51100000000E-03 0.  1.
    9900012    2    1    2    0    0 -0.27227321673E+02 -0.42480078324E+01 -0.33529847496E+02  0.47787270868E+02  0.19999999197E+02 0.  0.
         12    1    1    2    0    0  0.27227321673E+02  0.42480078324E+01  0.33529847496E+02  0.43400729132E+02  0.00000000000E+00 0. -1.
         11    1    3    3    0    0 -0.96898290009E+01  0.26235233503E+01 -0.12755335010E+01  0.10119419292E+02  0.51100000000E-03 0. -1.
        -11    1    3    3    0    0 -0.50917174147E+01 -0.15223422865E+01 -0.13698899079E+02  0.14693636327E+02  0.51100000000E-03 0.  1.
         12    1    3    3    0    0 -0.12445775257E+02 -0.53491888962E+01 -0.18555414916E+02  0.22974215249E+02  0.00000000000E+00 0. -1.
</event>
<event>
 7    1  0.2476315E-009  0.4778727E+02  0.7816164E-02  0.1312668E+00
        -11   -1    0    0    0    0  0.00000000000E+00  0.00000000000E+00  0.45593999997E+02  0.45594000000E+02  0.51100000000E-03 0.  1.
         11   -1    0    0    0    0 -0.00000000000E+00 -0.00000000000E+00 -0.45593999997E+02  0.45594000000E+02  0.51100000000E-03 0. -1.
    9900012    2    1    2    0    0 -0.93240263823E+01 -0.24292609382E+02  0.34735501012E+02  0.47787269947E+02  0.19999994997E+02 0.  0.
         12    1    1    2    0    0  0.93240263823E+01  0.24292609382E+02 -0.34735501012E+02  0.43400730053E+02  0.00000000000E+00 0. -1.
         11    1    3    3    0    0  0.21876770894E+01 -0.99967647588E+01  0.45389668756E+01  0.11194795990E+02  0.51100000000E-03 0. -1.
        -11    1    3    3    0    0  0.13896709622E+01 -0.17947187812E+01  0.63006351416E+01  0.66970295158E+01  0.51100000000E-03 0.  1.
         12    1    3    3    0    0 -0.12901374434E+02 -0.12501125842E+02  0.23895898995E+02  0.29895444442E+02  0.00000000000E+00 0. -1.
</event>
<event>
 7    1  0.2476315E-009  0.4778727E+02  0.7816164E-02  0.1312668E+00
        -11   -1    0    0    0    0  0.00000000000E+00  0.00000000000E+00  0.45593999997E+02  0.45594000000E+02  0.51100000000E-03 0. -1.
         11   -1    0    0    0    0 -0.00000000000E+00 -0.00000000000E+00 -0.45593999997E+02  0.45594000000E+02  0.51100000000E-03 0.  1.
    9900012    2    1    2    0    0 -0.43175320419E+02  0.25575758582E+01 -0.36019056152E+01  0.47787271762E+02  0.20000003271E+02 0.  0.
         12    1    1    2    0    0  0.43175320419E+02 -0.25575758582E+01  0.36019056152E+01  0.43400728238E+02  0.00000000000E+00 0. -1.
         11    1    3    3    0    0 -0.14501662283E+02 -0.57772112920E+01  0.12831390845E+00  0.15610600372E+02  0.51100000000E-03 0. -1.
        -11    1    3    3    0    0 -0.10929407694E+02  0.82585637765E+01  0.12248409982E+01  0.13753401904E+02  0.51100000000E-03 0.  1.
        -12    1    3    3    0    0 -0.17744250442E+02  0.76223373718E-01 -0.49550605218E+01  0.18423269486E+02  0.00000000000E+00 0.  1.
</event>
<event>
 7    1  0.2476315E-009  0.4778726E+02  0.7816164E-02  0.1312668E+00
        -11   -1    0    0    0    0  0.00000000000E+00  0.00000000000E+00  0.45593999997E+02  0.45594000000E+02  0.51100000000E-03 0. -1.
         11   -1    0    0    0    0 -0.00000000000E+00 -0.00000000000E+00 -0.45593999997E+02  0.45594000000E+02  0.51100000000E-03 0.  1.
    9900012    2    1    2    0    0 -0.27500962828E+02 -0.28690332446E+02 -0.17440929379E+02  0.47787260952E+02  0.19999953985E+02 0.  0.
         12    1    1    2    0    0  0.27500962828E+02  0.28690332446E+02  0.17440929379E+02  0.43400739048E+02  0.00000000000E+00 0. -1.
         11    1    3    3    0    0 -0.56680665840E+01 -0.69131570065E+01  0.15261685317E+01  0.90690633058E+01  0.51100000000E-03 0. -1.
        -11    1    3    3    0    0 -0.14089025893E+02 -0.14954593151E+02 -0.19577018532E+02  0.28379572967E+02  0.51100000000E-03 0.  1.
        -12    1    3    3    0    0 -0.77438703512E+01 -0.68225822881E+01  0.60992062151E+00  0.10338624679E+02  0.00000000000E+00 0.  1.
</event>
<event>
 7    1  0.2476315E-009  0.4778727E+02  0.7816164E-02  0.1312668E+00
        -11   -1    0    0    0    0  0.00000000000E+00  0.00000000000E+00  0.45593999997E+02  0.45594000000E+02  0.51100000000E-03 0.  1.
         11   -1    0    0    0    0 -0.00000000000E+00 -0.00000000000E+00 -0.45593999997E+02  0.45594000000E+02  0.51100000000E-03 0. -1.
    9900012    2    1    2    0    0 -0.11316582807E+02 -0.20269136129E+02  0.36670427745E+02  0.47787271932E+02  0.20000004049E+02 0.  0.
         12    1    1    2    0    0  0.11316582807E+02  0.20269136129E+02 -0.36670427745E+02  0.43400728068E+02  0.00000000000E+00 0. -1.
         11    1    3    3    0    0  0.22190571080E+01  0.17622913948E+01  0.34715468310E+00  0.28548908987E+01  0.51100000000E-03 0. -1.
        -11    1    3    3    0    0 -0.96183528345E+01 -0.15091341161E+02  0.29177958743E+02  0.34228855750E+02  0.51100000000E-03 0.  1.
        -12    1    3    3    0    0 -0.39172870807E+01 -0.69400863625E+01  0.71453143185E+01  0.10703525284E+02  0.00000000000E+00 0.  1.
</event>
<event>
 7    1  0.2476315E-009  0.4778727E+02  0.7816164E-02  0.1312668E+00
        -11   -1    0    0    0    0  0.00000000000E+00  0.00000000000E+00  0.45593999997E+02  0.45594000000E+02  0.51100000000E-03 0.  1.
         11   -1    0    0    0    0 -0.00000000000E+00 -0.00000000000E+00 -0.45593999997E+02  0.45594000000E+02  0.51100000000E-03 0. -1.
    9900012    2    1    2    0    0  0.27567070856E+01 -0.43196571586E+02  0.31748693320E+01  0.47787273900E+02  0.20000013021E+02 0.  0.
         12    1    1    2    0    0 -0.27567070856E+01  0.43196571586E+02 -0.31748693320E+01  0.43400726100E+02  0.00000000000E+00 0. -1.
         11    1    3    3    0    0  0.31105584031E+01 -0.21173324441E+01 -0.40784546583E+01  0.55490956848E+01  0.51100000000E-03 0. -1.
        -11    1    3    3    0    0 -0.33872924503E+01 -0.19073160262E+02  0.41086698484E+01  0.19802534199E+02  0.51100000000E-03 0.  1.
         12    1    3    3    0    0  0.30334411327E+01 -0.22006078880E+02  0.31446541418E+01  0.22435644017E+02  0.00000000000E+00 0. -1.
</event>
<event>
 7    1  0.2476315E-009  0.4778727E+02  0.7816164E-02  0.1312668E+00
        -11   -1    0    0    0    0  0.00000000000E+00  0.00000000000E+00  0.45593999997E+02  0.45594000000E+02  0.51100000000E-03 0.  1.
         11   -1    0    0    0    0 -0.00000000000E+00 -0.00000000000E+00 -0.45593999997E+02  0.45594000000E+02  0.51100000000E-03 0. -1.
    9900012    2    1    2    0    0  0.12925411805E+02 -0.38853968618E+02 -0.14384924554E+02  0.47787271871E+02  0.20000003769E+02 0.  0.
         12    1    1    2    0    0 -0.12925411805E+02  0.38853968618E+02  0.14384924554E+02  0.43400728129E+02  0.00000000000E+00 0. -1.
         11    1    3    3    0    0 -0.34203484550E+01 -0.15443368516E+02 -0.88630258226E+01  0.18131454483E+02  0.51100000000E-03 0. -1.
        -11    1    3    3    0    0  0.52517315285E+00 -0.42729904668E+01 -0.93469280198E+00  0.44054404167E+01  0.51100000000E-03 0.  1.
         12    1    3    3    0    0  0.15820587107E+02 -0.19137609636E+02 -0.45872059291E+01  0.25250376972E+02  0.00000000000E+00 0. -1.
</event>
<event>
 7    1  0.2476315E-009  0.4778727E+02  0.7816164E-02  0.1312668E+00
        -11   -1    0    0    0    0  0.00000000000E+00  0.00000000000E+00  0.45593999997E+02  0.45594000000E+02  0.51100000000E-03 0.  1.
         11   -1    0    0    0    0 -0.00000000000E+00 -0.00000000000E+00 -0.45593999997E+02  0.45594000000E+02  0.51100000000E-03 0. -1.
    9900012    2    1    2    0    0 -0.42110033398E+02  0.72367763721E+01  0.76156002657E+01  0.47787271752E+02  0.20000003227E+02 0.  0.
         12    1    1    2    0    0  0.42110033398E+02 -0.72367763721E+01 -0.76156002657E+01  0.43400728248E+02  0.00000000000E+00 0. -1.
         11    1    3    3    0    0 -0.23592199856E+01  0.28141221552E+01  0.16626189082E+01  0.40310673946E+01  0.51100000000E-03 0. -1.
        -11    1    3    3    0    0  0.10703397522E+01 -0.16900608973E+01 -0.25141213077E+00  0.20162195670E+01  0.51100000000E-03 0.  1.
        -12    1    3    3    0    0 -0.40821153165E+02  0.61127151143E+01  0.62043934883E+01  0.41739984791E+02  0.00000000000E+00 0.  1.
</event>
<event>
 7    1  0.2476315E-009  0.4778725E+02  0.7816164E-02  0.1312668E+00
        -11   -1    0    0    0    0  0.00000000000E+00  0.00000000000E+00  0.45593999997E+02  0.45594000000E+02  0.51100000000E-03 0.  1.
         11   -1    0    0    0    0 -0.00000000000E+00 -0.00000000000E+00 -0.45593999997E+02  0.45594000000E+02  0.51100000000E-03 0. -1.
    9900012    2    1    2    0    0 -0.39148095944E+02  0.95848284529E+00 -0.18711838098E+02  0.47787251270E+02  0.19999909838E+02 0.  0.
         12    1    1    2    0    0  0.39148095944E+02 -0.95848284529E+00  0.18711838098E+02  0.43400748730E+02  0.00000000000E+00 0. -1.
         11    1    3    3    0    0  0.10602470330E+01 -0.13415382888E+01 -0.90115271960E+00  0.19328541684E+01  0.51100000000E-03 0. -1.
        -11    1    3    3    0    0 -0.37536126544E+02  0.45234341229E+01 -0.13127257925E+02  0.40021833455E+02  0.51100000000E-03 0.  1.
        -12    1    3    3    0    0 -0.26722164322E+01 -0.22234129888E+01 -0.46834274525E+01  0.58325636458E+01  0.00000000000E+00 0.  1.
</event>
<event>
 7    1  0.2476315E-009  0.4778727E+02  0.7816164E-02  0.1312668E+00
        -11   -1    0    0    0    0  0.00000000000E+00  0.00000000000E+00  0.45593999997E+02  0.45594000000E+02  0.51100000000E-03 0.  1.
         11   -1    0    0    0    0 -0.00000000000E+00 -0.00000000000E+00 -0.45593999997E+02  0.45594000000E+02  0.51100000000E-03 0. -1.
    9900012    2    1    2    0    0 -0.14170041215E+02 -0.40743309757E+02 -0.47766095110E+01  0.47787270094E+02  0.19999995666E+02 0.  0.
         12    1    1    2    0    0  0.14170041215E+02  0.40743309757E+02  0.47766095110E+01  0.43400729906E+02  0.00000000000E+00 0. -1.
         11    1    3    3    0    0  0.35219253850E+01 -0.12324996739E+02 -0.49466324531E+00  0.12827867907E+02  0.51100000000E-03 0. -1.
        -11    1    3    3    0    0 -0.55332996269E+01 -0.14411723597E+02  0.15533664465E+01  0.15515415862E+02  0.51100000000E-03 0.  1.
         12    1    3    3    0    0 -0.12158666973E+02 -0.14006589420E+02 -0.58353127123E+01  0.19443986325E+02  0.00000000000E+00 0. -1.
</event>
<event>
 7    1  0.2476315E-009  0.4778727E+02  0.7816164E-02  0.1312668E+00
        -11   -1    0    0    0    0  0.00000000000E+00  0.00000000000E+00  0.45593999997E+02  0.45594000000E+02  0.51100000000E-03 0.  1.
         11   -1    0    0    0    0 -0.00000000000E+00 -0.00000000000E+00 -0.45593999997E+02  0.45594000000E+02  0.51100000000E-03 0. -1.
    9900012    2    1    2    0    0 -0.41252208315E+01 -0.28542543133E+02  0.32433456572E+02  0.47787270506E+02  0.19999997543E+02 0.  0.
         12    1    1    2    0    0  0.41252208315E+01  0.28542543133E+02 -0.32433456572E+02  0.43400729494E+02  0.00000000000E+00 0. -1.
         11    1    3    3    0    0  0.51669734760E+01 -0.37819020804E+01  0.10167482630E+02  0.12015743903E+02  0.51100000000E-03 0. -1.
        -11    1    3    3    0    0 -0.64909603280E+01 -0.11321649931E+02  0.16093454639E+02  0.20719836042E+02  0.51100000000E-03 0.  1.
         12    1    3    3    0    0 -0.28012339795E+01 -0.13438991121E+02  0.61725193032E+01  0.15051690560E+02  0.00000000000E+00 0. -1.
</event>
<event>
 7    1  0.2476315E-009  0.4778729E+02  0.7816164E-02  0.1312668E+00
        -11   -1    0    0    0    0  0.00000000000E+00  0.00000000000E+00  0.45593999997E+02  0.45594000000E+02  0.51100000000E-03 0. -1.
         11   -1    0    0    0    0 -0.00000000000E+00 -0.00000000000E+00 -0.45593999997E+02  0.45594000000E+02  0.51100000000E-03 0.  1.
    9900012    2    1    2    0    0 -0.13356342929E+02 -0.41144710896E+02  0.35131398196E+01  0.47787293985E+02  0.20000104597E+02 0.  0.
         12    1    1    2    0    0  0.13356342929E+02  0.41144710896E+02 -0.35131398196E+01  0.43400706015E+02  0.00000000000E+00 0. -1.
         11    1    3    3    0    0 -0.31592654086E+00 -0.35111149116E+01 -0.20487981027E+01  0.40774147972E+01  0.51100000000E-03 0. -1.
        -11    1    3    3    0    0  0.34977683333E+01 -0.32481000470E+01 -0.12878568000E+01  0.49439976363E+01  0.51100000000E-03 0.  1.
        -12    1    3    3    0    0 -0.16538184721E+02 -0.34385495938E+02  0.68497947223E+01  0.38765881552E+02  0.00000000000E+00 0.  1.
</event>
<event>
 7    1  0.2476315E-009  0.4778727E+02  0.7816164E-02  0.1312668E+00
        -11   -1    0    0    0    0  0.00000000000E+00  0.00000000000E+00  0.45593999997E+02  0.45594000000E+02  0.51100000000E-03 0.  1.
         11   -1    0    0    0    0 -0.00000000000E+00 -0.00000000000E+00 -0.45593999997E+02  0.45594000000E+02  0.51100000000E-03 0. -1.
    9900012    2    1    2    0    0 -0.24897798854E+02 -0.99077046089E+01  0.34140303184E+02  0.47787270745E+02  0.19999998634E+02 0.  0.
         12    1    1    2    0    0  0.24897798854E+02  0.99077046089E+01 -0.34140303184E+02  0.43400729255E+02  0.00000000000E+00 0. -1.
         11    1    3    3    0    0 -0.22683217365E+01  0.13881605508E+01  0.70932688812E+01  0.75754034148E+01  0.51100000000E-03 0. -1.
        -11    1    3    3    0    0 -0.57013719450E+01 -0.50752448902E+01 -0.83964656875E-01  0.76335314944E+01  0.51100000000E-03 0.  1.
        -12    1    3    3    0    0 -0.16928105173E+02 -0.62206202695E+01  0.27130998960E+02  0.32578335836E+02  0.00000000000E+00 0.  1.
</event>
<event>
 7    1  0.2476315E-009  0.4778729E+02  0.7816164E-02  0.1312668E+00
        -11   -1    0    0    0    0  0.00000000000E+00  0.00000000000E+00  0.45593999997E+02  0.45594000000E+02  0.51100000000E-03 0.  1.
         11   -1    0    0    0    0 -0.00000000000E+00 -0.00000000000E+00 -0.45593999997E+02  0.45594000000E+02  0.51100000000E-03 0. -1.
    9900012    2    1    2    0    0  0.34921248118E+02  0.33647545558E+00  0.25768487980E+02  0.47787288500E+02  0.20000079589E+02 0.  0.
         12    1    1    2    0    0 -0.34921248118E+02 -0.33647545558E+00 -0.25768487980E+02  0.43400711500E+02  0.00000000000E+00 0. -1.
         11    1    3    3    0    0  0.25488442943E+02 -0.78652377147E+00  0.15305108146E+02  0.29740976428E+02  0.51100000000E-03 0. -1.
        -11    1    3    3    0    0 -0.23014752618E+01  0.59035526621E+00  0.94010557514E-01  0.23778448156E+01  0.51100000000E-03 0.  1.
        -12    1    3    3    0    0  0.11734280437E+02  0.53264396084E+00  0.10369369277E+02  0.15668467256E+02  0.00000000000E+00 0.  1.
</event>
<event>
 7    1  0.2476315E-009  0.4778727E+02  0.7816164E-02  0.1312668E+00
        -11   -1    0    0    0    0  0.00000000000E+00  0.00000000000E+00  0.45593999997E+02  0.45594000000E+02  0.51100000000E-03 0.  1.
         11   -1    0    0    0    0 -0.00000000000E+00 -0.00000000000E+00 -0.45593999997E+02  0.45594000000E+02  0.51100000000E-03 0. -1.
    9900012    2    1    2    0    0  0.70319409173E+01 -0.17453307358E+02  0.39109550491E+02  0.47787273389E+02  0.20000010689E+02 0.  0.
         12    1    1    2    0    0 -0.70319409173E+01  0.17453307358E+02 -0.39109550491E+02  0.43400726611E+02  0.00000000000E+00 0. -1.
         11    1    3    3    0    0  0.35349422188E+01  0.32295877943E+00  0.45474267570E+00  0.35786743392E+01  0.51100000000E-03 0. -1.
        -11    1    3    3    0    0  0.12494395175E+01 -0.17272056438E+02  0.38082812280E+02  0.41835219901E+02  0.51100000000E-03 0.  1.
        -12    1    3    3    0    0  0.22475591810E+01 -0.50420969950E+00  0.57199553486E+00  0.23733791491E+01  0.00000000000E+00 0.  1.
</event>
<event>
 7    1  0.2476315E-009  0.4778726E+02  0.7816164E-02  0.1312668E+00
        -11   -1    0    0    0    0  0.00000000000E+00  0.00000000000E+00  0.45593999997E+02  0.45594000000E+02  0.51100000000E-03 0.  1.
         11   -1    0    0    0    0 -0.00000000000E+00 -0.00000000000E+00 -0.45593999997E+02  0.45594000000E+02  0.51100000000E-03 0. -1.
    9900012    2    1    2    0    0 -0.22270482918E+02 -0.27813076902E+02  0.24780685842E+02  0.47787262138E+02  0.19999959392E+02 0.  0.
         12    1    1    2    0    0  0.22270482918E+02  0.27813076902E+02 -0.24780685842E+02  0.43400737862E+02  0.00000000000E+00 0. -1.
         11    1    3    3    0    0 -0.31929981017E+01 -0.68650283491E+00 -0.24711883684E+01  0.40955213628E+01  0.51100000000E-03 0. -1.
        -11    1    3    3    0    0 -0.18203174343E+02 -0.23917107858E+02  0.21182770287E+02  0.36770822153E+02  0.51100000000E-03 0.  1.
         12    1    3    3    0    0 -0.87431047297E+00 -0.32094662083E+01  0.60691039235E+01  0.69209186225E+01  0.00000000000E+00 0. -1.
</event>
<event>
 7    1  0.2476315E-009  0.4778727E+02  0.7816164E-02  0.1312668E+00
        -11   -1    0    0    0    0  0.00000000000E+00  0.00000000000E+00  0.45593999997E+02  0.45594000000E+02  0.51100000000E-03 0. -1.
         11   -1    0    0    0    0 -0.00000000000E+00 -0.00000000000E+00 -0.45593999997E+02  0.45594000000E+02  0.51100000000E-03 0.  1.
    9900012    2    1    2    0    0  0.39599316076E+02  0.17065969861E+02 -0.49264498544E+01  0.47787273403E+02  0.20000010755E+02 0.  0.
         12    1    1    2    0    0 -0.39599316076E+02 -0.17065969861E+02  0.49264498544E+01  0.43400726597E+02  0.00000000000E+00 0. -1.
         11    1    3    3    0    0  0.16763467135E+02  0.58424057652E+01  0.72108144304E+01  0.19160985896E+02  0.51100000000E-03 0. -1.
        -11    1    3    3    0    0  0.47114231249E+01  0.38232044723E+01 -0.11457903772E+01  0.61747255930E+01  0.51100000000E-03 0.  1.
         12    1    3    3    0    0  0.18124425816E+02  0.74003596231E+01 -0.10991473908E+02  0.22451561914E+02  0.00000000000E+00 0. -1.
</event>
<event>
 7    1  0.2476315E-009  0.4778727E+02  0.7816164E-02  0.1312668E+00
        -11   -1    0    0    0    0  0.00000000000E+00  0.00000000000E+00  0.45593999997E+02  0.45594000000E+02  0.51100000000E-03 0.  1.
         11   -1    0    0    0    0 -0.00000000000E+00 -0.00000000000E+00 -0.45593999997E+02  0.45594000000E+02  0.51100000000E-03 0. -1.
    9900012    2    1    2    0    0  0.33669500034E+02 -0.26354073907E+02  0.74465248476E+01  0.47787272168E+02  0.20000005121E+02 0.  0.
         12    1    1    2    0    0 -0.33669500034E+02  0.26354073907E+02 -0.74465248476E+01  0.43400727832E+02  0.00000000000E+00 0. -1.
         11    1    3    3    0    0  0.17983625786E+02 -0.22246632994E+02  0.37070658331E+01  0.28845551015E+02  0.51100000000E-03 0. -1.
        -11    1    3    3    0    0  0.15734205350E+02 -0.57529366844E+01  0.26339290753E+01  0.16958746449E+02  0.51100000000E-03 0.  1.
         12    1    3    3    0    0 -0.48331101916E-01  0.16454957714E+01  0.11055299393E+01  0.19829747038E+01  0.00000000000E+00 0. -1.
</event>
<event>
 7    1  0.2476315E-009  0.4778727E+02  0.7816164E-02  0.1312668E+00
        -11   -1    0    0    0    0  0.00000000000E+00  0.00000000000E+00  0.45593999997E+02  0.45594000000E+02  0.51100000000E-03 0.  1.
         11   -1    0    0    0    0 -0.00000000000E+00 -0.00000000000E+00 -0.45593999997E+02  0.45594000000E+02  0.51100000000E-03 0. -1.
    9900012    2    1    2    0    0  0.26371831443E+02  0.28668575058E+02  0.19137985840E+02  0.47787271993E+02  0.20000004324E+02 0.  0.
         12    1    1    2    0    0 -0.26371831443E+02 -0.28668575058E+02 -0.19137985840E+02  0.43400728007E+02  0.00000000000E+00 0. -1.
         11    1    3    3    0    0 -0.16356959537E+01  0.27599229344E+00  0.53480362105E+00  0.17428964895E+01  0.51100000000E-03 0. -1.
        -11    1    3    3    0    0  0.11298836088E+01 -0.51665307479E+00 -0.13329687258E+01  0.18221891379E+01  0.51100000000E-03 0.  1.
        -12    1    3    3    0    0  0.26877643788E+02  0.28909235840E+02  0.19936150945E+02  0.44222186365E+02  0.00000000000E+00 0.  1.
</event>
<event>
 7    1  0.2476315E-009  0.4778727E+02  0.7816164E-02  0.1312668E+00
        -11   -1    0    0    0    0  0.00000000000E+00  0.00000000000E+00  0.45593999997E+02  0.45594000000E+02  0.51100000000E-03 0.  1.
         11   -1    0    0    0    0 -0.00000000000E+00 -0.00000000000E+00 -0.45593999997E+02  0.45594000000E+02  0.51100000000E-03 0. -1.
    9900012    2    1    2    0    0  0.83442121723E+01  0.12652937656E+02  0.40668177773E+02  0.47787269690E+02  0.19999993824E+02 0.  0.
         12    1    1    2    0    0 -0.83442121723E+01 -0.12652937656E+02 -0.40668177773E+02  0.43400730310E+02  0.00000000000E+00 0. -1.
         11    1    3    3    0    0  0.96234180226E+01  0.82420241913E+01  0.31271262858E+02  0.33740673055E+02  0.51100000000E-03 0. -1.
        -11    1    3    3    0    0 -0.41080983748E+01  0.59198597536E+01  0.69742835060E+01  0.10028052774E+02  0.51100000000E-03 0.  1.
        -12    1    3    3    0    0  0.28288925245E+01 -0.15089462889E+01  0.24226314084E+01  0.40185438605E+01  0.00000000000E+00 0.  1.
</event>
<event>
 7    1  0.2476315E-009  0.4778727E+02  0.7816164E-02  0.1312668E+00
        -11   -1    0    0    0    0  0.00000000000E+00  0.00000000000E+00  0.45593999997E+02  0.45594000000E+02  0.51100000000E-03 0.  1.
         11   -1    0    0    0    0 -0.00000000000E+00 -0.00000000000E+00 -0.45593999997E+02  0.45594000000E+02  0.51100000000E-03 0. -1.
    9900012    2    1    2    0    0 -0.63907619943E+01  0.40185192190E+02  0.15097413943E+02  0.47787269385E+02  0.19999992432E+02 0.  0.
         12    1    1    2    0    0  0.63907619943E+01 -0.40185192190E+02 -0.15097413943E+02  0.43400730615E+02  0.00000000000E+00 0. -1.
         11    1    3    3    0    0 -0.20788390709E+01  0.45627886824E+01  0.54764781875E+01  0.74251212814E+01  0.51100000000E-03 0. -1.
        -11    1    3    3    0    0 -0.90611138694E+01  0.19624007278E+02  0.96559837713E+01  0.23673687272E+02  0.51100000000E-03 0.  1.
        -12    1    3    3    0    0  0.47491909459E+01  0.15998396229E+02 -0.35048015913E-01  0.16688460831E+02  0.00000000000E+00 0.  1.
</event>
<event>
 7    1  0.2476315E-009  0.4778727E+02  0.7816164E-02  0.1312668E+00
        -11   -1    0    0    0    0  0.00000000000E+00  0.00000000000E+00  0.45593999997E+02  0.45594000000E+02  0.51100000000E-03 0.  1.
         11   -1    0    0    0    0 -0.00000000000E+00 -0.00000000000E+00 -0.45593999997E+02  0.45594000000E+02  0.51100000000E-03 0. -1.
    9900012    2    1    2    0    0  0.16880576044E+02 -0.23074316432E+01  0.39916728137E+02  0.47787271048E+02  0.20000000016E+02 0.  0.
         12    1    1    2    0    0 -0.16880576044E+02  0.23074316432E+01 -0.39916728137E+02  0.43400728952E+02  0.00000000000E+00 0. -1.
         11    1    3    3    0    0  0.18476403309E+01  0.22509830407E+01 -0.61770019859E+00  0.29769536842E+01  0.51100000000E-03 0. -1.
        -11    1    3    3    0    0  0.48109953959E+01 -0.31691380224E+01  0.27952542441E+02  0.28540037521E+02  0.51100000000E-03 0.  1.
        -12    1    3    3    0    0  0.10221940318E+02 -0.13892766615E+01  0.12581885895E+02  0.16270279843E+02  0.00000000000E+00 0.  1.
</event>
<event>
 7    1  0.2476315E-009  0.4778727E+02  0.7816164E-02  0.1312668E+00
        -11   -1    0    0    0    0  0.00000000000E+00  0.00000000000E+00  0.45593999997E+02  0.45594000000E+02  0.51100000000E-03 0.  1.
         11   -1    0    0    0    0 -0.00000000000E+00 -0.00000000000E+00 -0.45593999997E+02  0.45594000000E+02  0.51100000000E-03 0. -1.
    9900012    2    1    2    0    0  0.37613212521E+02 -0.21385479593E+02 -0.33956751812E+01  0.47787273007E+02  0.20000008949E+02 0.  0.
         12    1    1    2    0    0 -0.37613212521E+02  0.21385479593E+02  0.33956751812E+01  0.43400726993E+02  0.00000000000E+00 0. -1.
         11    1    3    3    0    0  0.30870929967E+02 -0.16867101036E+02 -0.35255195599E+01  0.35354528745E+02  0.51100000000E-03 0. -1.
        -11    1    3    3    0    0  0.91274151994E+01 -0.38046185306E+01  0.56765719233E+00  0.99049010765E+01  0.51100000000E-03 0.  1.
         12    1    3    3    0    0 -0.23851326452E+01 -0.71376002652E+00 -0.43781281364E+00  0.25278431855E+01  0.00000000000E+00 0. -1.
</event>
<event>
 7    1  0.2476315E-009  0.4778727E+02  0.7816164E-02  0.1312668E+00
        -11   -1    0    0    0    0  0.00000000000E+00  0.00000000000E+00  0.45593999997E+02  0.45594000000E+02  0.51100000000E-03 0.  1.
         11   -1    0    0    0    0 -0.00000000000E+00 -0.00000000000E+00 -0.45593999997E+02  0.45594000000E+02  0.51100000000E-03 0. -1.
    9900012    2    1    2    0    0 -0.33915280999E+02 -0.26786329217E+02  0.39836897706E+01  0.47787268412E+02  0.19999987999E+02 0.  0.
         12    1    1    2    0    0  0.33915280999E+02  0.26786329217E+02 -0.39836897706E+01  0.43400731588E+02  0.00000000000E+00 0. -1.
         11    1    3    3    0    0 -0.25683962212E+01  0.14087315943E+01  0.33171781344E+01  0.44254779279E+01  0.51100000000E-03 0. -1.
        -11    1    3    3    0    0 -0.22591316379E+02 -0.25572229120E+02  0.16957318290E+01  0.34164045203E+02  0.51100000000E-03 0.  1.
         12    1    3    3    0    0 -0.87555683986E+01 -0.26228316911E+01 -0.10292201927E+01  0.91977452817E+01  0.00000000000E+00 0. -1.
</event>
<event>
 7    1  0.2476315E-009  0.4778727E+02  0.7816164E-02  0.1312668E+00
        -11   -1    0    0    0    0  0.00000000000E+00  0.00000000000E+00  0.45593999997E+02  0.45594000000E+02  0.51100000000E-03 0.  1.
         11   -1    0    0    0    0 -0.00000000000E+00 -0.00000000000E+00 -0.45593999997E+02  0.45594000000E+02  0.51100000000E-03 0. -1.
    9900012    2    1    2    0    0 -0.33255906422E+02 -0.16085466536E+02  0.22779939422E+02  0.47787272060E+02  0.20000004629E+02 0.  0.
         12    1    1    2    0    0  0.33255906422E+02  0.16085466536E+02 -0.22779939422E+02  0.43400727940E+02  0.00000000000E+00 0. -1.
         11    1    3    3    0    0 -0.26853412594E+01 -0.38918467921E+01  0.53545329868E+01  0.71434272517E+01  0.51100000000E-03 0. -1.
        -11    1    3    3    0    0 -0.99147028712E+01 -0.11183735798E+02  0.25324241604E+01  0.15158840714E+02  0.51100000000E-03 0.  1.
        -12    1    3    3    0    0 -0.20655862292E+02 -0.10098839462E+01  0.14892982275E+02  0.25485004094E+02  0.00000000000E+00 0.  1.
</event>
<event>
 7    1  0.2476315E-009  0.4778727E+02  0.7816164E-02  0.1312668E+00
        -11   -1    0    0    0    0  0.00000000000E+00  0.00000000000E+00  0.45593999997E+02  0.45594000000E+02  0.51100000000E-03 0. -1.
         11   -1    0    0    0    0 -0.00000000000E+00 -0.00000000000E+00 -0.45593999997E+02  0.45594000000E+02  0.51100000000E-03 0.  1.
    9900012    2    1    2    0    0  0.39824053890E+02 -0.48791091710E+01 -0.16548788868E+02  0.47787269735E+02  0.19999994030E+02 0.  0.
         12    1    1    2    0    0 -0.39824053890E+02  0.48791091710E+01  0.16548788868E+02  0.43400730265E+02  0.00000000000E+00 0. -1.
         11    1    3    3    0    0  0.18711277179E+02 -0.52612883566E+01 -0.17229939915E+01  0.19513117573E+02  0.51100000000E-03 0. -1.
        -11    1    3    3    0    0  0.18956516829E+02  0.34409479668E+01 -0.15161768420E+02  0.24516706041E+02  0.51100000000E-03 0.  1.
        -12    1    3    3    0    0  0.21562598813E+01 -0.30587687812E+01  0.33597354376E+00  0.37574461213E+01  0.00000000000E+00 0.  1.
</event>
<event>
 7    1  0.2476315E-009  0.4778727E+02  0.7816164E-02  0.1312668E+00
        -11   -1    0    0    0    0  0.00000000000E+00  0.00000000000E+00  0.45593999997E+02  0.45594000000E+02  0.51100000000E-03 0.  1.
         11   -1    0    0    0    0 -0.00000000000E+00 -0.00000000000E+00 -0.45593999997E+02  0.45594000000E+02  0.51100000000E-03 0. -1.
    9900012    2    1    2    0    0 -0.22600028205E+02 -0.27005033907E+02  0.25369079920E+02  0.47787270200E+02  0.19999996150E+02 0.  0.
         12    1    1    2    0    0  0.22600028205E+02  0.27005033907E+02 -0.25369079920E+02  0.43400729800E+02  0.00000000000E+00 0. -1.
         11    1    3    3    0    0 -0.18097658418E+02 -0.19182977135E+02  0.11092382548E+02  0.28610361809E+02  0.51100000000E-03 0. -1.
        -11    1    3    3    0    0 -0.21069606851E+01 -0.92190921577E+01  0.82771604565E+01  0.12567510852E+02  0.51100000000E-03 0.  1.
         12    1    3    3    0    0 -0.23954091023E+01  0.13970353855E+01  0.59995369150E+01  0.66093975391E+01  0.00000000000E+00 0. -1.
</event>
<event>
 7    1  0.2476315E-009  0.4778727E+02  0.7816164E-02  0.1312668E+00
        -11   -1    0    0    0    0  0.00000000000E+00  0.00000000000E+00  0.45593999997E+02  0.45594000000E+02  0.51100000000E-03 0.  1.
         11   -1    0    0    0    0 -0.00000000000E+00 -0.00000000000E+00 -0.45593999997E+02  0.45594000000E+02  0.51100000000E-03 0. -1.
    9900012    2    1    2    0    0 -0.19978537679E+02 -0.34854206059E+02  0.16421500463E+02  0.47787270452E+02  0.19999997300E+02 0.  0.
         12    1    1    2    0    0  0.19978537679E+02  0.34854206059E+02 -0.16421500463E+02  0.43400729548E+02  0.00000000000E+00 0. -1.
         11    1    3    3    0    0 -0.73920345604E+01 -0.11757822896E+02 -0.58666514052E-01  0.13888557025E+02  0.51100000000E-03 0. -1.
        -11    1    3    3    0    0 -0.29518240347E+01  0.11163130402E+01  0.37349488972E+01  0.48897099567E+01  0.51100000000E-03 0.  1.
        -12    1    3    3    0    0 -0.96346790838E+01 -0.24212696203E+02  0.12745218080E+02  0.29009003471E+02  0.00000000000E+00 0.  1.
</event>
<event>
 7    1  0.2476315E-009  0.4778727E+02  0.7816164E-02  0.1312668E+00
        -11   -1    0    0    0    0  0.00000000000E+00  0.00000000000E+00  0.45593999997E+02  0.45594000000E+02  0.51100000000E-03 0.  1.
         11   -1    0    0    0    0 -0.00000000000E+00 -0.00000000000E+00 -0.45593999997E+02  0.45594000000E+02  0.51100000000E-03 0. -1.
    9900012    2    1    2    0    0  0.17912292198E+01 -0.41483120454E+02  0.12631917997E+02  0.47787272621E+02  0.20000007188E+02 0.  0.
         12    1    1    2    0    0 -0.17912292198E+01  0.41483120454E+02 -0.12631917997E+02  0.43400727379E+02  0.00000000000E+00 0. -1.
         11    1    3    3    0    0 -0.40700863711E+01 -0.10110227522E+02  0.11028087761E+02  0.15504870962E+02  0.51100000000E-03 0. -1.
        -11    1    3    3    0    0  0.11501303712E+01 -0.17964899948E+02  0.15788250836E+01  0.18070780805E+02  0.51100000000E-03 0.  1.
         12    1    3    3    0    0  0.47111852197E+01 -0.13407992985E+02  0.25005152312E-01  0.14211620854E+02  0.00000000000E+00 0. -1.
</event>
<event>
 7    1  0.2476315E-009  0.4778726E+02  0.7816164E-02  0.1312668E+00
        -11   -1    0    0    0    0  0.00000000000E+00  0.00000000000E+00  0.45593999997E+02  0.45594000000E+02  0.51100000000E-03 0.  1.
         11   -1    0    0    0    0 -0.00000000000E+00 -0.00000000000E+00 -0.45593999997E+02  0.45594000000E+02  0.51100000000E-03 0. -1.
    9900012    2    1    2    0    0 -0.11963757709E+02  0.36731122551E+02  0.19781743376E+02  0.47787259991E+02  0.19999949601E+02 0.  0.
         12    1    1    2    0    0  0.11963757709E+02 -0.36731122551E+02 -0.19781743376E+02  0.43400740009E+02  0.00000000000E+00 0. -1.
         11    1    3    3    0    0 -0.52484581344E+01  0.29310092941E+02  0.11577740425E+02  0.31947956658E+02  0.51100000000E-03 0.  1.
        -11    1    3    3    0    0 -0.83626856259E+01  0.80936158678E+01  0.63017904284E+01  0.13234564275E+02  0.51100000000E-03 0. -1.
         12    1    3    3    0    0  0.16473860511E+01 -0.67258625805E+00  0.19022125223E+01  0.26047390572E+01  0.00000000000E+00 0. -1.
</event>
<event>
 7    1  0.2476315E-009  0.4778727E+02  0.7816164E-02  0.1312668E+00
        -11   -1    0    0    0    0  0.00000000000E+00  0.00000000000E+00  0.45593999997E+02  0.45594000000E+02  0.51100000000E-03 0.  1.
         11   -1    0    0    0    0 -0.00000000000E+00 -0.00000000000E+00 -0.45593999997E+02  0.45594000000E+02  0.51100000000E-03 0. -1.
    9900012    2    1    2    0    0 -0.14893238905E+00  0.15172418858E+02  0.40662005438E+02  0.47787272344E+02  0.20000005923E+02 0.  0.
         12    1    1    2    0    0  0.14893238905E+00 -0.15172418858E+02 -0.40662005438E+02  0.43400727656E+02  0.00000000000E+00 0. -1.
         11    1    3    3    0    0 -0.49620528250E+01  0.23761203936E+01  0.18526455575E+02  0.19326082707E+02  0.51100000000E-03 0. -1.
        -11    1    3    3    0    0  0.37420178062E+01  0.14100842929E+02  0.22420760807E+02  0.26749336141E+02  0.51100000000E-03 0.  1.
         12    1    3    3    0    0  0.10711026297E+01 -0.13045444654E+01 -0.28521094393E+00  0.17118534949E+01  0.00000000000E+00 0. -1.
</event>
<event>
 7    1  0.2476315E-009  0.4778727E+02  0.7816164E-02  0.1312668E+00
        -11   -1    0    0    0    0  0.00000000000E+00  0.00000000000E+00  0.45593999997E+02  0.45594000000E+02  0.51100000000E-03 0.  1.
         11   -1    0    0    0    0 -0.00000000000E+00 -0.00000000000E+00 -0.45593999997E+02  0.45594000000E+02  0.51100000000E-03 0. -1.
    9900012    2    1    2    0    0  0.87757398566E+01 -0.33506101513E+02  0.26152449052E+02  0.47787273738E+02  0.20000012281E+02 0.  0.
         12    1    1    2    0    0 -0.87757398566E+01  0.33506101513E+02 -0.26152449052E+02  0.43400726262E+02  0.00000000000E+00 0. -1.
         11    1    3    3    0    0  0.19276121483E+01 -0.16441169209E+01  0.85954835118E+01  0.89610906761E+01  0.51100000000E-03 0. -1.
        -11    1    3    3    0    0  0.90386788980E+01 -0.17558133999E+02  0.71526162329E+01  0.21003468880E+02  0.51100000000E-03 0.  1.
        -12    1    3    3    0    0 -0.21905511897E+01 -0.14303850593E+02  0.10404349307E+02  0.17822714182E+02  0.00000000000E+00 0.  1.
</event>
<event>
 7    1  0.2476315E-009  0.4778727E+02  0.7816164E-02  0.1312668E+00
        -11   -1    0    0    0    0  0.00000000000E+00  0.00000000000E+00  0.45593999997E+02  0.45594000000E+02  0.51100000000E-03 0.  1.
         11   -1    0    0    0    0 -0.00000000000E+00 -0.00000000000E+00 -0.45593999997E+02  0.45594000000E+02  0.51100000000E-03 0. -1.
    9900012    2    1    2    0    0 -0.33589796329E+02  0.23167218946E+02  0.14786105496E+02  0.47787269973E+02  0.19999995114E+02 0.  0.
         12    1    1    2    0    0  0.33589796329E+02 -0.23167218946E+02 -0.14786105496E+02  0.43400730027E+02  0.00000000000E+00 0. -1.
         11    1    3    3    0    0 -0.68120466812E+01  0.90395881701E+01 -0.13531835965E+01  0.11399528077E+02  0.51100000000E-03 0. -1.
        -11    1    3    3    0    0 -0.20482575319E+02  0.13286310519E+02  0.17311822410E+02  0.29929268857E+02  0.51100000000E-03 0.  1.
        -12    1    3    3    0    0 -0.62951743293E+01  0.84132025647E+00 -0.11725333174E+01  0.64584730386E+01  0.00000000000E+00 0.  1.
</event>
<event>
 7    1  0.2476315E-009  0.4778725E+02  0.7816164E-02  0.1312668E+00
        -11   -1    0    0    0    0  0.00000000000E+00  0.00000000000E+00  0.45593999997E+02  0.45594000000E+02  0.51100000000E-03 0. -1.
         11   -1    0    0    0    0 -0.00000000000E+00 -0.00000000000E+00 -0.45593999997E+02  0.45594000000E+02  0.51100000000E-03 0.  1.
    9900012    2    1    2    0    0  0.13655826844E+02  0.23464651964E+02 -0.33860798427E+02  0.47787249215E+02  0.19999900469E+02 0.  0.
         12    1    1    2    0    0 -0.13655826844E+02 -0.23464651964E+02  0.33860798427E+02  0.43400750785E+02  0.00000000000E+00 0. -1.
         11    1    3    3    0    0  0.75487437015E+01  0.75811853693E+01 -0.25740683267E+02  0.27875449384E+02  0.51100000000E-03 0. -1.
        -11    1    3    3    0    0  0.22292773719E+01  0.82782934279E+01 -0.70127311679E+00  0.86018372412E+01  0.51100000000E-03 0.  1.
        -12    1    3    3    0    0  0.38778057706E+01  0.76051731670E+01 -0.74188420440E+01  0.11309962589E+02  0.00000000000E+00 0.  1.
</event>
<event>
 7    1  0.2476315E-009  0.4778728E+02  0.7816164E-02  0.1312668E+00
        -11   -1    0    0    0    0  0.00000000000E+00  0.00000000000E+00  0.45593999997E+02  0.45594000000E+02  0.51100000000E-03 0. -1.
         11   -1    0    0    0    0 -0.00000000000E+00 -0.00000000000E+00 -0.45593999997E+02  0.45594000000E+02  0.51100000000E-03 0.  1.
    9900012    2    1    2    0    0  0.10879813184E+02  0.28295149844E+02 -0.31058604013E+02  0.47787277393E+02  0.20000028945E+02 0.  0.
         12    1    1    2    0    0 -0.10879813184E+02 -0.28295149844E+02  0.31058604013E+02  0.43400722607E+02  0.00000000000E+00 0. -1.
         11    1    3    3    0    0  0.11094164468E+02  0.22618711108E+02 -0.20965396523E+02  0.32775515695E+02  0.51100000000E-03 0. -1.
        -11    1    3    3    0    0 -0.28988935104E+01  0.38331595208E+01 -0.44224515782E+00  0.48262072621E+01  0.51100000000E-03 0.  1.
        -12    1    3    3    0    0  0.26845422265E+01  0.18432792148E+01 -0.96509623321E+01  0.10185554436E+02  0.00000000000E+00 0.  1.
</event>
<event>
 7    1  0.2476315E-009  0.4778727E+02  0.7816164E-02  0.1312668E+00
        -11   -1    0    0    0    0  0.00000000000E+00  0.00000000000E+00  0.45593999997E+02  0.45594000000E+02  0.51100000000E-03 0. -1.
         11   -1    0    0    0    0 -0.00000000000E+00 -0.00000000000E+00 -0.45593999997E+02  0.45594000000E+02  0.51100000000E-03 0.  1.
    9900012    2    1    2    0    0 -0.27285217677E+02  0.32073098639E+02 -0.10509826704E+02  0.47787271696E+02  0.20000002969E+02 0.  0.
         12    1    1    2    0    0  0.27285217677E+02 -0.32073098639E+02  0.10509826704E+02  0.43400728304E+02  0.00000000000E+00 0. -1.
         11    1    3    3    0    0 -0.14020333190E+02  0.26998993958E+02 -0.73503539631E+00  0.30431163218E+02  0.51100000000E-03 0. -1.
        -11    1    3    3    0    0 -0.98191767250E+01  0.44766053261E+01 -0.67209201185E+01  0.12713260569E+02  0.51100000000E-03 0.  1.
         12    1    3    3    0    0 -0.34457077620E+01  0.59749935488E+00 -0.30538711893E+01  0.46428479084E+01  0.00000000000E+00 0. -1.
</event>
<event>
 7    1  0.2476315E-009  0.4778727E+02  0.7816164E-02  0.1312668E+00
        -11   -1    0    0    0    0  0.00000000000E+00  0.00000000000E+00  0.45593999997E+02  0.45594000000E+02  0.51100000000E-03 0.  1.
         11   -1    0    0    0    0 -0.00000000000E+00 -0.00000000000E+00 -0.45593999997E+02  0.45594000000E+02  0.51100000000E-03 0. -1.
    9900012    2    1    2    0    0 -0.31494101794E+02 -0.25119137286E+02  0.16148494826E+02  0.47787269696E+02  0.19999993851E+02 0.  0.
         12    1    1    2    0    0  0.31494101794E+02  0.25119137286E+02 -0.16148494826E+02  0.43400730304E+02  0.00000000000E+00 0. -1.
         11    1    3    3    0    0 -0.66371585445E+01 -0.82475716505E+01  0.38968230675E+00  0.10593685111E+02  0.51100000000E-03 0. -1.
        -11    1    3    3    0    0 -0.24421285483E+02 -0.19258026528E+02  0.15513178857E+02  0.34755280015E+02  0.51100000000E-03 0.  1.
        -12    1    3    3    0    0 -0.43565776613E+00  0.23864608922E+01  0.24563366200E+00  0.24383045698E+01  0.00000000000E+00 0.  1.
</event>
<event>
 7    1  0.2476315E-009  0.4778727E+02  0.7816164E-02  0.1312668E+00
        -11   -1    0    0    0    0  0.00000000000E+00  0.00000000000E+00  0.45593999997E+02  0.45594000000E+02  0.51100000000E-03 0.  1.
         11   -1    0    0    0    0 -0.00000000000E+00 -0.00000000000E+00 -0.45593999997E+02  0.45594000000E+02  0.51100000000E-03 0. -1.
    9900012    2    1    2    0    0  0.34021808853E+02  0.24191123650E+02  0.11871377070E+02  0.47787268040E+02  0.19999986302E+02 0.  0.
         12    1    1    2    0    0 -0.34021808853E+02 -0.24191123650E+02 -0.11871377070E+02  0.43400731960E+02  0.00000000000E+00 0. -1.
         11    1    3    3    0    0  0.74381470978E+01  0.74761311091E+01  0.11244690054E+02  0.15416277867E+02  0.51100000000E-03 0. -1.
        -11    1    3    3    0    0  0.16892174718E+02  0.14556592517E+02  0.18079007648E+01  0.22372046350E+02  0.51100000000E-03 0.  1.
        -12    1    3    3    0    0  0.96914870372E+01  0.21584000235E+01 -0.11812137486E+01  0.99989438229E+01  0.00000000000E+00 0.  1.
</event>
<event>
 7    1  0.2476315E-009  0.4778727E+02  0.7816164E-02  0.1312668E+00
        -11   -1    0    0    0    0  0.00000000000E+00  0.00000000000E+00  0.45593999997E+02  0.45594000000E+02  0.51100000000E-03 0.  1.
         11   -1    0    0    0    0 -0.00000000000E+00 -0.00000000000E+00 -0.45593999997E+02  0.45594000000E+02  0.51100000000E-03 0. -1.
    9900012    2    1    2    0    0  0.13365427011E+02  0.12429606233E+02  0.39376305719E+02  0.47787271868E+02  0.20000003755E+02 0.  0.
         12    1    1    2    0    0 -0.13365427011E+02 -0.12429606233E+02 -0.39376305719E+02  0.43400728132E+02  0.00000000000E+00 0. -1.
         11    1    3    3    0    0 -0.17660140846E+01 -0.11644906140E+01  0.81946791936E+01  0.84633097240E+01  0.51100000000E-03 0. -1.
        -11    1    3    3    0    0  0.16642782273E+02  0.97325063557E+01  0.28417563124E+02  0.34340381126E+02  0.51100000000E-03 0.  1.
        -12    1    3    3    0    0 -0.15113411765E+01  0.38615904911E+01  0.27640634019E+01  0.49835810179E+01  0.00000000000E+00 0.  1.
</event>
<event>
 7    1  0.2476315E-009  0.4778727E+02  0.7816164E-02  0.1312668E+00
        -11   -1    0    0    0    0  0.00000000000E+00  0.00000000000E+00  0.45593999997E+02  0.45594000000E+02  0.51100000000E-03 0.  1.
         11   -1    0    0    0    0 -0.00000000000E+00 -0.00000000000E+00 -0.45593999997E+02  0.45594000000E+02  0.51100000000E-03 0. -1.
    9900012    2    1    2    0    0  0.38176606532E+02  0.20400338268E+02  0.31616570904E+01  0.47787272318E+02  0.20000005808E+02 0.  0.
         12    1    1    2    0    0 -0.38176606532E+02 -0.20400338268E+02 -0.31616570904E+01  0.43400727682E+02  0.00000000000E+00 0. -1.
         11    1    3    3    0    0  0.70973140034E+01  0.10319285439E+00 -0.19033784938E+01  0.73488342463E+01  0.51100000000E-03 0. -1.
        -11    1    3    3    0    0  0.61628912787E+01  0.12035460687E+02 -0.78404647053E+00  0.13544307734E+02  0.51100000000E-03 0.  1.
        -12    1    3    3    0    0  0.24916401250E+02  0.82616847263E+01  0.58490820547E+01  0.26894130338E+02  0.00000000000E+00 0.  1.
</event>
<event>
 7    1  0.2476315E-009  0.4778727E+02  0.7816164E-02  0.1312668E+00
        -11   -1    0    0    0    0  0.00000000000E+00  0.00000000000E+00  0.45593999997E+02  0.45594000000E+02  0.51100000000E-03 0.  1.
         11   -1    0    0    0    0 -0.00000000000E+00 -0.00000000000E+00 -0.45593999997E+02  0.45594000000E+02  0.51100000000E-03 0. -1.
    9900012    2    1    2    0    0 -0.19463622639E+02  0.32670724794E+02  0.20914459689E+02  0.47787268568E+02  0.19999988708E+02 0.  0.
         12    1    1    2    0    0  0.19463622639E+02 -0.32670724794E+02 -0.20914459689E+02  0.43400731432E+02  0.00000000000E+00 0. -1.
         11    1    3    3    0    0 -0.38310828502E+01 -0.69463813288E+00  0.19572537853E+00  0.38984646498E+01  0.51100000000E-03 0. -1.
        -11    1    3    3    0    0 -0.17509181940E+02  0.30796862917E+02  0.19769839025E+02  0.40569258720E+02  0.51100000000E-03 0.  1.
        -12    1    3    3    0    0  0.18766421509E+01  0.25685000098E+01  0.94889528487E+00  0.33195451984E+01  0.00000000000E+00 0.  1.
</event>
<event>
 7    1  0.2476315E-009  0.4778727E+02  0.7816164E-02  0.1312668E+00
        -11   -1    0    0    0    0  0.00000000000E+00  0.00000000000E+00  0.45593999997E+02  0.45594000000E+02  0.51100000000E-03 0.  1.
         11   -1    0    0    0    0 -0.00000000000E+00 -0.00000000000E+00 -0.45593999997E+02  0.45594000000E+02  0.51100000000E-03 0. -1.
    9900012    2    1    2    0    0  0.19401218058E+02  0.19002530232E+02  0.33854392795E+02  0.47787270411E+02  0.19999997112E+02 0.  0.
         12    1    1    2    0    0 -0.19401218058E+02 -0.19002530232E+02 -0.33854392795E+02  0.43400729589E+02  0.00000000000E+00 0. -1.
         11    1    3    3    0    0  0.15099903423E+01  0.90913444017E+01  0.41261247472E+01  0.10097401624E+02  0.51100000000E-03 0. -1.
        -11    1    3    3    0    0  0.13258098936E+02  0.11094437164E+02  0.27334040175E+02  0.32342131592E+02  0.51100000000E-03 0.  1.
         12    1    3    3    0    0  0.46331287791E+01 -0.11832513329E+01  0.23942278731E+01  0.53477371952E+01  0.00000000000E+00 0. -1.
</event>
<event>
 7    1  0.2476315E-009  0.4778727E+02  0.7816164E-02  0.1312668E+00
        -11   -1    0    0    0    0  0.00000000000E+00  0.00000000000E+00  0.45593999997E+02  0.45594000000E+02  0.51100000000E-03 0.  1.
         11   -1    0    0    0    0 -0.00000000000E+00 -0.00000000000E+00 -0.45593999997E+02  0.45594000000E+02  0.51100000000E-03 0. -1.
    9900012    2    1    2    0    0  0.13449778704E+02 -0.40491355902E+02  0.79483943311E+01  0.47787269333E+02  0.19999992198E+02 0.  0.
         12    1    1    2    0    0 -0.13449778704E+02  0.40491355902E+02 -0.79483943311E+01  0.43400730667E+02  0.00000000000E+00 0. -1.
         11    1    3    3    0    0 -0.17573558156E+01 -0.61508755446E+01 -0.35352684264E+01  0.73088776522E+01  0.51100000000E-03 0.  1.
        -11    1    3    3    0    0  0.14508384234E+01 -0.75335911089E+01 -0.12399621340E+01  0.77715785708E+01  0.51100000000E-03 0. -1.
         12    1    3    3    0    0  0.13756296096E+02 -0.26806889248E+02  0.12723624891E+02  0.32706813110E+02  0.00000000000E+00 0. -1.
</event>
<event>
 7    1  0.2476315E-009  0.4778727E+02  0.7816164E-02  0.1312668E+00
        -11   -1    0    0    0    0  0.00000000000E+00  0.00000000000E+00  0.45593999997E+02  0.45594000000E+02  0.51100000000E-03 0.  1.
         11   -1    0    0    0    0 -0.00000000000E+00 -0.00000000000E+00 -0.45593999997E+02  0.45594000000E+02  0.51100000000E-03 0. -1.
    9900012    2    1    2    0    0 -0.18465198702E+02  0.35191455085E+01  0.39118731318E+02  0.47787273184E+02  0.20000009757E+02 0.  0.
         12    1    1    2    0    0  0.18465198702E+02 -0.35191455085E+01 -0.39118731318E+02  0.43400726816E+02  0.00000000000E+00 0. -1.
         11    1    3    3    0    0 -0.65564814334E+01  0.35412253060E+01  0.42238982700E+01  0.85655730871E+01  0.51100000000E-03 0. -1.
        -11    1    3    3    0    0 -0.11470193863E+01 -0.56486975868E+01  0.11182790901E+02  0.12580868432E+02  0.51100000000E-03 0.  1.
        -12    1    3    3    0    0 -0.10761697882E+02  0.56266177893E+01  0.23712042147E+02  0.26640831665E+02  0.00000000000E+00 0.  1.
</event>
<event>
 7    1  0.2476315E-009  0.4778727E+02  0.7816164E-02  0.1312668E+00
        -11   -1    0    0    0    0  0.00000000000E+00  0.00000000000E+00  0.45593999997E+02  0.45594000000E+02  0.51100000000E-03 0.  1.
         11   -1    0    0    0    0 -0.00000000000E+00 -0.00000000000E+00 -0.45593999997E+02  0.45594000000E+02  0.51100000000E-03 0. -1.
    9900012    2    1    2    0    0  0.20235616414E+02  0.18634790654E+02  0.33569150850E+02  0.47787268633E+02  0.19999989008E+02 0.  0.
         12    1    1    2    0    0 -0.20235616414E+02 -0.18634790654E+02 -0.33569150850E+02  0.43400731367E+02  0.00000000000E+00 0. -1.
         11    1    3    3    0    0 -0.21825628211E+01  0.16328290112E+01  0.50150149724E+01  0.57078968529E+01  0.51100000000E-03 0. -1.
        -11    1    3    3    0    0  0.21177740363E+02  0.18579773377E+02  0.28495967946E+02  0.40071496791E+02  0.51100000000E-03 0.  1.
         12    1    3    3    0    0  0.12404388725E+01 -0.15778117348E+01  0.58167931669E-01  0.20078749899E+01  0.00000000000E+00 0. -1.
</event>
<event>
 7    1  0.2476315E-009  0.4778728E+02  0.7816164E-02  0.1312668E+00
        -11   -1    0    0    0    0  0.00000000000E+00  0.00000000000E+00  0.45593999997E+02  0.45594000000E+02  0.51100000000E-03 0.  1.
         11   -1    0    0    0    0 -0.00000000000E+00 -0.00000000000E+00 -0.45593999997E+02  0.45594000000E+02  0.51100000000E-03 0. -1.
    9900012    2    1    2    0    0  0.19294908108E+02 -0.38617390532E+02  0.44750879373E+01  0.47787277167E+02  0.20000027914E+02 0.  0.
         12    1    1    2    0    0 -0.19294908108E+02  0.38617390532E+02 -0.44750879373E+01  0.43400722833E+02  0.00000000000E+00 0. -1.
         11    1    3    3    0    0  0.10217840435E+02 -0.26672814432E+02 -0.40417895837E+01  0.28847519064E+02  0.51100000000E-03 0. -1.
        -11    1    3    3    0    0  0.28588710680E+01 -0.88279139111E+01  0.74562465012E+01  0.11903815353E+02  0.51100000000E-03 0.  1.
         12    1    3    3    0    0  0.62181966050E+01 -0.31166621896E+01  0.10606310198E+01  0.70359427501E+01  0.00000000000E+00 0. -1.
</event>
<event>
 7    1  0.2476315E-009  0.4778726E+02  0.7816164E-02  0.1312668E+00
        -11   -1    0    0    0    0  0.00000000000E+00  0.00000000000E+00  0.45593999997E+02  0.45594000000E+02  0.51100000000E-03 0. -1.
         11   -1    0    0    0    0 -0.00000000000E+00 -0.00000000000E+00 -0.45593999997E+02  0.45594000000E+02  0.51100000000E-03 0.  1.
    9900012    2    1    2    0    0 -0.16183091284E+02 -0.39035850294E+02 -0.98961619043E+01  0.47787261848E+02  0.19999958071E+02 0.  0.
         12    1    1    2    0    0  0.16183091284E+02  0.39035850294E+02  0.98961619043E+01  0.43400738152E+02  0.00000000000E+00 0. -1.
         11    1    3    3    0    0 -0.29078376040E+01 -0.24012618056E+02 -0.14797317542E+01  0.24233261269E+02  0.51100000000E-03 0. -1.
        -11    1    3    3    0    0 -0.11179391027E+02 -0.15834933204E+02 -0.60865477107E+01  0.20316740797E+02  0.51100000000E-03 0.  1.
         12    1    3    3    0    0 -0.20958626528E+01  0.81170096559E+00 -0.23298824394E+01  0.32372597824E+01  0.00000000000E+00 0. -1.
</event>
<event>
 7    1  0.2476315E-009  0.4778727E+02  0.7816164E-02  0.1312668E+00
        -11   -1    0    0    0    0  0.00000000000E+00  0.00000000000E+00  0.45593999997E+02  0.45594000000E+02  0.51100000000E-03 0.  1.
         11   -1    0    0    0    0 -0.00000000000E+00 -0.00000000000E+00 -0.45593999997E+02  0.45594000000E+02  0.51100000000E-03 0. -1.
    9900012    2    1    2    0    0  0.15284105814E+02  0.33564895405E+02  0.22878311647E+02  0.47787271459E+02  0.20000001890E+02 0.  0.
         12    1    1    2    0    0 -0.15284105814E+02 -0.33564895405E+02 -0.22878311647E+02  0.43400728541E+02  0.00000000000E+00 0. -1.
         11    1    3    3    0    0  0.34927466163E+01 -0.16698650497E+01  0.51354152167E-01  0.38717393662E+01  0.51100000000E-03 0. -1.
        -11    1    3    3    0    0  0.82603592157E+01  0.19407627930E+02  0.15178539061E+02  0.25986104066E+02  0.51100000000E-03 0.  1.
         12    1    3    3    0    0  0.35309999818E+01  0.15827132525E+02  0.76484184333E+01  0.17929428027E+02  0.00000000000E+00 0. -1.
</event>
<event>
 7    1  0.2476315E-009  0.4778726E+02  0.7816164E-02  0.1312668E+00
        -11   -1    0    0    0    0  0.00000000000E+00  0.00000000000E+00  0.45593999997E+02  0.45594000000E+02  0.51100000000E-03 0.  1.
         11   -1    0    0    0    0 -0.00000000000E+00 -0.00000000000E+00 -0.45593999997E+02  0.45594000000E+02  0.51100000000E-03 0. -1.
    9900012    2    1    2    0    0 -0.84222948327E+01  0.10018038203E+02  0.41380282267E+02  0.47787263829E+02  0.19999967102E+02 0.  0.
         12    1    1    2    0    0  0.84222948327E+01 -0.10018038203E+02 -0.41380282267E+02  0.43400736171E+02  0.00000000000E+00 0. -1.
         11    1    3    3    0    0 -0.74813024200E-01 -0.27583965938E+01  0.13291285355E+02  0.13574704984E+02  0.51100000000E-03 0.  1.
        -11    1    3    3    0    0 -0.74469979626E+01  0.12802146810E+02  0.14954911447E+02  0.21047615500E+02  0.51100000000E-03 0. -1.
         12    1    3    3    0    0 -0.90048384591E+00 -0.25712013051E-01  0.13134085465E+02  0.13164943345E+02  0.00000000000E+00 0. -1.
</event>
<event>
 7    1  0.2476315E-009  0.4778727E+02  0.7816164E-02  0.1312668E+00
        -11   -1    0    0    0    0  0.00000000000E+00  0.00000000000E+00  0.45593999997E+02  0.45594000000E+02  0.51100000000E-03 0.  1.
         11   -1    0    0    0    0 -0.00000000000E+00 -0.00000000000E+00 -0.45593999997E+02  0.45594000000E+02  0.51100000000E-03 0. -1.
    9900012    2    1    2    0    0 -0.40811303888E+02  0.13615381840E+02  0.57168134560E+01  0.47787273004E+02  0.20000008935E+02 0.  0.
         12    1    1    2    0    0  0.40811303888E+02 -0.13615381840E+02 -0.57168134560E+01  0.43400726996E+02  0.00000000000E+00 0. -1.
         11    1    3    3    0    0 -0.17581443278E+01 -0.16177587240E+01  0.10645161752E+01  0.26156088612E+01  0.51100000000E-03 0. -1.
        -11    1    3    3    0    0 -0.77157147136E+00  0.39105245004E+01 -0.23707480436E+01  0.46376686978E+01  0.51100000000E-03 0.  1.
        -12    1    3    3    0    0 -0.38281588089E+02  0.11322616064E+02  0.70230453244E+01  0.40533995445E+02  0.00000000000E+00 0.  1.
</event>
<event>
 7    1  0.2476315E-009  0.4778727E+02  0.7816164E-02  0.1312668E+00
        -11   -1    0    0    0    0  0.00000000000E+00  0.00000000000E+00  0.45593999997E+02  0.45594000000E+02  0.51100000000E-03 0. -1.
         11   -1    0    0    0    0 -0.00000000000E+00 -0.00000000000E+00 -0.45593999997E+02  0.45594000000E+02  0.51100000000E-03 0.  1.
    9900012    2    1    2    0    0  0.23918651646E+02 -0.26056205608E+02 -0.25151450985E+02  0.47787271505E+02  0.20000002101E+02 0.  0.
         12    1    1    2    0    0 -0.23918651646E+02  0.26056205608E+02  0.25151450985E+02  0.43400728495E+02  0.00000000000E+00 0. -1.
         11    1    3    3    0    0  0.14505415463E+02 -0.15463575600E+02 -0.10573954905E+02  0.23692567836E+02  0.51100000000E-03 0.  1.
        -11    1    3    3    0    0 -0.10992110266E+01 -0.45938213169E+00 -0.79864823975E+01  0.80748497305E+01  0.51100000000E-03 0. -1.
         12    1    3    3    0    0  0.10512447209E+02 -0.10133247876E+02 -0.65910136831E+01  0.16019853938E+02  0.00000000000E+00 0. -1.
</event>
<event>
 7    1  0.2476315E-009  0.4778727E+02  0.7816164E-02  0.1312668E+00
        -11   -1    0    0    0    0  0.00000000000E+00  0.00000000000E+00  0.45593999997E+02  0.45594000000E+02  0.51100000000E-03 0.  1.
         11   -1    0    0    0    0 -0.00000000000E+00 -0.00000000000E+00 -0.45593999997E+02  0.45594000000E+02  0.51100000000E-03 0. -1.
    9900012    2    1    2    0    0  0.41865611375E+02 -0.11430586469E+02 -0.48526025932E+00  0.47787271891E+02  0.20000003860E+02 0.  0.
         12    1    1    2    0    0 -0.41865611375E+02  0.11430586469E+02  0.48526025932E+00  0.43400728109E+02  0.00000000000E+00 0. -1.
         11    1    3    3    0    0  0.17625624755E+00 -0.47924083787E+00  0.28663906234E+01  0.29115173901E+01  0.51100000000E-03 0. -1.
        -11    1    3    3    0    0  0.37365292360E+02 -0.96907810203E+01  0.99783222600E+00  0.38614401191E+02  0.51100000000E-03 0.  1.
         12    1    3    3    0    0  0.43240627677E+01 -0.12605646110E+01 -0.43494831087E+01  0.62613533099E+01  0.00000000000E+00 0. -1.
</event>
<event>
 7    1  0.2476315E-009  0.4778727E+02  0.7816164E-02  0.1312668E+00
        -11   -1    0    0    0    0  0.00000000000E+00  0.00000000000E+00  0.45593999997E+02  0.45594000000E+02  0.51100000000E-03 0.  1.
         11   -1    0    0    0    0 -0.00000000000E+00 -0.00000000000E+00 -0.45593999997E+02  0.45594000000E+02  0.51100000000E-03 0. -1.
    9900012    2    1    2    0    0  0.37939191716E+02 -0.15152731992E+02  0.14650447924E+02  0.47787272135E+02  0.20000004971E+02 0.  0.
         12    1    1    2    0    0 -0.37939191716E+02  0.15152731992E+02 -0.14650447924E+02  0.43400727865E+02  0.00000000000E+00 0. -1.
         11    1    3    3    0    0  0.23243108795E+02 -0.46290783761E+01  0.70116583013E+01  0.24715052609E+02  0.51100000000E-03 0. -1.
        -11    1    3    3    0    0  0.89446514031E+01 -0.10559636970E+02  0.97683296079E+01  0.16939096353E+02  0.51100000000E-03 0.  1.
         12    1    3    3    0    0  0.57514315172E+01  0.35983354037E-01 -0.21295399855E+01  0.61331231725E+01  0.00000000000E+00 0. -1.
</event>
<event>
 7    1  0.2476315E-009  0.4778727E+02  0.7816164E-02  0.1312668E+00
        -11   -1    0    0    0    0  0.00000000000E+00  0.00000000000E+00  0.45593999997E+02  0.45594000000E+02  0.51100000000E-03 0.  1.
         11   -1    0    0    0    0 -0.00000000000E+00 -0.00000000000E+00 -0.45593999997E+02  0.45594000000E+02  0.51100000000E-03 0. -1.
    9900012    2    1    2    0    0  0.44713289471E+01  0.29910476530E+02  0.31128666276E+02  0.47787271286E+02  0.20000001100E+02 0.  0.
         12    1    1    2    0    0 -0.44713289471E+01 -0.29910476530E+02 -0.31128666276E+02  0.43400728714E+02  0.00000000000E+00 0. -1.
         11    1    3    3    0    0  0.74333937141E+01  0.40165022122E+01  0.73508368554E+01  0.11199215815E+02  0.51100000000E-03 0.  1.
        -11    1    3    3    0    0  0.33949530752E+01  0.10866713873E+02  0.82104100551E+01  0.14036452911E+02  0.51100000000E-03 0. -1.
         12    1    3    3    0    0 -0.63570178421E+01  0.15027260445E+02  0.15567419365E+02  0.22551602560E+02  0.00000000000E+00 0. -1.
</event>
<event>
 7    1  0.2476315E-009  0.4778724E+02  0.7816164E-02  0.1312668E+00
        -11   -1    0    0    0    0  0.00000000000E+00  0.00000000000E+00  0.45593999997E+02  0.45594000000E+02  0.51100000000E-03 0.  1.
         11   -1    0    0    0    0 -0.00000000000E+00 -0.00000000000E+00 -0.45593999997E+02  0.45594000000E+02  0.51100000000E-03 0. -1.
    9900012    2    1    2    0    0 -0.14666629159E+02  0.11811554374E+02  0.39102466313E+02  0.47787243101E+02  0.19999872595E+02 0.  0.
         12    1    1    2    0    0  0.14666629159E+02 -0.11811554374E+02 -0.39102466313E+02  0.43400756899E+02  0.00000000000E+00 0. -1.
         11    1    3    3    0    0 -0.76176985735E-01  0.21834981785E+01  0.18129041086E+01  0.28390295519E+01  0.51100000000E-03 0. -1.
        -11    1    3    3    0    0 -0.13369239618E+01 -0.41533794442E+01  0.14797757900E+02  0.15427623459E+02  0.51100000000E-03 0.  1.
        -12    1    3    3    0    0 -0.13253528212E+02  0.13781435640E+02  0.22491804305E+02  0.29520590090E+02  0.00000000000E+00 0.  1.
</event>
<event>
 7    1  0.2476315E-009  0.4778727E+02  0.7816164E-02  0.1312668E+00
        -11   -1    0    0    0    0  0.00000000000E+00  0.00000000000E+00  0.45593999997E+02  0.45594000000E+02  0.51100000000E-03 0.  1.
         11   -1    0    0    0    0 -0.00000000000E+00 -0.00000000000E+00 -0.45593999997E+02  0.45594000000E+02  0.51100000000E-03 0. -1.
    9900012    2    1    2    0    0  0.37754363056E+02 -0.73245456563E+01 -0.20114237950E+02  0.47787268818E+02  0.19999989847E+02 0.  0.
         12    1    1    2    0    0 -0.37754363056E+02  0.73245456563E+01  0.20114237950E+02  0.43400731182E+02  0.00000000000E+00 0. -1.
         11    1    3    3    0    0  0.24941195596E+01 -0.56275434173E+01 -0.62601753014E+01  0.87795029675E+01  0.51100000000E-03 0. -1.
        -11    1    3    3    0    0  0.18704228532E+02 -0.53992116796E+01 -0.82149629269E+01  0.21130198009E+02  0.51100000000E-03 0.  1.
         12    1    3    3    0    0  0.16556014964E+02  0.37022094405E+01 -0.56390997222E+01  0.17877567841E+02  0.00000000000E+00 0. -1.
</event>
<event>
 7    1  0.2476315E-009  0.4778727E+02  0.7816164E-02  0.1312668E+00
        -11   -1    0    0    0    0  0.00000000000E+00  0.00000000000E+00  0.45593999997E+02  0.45594000000E+02  0.51100000000E-03 0. -1.
         11   -1    0    0    0    0 -0.00000000000E+00 -0.00000000000E+00 -0.45593999997E+02  0.45594000000E+02  0.51100000000E-03 0.  1.
    9900012    2    1    2    0    0 -0.35707487276E+02 -0.22479501482E+02 -0.10162213752E+02  0.47787271633E+02  0.20000002683E+02 0.  0.
         12    1    1    2    0    0  0.35707487276E+02  0.22479501482E+02  0.10162213752E+02  0.43400728367E+02  0.00000000000E+00 0. -1.
         11    1    3    3    0    0 -0.37674487307E+01 -0.44497969407E+01 -0.23884970181E+01  0.63007365457E+01  0.51100000000E-03 0. -1.
        -11    1    3    3    0    0 -0.32599892910E+02 -0.19119814894E+02 -0.46067922329E+01  0.38072862701E+02  0.51100000000E-03 0.  1.
        -12    1    3    3    0    0  0.65985436391E+00  0.10901103532E+01 -0.31669245012E+01  0.34136723862E+01  0.00000000000E+00 0.  1.
</event>
<event>
 7    1  0.2476315E-009  0.4778727E+02  0.7816164E-02  0.1312668E+00
        -11   -1    0    0    0    0  0.00000000000E+00  0.00000000000E+00  0.45593999997E+02  0.45594000000E+02  0.51100000000E-03 0.  1.
         11   -1    0    0    0    0 -0.00000000000E+00 -0.00000000000E+00 -0.45593999997E+02  0.45594000000E+02  0.51100000000E-03 0. -1.
    9900012    2    1    2    0    0 -0.78407861518E+01 -0.78917577679E+01  0.41950751136E+02  0.47787270870E+02  0.19999999203E+02 0.  0.
         12    1    1    2    0    0  0.78407861518E+01  0.78917577679E+01 -0.41950751136E+02  0.43400729130E+02  0.00000000000E+00 0. -1.
         11    1    3    3    0    0 -0.39380852944E+01  0.63717808789E+01  0.12688921918E+02  0.14734885376E+02  0.51100000000E-03 0. -1.
        -11    1    3    3    0    0 -0.22963090746E+01 -0.92753545718E+01  0.14294226422E+02  0.17193898542E+02  0.51100000000E-03 0.  1.
         12    1    3    3    0    0 -0.16063917829E+01 -0.49881840750E+01  0.14967602797E+02  0.15858486952E+02  0.00000000000E+00 0. -1.
</event>
<event>
 7    1  0.2476315E-009  0.4778727E+02  0.7816164E-02  0.1312668E+00
        -11   -1    0    0    0    0  0.00000000000E+00  0.00000000000E+00  0.45593999997E+02  0.45594000000E+02  0.51100000000E-03 0.  1.
         11   -1    0    0    0    0 -0.00000000000E+00 -0.00000000000E+00 -0.45593999997E+02  0.45594000000E+02  0.51100000000E-03 0. -1.
    9900012    2    1    2    0    0 -0.13171230101E+02  0.51583226253E+01  0.41030889009E+02  0.47787269043E+02  0.19999990876E+02 0.  0.
         12    1    1    2    0    0  0.13171230101E+02 -0.51583226253E+01 -0.41030889009E+02  0.43400730957E+02  0.00000000000E+00 0. -1.
         11    1    3    3    0    0 -0.11108579025E+02  0.59259508172E+00  0.10662409633E+02  0.15409045277E+02  0.51100000000E-03 0. -1.
        -11    1    3    3    0    0  0.36204519464E+01 -0.86766993834E-01  0.13557597531E+02  0.14032948795E+02  0.51100000000E-03 0.  1.
        -12    1    3    3    0    0 -0.56831030220E+01  0.46524945375E+01  0.16810881845E+02  0.18345274972E+02  0.00000000000E+00 0.  1.
</event>
<event>
 7    1  0.2476315E-009  0.4778728E+02  0.7816164E-02  0.1312668E+00
        -11   -1    0    0    0    0  0.00000000000E+00  0.00000000000E+00  0.45593999997E+02  0.45594000000E+02  0.51100000000E-03 0. -1.
         11   -1    0    0    0    0 -0.00000000000E+00 -0.00000000000E+00 -0.45593999997E+02  0.45594000000E+02  0.51100000000E-03 0.  1.
    9900012    2    1    2    0    0 -0.12247067955E+02 -0.19815302458E+02 -0.36619465318E+02  0.47787284278E+02  0.20000060335E+02 0.  0.
         12    1    1    2    0    0  0.12247067955E+02  0.19815302458E+02  0.36619465318E+02  0.43400715722E+02  0.00000000000E+00 0. -1.
         11    1    3    3    0    0  0.31946701445E+01  0.11203110156E+01 -0.51562353336E+01  0.61682880267E+01  0.51100000000E-03 0. -1.
        -11    1    3    3    0    0 -0.68160727548E+01 -0.12717921937E+02 -0.22419998460E+02  0.26661971372E+02  0.51100000000E-03 0.  1.
         12    1    3    3    0    0 -0.86256653450E+01 -0.82176915365E+01 -0.90432315245E+01  0.14957024879E+02  0.00000000000E+00 0. -1.
</event>
<event>
 7    1  0.2476315E-009  0.4778727E+02  0.7816164E-02  0.1312668E+00
        -11   -1    0    0    0    0  0.00000000000E+00  0.00000000000E+00  0.45593999997E+02  0.45594000000E+02  0.51100000000E-03 0.  1.
         11   -1    0    0    0    0 -0.00000000000E+00 -0.00000000000E+00 -0.45593999997E+02  0.45594000000E+02  0.51100000000E-03 0. -1.
    9900012    2    1    2    0    0 -0.23423230816E+02 -0.28538348895E+02  0.22815306279E+02  0.47787270742E+02  0.19999998621E+02 0.  0.
         12    1    1    2    0    0  0.23423230816E+02  0.28538348895E+02 -0.22815306279E+02  0.43400729258E+02  0.00000000000E+00 0. -1.
         11    1    3    3    0    0 -0.11978271937E+02 -0.20800977584E+01  0.91503241401E+01  0.15216249124E+02  0.51100000000E-03 0.  1.
        -11    1    3    3    0    0 -0.10835674164E+02 -0.26215386657E+02  0.14202201913E+02  0.31723191384E+02  0.51100000000E-03 0. -1.
         12    1    3    3    0    0 -0.60928471489E+00 -0.24286447952E+00 -0.53721977402E+00  0.84783023348E+00  0.00000000000E+00 0. -1.
</event>
<event>
 7    1  0.2476315E-009  0.4778728E+02  0.7816164E-02  0.1312668E+00
        -11   -1    0    0    0    0  0.00000000000E+00  0.00000000000E+00  0.45593999997E+02  0.45594000000E+02  0.51100000000E-03 0.  1.
         11   -1    0    0    0    0 -0.00000000000E+00 -0.00000000000E+00 -0.45593999997E+02  0.45594000000E+02  0.51100000000E-03 0. -1.
    9900012    2    1    2    0    0  0.92461152983E+01 -0.87497467194E+01  0.41491848784E+02  0.47787283056E+02  0.20000054764E+02 0.  0.
         12    1    1    2    0    0 -0.92461152983E+01  0.87497467194E+01 -0.41491848784E+02  0.43400716944E+02  0.00000000000E+00 0. -1.
         11    1    3    3    0    0 -0.23000801938E+01 -0.23174044705E+01  0.91629578460E+01  0.97273084214E+01  0.51100000000E-03 0. -1.
        -11    1    3    3    0    0  0.15067071134E+02 -0.34229902745E+01  0.25109042083E+02  0.29482155442E+02  0.51100000000E-03 0.  1.
        -12    1    3    3    0    0 -0.35208756416E+01 -0.30093519744E+01  0.72198488555E+01  0.85778191917E+01  0.00000000000E+00 0.  1.
</event>
<event>
 7    1  0.2476315E-009  0.4778727E+02  0.7816164E-02  0.1312668E+00
        -11   -1    0    0    0    0  0.00000000000E+00  0.00000000000E+00  0.45593999997E+02  0.45594000000E+02  0.51100000000E-03 0. -1.
         11   -1    0    0    0    0 -0.00000000000E+00 -0.00000000000E+00 -0.45593999997E+02  0.45594000000E+02  0.51100000000E-03 0.  1.
    9900012    2    1    2    0    0 -0.38803211834E+02 -0.96808138183E+01 -0.16858700558E+02  0.47787272019E+02  0.20000004442E+02 0.  0.
         12    1    1    2    0    0  0.38803211834E+02  0.96808138183E+01  0.16858700558E+02  0.43400727981E+02  0.00000000000E+00 0. -1.
         11    1    3    3    0    0 -0.72086407322E+01 -0.41114234721E+01 -0.10105035150E+02  0.13075933612E+02  0.51100000000E-03 0. -1.
        -11    1    3    3    0    0 -0.31379157429E+02 -0.73564097098E+01 -0.66470387016E+01  0.32908227065E+02  0.51100000000E-03 0.  1.
         12    1    3    3    0    0 -0.21541367242E+00  0.17870193637E+01 -0.10662670554E+00  0.18031113417E+01  0.00000000000E+00 0. -1.
</event>
<event>
 7    1  0.2476315E-009  0.4778727E+02  0.7816164E-02  0.1312668E+00
        -11   -1    0    0    0    0  0.00000000000E+00  0.00000000000E+00  0.45593999997E+02  0.45594000000E+02  0.51100000000E-03 0. -1.
         11   -1    0    0    0    0 -0.00000000000E+00 -0.00000000000E+00 -0.45593999997E+02  0.45594000000E+02  0.51100000000E-03 0.  1.
    9900012    2    1    2    0    0 -0.13462290743E+02 -0.18985293492E+02 -0.36632619422E+02  0.47787269053E+02  0.19999990921E+02 0.  0.
         12    1    1    2    0    0  0.13462290743E+02  0.18985293492E+02  0.36632619422E+02  0.43400730947E+02  0.00000000000E+00 0. -1.
         11    1    3    3    0    0 -0.86676966832E+01 -0.50401258799E+01 -0.44678147629E+01  0.10976939632E+02  0.51100000000E-03 0. -1.
        -11    1    3    3    0    0 -0.44008687239E+01 -0.35971100875E+01 -0.20209910550E+02  0.20993983214E+02  0.51100000000E-03 0.  1.
         12    1    3    3    0    0 -0.39372533611E+00 -0.10348057525E+02 -0.11954894109E+02  0.15816346206E+02  0.00000000000E+00 0. -1.
</event>
<event>
 7    1  0.2476315E-009  0.4778727E+02  0.7816164E-02  0.1312668E+00
        -11   -1    0    0    0    0  0.00000000000E+00  0.00000000000E+00  0.45593999997E+02  0.45594000000E+02  0.51100000000E-03 0.  1.
         11   -1    0    0    0    0 -0.00000000000E+00 -0.00000000000E+00 -0.45593999997E+02  0.45594000000E+02  0.51100000000E-03 0. -1.
    9900012    2    1    2    0    0 -0.11743575045E+02  0.37752089490E+02  0.17902278203E+02  0.47787269816E+02  0.19999994398E+02 0.  0.
         12    1    1    2    0    0  0.11743575045E+02 -0.37752089490E+02 -0.17902278203E+02  0.43400730184E+02  0.00000000000E+00 0. -1.
         11    1    3    3    0    0  0.85854946082E+00  0.12439658331E+02  0.13357726759E+02  0.18273233731E+02  0.51100000000E-03 0. -1.
        -11    1    3    3    0    0 -0.94654520837E+01  0.11227445008E+02  0.14547075143E+01  0.14756912915E+02  0.51100000000E-03 0.  1.
        -12    1    3    3    0    0 -0.31366724226E+01  0.14084986151E+02  0.30898439298E+01  0.14757123170E+02  0.00000000000E+00 0.  1.
</event>
<event>
 7    1  0.2476315E-009  0.4778727E+02  0.7816164E-02  0.1312668E+00
        -11   -1    0    0    0    0  0.00000000000E+00  0.00000000000E+00  0.45593999997E+02  0.45594000000E+02  0.51100000000E-03 0.  1.
         11   -1    0    0    0    0 -0.00000000000E+00 -0.00000000000E+00 -0.45593999997E+02  0.45594000000E+02  0.51100000000E-03 0. -1.
    9900012    2    1    2    0    0  0.39913769711E+02 -0.14105248995E+02 -0.95684875003E+01  0.47787274029E+02  0.20000013607E+02 0.  0.
         12    1    1    2    0    0 -0.39913769711E+02  0.14105248995E+02  0.95684875003E+01  0.43400725971E+02  0.00000000000E+00 0. -1.
         11    1    3    3    0    0  0.13447279669E+02 -0.35671899054E+00 -0.24210297506E+01  0.13668136824E+02  0.51100000000E-03 0. -1.
        -11    1    3    3    0    0  0.11995605103E+02 -0.14302068221E+02 -0.21053467820E+01  0.18784998869E+02  0.51100000000E-03 0.  1.
        -12    1    3    3    0    0  0.14470884939E+02  0.55353821635E+00 -0.50421109676E+01  0.15334138335E+02  0.00000000000E+00 0.  1.
</event>
<event>
 7    1  0.2476315E-009  0.4778728E+02  0.7816164E-02  0.1312668E+00
        -11   -1    0    0    0    0  0.00000000000E+00  0.00000000000E+00  0.45593999997E+02  0.45594000000E+02  0.51100000000E-03 0.  1.
         11   -1    0    0    0    0 -0.00000000000E+00 -0.00000000000E+00 -0.45593999997E+02  0.45594000000E+02  0.51100000000E-03 0. -1.
    9900012    2    1    2    0    0 -0.12235100230E+02 -0.30393357506E+02  0.28463458814E+02  0.47787281737E+02  0.20000048751E+02 0.  0.
         12    1    1    2    0    0  0.12235100230E+02  0.30393357506E+02 -0.28463458814E+02  0.43400718263E+02  0.00000000000E+00 0. -1.
         11    1    3    3    0    0  0.32792178918E+01 -0.14192744432E+02  0.10110716728E+02  0.17731718966E+02  0.51100000000E-03 0. -1.
        -11    1    3    3    0    0 -0.10605838941E+02 -0.78535992311E+01  0.63836271609E+01  0.14659929622E+02  0.51100000000E-03 0.  1.
        -12    1    3    3    0    0 -0.49084791800E+01 -0.83470138428E+01  0.11969114925E+02  0.15395633149E+02  0.00000000000E+00 0.  1.
</event>
<event>
 7    1  0.2476315E-009  0.4778728E+02  0.7816164E-02  0.1312668E+00
        -11   -1    0    0    0    0  0.00000000000E+00  0.00000000000E+00  0.45593999997E+02  0.45594000000E+02  0.51100000000E-03 0.  1.
         11   -1    0    0    0    0 -0.00000000000E+00 -0.00000000000E+00 -0.45593999997E+02  0.45594000000E+02  0.51100000000E-03 0. -1.
    9900012    2    1    2    0    0  0.75488412672E+01  0.17495374302E+02  0.38994219421E+02  0.47787282555E+02  0.20000052482E+02 0.  0.
         12    1    1    2    0    0 -0.75488412672E+01 -0.17495374302E+02 -0.38994219421E+02  0.43400717445E+02  0.00000000000E+00 0. -1.
         11    1    3    3    0    0  0.24345799627E+01  0.10791923030E+02  0.10076275856E+02  0.14964094282E+02  0.51100000000E-03 0.  1.
        -11    1    3    3    0    0 -0.11001083856E+01 -0.34490618594E+01  0.70691181944E+01  0.79422099240E+01  0.51100000000E-03 0. -1.
        -12    1    3    3    0    0  0.62143696901E+01  0.10152513131E+02  0.21848825371E+02  0.24880978349E+02  0.00000000000E+00 0.  1.
</event>
<event>
 7    1  0.2476315E-009  0.4778727E+02  0.7816164E-02  0.1312668E+00
        -11   -1    0    0    0    0  0.00000000000E+00  0.00000000000E+00  0.45593999997E+02  0.45594000000E+02  0.51100000000E-03 0.  1.
         11   -1    0    0    0    0 -0.00000000000E+00 -0.00000000000E+00 -0.45593999997E+02  0.45594000000E+02  0.51100000000E-03 0. -1.
    9900012    2    1    2    0    0 -0.30329123295E+02 -0.18573872052E+02  0.24875262670E+02  0.47787272636E+02  0.20000007256E+02 0.  0.
         12    1    1    2    0    0  0.30329123295E+02  0.18573872052E+02 -0.24875262670E+02  0.43400727364E+02  0.00000000000E+00 0. -1.
         11    1    3    3    0    0 -0.11529611542E+02  0.54832297903E+00  0.12863866656E+02  0.17283277062E+02  0.51100000000E-03 0. -1.
        -11    1    3    3    0    0 -0.10755197122E+02 -0.11527694538E+02  0.11340400503E+02  0.19420779859E+02  0.51100000000E-03 0.  1.
         12    1    3    3    0    0 -0.80443146310E+01 -0.75945004924E+01  0.67099551160E+00  0.11083215715E+02  0.00000000000E+00 0. -1.
</event>
<event>
 7    1  0.2476315E-009  0.4778727E+02  0.7816164E-02  0.1312668E+00
        -11   -1    0    0    0    0  0.00000000000E+00  0.00000000000E+00  0.45593999997E+02  0.45594000000E+02  0.51100000000E-03 0.  1.
         11   -1    0    0    0    0 -0.00000000000E+00 -0.00000000000E+00 -0.45593999997E+02  0.45594000000E+02  0.51100000000E-03 0. -1.
    9900012    2    1    2    0    0 -0.83427930542E+01  0.35378727562E+02  0.23714273010E+02  0.47787270695E+02  0.19999998405E+02 0.  0.
         12    1    1    2    0    0  0.83427930542E+01 -0.35378727562E+02 -0.23714273010E+02  0.43400729305E+02  0.00000000000E+00 0. -1.
         11    1    3    3    0    0 -0.90992088232E+01  0.10323630396E+02  0.13177318221E+02  0.19052943645E+02  0.51100000000E-03 0. -1.
        -11    1    3    3    0    0  0.44691818653E+01  0.95072732553E+01  0.60875084127E+01  0.12141646932E+02  0.51100000000E-03 0.  1.
         12    1    3    3    0    0 -0.37127660963E+01  0.15547823910E+02  0.44494463762E+01  0.16592680118E+02  0.00000000000E+00 0. -1.
</event>
<event>
 7    1  0.2476315E-009  0.4778727E+02  0.7816164E-02  0.1312668E+00
        -11   -1    0    0    0    0  0.00000000000E+00  0.00000000000E+00  0.45593999997E+02  0.45594000000E+02  0.51100000000E-03 0.  1.
         11   -1    0    0    0    0 -0.00000000000E+00 -0.00000000000E+00 -0.45593999997E+02  0.45594000000E+02  0.51100000000E-03 0. -1.
    9900012    2    1    2    0    0 -0.10449575805E+02  0.87146553541E+01  0.41212670386E+02  0.47787273591E+02  0.20000011613E+02 0.  0.
         12    1    1    2    0    0  0.10449575805E+02 -0.87146553541E+01 -0.41212670386E+02  0.43400726409E+02  0.00000000000E+00 0. -1.
         11    1    3    3    0    0  0.53135733371E+00  0.73063158237E+01  0.13085977307E+02  0.14996912811E+02  0.51100000000E-03 0. -1.
        -11    1    3    3    0    0 -0.91093236260E+00 -0.46672241278E+01  0.11311624586E+02  0.12270518728E+02  0.51100000000E-03 0.  1.
        -12    1    3    3    0    0 -0.10070000776E+02  0.60755636582E+01  0.16815068493E+02  0.20519842052E+02  0.00000000000E+00 0.  1.
</event>
<event>
 7    1  0.2476315E-009  0.4778728E+02  0.7816164E-02  0.1312668E+00
        -11   -1    0    0    0    0  0.00000000000E+00  0.00000000000E+00  0.45593999997E+02  0.45594000000E+02  0.51100000000E-03 0. -1.
         11   -1    0    0    0    0 -0.00000000000E+00 -0.00000000000E+00 -0.45593999997E+02  0.45594000000E+02  0.51100000000E-03 0.  1.
    9900012    2    1    2    0    0 -0.72608893538E+01  0.42520882109E+02  0.47829559240E+01  0.47787278843E+02  0.20000035558E+02 0.  0.
         12    1    1    2    0    0  0.72608893538E+01 -0.42520882109E+02 -0.47829559240E+01  0.43400721157E+02  0.00000000000E+00 0. -1.
         11    1    3    3    0    0 -0.77337091102E+01  0.50497841764E+01 -0.26069103994E+00  0.92400506984E+01  0.51100000000E-03 0. -1.
        -11    1    3    3    0    0  0.15668357506E+01  0.20147467903E+02  0.62348649641E+01  0.21148261833E+02  0.51100000000E-03 0.  1.
        -12    1    3    3    0    0 -0.10940159942E+01  0.17323630030E+02 -0.11912180002E+01  0.17398966312E+02  0.00000000000E+00 0.  1.
</event>
<event>
 7    1  0.2476315E-009  0.4778727E+02  0.7816164E-02  0.1312668E+00
        -11   -1    0    0    0    0  0.00000000000E+00  0.00000000000E+00  0.45593999997E+02  0.45594000000E+02  0.51100000000E-03 0.  1.
         11   -1    0    0    0    0 -0.00000000000E+00 -0.00000000000E+00 -0.45593999997E+02  0.45594000000E+02  0.51100000000E-03 0. -1.
    9900012    2    1    2    0    0 -0.93996203235E+01  0.10386978720E+02  0.41077744562E+02  0.47787270888E+02  0.19999999285E+02 0.  0.
         12    1    1    2    0    0  0.93996203235E+01 -0.10386978720E+02 -0.41077744562E+02  0.43400729112E+02  0.00000000000E+00 0. -1.
         11    1    3    3    0    0 -0.11092553463E+02  0.82670196759E+01  0.19531317704E+02  0.23934509149E+02  0.51100000000E-03 0. -1.
        -11    1    3    3    0    0  0.44383359527E+01  0.46529789575E+01  0.14904768986E+02  0.16232719366E+02  0.51100000000E-03 0.  1.
        -12    1    3    3    0    0 -0.27454028130E+01 -0.25330199136E+01  0.66416578718E+01  0.76200423735E+01  0.00000000000E+00 0.  1.
</event>
<event>
 7    1  0.2476315E-009  0.4778728E+02  0.7816164E-02  0.1312668E+00
        -11   -1    0    0    0    0  0.00000000000E+00  0.00000000000E+00  0.45593999997E+02  0.45594000000E+02  0.51100000000E-03 0. -1.
         11   -1    0    0    0    0 -0.00000000000E+00 -0.00000000000E+00 -0.45593999997E+02  0.45594000000E+02  0.51100000000E-03 0.  1.
    9900012    2    1    2    0    0  0.66229275525E+00 -0.36795417288E+02 -0.23006117223E+02  0.47787276564E+02  0.20000025167E+02 0.  0.
         12    1    1    2    0    0 -0.66229275525E+00  0.36795417288E+02  0.23006117223E+02  0.43400723436E+02  0.00000000000E+00 0. -1.
         11    1    3    3    0    0 -0.26742236946E+01 -0.25589324701E+01 -0.16794367603E+01  0.40644945379E+01  0.51100000000E-03 0. -1.
        -11    1    3    3    0    0  0.41450940383E+01 -0.15085803426E+02 -0.84012123122E+00  0.15667452682E+02  0.51100000000E-03 0.  1.
        -12    1    3    3    0    0 -0.80857758839E+00 -0.19150681392E+02 -0.20486559231E+02  0.28055329344E+02  0.00000000000E+00 0.  1.
</event>
<event>
 7    1  0.2476315E-009  0.4778727E+02  0.7816164E-02  0.1312668E+00
        -11   -1    0    0    0    0  0.00000000000E+00  0.00000000000E+00  0.45593999997E+02  0.45594000000E+02  0.51100000000E-03 0.  1.
         11   -1    0    0    0    0 -0.00000000000E+00 -0.00000000000E+00 -0.45593999997E+02  0.45594000000E+02  0.51100000000E-03 0. -1.
    9900012    2    1    2    0    0 -0.16807994876E+02 -0.24718875437E+02  0.31465723587E+02  0.47787271257E+02  0.20000000967E+02 0.  0.
         12    1    1    2    0    0  0.16807994876E+02  0.24718875437E+02 -0.31465723587E+02  0.43400728743E+02  0.00000000000E+00 0. -1.
         11    1    3    3    0    0 -0.20377914529E+00  0.25977996002E+01  0.73747247603E-01  0.26068232814E+01  0.51100000000E-03 0. -1.
        -11    1    3    3    0    0 -0.82221173779E+01 -0.14430071197E+02  0.12290349314E+02  0.20661143614E+02  0.51100000000E-03 0.  1.
         12    1    3    3    0    0 -0.83820983524E+01 -0.12886603840E+02  0.19101627026E+02  0.24519304361E+02  0.00000000000E+00 0. -1.
</event>
<event>
 7    1  0.2476315E-009  0.4778727E+02  0.7816164E-02  0.1312668E+00
        -11   -1    0    0    0    0  0.00000000000E+00  0.00000000000E+00  0.45593999997E+02  0.45594000000E+02  0.51100000000E-03 0.  1.
         11   -1    0    0    0    0 -0.00000000000E+00 -0.00000000000E+00 -0.45593999997E+02  0.45594000000E+02  0.51100000000E-03 0. -1.
    9900012    2    1    2    0    0  0.21738875695E+02 -0.27852782317E+00  0.37562842010E+02  0.47787269659E+02  0.19999993685E+02 0.  0.
         12    1    1    2    0    0 -0.21738875695E+02  0.27852782317E+00 -0.37562842010E+02  0.43400730341E+02  0.00000000000E+00 0. -1.
         11    1    3    3    0    0  0.13302876242E+01  0.78437222900E+00 -0.16655926966E+01  0.22713661635E+01  0.51100000000E-03 0. -1.
        -11    1    3    3    0    0  0.10485177466E+02 -0.59085538709E+01  0.20900600487E+02  0.24118147862E+02  0.51100000000E-03 0.  1.
        -12    1    3    3    0    0  0.99234106053E+01  0.48456538187E+01  0.18327834220E+02  0.21397755634E+02  0.00000000000E+00 0.  1.
</event>
<event>
 7    1  0.2476315E-009  0.4778727E+02  0.7816164E-02  0.1312668E+00
        -11   -1    0    0    0    0  0.00000000000E+00  0.00000000000E+00  0.45593999997E+02  0.45594000000E+02  0.51100000000E-03 0.  1.
         11   -1    0    0    0    0 -0.00000000000E+00 -0.00000000000E+00 -0.45593999997E+02  0.45594000000E+02  0.51100000000E-03 0. -1.
    9900012    2    1    2    0    0 -0.23927973644E+02  0.27288212905E+02  0.23799763263E+02  0.47787271692E+02  0.20000002952E+02 0.  0.
         12    1    1    2    0    0  0.23927973644E+02 -0.27288212905E+02 -0.23799763263E+02  0.43400728308E+02  0.00000000000E+00 0. -1.
         11    1    3    3    0    0  0.59529000056E+00  0.26397793131E+01 -0.10764704909E+01  0.29123176313E+01  0.51100000000E-03 0. -1.
        -11    1    3    3    0    0 -0.20047855760E+02  0.24976972707E+02  0.24589548035E+02  0.40378355080E+02  0.51100000000E-03 0.  1.
        -12    1    3    3    0    0 -0.44754078850E+01 -0.32853911426E+00  0.28668571879E+00  0.44965989802E+01  0.00000000000E+00 0.  1.
</event>
<event>
 7    1  0.2476315E-009  0.4778726E+02  0.7816164E-02  0.1312668E+00
        -11   -1    0    0    0    0  0.00000000000E+00  0.00000000000E+00  0.45593999997E+02  0.45594000000E+02  0.51100000000E-03 0.  1.
         11   -1    0    0    0    0 -0.00000000000E+00 -0.00000000000E+00 -0.45593999997E+02  0.45594000000E+02  0.51100000000E-03 0. -1.
    9900012    2    1    2    0    0 -0.29116812767E+02  0.14030100074E+02  0.28965359029E+02  0.47787256718E+02  0.19999934680E+02 0.  0.
         12    1    1    2    0    0  0.29116812767E+02 -0.14030100074E+02 -0.28965359029E+02  0.43400743282E+02  0.00000000000E+00 0. -1.
         11    1    3    3    0    0 -0.22561649931E+01  0.22394006845E+01  0.12843897469E+02  0.13231435990E+02  0.51100000000E-03 0. -1.
        -11    1    3    3    0    0 -0.14931366736E+02  0.94674743004E+01  0.13178669698E+02  0.22051215783E+02  0.51100000000E-03 0.  1.
         12    1    3    3    0    0 -0.11929281037E+02  0.23232250888E+01  0.29427918615E+01  0.12504604945E+02  0.00000000000E+00 0. -1.
</event>
<event>
 7    1  0.2476315E-009  0.4778727E+02  0.7816164E-02  0.1312668E+00
        -11   -1    0    0    0    0  0.00000000000E+00  0.00000000000E+00  0.45593999997E+02  0.45594000000E+02  0.51100000000E-03 0.  1.
         11   -1    0    0    0    0 -0.00000000000E+00 -0.00000000000E+00 -0.45593999997E+02  0.45594000000E+02  0.51100000000E-03 0. -1.
    9900012    2    1    2    0    0  0.40103611656E+02 -0.68206991606E+01  0.15126195322E+02  0.47787269709E+02  0.19999993911E+02 0.  0.
         12    1    1    2    0    0 -0.40103611656E+02  0.68206991606E+01 -0.15126195322E+02  0.43400730291E+02  0.00000000000E+00 0. -1.
         11    1    3    3    0    0  0.34632028575E+02 -0.12719633117E+02  0.12615925123E+02  0.38991384136E+02  0.51100000000E-03 0. -1.
        -11    1    3    3    0    0  0.35043056777E+01  0.48237469347E+01  0.88675992663E+00  0.60278550249E+01  0.51100000000E-03 0.  1.
         12    1    3    3    0    0  0.19672774036E+01  0.10751870217E+01  0.16235102717E+01  0.27680305483E+01  0.00000000000E+00 0. -1.
</event>
<event>
 7    1  0.2476315E-009  0.4778727E+02  0.7816164E-02  0.1312668E+00
        -11   -1    0    0    0    0  0.00000000000E+00  0.00000000000E+00  0.45593999997E+02  0.45594000000E+02  0.51100000000E-03 0. -1.
         11   -1    0    0    0    0 -0.00000000000E+00 -0.00000000000E+00 -0.45593999997E+02  0.45594000000E+02  0.51100000000E-03 0.  1.
    9900012    2    1    2    0    0 -0.35557383485E+02  0.85663692695E+01 -0.23364786339E+02  0.47787269091E+02  0.19999991094E+02 0.  0.
         12    1    1    2    0    0  0.35557383485E+02 -0.85663692695E+01  0.23364786339E+02  0.43400730909E+02  0.00000000000E+00 0. -1.
         11    1    3    3    0    0 -0.70083330266E+01  0.10289672496E+02 -0.36925221081E+01  0.12985715678E+02  0.51100000000E-03 0. -1.
        -11    1    3    3    0    0 -0.11850764045E+02 -0.17646835881E+01 -0.74603714017E+01  0.14114243101E+02  0.51100000000E-03 0.  1.
         12    1    3    3    0    0 -0.16698286414E+02  0.41380361872E-01 -0.12211892829E+02  0.20687310312E+02  0.00000000000E+00 0. -1.
</event>
<event>
 7    1  0.2476315E-009  0.4778728E+02  0.7816164E-02  0.1312668E+00
        -11   -1    0    0    0    0  0.00000000000E+00  0.00000000000E+00  0.45593999997E+02  0.45594000000E+02  0.51100000000E-03 0.  1.
         11   -1    0    0    0    0 -0.00000000000E+00 -0.00000000000E+00 -0.45593999997E+02  0.45594000000E+02  0.51100000000E-03 0. -1.
    9900012    2    1    2    0    0 -0.25230668571E+02 -0.33749597683E+02  0.10392348166E+02  0.47787275574E+02  0.20000020653E+02 0.  0.
         12    1    1    2    0    0  0.25230668571E+02  0.33749597683E+02 -0.10392348166E+02  0.43400724426E+02  0.00000000000E+00 0. -1.
         11    1    3    3    0    0  0.11883411791E+01 -0.56514640661E+01 -0.59822235622E+00  0.58059513516E+01  0.51100000000E-03 0. -1.
        -11    1    3    3    0    0 -0.13568131539E+02 -0.98576907686E+01  0.10252024607E+02  0.19656354432E+02  0.51100000000E-03 0.  1.
        -12    1    3    3    0    0 -0.12850878211E+02 -0.18240442848E+02  0.73854591483E+00  0.22324969791E+02  0.00000000000E+00 0.  1.
</event>
<event>
 7    1  0.2476315E-009  0.4778727E+02  0.7816164E-02  0.1312668E+00
        -11   -1    0    0    0    0  0.00000000000E+00  0.00000000000E+00  0.45593999997E+02  0.45594000000E+02  0.51100000000E-03 0. -1.
         11   -1    0    0    0    0 -0.00000000000E+00 -0.00000000000E+00 -0.45593999997E+02  0.45594000000E+02  0.51100000000E-03 0.  1.
    9900012    2    1    2    0    0 -0.19495292808E+01 -0.65726531207E+01 -0.42855834282E+02  0.47787274598E+02  0.20000016201E+02 0.  0.
         12    1    1    2    0    0  0.19495292808E+01  0.65726531207E+01  0.42855834282E+02  0.43400725402E+02  0.00000000000E+00 0. -1.
         11    1    3    3    0    0 -0.21360698579E-01  0.68840656446E+01 -0.12184314635E+02  0.13994582504E+02  0.51100000000E-03 0. -1.
        -11    1    3    3    0    0 -0.19930335662E+01 -0.11595617039E+02 -0.28978385834E+02  0.31275827137E+02  0.51100000000E-03 0.  1.
         12    1    3    3    0    0  0.64864983961E-01 -0.18611017263E+01 -0.16931338121E+01  0.25168649561E+01  0.00000000000E+00 0. -1.
</event>
<event>
 7    1  0.2476315E-009  0.4778727E+02  0.7816164E-02  0.1312668E+00
        -11   -1    0    0    0    0  0.00000000000E+00  0.00000000000E+00  0.45593999997E+02  0.45594000000E+02  0.51100000000E-03 0. -1.
         11   -1    0    0    0    0 -0.00000000000E+00 -0.00000000000E+00 -0.45593999997E+02  0.45594000000E+02  0.51100000000E-03 0.  1.
    9900012    2    1    2    0    0 -0.14625800534E+02 -0.40395752875E+02 -0.61556873036E+01  0.47787269848E+02  0.19999994544E+02 0.  0.
         12    1    1    2    0    0  0.14625800534E+02  0.40395752875E+02  0.61556873036E+01  0.43400730152E+02  0.00000000000E+00 0. -1.
         11    1    3    3    0    0  0.10791183145E+01 -0.25498428635E+01 -0.27529874259E+01  0.39045018880E+01  0.51100000000E-03 0. -1.
        -11    1    3    3    0    0 -0.59117462410E+01 -0.36136805129E+01 -0.44974903036E+01  0.82604388358E+01  0.51100000000E-03 0.  1.
        -12    1    3    3    0    0 -0.97931726075E+01 -0.34232229498E+02  0.10947904259E+01  0.35622329124E+02  0.00000000000E+00 0.  1.
</event>
<event>
 7    1  0.2476315E-009  0.4778727E+02  0.7816164E-02  0.1312668E+00
        -11   -1    0    0    0    0  0.00000000000E+00  0.00000000000E+00  0.45593999997E+02  0.45594000000E+02  0.51100000000E-03 0.  1.
         11   -1    0    0    0    0 -0.00000000000E+00 -0.00000000000E+00 -0.45593999997E+02  0.45594000000E+02  0.51100000000E-03 0. -1.
    9900012    2    1    2    0    0  0.21490154214E+02  0.53985401076E+01  0.37318256036E+02  0.47787271931E+02  0.20000004040E+02 0.  0.
         12    1    1    2    0    0 -0.21490154214E+02 -0.53985401076E+01 -0.37318256036E+02  0.43400728069E+02  0.00000000000E+00 0. -1.
         11    1    3    3    0    0  0.14399893202E+02  0.76160620965E+01  0.17004072553E+02  0.23547819639E+02  0.51100000000E-03 0. -1.
        -11    1    3    3    0    0  0.19275958224E+01 -0.56635234418E+01  0.52991104987E+01  0.79919769625E+01  0.51100000000E-03 0.  1.
         12    1    3    3    0    0  0.51626651894E+01  0.34460014528E+01  0.15015072984E+02  0.16247475329E+02  0.00000000000E+00 0. -1.
</event>
<event>
 7    1  0.2476315E-009  0.4778727E+02  0.7816164E-02  0.1312668E+00
        -11   -1    0    0    0    0  0.00000000000E+00  0.00000000000E+00  0.45593999997E+02  0.45594000000E+02  0.51100000000E-03 0.  1.
         11   -1    0    0    0    0 -0.00000000000E+00 -0.00000000000E+00 -0.45593999997E+02  0.45594000000E+02  0.51100000000E-03 0. -1.
    9900012    2    1    2    0    0 -0.25705280454E+02 -0.31957692221E+02 -0.14197456220E+02  0.47787270762E+02  0.19999998711E+02 0.  0.
         12    1    1    2    0    0  0.25705280454E+02  0.31957692221E+02  0.14197456220E+02  0.43400729238E+02  0.00000000000E+00 0. -1.
         11    1    3    3    0    0 -0.76417251701E+01 -0.20983895772E+02 -0.98636557715E+01  0.24413347800E+02  0.51100000000E-03 0. -1.
        -11    1    3    3    0    0 -0.16718884279E+02 -0.59588530749E+01 -0.28714625790E+01  0.17979830897E+02  0.51100000000E-03 0.  1.
        -12    1    3    3    0    0 -0.13446710048E+01 -0.50149433742E+01 -0.14623378694E+01  0.53940920647E+01  0.00000000000E+00 0.  1.
</event>
<event>
 7    1  0.2476315E-009  0.4778727E+02  0.7816164E-02  0.1312668E+00
        -11   -1    0    0    0    0  0.00000000000E+00  0.00000000000E+00  0.45593999997E+02  0.45594000000E+02  0.51100000000E-03 0.  1.
         11   -1    0    0    0    0 -0.00000000000E+00 -0.00000000000E+00 -0.45593999997E+02  0.45594000000E+02  0.51100000000E-03 0. -1.
    9900012    2    1    2    0    0  0.34489789395E+02  0.24033364183E+02 -0.10792369381E+02  0.47787269553E+02  0.19999993200E+02 0.  0.
         12    1    1    2    0    0 -0.34489789395E+02 -0.24033364183E+02  0.10792369381E+02  0.43400730447E+02  0.00000000000E+00 0. -1.
         11    1    3    3    0    0 -0.11299932138E+01  0.63886119617E+00 -0.14865019447E+01  0.19735036316E+01  0.51100000000E-03 0. -1.
        -11    1    3    3    0    0  0.35444304392E+02  0.24880270254E+02 -0.85635637325E+01  0.44143642643E+02  0.51100000000E-03 0.  1.
        -12    1    3    3    0    0  0.17547821733E+00 -0.14857672670E+01 -0.74230370415E+00  0.16701232786E+01  0.00000000000E+00 0.  1.
</event>
<event>
 7    1  0.2476315E-009  0.4778727E+02  0.7816164E-02  0.1312668E+00
        -11   -1    0    0    0    0  0.00000000000E+00  0.00000000000E+00  0.45593999997E+02  0.45594000000E+02  0.51100000000E-03 0.  1.
         11   -1    0    0    0    0 -0.00000000000E+00 -0.00000000000E+00 -0.45593999997E+02  0.45594000000E+02  0.51100000000E-03 0. -1.
    9900012    2    1    2    0    0 -0.63372238911E+01  0.38000118492E+02  0.19986338642E+02  0.47787272537E+02  0.20000006805E+02 0.  0.
         12    1    1    2    0    0  0.63372238911E+01 -0.38000118492E+02 -0.19986338642E+02  0.43400727463E+02  0.00000000000E+00 0. -1.
         11    1    3    3    0    0 -0.24237179580E+00 -0.12064450376E+01 -0.13354250221E+01  0.18159333597E+01  0.51100000000E-03 0. -1.
        -11    1    3    3    0    0  0.20902344229E+01  0.74220002965E+01  0.58901906533E+01  0.97030672747E+01  0.51100000000E-03 0.  1.
         12    1    3    3    0    0 -0.81850865182E+01  0.31784563233E+02  0.15431573011E+02  0.36268271902E+02  0.00000000000E+00 0. -1.
</event>
<event>
 7    1  0.2476315E-009  0.4778727E+02  0.7816164E-02  0.1312668E+00
        -11   -1    0    0    0    0  0.00000000000E+00  0.00000000000E+00  0.45593999997E+02  0.45594000000E+02  0.51100000000E-03 0.  1.
         11   -1    0    0    0    0 -0.00000000000E+00 -0.00000000000E+00 -0.45593999997E+02  0.45594000000E+02  0.51100000000E-03 0. -1.
    9900012    2    1    2    0    0  0.21039860264E+02  0.10720290850E+02  0.36414595881E+02  0.47787272483E+02  0.20000006560E+02 0.  0.
         12    1    1    2    0    0 -0.21039860264E+02 -0.10720290850E+02 -0.36414595881E+02  0.43400727517E+02  0.00000000000E+00 0. -1.
         11    1    3    3    0    0 -0.68310579639E+00  0.14158689661E+01 -0.14209131788E+01  0.21190358611E+01  0.51100000000E-03 0. -1.
        -11    1    3    3    0    0  0.81705542878E+01  0.48505756372E+01  0.23926759608E+02  0.25744433708E+02  0.51100000000E-03 0.  1.
         12    1    3    3    0    0  0.13552411772E+02  0.44538462471E+01  0.13908749452E+02  0.19923802914E+02  0.00000000000E+00 0. -1.
</event>
<event>
 7    1  0.2476315E-009  0.4778724E+02  0.7816164E-02  0.1312668E+00
        -11   -1    0    0    0    0  0.00000000000E+00  0.00000000000E+00  0.45593999997E+02  0.45594000000E+02  0.51100000000E-03 0.  1.
         11   -1    0    0    0    0 -0.00000000000E+00 -0.00000000000E+00 -0.45593999997E+02  0.45594000000E+02  0.51100000000E-03 0. -1.
    9900012    2    1    2    0    0 -0.12176901015E+02  0.22523850745E+02  0.35043196032E+02  0.47787235504E+02  0.19999837956E+02 0.  0.
         12    1    1    2    0    0  0.12176901015E+02 -0.22523850745E+02 -0.35043196032E+02  0.43400764496E+02  0.00000000000E+00 0. -1.
         11    1    3    3    0    0  0.14948833589E+01  0.46751287502E+01  0.13820360553E+01  0.50991694428E+01  0.51100000000E-03 0. -1.
        -11    1    3    3    0    0 -0.50532426301E+01  0.64582291594E+01  0.24209049106E+02  0.25560165176E+02  0.51100000000E-03 0.  1.
        -12    1    3    3    0    0 -0.86185417435E+01  0.11390492836E+02  0.94521108709E+01  0.17127900885E+02  0.00000000000E+00 0.  1.
</event>
<event>
 7    1  0.2476315E-009  0.4778727E+02  0.7816164E-02  0.1312668E+00
        -11   -1    0    0    0    0  0.00000000000E+00  0.00000000000E+00  0.45593999997E+02  0.45594000000E+02  0.51100000000E-03 0.  1.
         11   -1    0    0    0    0 -0.00000000000E+00 -0.00000000000E+00 -0.45593999997E+02  0.45594000000E+02  0.51100000000E-03 0. -1.
    9900012    2    1    2    0    0 -0.16872503872E+02  0.17139537218E+02  0.36127249809E+02  0.47787270724E+02  0.19999998538E+02 0.  0.
         12    1    1    2    0    0  0.16872503872E+02 -0.17139537218E+02 -0.36127249809E+02  0.43400729276E+02  0.00000000000E+00 0. -1.
         11    1    3    3    0    0 -0.79778438174E+01  0.78008641812E+01  0.29591167160E+01  0.11543649594E+02  0.51100000000E-03 0. -1.
        -11    1    3    3    0    0 -0.10029767907E+02  0.79867037398E+01  0.29794800638E+02  0.32436304139E+02  0.51100000000E-03 0.  1.
         12    1    3    3    0    0  0.11351078523E+01  0.13519692975E+01  0.33733324547E+01  0.38073169906E+01  0.00000000000E+00 0. -1.
</event>
<event>
 7    1  0.2476315E-009  0.4778727E+02  0.7816164E-02  0.1312668E+00
        -11   -1    0    0    0    0  0.00000000000E+00  0.00000000000E+00  0.45593999997E+02  0.45594000000E+02  0.51100000000E-03 0.  1.
         11   -1    0    0    0    0 -0.00000000000E+00 -0.00000000000E+00 -0.45593999997E+02  0.45594000000E+02  0.51100000000E-03 0. -1.
    9900012    2    1    2    0    0  0.17562537125E+02  0.12894488552E+02  0.37535490178E+02  0.47787267654E+02  0.19999984540E+02 0.  0.
         12    1    1    2    0    0 -0.17562537125E+02 -0.12894488552E+02 -0.37535490178E+02  0.43400732346E+02  0.00000000000E+00 0. -1.
         11    1    3    3    0    0  0.79313249586E+01  0.73531575569E+01  0.52357022464E+01  0.12016131654E+02  0.51100000000E-03 0. -1.
        -11    1    3    3    0    0  0.11741875839E+01  0.19281105379E+00  0.19442482119E+02  0.19478860433E+02  0.51100000000E-03 0.  1.
        -12    1    3    3    0    0  0.84570245824E+01  0.53485199417E+01  0.12857305813E+02  0.16292275566E+02  0.00000000000E+00 0.  1.
</event>
<event>
 7    1  0.2476315E-009  0.4778727E+02  0.7816164E-02  0.1312668E+00
        -11   -1    0    0    0    0  0.00000000000E+00  0.00000000000E+00  0.45593999997E+02  0.45594000000E+02  0.51100000000E-03 0.  1.
         11   -1    0    0    0    0 -0.00000000000E+00 -0.00000000000E+00 -0.45593999997E+02  0.45594000000E+02  0.51100000000E-03 0. -1.
    9900012    2    1    2    0    0 -0.25540503657E+02  0.50169078946E+01  0.34729480181E+02  0.47787268606E+02  0.19999988881E+02 0.  0.
         12    1    1    2    0    0  0.25540503657E+02 -0.50169078946E+01 -0.34729480181E+02  0.43400731394E+02  0.00000000000E+00 0. -1.
         11    1    3    3    0    0 -0.12073976877E+02  0.82978250822E+01  0.69411278766E+01  0.16211541419E+02  0.51100000000E-03 0. -1.
        -11    1    3    3    0    0 -0.54590540180E+01 -0.41842182495E+01  0.14188532178E+02  0.15767796256E+02  0.51100000000E-03 0.  1.
         12    1    3    3    0    0 -0.80074727623E+01  0.90330106193E+00  0.13599820127E+02  0.15807930931E+02  0.00000000000E+00 0. -1.
</event>
<event>
 7    1  0.2476315E-009  0.4778727E+02  0.7816164E-02  0.1312668E+00
        -11   -1    0    0    0    0  0.00000000000E+00  0.00000000000E+00  0.45593999997E+02  0.45594000000E+02  0.51100000000E-03 0.  1.
         11   -1    0    0    0    0 -0.00000000000E+00 -0.00000000000E+00 -0.45593999997E+02  0.45594000000E+02  0.51100000000E-03 0. -1.
    9900012    2    1    2    0    0 -0.56188299912E+01 -0.31686348376E+02  0.29120909031E+02  0.47787271128E+02  0.20000000379E+02 0.  0.
         12    1    1    2    0    0  0.56188299912E+01  0.31686348376E+02 -0.29120909031E+02  0.43400728872E+02  0.00000000000E+00 0. -1.
         11    1    3    3    0    0  0.12218566557E+00 -0.14245864773E+01 -0.58687309757E+00  0.15455731176E+01  0.51100000000E-03 0. -1.
        -11    1    3    3    0    0 -0.11539060641E+02 -0.21470906729E+02  0.16901148848E+02  0.29661398970E+02  0.51100000000E-03 0.  1.
        -12    1    3    3    0    0  0.57980449843E+01 -0.87908551695E+01  0.12806633281E+02  0.16580299040E+02  0.00000000000E+00 0.  1.
</event>
<event>
 7    1  0.2476315E-009  0.4778727E+02  0.7816164E-02  0.1312668E+00
        -11   -1    0    0    0    0  0.00000000000E+00  0.00000000000E+00  0.45593999997E+02  0.45594000000E+02  0.51100000000E-03 0.  1.
         11   -1    0    0    0    0 -0.00000000000E+00 -0.00000000000E+00 -0.45593999997E+02  0.45594000000E+02  0.51100000000E-03 0. -1.
    9900012    2    1    2    0    0  0.90110902765E+01 -0.37078512286E+02  0.20678668321E+02  0.47787272531E+02  0.20000006776E+02 0.  0.
         12    1    1    2    0    0 -0.90110902765E+01  0.37078512286E+02 -0.20678668321E+02  0.43400727469E+02  0.00000000000E+00 0. -1.
         11    1    3    3    0    0  0.25103260983E+01 -0.23752061428E+02  0.62824134580E+01  0.24696778703E+02  0.51100000000E-03 0. -1.
        -11    1    3    3    0    0 -0.17183040773E+01 -0.43643831406E+01  0.81900252653E+01  0.94380571734E+01  0.51100000000E-03 0.  1.
         12    1    3    3    0    0  0.82190682556E+01 -0.89620677179E+01  0.62062295982E+01  0.13652436654E+02  0.00000000000E+00 0. -1.
</event>
<event>
 7    1  0.2476315E-009  0.4778728E+02  0.7816164E-02  0.1312668E+00
        -11   -1    0    0    0    0  0.00000000000E+00  0.00000000000E+00  0.45593999997E+02  0.45594000000E+02  0.51100000000E-03 0.  1.
         11   -1    0    0    0    0 -0.00000000000E+00 -0.00000000000E+00 -0.45593999997E+02  0.45594000000E+02  0.51100000000E-03 0. -1.
    9900012    2    1    2    0    0  0.43043921512E+02  0.22142913513E+01 -0.50931773256E+01  0.47787277419E+02  0.20000029063E+02 0.  0.
         12    1    1    2    0    0 -0.43043921512E+02 -0.22142913513E+01  0.50931773256E+01  0.43400722581E+02  0.00000000000E+00 0. -1.
         11    1    3    3    0    0  0.13889589264E+02  0.93395836828E+01  0.38137652675E+00  0.16741982009E+02  0.51100000000E-03 0. -1.
        -11    1    3    3    0    0  0.24444279056E+02 -0.69217163976E+01 -0.26347925098E+01  0.25541634017E+02  0.51100000000E-03 0.  1.
        -12    1    3    3    0    0  0.47100531922E+01 -0.20357593387E+00 -0.28397613425E+01  0.55036613919E+01  0.00000000000E+00 0.  1.
</event>
<event>
 7    1  0.2476315E-009  0.4778727E+02  0.7816164E-02  0.1312668E+00
        -11   -1    0    0    0    0  0.00000000000E+00  0.00000000000E+00  0.45593999997E+02  0.45594000000E+02  0.51100000000E-03 0.  1.
         11   -1    0    0    0    0 -0.00000000000E+00 -0.00000000000E+00 -0.45593999997E+02  0.45594000000E+02  0.51100000000E-03 0. -1.
    9900012    2    1    2    0    0 -0.18554508161E+02 -0.31487761443E+02  0.23406716564E+02  0.47787271041E+02  0.19999999987E+02 0.  0.
         12    1    1    2    0    0  0.18554508161E+02  0.31487761443E+02 -0.23406716564E+02  0.43400728959E+02  0.00000000000E+00 0. -1.
         11    1    3    3    0    0 -0.17950140289E+02 -0.19161528235E+02  0.11310848824E+02  0.28588581673E+02  0.51100000000E-03 0. -1.
        -11    1    3    3    0    0  0.17571170211E+01 -0.19174307493E+01  0.68068519291E+01  0.72867849117E+01  0.51100000000E-03 0.  1.
        -12    1    3    3    0    0 -0.23614848926E+01 -0.10408802459E+02  0.52890158113E+01  0.11911904457E+02  0.00000000000E+00 0.  1.
</event>
<event>
 7    1  0.2476315E-009  0.4778727E+02  0.7816164E-02  0.1312668E+00
        -11   -1    0    0    0    0  0.00000000000E+00  0.00000000000E+00  0.45593999997E+02  0.45594000000E+02  0.51100000000E-03 0.  1.
         11   -1    0    0    0    0 -0.00000000000E+00 -0.00000000000E+00 -0.45593999997E+02  0.45594000000E+02  0.51100000000E-03 0. -1.
    9900012    2    1    2    0    0  0.35113202338E+02 -0.23270319070E+02  0.10448843132E+02  0.47787273614E+02  0.20000011715E+02 0.  0.
         12    1    1    2    0    0 -0.35113202338E+02  0.23270319070E+02 -0.10448843132E+02  0.43400726386E+02  0.00000000000E+00 0. -1.
         11    1    3    3    0    0  0.99870745034E+01 -0.12145070556E+02 -0.28197703240E+01  0.15974839620E+02  0.51100000000E-03 0. -1.
        -11    1    3    3    0    0  0.12858907292E+02 -0.21509084301E+01  0.27394544924E+01  0.13322256378E+02  0.51100000000E-03 0.  1.
         12    1    3    3    0    0  0.12267220542E+02 -0.89743400835E+01  0.10529158964E+02  0.18490177615E+02  0.00000000000E+00 0. -1.
</event>
<event>
 7    1  0.2476315E-009  0.4778727E+02  0.7816164E-02  0.1312668E+00
        -11   -1    0    0    0    0  0.00000000000E+00  0.00000000000E+00  0.45593999997E+02  0.45594000000E+02  0.51100000000E-03 0. -1.
         11   -1    0    0    0    0 -0.00000000000E+00 -0.00000000000E+00 -0.45593999997E+02  0.45594000000E+02  0.51100000000E-03 0.  1.
    9900012    2    1    2    0    0  0.25812293351E+02 -0.27118819664E+02 -0.21952641503E+02  0.47787270317E+02  0.19999996683E+02 0.  0.
         12    1    1    2    0    0 -0.25812293351E+02  0.27118819664E+02  0.21952641503E+02  0.43400729683E+02  0.00000000000E+00 0. -1.
         11    1    3    3    0    0 -0.30358946295E+01 -0.34788215823E+01 -0.13337061498E+01  0.48059991841E+01  0.51100000000E-03 0. -1.
        -11    1    3    3    0    0  0.19128196829E+02 -0.16580715879E+02 -0.16776580841E+02  0.30368762206E+02  0.51100000000E-03 0.  1.
        -12    1    3    3    0    0  0.97199911518E+01 -0.70592822036E+01 -0.38423545123E+01  0.12612508926E+02  0.00000000000E+00 0.  1.
</event>
<event>
 7    1  0.2476315E-009  0.4778727E+02  0.7816164E-02  0.1312668E+00
        -11   -1    0    0    0    0  0.00000000000E+00  0.00000000000E+00  0.45593999997E+02  0.45594000000E+02  0.51100000000E-03 0.  1.
         11   -1    0    0    0    0 -0.00000000000E+00 -0.00000000000E+00 -0.45593999997E+02  0.45594000000E+02  0.51100000000E-03 0. -1.
    9900012    2    1    2    0    0  0.34597051067E+02 -0.11165419197E+02  0.23706554506E+02  0.47787271262E+02  0.20000000994E+02 0.  0.
         12    1    1    2    0    0 -0.34597051067E+02  0.11165419197E+02 -0.23706554506E+02  0.43400728738E+02  0.00000000000E+00 0. -1.
         11    1    3    3    0    0 -0.13107928418E+01 -0.58860220171E+00  0.43953899311E+01  0.46242927387E+01  0.51100000000E-03 0. -1.
        -11    1    3    3    0    0  0.33511679843E+02 -0.95896067318E+01  0.14609918500E+02  0.37794747810E+02  0.51100000000E-03 0.  1.
        -12    1    3    3    0    0  0.23961640660E+01 -0.98721026365E+00  0.47012460757E+01  0.53682307141E+01  0.00000000000E+00 0.  1.
</event>
<event>
 7    1  0.2476315E-009  0.4778727E+02  0.7816164E-02  0.1312668E+00
        -11   -1    0    0    0    0  0.00000000000E+00  0.00000000000E+00  0.45593999997E+02  0.45594000000E+02  0.51100000000E-03 0. -1.
         11   -1    0    0    0    0 -0.00000000000E+00 -0.00000000000E+00 -0.45593999997E+02  0.45594000000E+02  0.51100000000E-03 0.  1.
    9900012    2    1    2    0    0  0.13694416111E+02 -0.35762693076E+02 -0.20423417308E+02  0.47787271628E+02  0.20000002660E+02 0.  0.
         12    1    1    2    0    0 -0.13694416111E+02  0.35762693076E+02  0.20423417308E+02  0.43400728372E+02  0.00000000000E+00 0. -1.
         11    1    3    3    0    0  0.22332109442E+01 -0.93563434201E+01 -0.13744174305E+02  0.16775897022E+02  0.51100000000E-03 0. -1.
        -11    1    3    3    0    0  0.11490302469E+02 -0.19584700402E+02 -0.21177442012E+01  0.22805095515E+02  0.51100000000E-03 0.  1.
        -12    1    3    3    0    0 -0.29097301839E-01 -0.68216492540E+01 -0.45614988022E+01  0.82062790910E+01  0.00000000000E+00 0.  1.
</event>
<event>
 7    1  0.2476315E-009  0.4778727E+02  0.7816164E-02  0.1312668E+00
        -11   -1    0    0    0    0  0.00000000000E+00  0.00000000000E+00  0.45593999997E+02  0.45594000000E+02  0.51100000000E-03 0.  1.
         11   -1    0    0    0    0 -0.00000000000E+00 -0.00000000000E+00 -0.45593999997E+02  0.45594000000E+02  0.51100000000E-03 0. -1.
    9900012    2    1    2    0    0  0.24727781964E+02  0.33372783861E+02  0.12586402500E+02  0.47787269229E+02  0.19999991725E+02 0.  0.
         12    1    1    2    0    0 -0.24727781964E+02 -0.33372783861E+02 -0.12586402500E+02  0.43400730771E+02  0.00000000000E+00 0. -1.
         11    1    3    3    0    0  0.19961055814E+02  0.27745068614E+02  0.22303437968E+01  0.34252109648E+02  0.51100000000E-03 0. -1.
        -11    1    3    3    0    0  0.37798817651E+01  0.20284176852E+01  0.81225786589E+01  0.91857644644E+01  0.51100000000E-03 0.  1.
         12    1    3    3    0    0  0.98684438573E+00  0.35992975614E+01  0.22334800447E+01  0.43493951174E+01  0.00000000000E+00 0. -1.
</event>
<event>
 7    1  0.2476315E-009  0.4778727E+02  0.7816164E-02  0.1312668E+00
        -11   -1    0    0    0    0  0.00000000000E+00  0.00000000000E+00  0.45593999997E+02  0.45594000000E+02  0.51100000000E-03 0.  1.
         11   -1    0    0    0    0 -0.00000000000E+00 -0.00000000000E+00 -0.45593999997E+02  0.45594000000E+02  0.51100000000E-03 0. -1.
    9900012    2    1    2    0    0  0.16634672365E+02 -0.31019576510E+02  0.25390885819E+02  0.47787268045E+02  0.19999986324E+02 0.  0.
         12    1    1    2    0    0 -0.16634672365E+02  0.31019576510E+02 -0.25390885819E+02  0.43400731955E+02  0.00000000000E+00 0. -1.
         11    1    3    3    0    0 -0.30783236851E+01 -0.30531410687E+01 -0.14593223931E+00  0.43380921584E+01  0.51100000000E-03 0. -1.
        -11    1    3    3    0    0  0.95743654754E+01 -0.20169604814E+02  0.17173912147E+02  0.28167795286E+02  0.51100000000E-03 0.  1.
         12    1    3    3    0    0  0.10138630574E+02 -0.77968306277E+01  0.83629059113E+01  0.15281380600E+02  0.00000000000E+00 0. -1.
</event>
<event>
 7    1  0.2476315E-009  0.4778727E+02  0.7816164E-02  0.1312668E+00
        -11   -1    0    0    0    0  0.00000000000E+00  0.00000000000E+00  0.45593999997E+02  0.45594000000E+02  0.51100000000E-03 0. -1.
         11   -1    0    0    0    0 -0.00000000000E+00 -0.00000000000E+00 -0.45593999997E+02  0.45594000000E+02  0.51100000000E-03 0.  1.
    9900012    2    1    2    0    0 -0.31480321223E+02 -0.26538525110E+01 -0.29758522187E+02  0.47787271893E+02  0.20000003871E+02 0.  0.
         12    1    1    2    0    0  0.31480321223E+02  0.26538525110E+01  0.29758522187E+02  0.43400728107E+02  0.00000000000E+00 0. -1.
         11    1    3    3    0    0 -0.43232092887E+01 -0.13144360404E+01  0.11846372599E+00  0.45201675382E+01  0.51100000000E-03 0. -1.
        -11    1    3    3    0    0 -0.77213939341E+00 -0.29217352410E+01 -0.92729807195E+01  0.97529948092E+01  0.51100000000E-03 0.  1.
        -12    1    3    3    0    0 -0.26384972541E+02  0.15823187704E+01 -0.20604005193E+02  0.33514109546E+02  0.00000000000E+00 0.  1.
</event>
<event>
 7    1  0.2476315E-009  0.4778728E+02  0.7816164E-02  0.1312668E+00
        -11   -1    0    0    0    0  0.00000000000E+00  0.00000000000E+00  0.45593999997E+02  0.45594000000E+02  0.51100000000E-03 0.  1.
         11   -1    0    0    0    0 -0.00000000000E+00 -0.00000000000E+00 -0.45593999997E+02  0.45594000000E+02  0.51100000000E-03 0. -1.
    9900012    2    1    2    0    0  0.90450735494E+01  0.16975884178E+02  0.38905384109E+02  0.47787275216E+02  0.20000019018E+02 0.  0.
         12    1    1    2    0    0 -0.90450735494E+01 -0.16975884178E+02 -0.38905384109E+02  0.43400724784E+02  0.00000000000E+00 0. -1.
         11    1    3    3    0    0  0.81547888191E+01 -0.90447573884E-01  0.10186831171E+02  0.13049149053E+02  0.51100000000E-03 0. -1.
        -11    1    3    3    0    0 -0.40085750394E+01  0.10055377296E+02  0.18261416794E+02  0.21228721817E+02  0.51100000000E-03 0.  1.
         12    1    3    3    0    0  0.48988597696E+01  0.70109544559E+01  0.10457136144E+02  0.13509404345E+02  0.00000000000E+00 0. -1.
</event>
<event>
 7    1  0.2476315E-009  0.4778727E+02  0.7816164E-02  0.1312668E+00
        -11   -1    0    0    0    0  0.00000000000E+00  0.00000000000E+00  0.45593999997E+02  0.45594000000E+02  0.51100000000E-03 0.  1.
         11   -1    0    0    0    0 -0.00000000000E+00 -0.00000000000E+00 -0.45593999997E+02  0.45594000000E+02  0.51100000000E-03 0. -1.
    9900012    2    1    2    0    0 -0.40215123352E+02 -0.16312618305E+02  0.51513019971E+00  0.47787273954E+02  0.20000013268E+02 0.  0.
         12    1    1    2    0    0  0.40215123352E+02  0.16312618305E+02 -0.51513019971E+00  0.43400726046E+02  0.00000000000E+00 0. -1.
         11    1    3    3    0    0 -0.10567266989E+02 -0.41084389657E+01 -0.50719448672E+01  0.12420588849E+02  0.51100000000E-03 0. -1.
        -11    1    3    3    0    0 -0.12009963947E+02 -0.46629505089E+01  0.92207656949E+01  0.15843132951E+02  0.51100000000E-03 0.  1.
        -12    1    3    3    0    0 -0.17637892416E+02 -0.75412288305E+01 -0.36336906279E+01  0.19523552154E+02  0.00000000000E+00 0.  1.
</event>
<event>
 7    1  0.2476315E-009  0.4778727E+02  0.7816164E-02  0.1312668E+00
        -11   -1    0    0    0    0  0.00000000000E+00  0.00000000000E+00  0.45593999997E+02  0.45594000000E+02  0.51100000000E-03 0.  1.
         11   -1    0    0    0    0 -0.00000000000E+00 -0.00000000000E+00 -0.45593999997E+02  0.45594000000E+02  0.51100000000E-03 0. -1.
    9900012    2    1    2    0    0 -0.16235113330E+02 -0.68802666914E+01  0.39657359542E+02  0.47787272582E+02  0.20000007011E+02 0.  0.
         12    1    1    2    0    0  0.16235113330E+02  0.68802666914E+01 -0.39657359542E+02  0.43400727418E+02  0.00000000000E+00 0. -1.
         11    1    3    3    0    0 -0.52708031724E+01  0.58631846674E+01  0.18025264113E+02  0.19674055178E+02  0.51100000000E-03 0.  1.
        -11    1    3    3    0    0 -0.48432057299E+01 -0.84825560951E+01  0.82171746226E+01  0.12764496022E+02  0.51100000000E-03 0. -1.
         12    1    3    3    0    0 -0.61211044273E+01 -0.42608952637E+01  0.13414920806E+02  0.15348721383E+02  0.00000000000E+00 0. -1.
</event>
<event>
 7    1  0.2476315E-009  0.4778727E+02  0.7816164E-02  0.1312668E+00
        -11   -1    0    0    0    0  0.00000000000E+00  0.00000000000E+00  0.45593999997E+02  0.45594000000E+02  0.51100000000E-03 0.  1.
         11   -1    0    0    0    0 -0.00000000000E+00 -0.00000000000E+00 -0.45593999997E+02  0.45594000000E+02  0.51100000000E-03 0. -1.
    9900012    2    1    2    0    0 -0.19671047910E+02 -0.12185808923E+02  0.36717559297E+02  0.47787271599E+02  0.20000002531E+02 0.  0.
         12    1    1    2    0    0  0.19671047910E+02  0.12185808923E+02 -0.36717559297E+02  0.43400728401E+02  0.00000000000E+00 0. -1.
         11    1    3    3    0    0 -0.60118802560E+01 -0.60664244481E+01  0.52899576510E+00  0.85571050348E+01  0.51100000000E-03 0. -1.
        -11    1    3    3    0    0 -0.71469843484E+01 -0.44128577294E+01  0.20926121902E+02  0.22548952897E+02  0.51100000000E-03 0.  1.
         12    1    3    3    0    0 -0.65121833055E+01 -0.17065267458E+01  0.15262441629E+02  0.16681213668E+02  0.00000000000E+00 0. -1.
</event>
<event>
 7    1  0.2476315E-009  0.4778727E+02  0.7816164E-02  0.1312668E+00
        -11   -1    0    0    0    0  0.00000000000E+00  0.00000000000E+00  0.45593999997E+02  0.45594000000E+02  0.51100000000E-03 0.  1.
         11   -1    0    0    0    0 -0.00000000000E+00 -0.00000000000E+00 -0.45593999997E+02  0.45594000000E+02  0.51100000000E-03 0. -1.
    9900012    2    1    2    0    0  0.26723874745E+02  0.55444714297E+01  0.33744871132E+02  0.47787274516E+02  0.20000015829E+02 0.  0.
         12    1    1    2    0    0 -0.26723874745E+02 -0.55444714297E+01 -0.33744871132E+02  0.43400725484E+02  0.00000000000E+00 0. -1.
         11    1    3    3    0    0 -0.12422894737E+01  0.53147060155E+00 -0.11595969286E+01  0.17805643585E+01  0.51100000000E-03 0. -1.
        -11    1    3    3    0    0  0.19685053492E+02  0.64193105486E+01  0.19403081656E+02  0.28375842840E+02  0.51100000000E-03 0.  1.
         12    1    3    3    0    0  0.82811107272E+01 -0.14063097204E+01  0.15501386404E+02  0.17630867317E+02  0.00000000000E+00 0. -1.
</event>
<event>
 7    1  0.2476315E-009  0.4778727E+02  0.7816164E-02  0.1312668E+00
        -11   -1    0    0    0    0  0.00000000000E+00  0.00000000000E+00  0.45593999997E+02  0.45594000000E+02  0.51100000000E-03 0.  1.
         11   -1    0    0    0    0 -0.00000000000E+00 -0.00000000000E+00 -0.45593999997E+02  0.45594000000E+02  0.51100000000E-03 0. -1.
    9900012    2    1    2    0    0  0.37100637684E+01 -0.36044525108E+02  0.23888308400E+02  0.47787266808E+02  0.19999980684E+02 0.  0.
         12    1    1    2    0    0 -0.37100637684E+01  0.36044525108E+02 -0.23888308400E+02  0.43400733192E+02  0.00000000000E+00 0. -1.
         11    1    3    3    0    0  0.78004280304E+01 -0.80492621361E+01  0.52207151800E+01  0.12364997600E+02  0.51100000000E-03 0. -1.
        -11    1    3    3    0    0 -0.68922265980E+01 -0.11782952981E+02  0.85944396896E+01  0.16130876054E+02  0.51100000000E-03 0.  1.
         12    1    3    3    0    0  0.28018623361E+01 -0.16212309990E+02  0.10073153530E+02  0.19291393154E+02  0.00000000000E+00 0. -1.
</event>
<event>
 7    1  0.2476315E-009  0.4778731E+02  0.7816164E-02  0.1312668E+00
        -11   -1    0    0    0    0  0.00000000000E+00  0.00000000000E+00  0.45593999997E+02  0.45594000000E+02  0.51100000000E-03 0. -1.
         11   -1    0    0    0    0 -0.00000000000E+00 -0.00000000000E+00 -0.45593999997E+02  0.45594000000E+02  0.51100000000E-03 0.  1.
    9900012    2    1    2    0    0 -0.17274142329E+02  0.11485935582E+02 -0.38122137133E+02  0.47787308196E+02  0.20000169390E+02 0.  0.
         12    1    1    2    0    0  0.17274142329E+02 -0.11485935582E+02  0.38122137133E+02  0.43400691804E+02  0.00000000000E+00 0. -1.
         11    1    3    3    0    0 -0.15480763700E+02  0.86213285518E+01 -0.18330131612E+02  0.25494608762E+02  0.51100000000E-03 0. -1.
        -11    1    3    3    0    0  0.65847575386E+00 -0.28640830760E+01 -0.11789352406E+02  0.12150119036E+02  0.51100000000E-03 0.  1.
        -12    1    3    3    0    0 -0.24518543833E+01  0.57286901064E+01 -0.80026531151E+01  0.10142580398E+02  0.00000000000E+00 0.  1.
</event>
<event>
 7    1  0.2476315E-009  0.4778727E+02  0.7816164E-02  0.1312668E+00
        -11   -1    0    0    0    0  0.00000000000E+00  0.00000000000E+00  0.45593999997E+02  0.45594000000E+02  0.51100000000E-03 0.  1.
         11   -1    0    0    0    0 -0.00000000000E+00 -0.00000000000E+00 -0.45593999997E+02  0.45594000000E+02  0.51100000000E-03 0. -1.
    9900012    2    1    2    0    0  0.13799383256E+02  0.27994727827E+02  0.30157844600E+02  0.47787270107E+02  0.19999995726E+02 0.  0.
         12    1    1    2    0    0 -0.13799383256E+02 -0.27994727827E+02 -0.30157844600E+02  0.43400729893E+02  0.00000000000E+00 0. -1.
         11    1    3    3    0    0  0.13663529411E+02  0.21846651357E+02  0.13448859260E+02  0.29066131960E+02  0.51100000000E-03 0. -1.
        -11    1    3    3    0    0 -0.13858395612E+01  0.66866840427E+01  0.13442023575E+02  0.15077144718E+02  0.51100000000E-03 0.  1.
         12    1    3    3    0    0  0.15216934066E+01 -0.53860757298E+00  0.32669617648E+01  0.36439934295E+01  0.00000000000E+00 0. -1.
</event>
<event>
 7    1  0.2476315E-009  0.4778727E+02  0.7816164E-02  0.1312668E+00
        -11   -1    0    0    0    0  0.00000000000E+00  0.00000000000E+00  0.45593999997E+02  0.45594000000E+02  0.51100000000E-03 0.  1.
         11   -1    0    0    0    0 -0.00000000000E+00 -0.00000000000E+00 -0.45593999997E+02  0.45594000000E+02  0.51100000000E-03 0. -1.
    9900012    2    1    2    0    0 -0.67089375070E+01 -0.73135534922E+00  0.42872821056E+02  0.47787268342E+02  0.19999987681E+02 0.  0.
         12    1    1    2    0    0  0.67089375070E+01  0.73135534922E+00 -0.42872821056E+02  0.43400731658E+02  0.00000000000E+00 0. -1.
         11    1    3    3    0    0 -0.75919857722E+01  0.53709000544E+01  0.16223458046E+02  0.18699877181E+02  0.51100000000E-03 0.  1.
        -11    1    3    3    0    0  0.33927809828E+01  0.14004831274E+01  0.69715731610E+01  0.78787783563E+01  0.51100000000E-03 0. -1.
         12    1    3    3    0    0 -0.25097327177E+01 -0.75027385310E+01  0.19677789849E+02  0.21208612805E+02  0.00000000000E+00 0. -1.
</event>
<event>
 7    1  0.2476315E-009  0.4778727E+02  0.7816164E-02  0.1312668E+00
        -11   -1    0    0    0    0  0.00000000000E+00  0.00000000000E+00  0.45593999997E+02  0.45594000000E+02  0.51100000000E-03 0.  1.
         11   -1    0    0    0    0 -0.00000000000E+00 -0.00000000000E+00 -0.45593999997E+02  0.45594000000E+02  0.51100000000E-03 0. -1.
    9900012    2    1    2    0    0 -0.10691875065E+02 -0.57255560637E+01  0.41671634174E+02  0.47787270981E+02  0.19999999712E+02 0.  0.
         12    1    1    2    0    0  0.10691875065E+02  0.57255560637E+01 -0.41671634174E+02  0.43400729019E+02  0.00000000000E+00 0. -1.
         11    1    3    3    0    0  0.25735048324E+01  0.50049105431E+01  0.14646365725E+02  0.15690381954E+02  0.51100000000E-03 0. -1.
        -11    1    3    3    0    0 -0.95878205153E+01 -0.93250647510E+01  0.21177658064E+02  0.25047481634E+02  0.51100000000E-03 0.  1.
         12    1    3    3    0    0 -0.36775593824E+01 -0.14054018557E+01  0.58476103849E+01  0.70494073936E+01  0.00000000000E+00 0. -1.
</event>
<event>
 7    1  0.2476315E-009  0.4778730E+02  0.7816164E-02  0.1312668E+00
        -11   -1    0    0    0    0  0.00000000000E+00  0.00000000000E+00  0.45593999997E+02  0.45594000000E+02  0.51100000000E-03 0.  1.
         11   -1    0    0    0    0 -0.00000000000E+00 -0.00000000000E+00 -0.45593999997E+02  0.45594000000E+02  0.51100000000E-03 0. -1.
    9900012    2    1    2    0    0 -0.45016510794E+01 -0.37412976760E+02  0.21531954894E+02  0.47787299844E+02  0.20000131306E+02 0.  0.
         12    1    1    2    0    0  0.45016510794E+01  0.37412976760E+02 -0.21531954894E+02  0.43400700156E+02  0.00000000000E+00 0. -1.
         11    1    3    3    0    0  0.30052080081E+00 -0.31778817335E+02  0.16303779347E+02  0.35718297344E+02  0.51100000000E-03 0. -1.
        -11    1    3    3    0    0 -0.44873392131E+01 -0.73981687796E+01  0.28887288809E+01  0.91221636311E+01  0.51100000000E-03 0.  1.
         12    1    3    3    0    0 -0.31483266715E+00  0.17640093539E+01  0.23394466664E+01  0.29468388680E+01  0.00000000000E+00 0. -1.
</event>
<event>
 7    1  0.2476315E-009  0.4778728E+02  0.7816164E-02  0.1312668E+00
        -11   -1    0    0    0    0  0.00000000000E+00  0.00000000000E+00  0.45593999997E+02  0.45594000000E+02  0.51100000000E-03 0. -1.
         11   -1    0    0    0    0 -0.00000000000E+00 -0.00000000000E+00 -0.45593999997E+02  0.45594000000E+02  0.51100000000E-03 0.  1.
    9900012    2    1    2    0    0 -0.23171655420E+02 -0.78615393198E+01 -0.35845411049E+02  0.47787275252E+02  0.20000019186E+02 0.  0.
         12    1    1    2    0    0  0.23171655420E+02  0.78615393198E+01  0.35845411049E+02  0.43400724748E+02  0.00000000000E+00 0. -1.
         11    1    3    3    0    0 -0.25541330094E+01  0.33819632839E+01 -0.11801534933E+02  0.12539437711E+02  0.51100000000E-03 0. -1.
        -11    1    3    3    0    0 -0.19341994255E+02 -0.86792995854E+01 -0.15570848310E+02  0.26303883751E+02  0.51100000000E-03 0.  1.
         12    1    3    3    0    0 -0.12755281557E+01 -0.25642030183E+01 -0.84730278061E+01  0.89439537900E+01  0.00000000000E+00 0. -1.
</event>
<event>
 7    1  0.2476315E-009  0.4778727E+02  0.7816164E-02  0.1312668E+00
        -11   -1    0    0    0    0  0.00000000000E+00  0.00000000000E+00  0.45593999997E+02  0.45594000000E+02  0.51100000000E-03 0. -1.
         11   -1    0    0    0    0 -0.00000000000E+00 -0.00000000000E+00 -0.45593999997E+02  0.45594000000E+02  0.51100000000E-03 0.  1.
    9900012    2    1    2    0    0  0.56316570211E+01  0.42867631796E+02  0.37780594039E+01  0.47787272478E+02  0.20000006537E+02 0.  0.
         12    1    1    2    0    0 -0.56316570211E+01 -0.42867631796E+02 -0.37780594039E+01  0.43400727522E+02  0.00000000000E+00 0. -1.
         11    1    3    3    0    0  0.10313659252E+02  0.13906933604E+02 -0.20817923287E+01  0.17438699177E+02  0.51100000000E-03 0.  1.
        -11    1    3    3    0    0 -0.13633918111E+01  0.17694269160E+02  0.55688347324E+01  0.18599944055E+02  0.51100000000E-03 0. -1.
        -12    1    3    3    0    0 -0.33186104201E+01  0.11266429032E+02  0.29101700011E+00  0.11748629246E+02  0.00000000000E+00 0.  1.
</event>
<event>
 7    1  0.2476315E-009  0.4778728E+02  0.7816164E-02  0.1312668E+00
        -11   -1    0    0    0    0  0.00000000000E+00  0.00000000000E+00  0.45593999997E+02  0.45594000000E+02  0.51100000000E-03 0. -1.
         11   -1    0    0    0    0 -0.00000000000E+00 -0.00000000000E+00 -0.45593999997E+02  0.45594000000E+02  0.51100000000E-03 0.  1.
    9900012    2    1    2    0    0 -0.22466636615E+01 -0.86575334377E+01 -0.42469074919E+02  0.47787277572E+02  0.20000029762E+02 0.  0.
         12    1    1    2    0    0  0.22466636615E+01  0.86575334377E+01  0.42469074919E+02  0.43400722428E+02  0.00000000000E+00 0. -1.
         11    1    3    3    0    0  0.67081618576E+01 -0.23150455765E+01 -0.12212207307E+02  0.14124336412E+02  0.51100000000E-03 0. -1.
        -11    1    3    3    0    0 -0.25199541295E+01  0.58607663389E+00 -0.17987557709E+02  0.18172668687E+02  0.51100000000E-03 0.  1.
        -12    1    3    3    0    0 -0.64348713896E+01 -0.69285644951E+01 -0.12269309903E+02  0.15490272472E+02  0.00000000000E+00 0.  1.
</event>
<event>
 7    1  0.2476315E-009  0.4778727E+02  0.7816164E-02  0.1312668E+00
        -11   -1    0    0    0    0  0.00000000000E+00  0.00000000000E+00  0.45593999997E+02  0.45594000000E+02  0.51100000000E-03 0.  1.
         11   -1    0    0    0    0 -0.00000000000E+00 -0.00000000000E+00 -0.45593999997E+02  0.45594000000E+02  0.51100000000E-03 0. -1.
    9900012    2    1    2    0    0  0.33710931648E+02  0.21694115547E+02  0.16630146049E+02  0.47787270518E+02  0.19999997600E+02 0.  0.
         12    1    1    2    0    0 -0.33710931648E+02 -0.21694115547E+02 -0.16630146049E+02  0.43400729482E+02  0.00000000000E+00 0. -1.
         11    1    3    3    0    0 -0.23164534634E+00 -0.19839863808E+01  0.24761830001E+01  0.31814059843E+01  0.51100000000E-03 0. -1.
        -11    1    3    3    0    0  0.26177537831E+01  0.46248574297E+01  0.27763651945E-01  0.53143872831E+01  0.51100000000E-03 0.  1.
         12    1    3    3    0    0  0.31324823212E+02  0.19053244498E+02  0.14126199396E+02  0.39291477251E+02  0.00000000000E+00 0. -1.
</event>
<event>
 7    1  0.2476315E-009  0.4778728E+02  0.7816164E-02  0.1312668E+00
        -11   -1    0    0    0    0  0.00000000000E+00  0.00000000000E+00  0.45593999997E+02  0.45594000000E+02  0.51100000000E-03 0.  1.
         11   -1    0    0    0    0 -0.00000000000E+00 -0.00000000000E+00 -0.45593999997E+02  0.45594000000E+02  0.51100000000E-03 0. -1.
    9900012    2    1    2    0    0  0.23444152972E+02 -0.49676569334E+01  0.36184485563E+02  0.47787275127E+02  0.20000018615E+02 0.  0.
         12    1    1    2    0    0 -0.23444152972E+02  0.49676569334E+01 -0.36184485563E+02  0.43400724873E+02  0.00000000000E+00 0. -1.
         11    1    3    3    0    0 -0.81417480822E+00  0.34197532935E+01  0.57559608157E+01  0.67445295150E+01  0.51100000000E-03 0. -1.
        -11    1    3    3    0    0  0.19850335593E+02 -0.59273633177E+01  0.17343936163E+02  0.27018171310E+02  0.51100000000E-03 0.  1.
        -12    1    3    3    0    0  0.44079921876E+01 -0.24600469091E+01  0.13084588584E+02  0.14024574302E+02  0.00000000000E+00 0.  1.
</event>
<event>
 7    1  0.2476315E-009  0.4778726E+02  0.7816164E-02  0.1312668E+00
        -11   -1    0    0    0    0  0.00000000000E+00  0.00000000000E+00  0.45593999997E+02  0.45594000000E+02  0.51100000000E-03 0. -1.
         11   -1    0    0    0    0 -0.00000000000E+00 -0.00000000000E+00 -0.45593999997E+02  0.45594000000E+02  0.51100000000E-03 0.  1.
    9900012    2    1    2    0    0 -0.25016430729E+02  0.33695222420E+02  0.11065000840E+02  0.47787261942E+02  0.19999958498E+02 0.  0.
         12    1    1    2    0    0  0.25016430729E+02 -0.33695222420E+02 -0.11065000840E+02  0.43400738058E+02  0.00000000000E+00 0. -1.
         11    1    3    3    0    0 -0.12174553196E+02  0.65301187923E+01  0.72407224988E+01  0.15597764568E+02  0.51100000000E-03 0. -1.
        -11    1    3    3    0    0 -0.11551189090E+02  0.25798279553E+02  0.64184113121E+01  0.28985810345E+02  0.51100000000E-03 0.  1.
        -12    1    3    3    0    0 -0.12906884433E+01  0.13668240748E+01 -0.25941329709E+01  0.32036870290E+01  0.00000000000E+00 0.  1.
</event>
<event>
 7    1  0.2476315E-009  0.4778727E+02  0.7816164E-02  0.1312668E+00
        -11   -1    0    0    0    0  0.00000000000E+00  0.00000000000E+00  0.45593999997E+02  0.45594000000E+02  0.51100000000E-03 0.  1.
         11   -1    0    0    0    0 -0.00000000000E+00 -0.00000000000E+00 -0.45593999997E+02  0.45594000000E+02  0.51100000000E-03 0. -1.
    9900012    2    1    2    0    0  0.32850310219E+02 -0.17224287743E+02  0.22534508730E+02  0.47787273584E+02  0.20000011580E+02 0.  0.
         12    1    1    2    0    0 -0.32850310219E+02  0.17224287743E+02 -0.22534508730E+02  0.43400726416E+02  0.00000000000E+00 0. -1.
         11    1    3    3    0    0  0.22542853460E+02 -0.15978141477E+02  0.89721097518E+01  0.29051333891E+02  0.51100000000E-03 0. -1.
        -11    1    3    3    0    0  0.10802963750E+02 -0.27863507693E+01  0.12693313556E+02  0.16899348677E+02  0.51100000000E-03 0.  1.
         12    1    3    3    0    0 -0.49550699107E+00  0.15402045038E+01  0.86908542224E+00  0.18365910168E+01  0.00000000000E+00 0. -1.
</event>
<event>
 7    1  0.2476315E-009  0.4778733E+02  0.7816164E-02  0.1312668E+00
        -11   -1    0    0    0    0  0.00000000000E+00  0.00000000000E+00  0.45593999997E+02  0.45594000000E+02  0.51100000000E-03 0.  1.
         11   -1    0    0    0    0 -0.00000000000E+00 -0.00000000000E+00 -0.45593999997E+02  0.45594000000E+02  0.51100000000E-03 0. -1.
    9900012    2    1    2    0    0  0.17468254781E+02 -0.10060743886E+02  0.38435138905E+02  0.47787327248E+02  0.20000256254E+02 0.  0.
         12    1    1    2    0    0 -0.17468254781E+02  0.10060743886E+02 -0.38435138905E+02  0.43400672752E+02  0.00000000000E+00 0. -1.
         11    1    3    3    0    0 -0.13208380559E+01 -0.19055451455E+01  0.56262262897E+01  0.60852393540E+01  0.51100000000E-03 0.  1.
        -11    1    3    3    0    0  0.61845405384E+01 -0.67625544708E+01  0.35759908951E+01  0.98370928523E+01  0.51100000000E-03 0. -1.
        -12    1    3    3    0    0  0.12604552298E+02 -0.13926442702E+01  0.29232921721E+02  0.31864995042E+02  0.00000000000E+00 0.  1.
</event>
<event>
 7    1  0.2476315E-009  0.4778727E+02  0.7816164E-02  0.1312668E+00
        -11   -1    0    0    0    0  0.00000000000E+00  0.00000000000E+00  0.45593999997E+02  0.45594000000E+02  0.51100000000E-03 0.  1.
         11   -1    0    0    0    0 -0.00000000000E+00 -0.00000000000E+00 -0.45593999997E+02  0.45594000000E+02  0.51100000000E-03 0. -1.
    9900012    2    1    2    0    0 -0.20554344400E+02  0.18838160981E+02  0.33260582567E+02  0.47787265726E+02  0.19999975749E+02 0.  0.
         12    1    1    2    0    0  0.20554344400E+02 -0.18838160981E+02 -0.33260582567E+02  0.43400734274E+02  0.00000000000E+00 0. -1.
         11    1    3    3    0    0 -0.47175527214E+01 -0.18724598049E+01  0.59797380341E+00  0.51106733735E+01  0.51100000000E-03 0. -1.
        -11    1    3    3    0    0 -0.35592306785E+01  0.90606971773E+01  0.17138202412E+02  0.19709955315E+02  0.51100000000E-03 0.  1.
        -12    1    3    3    0    0 -0.12277561000E+02  0.11649923609E+02  0.15524406352E+02  0.22966637037E+02  0.00000000000E+00 0.  1.
</event>
<event>
 7    1  0.2476315E-009  0.4778727E+02  0.7816164E-02  0.1312668E+00
        -11   -1    0    0    0    0  0.00000000000E+00  0.00000000000E+00  0.45593999997E+02  0.45594000000E+02  0.51100000000E-03 0.  1.
         11   -1    0    0    0    0 -0.00000000000E+00 -0.00000000000E+00 -0.45593999997E+02  0.45594000000E+02  0.51100000000E-03 0. -1.
    9900012    2    1    2    0    0 -0.36439184404E+02  0.16323916123E+02 -0.17009955769E+02  0.47787274281E+02  0.20000014758E+02 0.  0.
         12    1    1    2    0    0  0.36439184404E+02 -0.16323916123E+02  0.17009955769E+02  0.43400725719E+02  0.00000000000E+00 0. -1.
         11    1    3    3    0    0 -0.99830995350E+00 -0.12451490846E+01 -0.40267741622E+01  0.43315042907E+01  0.51100000000E-03 0. -1.
        -11    1    3    3    0    0 -0.16393506158E+02  0.14982391740E+02 -0.79128679581E+01  0.23576102010E+02  0.51100000000E-03 0.  1.
        -12    1    3    3    0    0 -0.19047368293E+02  0.25866734679E+01 -0.50703136485E+01  0.19879667980E+02  0.00000000000E+00 0.  1.
</event>
<event>
 7    1  0.2476315E-009  0.4778727E+02  0.7816164E-02  0.1312668E+00
        -11   -1    0    0    0    0  0.00000000000E+00  0.00000000000E+00  0.45593999997E+02  0.45594000000E+02  0.51100000000E-03 0.  1.
         11   -1    0    0    0    0 -0.00000000000E+00 -0.00000000000E+00 -0.45593999997E+02  0.45594000000E+02  0.51100000000E-03 0. -1.
    9900012    2    1    2    0    0  0.15264261306E+02  0.31579265541E+02  0.25561212471E+02  0.47787271109E+02  0.20000000294E+02 0.  0.
         12    1    1    2    0    0 -0.15264261306E+02 -0.31579265541E+02 -0.25561212471E+02  0.43400728891E+02  0.00000000000E+00 0. -1.
         11    1    3    3    0    0  0.45586869395E+01  0.67612477187E+01  0.17445830961E+02  0.19257546975E+02  0.51100000000E-03 0. -1.
        -11    1    3    3    0    0  0.45229522413E+01  0.15367395107E+02  0.40110105973E+01  0.16513695395E+02  0.51100000000E-03 0.  1.
         12    1    3    3    0    0  0.61826221248E+01  0.94506227153E+01  0.41043709129E+01  0.12016028738E+02  0.00000000000E+00 0. -1.
</event>
<event>
 7    1  0.2476315E-009  0.4778727E+02  0.7816164E-02  0.1312668E+00
        -11   -1    0    0    0    0  0.00000000000E+00  0.00000000000E+00  0.45593999997E+02  0.45594000000E+02  0.51100000000E-03 0. -1.
         11   -1    0    0    0    0 -0.00000000000E+00 -0.00000000000E+00 -0.45593999997E+02  0.45594000000E+02  0.51100000000E-03 0.  1.
    9900012    2    1    2    0    0 -0.26793202944E+00 -0.43326586894E+02  0.25215951818E+01  0.47787270032E+02  0.19999995384E+02 0.  0.
         12    1    1    2    0    0  0.26793202944E+00  0.43326586894E+02 -0.25215951818E+01  0.43400729968E+02  0.00000000000E+00 0. -1.
         11    1    3    3    0    0 -0.79172765408E+01 -0.28222138138E+02  0.21851757285E+01  0.29392981171E+02  0.51100000000E-03 0. -1.
        -11    1    3    3    0    0  0.63492251534E+01 -0.13388127255E+02 -0.22951845130E+01  0.14994081621E+02  0.51100000000E-03 0.  1.
         12    1    3    3    0    0  0.13001193580E+01 -0.17163215022E+01  0.26316039663E+01  0.34002072406E+01  0.00000000000E+00 0. -1.
</event>
<event>
 7    1  0.2476315E-009  0.4778727E+02  0.7816164E-02  0.1312668E+00
        -11   -1    0    0    0    0  0.00000000000E+00  0.00000000000E+00  0.45593999997E+02  0.45594000000E+02  0.51100000000E-03 0.  1.
         11   -1    0    0    0    0 -0.00000000000E+00 -0.00000000000E+00 -0.45593999997E+02  0.45594000000E+02  0.51100000000E-03 0. -1.
    9900012    2    1    2    0    0 -0.15702581714E+02 -0.20774619248E+02  0.34719843214E+02  0.47787269705E+02  0.19999993891E+02 0.  0.
         12    1    1    2    0    0  0.15702581714E+02  0.20774619248E+02 -0.34719843214E+02  0.43400730295E+02  0.00000000000E+00 0. -1.
         11    1    3    3    0    0 -0.12423347020E+02 -0.15760608344E+02  0.13461267604E+02  0.24164892971E+02  0.51100000000E-03 0. -1.
        -11    1    3    3    0    0 -0.47895653059E+01 -0.60693497569E+01  0.19851715667E+02  0.21304167608E+02  0.51100000000E-03 0.  1.
        -12    1    3    3    0    0  0.15103306117E+01  0.10553388527E+01  0.14068599426E+01  0.23182091253E+01  0.00000000000E+00 0.  1.
</event>
<event>
 7    1  0.2476315E-009  0.4778728E+02  0.7816164E-02  0.1312668E+00
        -11   -1    0    0    0    0  0.00000000000E+00  0.00000000000E+00  0.45593999997E+02  0.45594000000E+02  0.51100000000E-03 0.  1.
         11   -1    0    0    0    0 -0.00000000000E+00 -0.00000000000E+00 -0.45593999997E+02  0.45594000000E+02  0.51100000000E-03 0. -1.
    9900012    2    1    2    0    0 -0.10753738003E+02  0.15935954075E+02  0.38910475978E+02  0.47787278183E+02  0.20000032550E+02 0.  0.
         12    1    1    2    0    0  0.10753738003E+02 -0.15935954075E+02 -0.38910475978E+02  0.43400721817E+02  0.00000000000E+00 0. -1.
         11    1    3    3    0    0 -0.16789226674E+01  0.41742087182E+01  0.19924453368E+01  0.49206339457E+01  0.51100000000E-03 0. -1.
        -11    1    3    3    0    0  0.42543170812E+01  0.28282763916E+01  0.13888758732E+02  0.14798512782E+02  0.51100000000E-03 0.  1.
        -12    1    3    3    0    0 -0.13329132417E+02  0.89334689654E+01  0.23029271910E+02  0.28068131456E+02  0.00000000000E+00 0.  1.
</event>
<event>
 7    1  0.2476315E-009  0.4778727E+02  0.7816164E-02  0.1312668E+00
        -11   -1    0    0    0    0  0.00000000000E+00  0.00000000000E+00  0.45593999997E+02  0.45594000000E+02  0.51100000000E-03 0. -1.
         11   -1    0    0    0    0 -0.00000000000E+00 -0.00000000000E+00 -0.45593999997E+02  0.45594000000E+02  0.51100000000E-03 0.  1.
    9900012    2    1    2    0    0  0.47922546621E+01  0.27386581875E+02 -0.33326155617E+02  0.47787271668E+02  0.20000002844E+02 0.  0.
         12    1    1    2    0    0 -0.47922546621E+01 -0.27386581875E+02  0.33326155617E+02  0.43400728332E+02  0.00000000000E+00 0. -1.
         11    1    3    3    0    0  0.43409857109E+01  0.38870836248E+00 -0.10328715898E+02  0.11210603173E+02  0.51100000000E-03 0. -1.
        -11    1    3    3    0    0  0.37553774115E+01  0.14990301166E+02 -0.16199357106E+02  0.22388192411E+02  0.51100000000E-03 0.  1.
         12    1    3    3    0    0 -0.33041084604E+01  0.12007572346E+02 -0.67980826132E+01  0.14188476084E+02  0.00000000000E+00 0. -1.
</event>
<event>
 7    1  0.2476315E-009  0.4778727E+02  0.7816164E-02  0.1312668E+00
        -11   -1    0    0    0    0  0.00000000000E+00  0.00000000000E+00  0.45593999997E+02  0.45594000000E+02  0.51100000000E-03 0.  1.
         11   -1    0    0    0    0 -0.00000000000E+00 -0.00000000000E+00 -0.45593999997E+02  0.45594000000E+02  0.51100000000E-03 0. -1.
    9900012    2    1    2    0    0 -0.24214765701E+02 -0.26450412591E+02  0.24446753433E+02  0.47787274688E+02  0.20000016610E+02 0.  0.
         12    1    1    2    0    0  0.24214765701E+02  0.26450412591E+02 -0.24446753433E+02  0.43400725312E+02  0.00000000000E+00 0. -1.
         11    1    3    3    0    0 -0.89481794772E+00 -0.21591305905E+00  0.48214754071E+01  0.49085581356E+01  0.51100000000E-03 0. -1.
        -11    1    3    3    0    0 -0.12197020102E+02 -0.22732186623E+02  0.17090282473E+02  0.30945070097E+02  0.51100000000E-03 0.  1.
        -12    1    3    3    0    0 -0.11122927651E+02 -0.35023129088E+01  0.25349955530E+01  0.11933646455E+02  0.00000000000E+00 0.  1.
</event>
<event>
 7    1  0.2476315E-009  0.4778726E+02  0.7816164E-02  0.1312668E+00
        -11   -1    0    0    0    0  0.00000000000E+00  0.00000000000E+00  0.45593999997E+02  0.45594000000E+02  0.51100000000E-03 0.  1.
         11   -1    0    0    0    0 -0.00000000000E+00 -0.00000000000E+00 -0.45593999997E+02  0.45594000000E+02  0.51100000000E-03 0. -1.
    9900012    2    1    2    0    0  0.49166343324E+01 -0.15197445313E+02  0.40354532558E+02  0.47787263426E+02  0.19999965265E+02 0.  0.
         12    1    1    2    0    0 -0.49166343324E+01  0.15197445313E+02 -0.40354532558E+02  0.43400736574E+02  0.00000000000E+00 0. -1.
         11    1    3    3    0    0 -0.80914167111E+00 -0.80761860868E+01  0.25585450945E+01  0.85103257996E+01  0.51100000000E-03 0. -1.
        -11    1    3    3    0    0  0.17121301433E+01 -0.41145957127E+01  0.27095820353E+02  0.27459875608E+02  0.51100000000E-03 0.  1.
         12    1    3    3    0    0  0.40136458602E+01 -0.30066635130E+01  0.10700167110E+02  0.11817062019E+02  0.00000000000E+00 0. -1.
</event>
<event>
 7    1  0.2476315E-009  0.4778727E+02  0.7816164E-02  0.1312668E+00
        -11   -1    0    0    0    0  0.00000000000E+00  0.00000000000E+00  0.45593999997E+02  0.45594000000E+02  0.51100000000E-03 0.  1.
         11   -1    0    0    0    0 -0.00000000000E+00 -0.00000000000E+00 -0.45593999997E+02  0.45594000000E+02  0.51100000000E-03 0. -1.
    9900012    2    1    2    0    0  0.32958955141E+02  0.69587401401E+01  0.27366154872E+02  0.47787271656E+02  0.20000002787E+02 0.  0.
         12    1    1    2    0    0 -0.32958955141E+02 -0.69587401401E+01 -0.27366154872E+02  0.43400728344E+02  0.00000000000E+00 0. -1.
         11    1    3    3    0    0  0.13456359990E+01  0.31733783012E+01  0.84429417809E+00  0.35487883855E+01  0.51100000000E-03 0. -1.
        -11    1    3    3    0    0  0.24764597746E+02 -0.62210078992E+00  0.26244466742E+02  0.36089393812E+02  0.51100000000E-03 0.  1.
        -12    1    3    3    0    0  0.68487213961E+01  0.44074626288E+01  0.27739395176E+00  0.81490894578E+01  0.00000000000E+00 0.  1.
</event>
<event>
 7    1  0.2476315E-009  0.4778727E+02  0.7816164E-02  0.1312668E+00
        -11   -1    0    0    0    0  0.00000000000E+00  0.00000000000E+00  0.45593999997E+02  0.45594000000E+02  0.51100000000E-03 0.  1.
         11   -1    0    0    0    0 -0.00000000000E+00 -0.00000000000E+00 -0.45593999997E+02  0.45594000000E+02  0.51100000000E-03 0. -1.
    9900012    2    1    2    0    0  0.15647261307E+02  0.16308539027E+02  0.37051562148E+02  0.47787268563E+02  0.19999988687E+02 0.  0.
         12    1    1    2    0    0 -0.15647261307E+02 -0.16308539027E+02 -0.37051562148E+02  0.43400731437E+02  0.00000000000E+00 0. -1.
         11    1    3    3    0    0  0.72026690456E+00  0.27563382453E+00 -0.11789500912E+01  0.14087874210E+01  0.51100000000E-03 0. -1.
        -11    1    3    3    0    0  0.16430564848E+01  0.31192288365E+01  0.20273306082E+02  0.20577564553E+02  0.51100000000E-03 0.  1.
        -12    1    3    3    0    0  0.13283937918E+02  0.12913676366E+02  0.17957206157E+02  0.25800916590E+02  0.00000000000E+00 0.  1.
</event>
<event>
 7    1  0.2476315E-009  0.4778727E+02  0.7816164E-02  0.1312668E+00
        -11   -1    0    0    0    0  0.00000000000E+00  0.00000000000E+00  0.45593999997E+02  0.45594000000E+02  0.51100000000E-03 0.  1.
         11   -1    0    0    0    0 -0.00000000000E+00 -0.00000000000E+00 -0.45593999997E+02  0.45594000000E+02  0.51100000000E-03 0. -1.
    9900012    2    1    2    0    0  0.48117107390E+00  0.20316042084E+02  0.38349055810E+02  0.47787272205E+02  0.20000005292E+02 0.  0.
         12    1    1    2    0    0 -0.48117107390E+00 -0.20316042084E+02 -0.38349055810E+02  0.43400727795E+02  0.00000000000E+00 0. -1.
         11    1    3    3    0    0  0.36137092093E+01  0.16110368523E+02  0.30024766616E+02  0.34264989111E+02  0.51100000000E-03 0. -1.
        -11    1    3    3    0    0 -0.35539468504E+01  0.49746082087E+01  0.99482722833E+01  0.11676702734E+02  0.51100000000E-03 0.  1.
         12    1    3    3    0    0  0.42140871499E+00 -0.76893464693E+00 -0.16239830885E+01  0.18455803608E+01  0.00000000000E+00 0. -1.
</event>
<event>
 7    1  0.2476315E-009  0.4778726E+02  0.7816164E-02  0.1312668E+00
        -11   -1    0    0    0    0  0.00000000000E+00  0.00000000000E+00  0.45593999997E+02  0.45594000000E+02  0.51100000000E-03 0.  1.
         11   -1    0    0    0    0 -0.00000000000E+00 -0.00000000000E+00 -0.45593999997E+02  0.45594000000E+02  0.51100000000E-03 0. -1.
    9900012    2    1    2    0    0 -0.50858409337E+01  0.10641982945E+02  0.41767289613E+02  0.47787261981E+02  0.19999958676E+02 0.  0.
         12    1    1    2    0    0  0.50858409337E+01 -0.10641982945E+02 -0.41767289613E+02  0.43400738019E+02  0.00000000000E+00 0. -1.
         11    1    3    3    0    0  0.51990945621E+01  0.17719360007E+01  0.18283943136E+02  0.19091173833E+02  0.51100000000E-03 0. -1.
        -11    1    3    3    0    0 -0.66818818865E+01  0.75475438921E+00  0.14897018090E+02  0.16344367469E+02  0.51100000000E-03 0.  1.
         12    1    3    3    0    0 -0.36030536092E+01  0.81152925552E+01  0.85863283868E+01  0.12351720679E+02  0.00000000000E+00 0. -1.
</event>
<event>
 7    1  0.2476315E-009  0.4778727E+02  0.7816164E-02  0.1312668E+00
        -11   -1    0    0    0    0  0.00000000000E+00  0.00000000000E+00  0.45593999997E+02  0.45594000000E+02  0.51100000000E-03 0. -1.
         11   -1    0    0    0    0 -0.00000000000E+00 -0.00000000000E+00 -0.45593999997E+02  0.45594000000E+02  0.51100000000E-03 0.  1.
    9900012    2    1    2    0    0  0.22797068134E+02 -0.18808682851E+02 -0.31782864989E+02  0.47787269903E+02  0.19999994794E+02 0.  0.
         12    1    1    2    0    0 -0.22797068134E+02  0.18808682851E+02  0.31782864989E+02  0.43400730097E+02  0.00000000000E+00 0. -1.
         11    1    3    3    0    0  0.74975127767E+01 -0.11032120921E+02 -0.99834685477E+01  0.16661033412E+02  0.51100000000E-03 0. -1.
        -11    1    3    3    0    0  0.98597703709E+01 -0.23547457012E+01 -0.21106630498E+02  0.23414733617E+02  0.51100000000E-03 0.  1.
        -12    1    3    3    0    0  0.54397849867E+01 -0.54218162284E+01 -0.69276594233E+00  0.77115028735E+01  0.00000000000E+00 0.  1.
</event>
<event>
 7    1  0.2476315E-009  0.4778728E+02  0.7816164E-02  0.1312668E+00
        -11   -1    0    0    0    0  0.00000000000E+00  0.00000000000E+00  0.45593999997E+02  0.45594000000E+02  0.51100000000E-03 0.  1.
         11   -1    0    0    0    0 -0.00000000000E+00 -0.00000000000E+00 -0.45593999997E+02  0.45594000000E+02  0.51100000000E-03 0. -1.
    9900012    2    1    2    0    0  0.20114941412E+02 -0.30484331449E+02  0.23446056465E+02  0.47787275402E+02  0.20000019869E+02 0.  0.
         12    1    1    2    0    0 -0.20114941412E+02  0.30484331449E+02 -0.23446056465E+02  0.43400724598E+02  0.00000000000E+00 0. -1.
         11    1    3    3    0    0 -0.21949285276E+01 -0.55910523765E+01  0.59206772637E+01  0.84339787431E+01  0.51100000000E-03 0. -1.
        -11    1    3    3    0    0 -0.41332966301E+00 -0.46751897561E+01  0.12507095604E+01  0.48572127122E+01  0.51100000000E-03 0.  1.
         12    1    3    3    0    0  0.22723199602E+02 -0.20218089316E+02  0.16274669641E+02  0.34496083947E+02  0.00000000000E+00 0. -1.
</event>
<event>
 7    1  0.2476315E-009  0.4778727E+02  0.7816164E-02  0.1312668E+00
        -11   -1    0    0    0    0  0.00000000000E+00  0.00000000000E+00  0.45593999997E+02  0.45594000000E+02  0.51100000000E-03 0.  1.
         11   -1    0    0    0    0 -0.00000000000E+00 -0.00000000000E+00 -0.45593999997E+02  0.45594000000E+02  0.51100000000E-03 0. -1.
    9900012    2    1    2    0    0  0.70092906218E+01  0.25588834507E+02  0.34346827530E+02  0.47787272266E+02  0.20000005571E+02 0.  0.
         12    1    1    2    0    0 -0.70092906218E+01 -0.25588834507E+02 -0.34346827530E+02  0.43400727734E+02  0.00000000000E+00 0. -1.
         11    1    3    3    0    0 -0.19036173098E+01  0.10484186170E+02  0.15523249830E+02  0.18828521026E+02  0.51100000000E-03 0.  1.
        -11    1    3    3    0    0 -0.19277217946E+01  0.11995587793E+00  0.63837139875E+01  0.66695056238E+01  0.51100000000E-03 0. -1.
         12    1    3    3    0    0  0.10840629726E+02  0.14984692459E+02  0.12439863713E+02  0.22289245616E+02  0.00000000000E+00 0. -1.
</event>
<event>
 7    1  0.2476315E-009  0.4778727E+02  0.7816164E-02  0.1312668E+00
        -11   -1    0    0    0    0  0.00000000000E+00  0.00000000000E+00  0.45593999997E+02  0.45594000000E+02  0.51100000000E-03 0.  1.
         11   -1    0    0    0    0 -0.00000000000E+00 -0.00000000000E+00 -0.45593999997E+02  0.45594000000E+02  0.51100000000E-03 0. -1.
    9900012    2    1    2    0    0  0.15016125763E+02 -0.89909536281E+01  0.39715261621E+02  0.47787270908E+02  0.19999999379E+02 0.  0.
         12    1    1    2    0    0 -0.15016125763E+02  0.89909536281E+01 -0.39715261621E+02  0.43400729092E+02  0.00000000000E+00 0. -1.
         11    1    3    3    0    0  0.84268833525E+01 -0.85962889891E+00  0.30385903470E+01  0.89991308713E+01  0.51100000000E-03 0. -1.
        -11    1    3    3    0    0  0.63117962183E+01 -0.28687144780E+01  0.25592155597E+02  0.26514651094E+02  0.51100000000E-03 0.  1.
         12    1    3    3    0    0  0.27744619234E+00 -0.52626102513E+01  0.11084515677E+02  0.12273488943E+02  0.00000000000E+00 0. -1.
</event>
<event>
 7    1  0.2476315E-009  0.4778728E+02  0.7816164E-02  0.1312668E+00
        -11   -1    0    0    0    0  0.00000000000E+00  0.00000000000E+00  0.45593999997E+02  0.45594000000E+02  0.51100000000E-03 0.  1.
         11   -1    0    0    0    0 -0.00000000000E+00 -0.00000000000E+00 -0.45593999997E+02  0.45594000000E+02  0.51100000000E-03 0. -1.
    9900012    2    1    2    0    0  0.42313574002E+02 -0.96378308128E+01 -0.54402559794E+00  0.47787282362E+02  0.20000051603E+02 0.  0.
         12    1    1    2    0    0 -0.42313574002E+02  0.96378308128E+01  0.54402559794E+00  0.43400717638E+02  0.00000000000E+00 0. -1.
         11    1    3    3    0    0  0.22030563364E+02  0.22038358664E+01  0.29668695634E+01  0.22338418251E+02  0.51100000000E-03 0. -1.
        -11    1    3    3    0    0  0.99866177739E+01 -0.23363623161E+01  0.18937717996E+01  0.10429645024E+02  0.51100000000E-03 0.  1.
         12    1    3    3    0    0  0.10296392864E+02 -0.95053043632E+01 -0.54046669610E+01  0.15019219088E+02  0.00000000000E+00 0. -1.
</event>
<event>
 7    1  0.2476315E-009  0.4778726E+02  0.7816164E-02  0.1312668E+00
        -11   -1    0    0    0    0  0.00000000000E+00  0.00000000000E+00  0.45593999997E+02  0.45594000000E+02  0.51100000000E-03 0. -1.
         11   -1    0    0    0    0 -0.00000000000E+00 -0.00000000000E+00 -0.45593999997E+02  0.45594000000E+02  0.51100000000E-03 0.  1.
    9900012    2    1    2    0    0 -0.39027827282E+02 -0.28946416128E+01 -0.18763635730E+02  0.47787259474E+02  0.19999947244E+02 0.  0.
         12    1    1    2    0    0  0.39027827282E+02  0.28946416128E+01  0.18763635730E+02  0.43400740526E+02  0.00000000000E+00 0. -1.
         11    1    3    3    0    0 -0.51866459177E+01 -0.13032086132E+00  0.17586822474E+01  0.54782518115E+01  0.51100000000E-03 0. -1.
        -11    1    3    3    0    0 -0.23907160164E+02 -0.20290795291E+01 -0.21607862169E+02  0.32288839846E+02  0.51100000000E-03 0.  1.
        -12    1    3    3    0    0 -0.99340212005E+01 -0.73524122234E+00  0.10855441916E+01  0.10020167816E+02  0.00000000000E+00 0.  1.
</event>
<event>
 7    1  0.2476315E-009  0.4778727E+02  0.7816164E-02  0.1312668E+00
        -11   -1    0    0    0    0  0.00000000000E+00  0.00000000000E+00  0.45593999997E+02  0.45594000000E+02  0.51100000000E-03 0. -1.
         11   -1    0    0    0    0 -0.00000000000E+00 -0.00000000000E+00 -0.45593999997E+02  0.45594000000E+02  0.51100000000E-03 0.  1.
    9900012    2    1    2    0    0 -0.18041850003E+02 -0.37667930985E+02  0.11800084132E+02  0.47787270032E+02  0.19999995383E+02 0.  0.
         12    1    1    2    0    0  0.18041850003E+02  0.37667930985E+02 -0.11800084132E+02  0.43400729968E+02  0.00000000000E+00 0. -1.
         11    1    3    3    0    0 -0.97686104504E+00 -0.50195950741E+01 -0.42940157822E+01  0.66775118127E+01  0.51100000000E-03 0. -1.
        -11    1    3    3    0    0 -0.30076735268E+01 -0.10627705276E+02  0.13933793562E+01  0.11132642353E+02  0.51100000000E-03 0.  1.
         12    1    3    3    0    0 -0.14057315431E+02 -0.22020630635E+02  0.14700720558E+02  0.29977115866E+02  0.00000000000E+00 0. -1.
</event>
<event>
 7    1  0.2476315E-009  0.4778727E+02  0.7816164E-02  0.1312668E+00
        -11   -1    0    0    0    0  0.00000000000E+00  0.00000000000E+00  0.45593999997E+02  0.45594000000E+02  0.51100000000E-03 0. -1.
         11   -1    0    0    0    0 -0.00000000000E+00 -0.00000000000E+00 -0.45593999997E+02  0.45594000000E+02  0.51100000000E-03 0.  1.
    9900012    2    1    2    0    0  0.14641308303E+02  0.21664656841E+02 -0.34639549093E+02  0.47787266985E+02  0.19999981491E+02 0.  0.
         12    1    1    2    0    0 -0.14641308303E+02 -0.21664656841E+02  0.34639549093E+02  0.43400733015E+02  0.00000000000E+00 0. -1.
         11    1    3    3    0    0 -0.25634204165E+01  0.71304782048E+00  0.38896534169E+00  0.26890250508E+01  0.51100000000E-03 0. -1.
        -11    1    3    3    0    0  0.97119171262E+01  0.15665796620E+02 -0.28098192124E+02  0.33604269356E+02  0.51100000000E-03 0.  1.
        -12    1    3    3    0    0  0.74928115936E+01  0.52858124002E+01 -0.69303223103E+01  0.11493972578E+02  0.00000000000E+00 0.  1.
</event>
<event>
 7    1  0.2476315E-009  0.4778727E+02  0.7816164E-02  0.1312668E+00
        -11   -1    0    0    0    0  0.00000000000E+00  0.00000000000E+00  0.45593999997E+02  0.45594000000E+02  0.51100000000E-03 0.  1.
         11   -1    0    0    0    0 -0.00000000000E+00 -0.00000000000E+00 -0.45593999997E+02  0.45594000000E+02  0.51100000000E-03 0. -1.
    9900012    2    1    2    0    0  0.19105395428E+02  0.12767202865E+02  0.36818551492E+02  0.47787270312E+02  0.19999996662E+02 0.  0.
         12    1    1    2    0    0 -0.19105395428E+02 -0.12767202865E+02 -0.36818551492E+02  0.43400729688E+02  0.00000000000E+00 0. -1.
         11    1    3    3    0    0  0.19535090483E+01  0.59578484451E+01  0.11753277081E+01  0.63791497222E+01  0.51100000000E-03 0. -1.
        -11    1    3    3    0    0  0.17231820022E+02  0.37064646749E+01  0.27191857738E+02  0.32404793305E+02  0.51100000000E-03 0.  1.
        -12    1    3    3    0    0 -0.79933642018E-01  0.31028897449E+01  0.84513660456E+01  0.90033272846E+01  0.00000000000E+00 0.  1.
</event>
<event>
 7    1  0.2476315E-009  0.4778727E+02  0.7816164E-02  0.1312668E+00
        -11   -1    0    0    0    0  0.00000000000E+00  0.00000000000E+00  0.45593999997E+02  0.45594000000E+02  0.51100000000E-03 0. -1.
         11   -1    0    0    0    0 -0.00000000000E+00 -0.00000000000E+00 -0.45593999997E+02  0.45594000000E+02  0.51100000000E-03 0.  1.
    9900012    2    1    2    0    0 -0.25931524785E+02  0.31655028384E+02  0.14461631005E+02  0.47787267622E+02  0.19999984394E+02 0.  0.
         12    1    1    2    0    0  0.25931524785E+02 -0.31655028384E+02 -0.14461631005E+02  0.43400732378E+02  0.00000000000E+00 0. -1.
         11    1    3    3    0    0  0.25010518525E+01  0.49989968987E+01  0.59088743929E+00  0.56208877047E+01  0.51100000000E-03 0. -1.
        -11    1    3    3    0    0 -0.92331494771E+01  0.13635694057E+02  0.75936333978E+01  0.18134124465E+02  0.51100000000E-03 0.  1.
         12    1    3    3    0    0 -0.19199427160E+02  0.13020337429E+02  0.62771101679E+01  0.24032255452E+02  0.00000000000E+00 0. -1.
</event>
<event>
 7    1  0.2476315E-009  0.4778726E+02  0.7816164E-02  0.1312668E+00
        -11   -1    0    0    0    0  0.00000000000E+00  0.00000000000E+00  0.45593999997E+02  0.45594000000E+02  0.51100000000E-03 0.  1.
         11   -1    0    0    0    0 -0.00000000000E+00 -0.00000000000E+00 -0.45593999997E+02  0.45594000000E+02  0.51100000000E-03 0. -1.
    9900012    2    1    2    0    0  0.14093501233E+02  0.13641204678E+02  0.38715820714E+02  0.47787262499E+02  0.19999961038E+02 0.  0.
         12    1    1    2    0    0 -0.14093501233E+02 -0.13641204678E+02 -0.38715820714E+02  0.43400737501E+02  0.00000000000E+00 0. -1.
         11    1    3    3    0    0 -0.16614145478E+00 -0.40171890304E+01  0.31503161914E+01  0.51078276259E+01  0.51100000000E-03 0. -1.
        -11    1    3    3    0    0  0.85262743878E+01  0.11726240566E+02  0.27780594922E+02  0.31336297280E+02  0.51100000000E-03 0.  1.
         12    1    3    3    0    0  0.57333682997E+01  0.59321531427E+01  0.77849096010E+01  0.11343137593E+02  0.00000000000E+00 0. -1.
</event>
<event>
 7    1  0.2476315E-009  0.4778727E+02  0.7816164E-02  0.1312668E+00
        -11   -1    0    0    0    0  0.00000000000E+00  0.00000000000E+00  0.45593999997E+02  0.45594000000E+02  0.51100000000E-03 0. -1.
         11   -1    0    0    0    0 -0.00000000000E+00 -0.00000000000E+00 -0.45593999997E+02  0.45594000000E+02  0.51100000000E-03 0.  1.
    9900012    2    1    2    0    0 -0.42347927616E+02  0.21654021154E+01  0.92513407806E+01  0.47787271367E+02  0.20000001470E+02 0.  0.
         12    1    1    2    0    0  0.42347927616E+02 -0.21654021154E+01 -0.92513407806E+01  0.43400728633E+02  0.00000000000E+00 0. -1.
         11    1    3    3    0    0 -0.22995642064E+02 -0.75170258497E+01  0.22056486376E+01  0.24293417169E+02  0.51100000000E-03 0. -1.
        -11    1    3    3    0    0 -0.70014956441E+01  0.81083226008E+00  0.35437773881E+01  0.78890271039E+01  0.51100000000E-03 0.  1.
         12    1    3    3    0    0 -0.12350789908E+02  0.88715957050E+01  0.35019147548E+01  0.15604827094E+02  0.00000000000E+00 0. -1.
</event>
<event>
 7    1  0.2476315E-009  0.4778727E+02  0.7816164E-02  0.1312668E+00
        -11   -1    0    0    0    0  0.00000000000E+00  0.00000000000E+00  0.45593999997E+02  0.45594000000E+02  0.51100000000E-03 0.  1.
         11   -1    0    0    0    0 -0.00000000000E+00 -0.00000000000E+00 -0.45593999997E+02  0.45594000000E+02  0.51100000000E-03 0. -1.
    9900012    2    1    2    0    0  0.79062635079E+01 -0.40589026656E+02  0.13177447083E+02  0.47787271905E+02  0.20000003924E+02 0.  0.
         12    1    1    2    0    0 -0.79062635079E+01  0.40589026656E+02 -0.13177447083E+02  0.43400728095E+02  0.00000000000E+00 0. -1.
         11    1    3    3    0    0  0.28035870051E+01 -0.18241184672E+02  0.29340673931E+01  0.18687152540E+02  0.51100000000E-03 0. -1.
        -11    1    3    3    0    0  0.91057799176E+00 -0.12566951215E+02 -0.21316490504E+01  0.12778941390E+02  0.51100000000E-03 0.  1.
        -12    1    3    3    0    0  0.41920985110E+01 -0.97808907690E+01  0.12375028740E+02  0.16321177974E+02  0.00000000000E+00 0.  1.
</event>
<event>
 7    1  0.2476315E-009  0.4778727E+02  0.7816164E-02  0.1312668E+00
        -11   -1    0    0    0    0  0.00000000000E+00  0.00000000000E+00  0.45593999997E+02  0.45594000000E+02  0.51100000000E-03 0. -1.
         11   -1    0    0    0    0 -0.00000000000E+00 -0.00000000000E+00 -0.45593999997E+02  0.45594000000E+02  0.51100000000E-03 0.  1.
    9900012    2    1    2    0    0 -0.31980859278E+02  0.23914204581E-01 -0.29340197511E+02  0.47787272793E+02  0.20000007974E+02 0.  0.
         12    1    1    2    0    0  0.31980859278E+02 -0.23914204581E-01  0.29340197511E+02  0.43400727207E+02  0.00000000000E+00 0. -1.
         11    1    3    3    0    0 -0.41949512595E+01 -0.21115547029E+01 -0.11897104251E+00  0.46979180179E+01  0.51100000000E-03 0. -1.
        -11    1    3    3    0    0 -0.25010501778E+02  0.32717577806E+01 -0.16788154823E+02  0.30299698691E+02  0.51100000000E-03 0.  1.
        -12    1    3    3    0    0 -0.27754062410E+01 -0.11362888731E+01 -0.12433071646E+02  0.12789656085E+02  0.00000000000E+00 0.  1.
</event>
<event>
 7    1  0.2476315E-009  0.4778727E+02  0.7816164E-02  0.1312668E+00
        -11   -1    0    0    0    0  0.00000000000E+00  0.00000000000E+00  0.45593999997E+02  0.45594000000E+02  0.51100000000E-03 0.  1.
         11   -1    0    0    0    0 -0.00000000000E+00 -0.00000000000E+00 -0.45593999997E+02  0.45594000000E+02  0.51100000000E-03 0. -1.
    9900012    2    1    2    0    0 -0.41311833941E+02  0.45169574574E+01 -0.12512099527E+02  0.47787272324E+02  0.20000005835E+02 0.  0.
         12    1    1    2    0    0  0.41311833941E+02 -0.45169574574E+01  0.12512099527E+02  0.43400727676E+02  0.00000000000E+00 0. -1.
         11    1    3    3    0    0 -0.24210790834E+01 -0.37679186196E+01 -0.17129873405E+01  0.47951184075E+01  0.51100000000E-03 0. -1.
        -11    1    3    3    0    0 -0.37761526154E+02  0.79919545384E+01 -0.72719011352E+01  0.39277025616E+02  0.51100000000E-03 0.  1.
        -12    1    3    3    0    0 -0.11292287033E+01  0.29292153864E+00 -0.35272110514E+01  0.37151283011E+01  0.00000000000E+00 0.  1.
</event>
<event>
 7    1  0.2476315E-009  0.4778727E+02  0.7816164E-02  0.1312668E+00
        -11   -1    0    0    0    0  0.00000000000E+00  0.00000000000E+00  0.45593999997E+02  0.45594000000E+02  0.51100000000E-03 0.  1.
         11   -1    0    0    0    0 -0.00000000000E+00 -0.00000000000E+00 -0.45593999997E+02  0.45594000000E+02  0.51100000000E-03 0. -1.
    9900012    2    1    2    0    0 -0.86969561726E+01 -0.19447094629E+02  0.37812652600E+02  0.47787271517E+02  0.20000002156E+02 0.  0.
         12    1    1    2    0    0  0.86969561726E+01  0.19447094629E+02 -0.37812652600E+02  0.43400728483E+02  0.00000000000E+00 0. -1.
         11    1    3    3    0    0 -0.80680681072E+01 -0.39243594083E+01  0.73178205398E+01  0.11577772560E+02  0.51100000000E-03 0. -1.
        -11    1    3    3    0    0 -0.15970323569E+01 -0.16768130496E+02  0.30235646259E+02  0.34610908940E+02  0.51100000000E-03 0.  1.
        -12    1    3    3    0    0  0.96814429154E+00  0.12453952760E+01  0.25918580179E+00  0.15985900171E+01  0.00000000000E+00 0.  1.
</event>
<event>
 7    1  0.2476315E-009  0.4778728E+02  0.7816164E-02  0.1312668E+00
        -11   -1    0    0    0    0  0.00000000000E+00  0.00000000000E+00  0.45593999997E+02  0.45594000000E+02  0.51100000000E-03 0. -1.
         11   -1    0    0    0    0 -0.00000000000E+00 -0.00000000000E+00 -0.45593999997E+02  0.45594000000E+02  0.51100000000E-03 0.  1.
    9900012    2    1    2    0    0 -0.14920298195E+02 -0.27796217181E+02 -0.29805668241E+02  0.47787275961E+02  0.20000022416E+02 0.  0.
         12    1    1    2    0    0  0.14920298195E+02  0.27796217181E+02  0.29805668241E+02  0.43400724039E+02  0.00000000000E+00 0. -1.
         11    1    3    3    0    0  0.11335184514E+01 -0.13495744821E+01 -0.21910371792E+00  0.17760129681E+01  0.51100000000E-03 0. -1.
        -11    1    3    3    0    0 -0.15088319120E+02 -0.23559502706E+02 -0.31719125673E+02  0.42294331480E+02  0.51100000000E-03 0.  1.
        -12    1    3    3    0    0 -0.96549752582E+00 -0.28871399928E+01  0.21325611497E+01  0.37169315124E+01  0.00000000000E+00 0.  1.
</event>
<event>
 7    1  0.2476315E-009  0.4778727E+02  0.7816164E-02  0.1312668E+00
        -11   -1    0    0    0    0  0.00000000000E+00  0.00000000000E+00  0.45593999997E+02  0.45594000000E+02  0.51100000000E-03 0. -1.
         11   -1    0    0    0    0 -0.00000000000E+00 -0.00000000000E+00 -0.45593999997E+02  0.45594000000E+02  0.51100000000E-03 0.  1.
    9900012    2    1    2    0    0  0.31707327234E+02 -0.16833740964E+02 -0.24390447962E+02  0.47787269741E+02  0.19999994059E+02 0.  0.
         12    1    1    2    0    0 -0.31707327234E+02  0.16833740964E+02  0.24390447962E+02  0.43400730259E+02  0.00000000000E+00 0. -1.
         11    1    3    3    0    0  0.80928793909E+01  0.32161056024E+01 -0.50490638365E+01  0.10066333889E+02  0.51100000000E-03 0. -1.
        -11    1    3    3    0    0  0.23122404564E+02 -0.15578567950E+02 -0.16404278118E+02  0.32348689510E+02  0.51100000000E-03 0.  1.
         12    1    3    3    0    0  0.49204327882E+00 -0.44712786170E+01 -0.29371060076E+01  0.53722463420E+01  0.00000000000E+00 0. -1.
</event>
<event>
 7    1  0.2476315E-009  0.4778727E+02  0.7816164E-02  0.1312668E+00
        -11   -1    0    0    0    0  0.00000000000E+00  0.00000000000E+00  0.45593999997E+02  0.45594000000E+02  0.51100000000E-03 0. -1.
         11   -1    0    0    0    0 -0.00000000000E+00 -0.00000000000E+00 -0.45593999997E+02  0.45594000000E+02  0.51100000000E-03 0.  1.
    9900012    2    1    2    0    0  0.37078133793E+02 -0.13824544828E+02 -0.17824623001E+02  0.47787271545E+02  0.20000002284E+02 0.  0.
         12    1    1    2    0    0 -0.37078133793E+02  0.13824544828E+02  0.17824623001E+02  0.43400728455E+02  0.00000000000E+00 0. -1.
         11    1    3    3    0    0  0.69871445382E+00 -0.25690498718E+01 -0.25878271988E+01  0.37128249358E+01  0.51100000000E-03 0. -1.
        -11    1    3    3    0    0  0.54222629053E+01 -0.22771371772E+01 -0.97377940795E+01  0.11375892164E+02  0.51100000000E-03 0.  1.
        -12    1    3    3    0    0  0.30957156434E+02 -0.89783577792E+01 -0.54990017230E+01  0.32698554445E+02  0.00000000000E+00 0.  1.
</event>
<event>
 7    1  0.2476315E-009  0.4778727E+02  0.7816164E-02  0.1312668E+00
        -11   -1    0    0    0    0  0.00000000000E+00  0.00000000000E+00  0.45593999997E+02  0.45594000000E+02  0.51100000000E-03 0. -1.
         11   -1    0    0    0    0 -0.00000000000E+00 -0.00000000000E+00 -0.45593999997E+02  0.45594000000E+02  0.51100000000E-03 0.  1.
    9900012    2    1    2    0    0  0.35402660370E+02 -0.24696257596E+02  0.45132966661E+01  0.47787270198E+02  0.19999996143E+02 0.  0.
         12    1    1    2    0    0 -0.35402660370E+02  0.24696257596E+02 -0.45132966661E+01  0.43400729802E+02  0.00000000000E+00 0. -1.
         11    1    3    3    0    0  0.56503378456E+01 -0.92689544869E+01 -0.47118989632E+01  0.11833926954E+02  0.51100000000E-03 0. -1.
        -11    1    3    3    0    0  0.18013614404E+02 -0.14010786078E+02  0.47438010279E+01  0.23308712510E+02  0.51100000000E-03 0.  1.
         12    1    3    3    0    0  0.11738708121E+02 -0.14165170307E+01  0.44813946014E+01  0.12644630735E+02  0.00000000000E+00 0. -1.
</event>
<event>
 7    1  0.2476315E-009  0.4778727E+02  0.7816164E-02  0.1312668E+00
        -11   -1    0    0    0    0  0.00000000000E+00  0.00000000000E+00  0.45593999997E+02  0.45594000000E+02  0.51100000000E-03 0.  1.
         11   -1    0    0    0    0 -0.00000000000E+00 -0.00000000000E+00 -0.45593999997E+02  0.45594000000E+02  0.51100000000E-03 0. -1.
    9900012    2    1    2    0    0  0.29531926876E+00 -0.35606797606E+02  0.24813141685E+02  0.47787271325E+02  0.20000001281E+02 0.  0.
         12    1    1    2    0    0 -0.29531926876E+00  0.35606797606E+02 -0.24813141685E+02  0.43400728675E+02  0.00000000000E+00 0. -1.
         11    1    3    3    0    0 -0.14941006774E+01 -0.33763691954E+01 -0.39228559599E+00  0.37129629715E+01  0.51100000000E-03 0. -1.
        -11    1    3    3    0    0  0.74397370305E+01 -0.11938884044E+02  0.51218141937E+01  0.14970625244E+02  0.51100000000E-03 0.  1.
        -12    1    3    3    0    0 -0.56503170843E+01 -0.20291544367E+02  0.20083613087E+02  0.29103683110E+02  0.00000000000E+00 0.  1.
</event>
<event>
 7    1  0.2476315E-009  0.4778727E+02  0.7816164E-02  0.1312668E+00
        -11   -1    0    0    0    0  0.00000000000E+00  0.00000000000E+00  0.45593999997E+02  0.45594000000E+02  0.51100000000E-03 0. -1.
         11   -1    0    0    0    0 -0.00000000000E+00 -0.00000000000E+00 -0.45593999997E+02  0.45594000000E+02  0.51100000000E-03 0.  1.
    9900012    2    1    2    0    0 -0.13321480876E+02 -0.40623325526E+02 -0.74770650275E+01  0.47787274995E+02  0.20000018014E+02 0.  0.
         12    1    1    2    0    0  0.13321480876E+02  0.40623325526E+02  0.74770650275E+01  0.43400725005E+02  0.00000000000E+00 0. -1.
         11    1    3    3    0    0  0.99003396642E+00 -0.87020521477E+01  0.39800550143E+01  0.96201204262E+01  0.51100000000E-03 0. -1.
        -11    1    3    3    0    0 -0.13918984884E+02 -0.32547430557E+02 -0.11850805073E+02  0.37329813249E+02  0.51100000000E-03 0.  1.
         12    1    3    3    0    0 -0.39252995863E+00  0.62615717938E+00  0.39368503147E+00  0.83734131972E+00  0.00000000000E+00 0. -1.
</event>
<event>
 7    1  0.2476315E-009  0.4778727E+02  0.7816164E-02  0.1312668E+00
        -11   -1    0    0    0    0  0.00000000000E+00  0.00000000000E+00  0.45593999997E+02  0.45594000000E+02  0.51100000000E-03 0.  1.
         11   -1    0    0    0    0 -0.00000000000E+00 -0.00000000000E+00 -0.45593999997E+02  0.45594000000E+02  0.51100000000E-03 0. -1.
    9900012    2    1    2    0    0 -0.97684401373E+01  0.24320509889E+02  0.34593550955E+02  0.47787269688E+02  0.19999993815E+02 0.  0.
         12    1    1    2    0    0  0.97684401373E+01 -0.24320509889E+02 -0.34593550955E+02  0.43400730312E+02  0.00000000000E+00 0. -1.
         11    1    3    3    0    0 -0.67137280653E+01  0.19416363135E+00  0.53267279208E+01  0.85723902532E+01  0.51100000000E-03 0. -1.
        -11    1    3    3    0    0 -0.41786872337E+01  0.24460735586E+02  0.28603835885E+02  0.37867775747E+02  0.51100000000E-03 0.  1.
        -12    1    3    3    0    0  0.11239751617E+01 -0.33438932811E+00  0.66298714875E+00  0.13471036880E+01  0.00000000000E+00 0.  1.
</event>
<event>
 7    1  0.2476315E-009  0.4778727E+02  0.7816164E-02  0.1312668E+00
        -11   -1    0    0    0    0  0.00000000000E+00  0.00000000000E+00  0.45593999997E+02  0.45594000000E+02  0.51100000000E-03 0.  1.
         11   -1    0    0    0    0 -0.00000000000E+00 -0.00000000000E+00 -0.45593999997E+02  0.45594000000E+02  0.51100000000E-03 0. -1.
    9900012    2    1    2    0    0 -0.26091862066E+02  0.34403611793E+02  0.43851564897E+01  0.47787269961E+02  0.19999995061E+02 0.  0.
         12    1    1    2    0    0  0.26091862066E+02 -0.34403611793E+02 -0.43851564897E+01  0.43400730039E+02  0.00000000000E+00 0. -1.
         11    1    3    3    0    0 -0.23192499403E+02  0.20104505263E+02  0.94533327724E+00  0.30707927570E+02  0.51100000000E-03 0. -1.
        -11    1    3    3    0    0  0.17321707446E+00  0.88137998572E+01 -0.16763915582E+01  0.89734809854E+01  0.51100000000E-03 0.  1.
         12    1    3    3    0    0 -0.30725797377E+01  0.54853066731E+01  0.51162147707E+01  0.81058614053E+01  0.00000000000E+00 0. -1.
</event>
<event>
 7    1  0.2476315E-009  0.4778727E+02  0.7816164E-02  0.1312668E+00
        -11   -1    0    0    0    0  0.00000000000E+00  0.00000000000E+00  0.45593999997E+02  0.45594000000E+02  0.51100000000E-03 0.  1.
         11   -1    0    0    0    0 -0.00000000000E+00 -0.00000000000E+00 -0.45593999997E+02  0.45594000000E+02  0.51100000000E-03 0. -1.
    9900012    2    1    2    0    0  0.12470361926E+02  0.20120786167E+02  0.36376739737E+02  0.47787272398E+02  0.20000006171E+02 0.  0.
         12    1    1    2    0    0 -0.12470361926E+02 -0.20120786167E+02 -0.36376739737E+02  0.43400727602E+02  0.00000000000E+00 0. -1.
         11    1    3    3    0    0 -0.22355709777E+01 -0.92344158038E+00  0.38168292787E+01  0.45187064468E+01  0.51100000000E-03 0. -1.
        -11    1    3    3    0    0  0.16474342348E+02  0.21021034004E+02  0.30909544761E+02  0.40849575077E+02  0.51100000000E-03 0.  1.
        -12    1    3    3    0    0 -0.17684094447E+01  0.23193743382E-01  0.16503656970E+01  0.24189908738E+01  0.00000000000E+00 0.  1.
</event>
<event>
 7    1  0.2476315E-009  0.4778727E+02  0.7816164E-02  0.1312668E+00
        -11   -1    0    0    0    0  0.00000000000E+00  0.00000000000E+00  0.45593999997E+02  0.45594000000E+02  0.51100000000E-03 0.  1.
         11   -1    0    0    0    0 -0.00000000000E+00 -0.00000000000E+00 -0.45593999997E+02  0.45594000000E+02  0.51100000000E-03 0. -1.
    9900012    2    1    2    0    0  0.12089385435E+02  0.44406163084E+01  0.41445760817E+02  0.47787269556E+02  0.19999993214E+02 0.  0.
         12    1    1    2    0    0 -0.12089385435E+02 -0.44406163084E+01 -0.41445760817E+02  0.43400730444E+02  0.00000000000E+00 0. -1.
         11    1    3    3    0    0  0.23668283271E+00  0.31486016645E+01 -0.29881861017E+00  0.31715932949E+01  0.51100000000E-03 0. -1.
        -11    1    3    3    0    0  0.13721279806E+02  0.14269321055E+01  0.35151425417E+02  0.37761519618E+02  0.51100000000E-03 0.  1.
        -12    1    3    3    0    0 -0.18685772045E+01 -0.13491746165E+00  0.65931540103E+01  0.68541566436E+01  0.00000000000E+00 0.  1.
</event>
<event>
 7    1  0.2476315E-009  0.4778727E+02  0.7816164E-02  0.1312668E+00
        -11   -1    0    0    0    0  0.00000000000E+00  0.00000000000E+00  0.45593999997E+02  0.45594000000E+02  0.51100000000E-03 0.  1.
         11   -1    0    0    0    0 -0.00000000000E+00 -0.00000000000E+00 -0.45593999997E+02  0.45594000000E+02  0.51100000000E-03 0. -1.
    9900012    2    1    2    0    0  0.12956729846E+02  0.16256316912E+02  0.38098275547E+02  0.47787270888E+02  0.19999999285E+02 0.  0.
         12    1    1    2    0    0 -0.12956729846E+02 -0.16256316912E+02 -0.38098275547E+02  0.43400729112E+02  0.00000000000E+00 0. -1.
         11    1    3    3    0    0 -0.31061717745E+01 -0.10133033123E+01  0.76126265859E+01  0.82841517667E+01  0.51100000000E-03 0. -1.
        -11    1    3    3    0    0  0.12961780539E+02  0.77360907868E+01  0.18071597320E+02  0.23546496244E+02  0.51100000000E-03 0.  1.
         12    1    3    3    0    0  0.31011210817E+01  0.95335294375E+01  0.12414051641E+02  0.15956622877E+02  0.00000000000E+00 0. -1.
</event>
<event>
 7    1  0.2476315E-009  0.4778727E+02  0.7816164E-02  0.1312668E+00
        -11   -1    0    0    0    0  0.00000000000E+00  0.00000000000E+00  0.45593999997E+02  0.45594000000E+02  0.51100000000E-03 0.  1.
         11   -1    0    0    0    0 -0.00000000000E+00 -0.00000000000E+00 -0.45593999997E+02  0.45594000000E+02  0.51100000000E-03 0. -1.
    9900012    2    1    2    0    0  0.89849724582E+01 -0.36687730408E+02  0.21375317185E+02  0.47787268701E+02  0.19999989315E+02 0.  0.
         12    1    1    2    0    0 -0.89849724582E+01  0.36687730408E+02 -0.21375317185E+02  0.43400731299E+02  0.00000000000E+00 0. -1.
         11    1    3    3    0    0 -0.31707551806E+01 -0.57867371078E+01 -0.77084156057E+00  0.66433584686E+01  0.51100000000E-03 0. -1.
        -11    1    3    3    0    0  0.13728672172E+02 -0.25883530735E+02  0.17502539451E+02  0.34128763388E+02  0.51100000000E-03 0.  1.
        -12    1    3    3    0    0 -0.15729445333E+01 -0.50174625652E+01  0.46436192939E+01  0.70151468441E+01  0.00000000000E+00 0.  1.
</event>
<event>
 7    1  0.2476315E-009  0.4778727E+02  0.7816164E-02  0.1312668E+00
        -11   -1    0    0    0    0  0.00000000000E+00  0.00000000000E+00  0.45593999997E+02  0.45594000000E+02  0.51100000000E-03 0.  1.
         11   -1    0    0    0    0 -0.00000000000E+00 -0.00000000000E+00 -0.45593999997E+02  0.45594000000E+02  0.51100000000E-03 0. -1.
    9900012    2    1    2    0    0 -0.37349339357E+02  0.21827735217E+02  0.34928756718E+01  0.47787270104E+02  0.19999995710E+02 0.  0.
         12    1    1    2    0    0  0.37349339357E+02 -0.21827735217E+02 -0.34928756718E+01  0.43400729896E+02  0.00000000000E+00 0. -1.
         11    1    3    3    0    0 -0.23751456500E+02  0.20267560984E+02 -0.29860758843E+01  0.31365942734E+02  0.51100000000E-03 0. -1.
        -11    1    3    3    0    0 -0.34258019557E+01  0.32215560599E+01  0.12601569857E+01  0.48685252774E+01  0.51100000000E-03 0.  1.
         12    1    3    3    0    0 -0.10172080901E+02 -0.16613818266E+01  0.52187945704E+01  0.11552802093E+02  0.00000000000E+00 0. -1.
</event>
<event>
 7    1  0.2476315E-009  0.4778727E+02  0.7816164E-02  0.1312668E+00
        -11   -1    0    0    0    0  0.00000000000E+00  0.00000000000E+00  0.45593999997E+02  0.45594000000E+02  0.51100000000E-03 0.  1.
         11   -1    0    0    0    0 -0.00000000000E+00 -0.00000000000E+00 -0.45593999997E+02  0.45594000000E+02  0.51100000000E-03 0. -1.
    9900012    2    1    2    0    0 -0.64881739043E+01  0.29909622029E+02  0.30772412651E+02  0.47787271078E+02  0.20000000154E+02 0.  0.
         12    1    1    2    0    0  0.64881739043E+01 -0.29909622029E+02 -0.30772412651E+02  0.43400728922E+02  0.00000000000E+00 0. -1.
         11    1    3    3    0    0  0.22834316238E+01  0.14083669517E+02  0.30728457733E+01  0.14594731530E+02  0.51100000000E-03 0. -1.
        -11    1    3    3    0    0 -0.79851981699E+01  0.13347820319E+02  0.25007263582E+02  0.29449803551E+02  0.51100000000E-03 0.  1.
        -12    1    3    3    0    0 -0.78640735822E+00  0.24781321941E+01  0.26923032964E+01  0.37427359971E+01  0.00000000000E+00 0.  1.
</event>
<event>
 7    1  0.2476315E-009  0.4778727E+02  0.7816164E-02  0.1312668E+00
        -11   -1    0    0    0    0  0.00000000000E+00  0.00000000000E+00  0.45593999997E+02  0.45594000000E+02  0.51100000000E-03 0.  1.
         11   -1    0    0    0    0 -0.00000000000E+00 -0.00000000000E+00 -0.45593999997E+02  0.45594000000E+02  0.51100000000E-03 0. -1.
    9900012    2    1    2    0    0 -0.15465937723E+02 -0.32197759072E+02  0.24652228388E+02  0.47787270935E+02  0.19999999501E+02 0.  0.
         12    1    1    2    0    0  0.15465937723E+02  0.32197759072E+02 -0.24652228388E+02  0.43400729065E+02  0.00000000000E+00 0. -1.
         11    1    3    3    0    0 -0.85160089267E+01 -0.18209377925E+02  0.72386208507E+01  0.21365895360E+02  0.51100000000E-03 0. -1.
        -11    1    3    3    0    0 -0.82218906964E+01 -0.38462475850E+01  0.11362283360E+02  0.14542853589E+02  0.51100000000E-03 0.  1.
        -12    1    3    3    0    0  0.12719619005E+01 -0.10142133562E+02  0.60513241777E+01  0.11878521986E+02  0.00000000000E+00 0.  1.
</event>
<event>
 7    1  0.2476315E-009  0.4778727E+02  0.7816164E-02  0.1312668E+00
        -11   -1    0    0    0    0  0.00000000000E+00  0.00000000000E+00  0.45593999997E+02  0.45594000000E+02  0.51100000000E-03 0. -1.
         11   -1    0    0    0    0 -0.00000000000E+00 -0.00000000000E+00 -0.45593999997E+02  0.45594000000E+02  0.51100000000E-03 0.  1.
    9900012    2    1    2    0    0 -0.39378283152E+02 -0.18184495105E+02 -0.15160051444E+01  0.47787270538E+02  0.19999997693E+02 0.  0.
         12    1    1    2    0    0  0.39378283152E+02  0.18184495105E+02  0.15160051444E+01  0.43400729462E+02  0.00000000000E+00 0. -1.
         11    1    3    3    0    0 -0.36523614487E+02 -0.15867222325E+02 -0.64559957450E+01  0.40341331669E+02  0.51100000000E-03 0. -1.
        -11    1    3    3    0    0 -0.23175427482E+01 -0.34056339765E+01  0.46219669288E+01  0.61912781979E+01  0.51100000000E-03 0.  1.
         12    1    3    3    0    0 -0.53712591631E+00  0.10883611966E+01  0.31802367178E+00  0.12546606713E+01  0.00000000000E+00 0. -1.
</event>
<event>
 7    1  0.2476315E-009  0.4778727E+02  0.7816164E-02  0.1312668E+00
        -11   -1    0    0    0    0  0.00000000000E+00  0.00000000000E+00  0.45593999997E+02  0.45594000000E+02  0.51100000000E-03 0. -1.
         11   -1    0    0    0    0 -0.00000000000E+00 -0.00000000000E+00 -0.45593999997E+02  0.45594000000E+02  0.51100000000E-03 0.  1.
    9900012    2    1    2    0    0  0.16421574640E+02  0.41868029320E+01 -0.39955300509E+02  0.47787268771E+02  0.19999989635E+02 0.  0.
         12    1    1    2    0    0 -0.16421574640E+02 -0.41868029320E+01  0.39955300509E+02  0.43400731229E+02  0.00000000000E+00 0. -1.
         11    1    3    3    0    0  0.12897112787E+02  0.10022693081E+02 -0.19356241304E+02  0.25326941634E+02  0.51100000000E-03 0. -1.
        -11    1    3    3    0    0  0.17242409915E+01 -0.64071224330E+01 -0.18409737315E+02  0.19568920592E+02  0.51100000000E-03 0.  1.
         12    1    3    3    0    0  0.18002208619E+01  0.57123228394E+00 -0.21893218900E+01  0.28914065456E+01  0.00000000000E+00 0. -1.
</event>
<event>
 7    1  0.2476315E-009  0.4778727E+02  0.7816164E-02  0.1312668E+00
        -11   -1    0    0    0    0  0.00000000000E+00  0.00000000000E+00  0.45593999997E+02  0.45594000000E+02  0.51100000000E-03 0. -1.
         11   -1    0    0    0    0 -0.00000000000E+00 -0.00000000000E+00 -0.45593999997E+02  0.45594000000E+02  0.51100000000E-03 0.  1.
    9900012    2    1    2    0    0  0.13173334665E+02 -0.30264660772E+01 -0.41242296373E+02  0.47787271282E+02  0.20000001084E+02 0.  0.
         12    1    1    2    0    0 -0.13173334665E+02  0.30264660772E+01  0.41242296373E+02  0.43400728718E+02  0.00000000000E+00 0. -1.
         11    1    3    3    0    0  0.61672186827E+01 -0.60277330855E+01 -0.14319292628E+02  0.16715570408E+02  0.51100000000E-03 0. -1.
        -11    1    3    3    0    0  0.10324324148E+02  0.51616422790E+01 -0.19573454958E+02  0.22723431945E+02  0.51100000000E-03 0.  1.
        -12    1    3    3    0    0 -0.33182081653E+01 -0.21603752707E+01 -0.73495487873E+01  0.83482689292E+01  0.00000000000E+00 0.  1.
</event>
<event>
 7    1  0.2476315E-009  0.4778727E+02  0.7816164E-02  0.1312668E+00
        -11   -1    0    0    0    0  0.00000000000E+00  0.00000000000E+00  0.45593999997E+02  0.45594000000E+02  0.51100000000E-03 0. -1.
         11   -1    0    0    0    0 -0.00000000000E+00 -0.00000000000E+00 -0.45593999997E+02  0.45594000000E+02  0.51100000000E-03 0.  1.
    9900012    2    1    2    0    0  0.37465508277E+02 -0.21118537379E+02 -0.58280806921E+01  0.47787268946E+02  0.19999990432E+02 0.  0.
         12    1    1    2    0    0 -0.37465508277E+02  0.21118537379E+02  0.58280806921E+01  0.43400731054E+02  0.00000000000E+00 0. -1.
         11    1    3    3    0    0  0.22833551854E+01 -0.86374780813E+01 -0.31719496263E+01  0.94805592241E+01  0.51100000000E-03 0. -1.
        -11    1    3    3    0    0  0.25286065666E+02 -0.10200846268E+02  0.15604012415E+01  0.27310753079E+02  0.51100000000E-03 0.  1.
        -12    1    3    3    0    0  0.98960874255E+01 -0.22802130297E+01 -0.42165323073E+01  0.10995956643E+02  0.00000000000E+00 0.  1.
</event>
<event>
 7    1  0.2476315E-009  0.4778728E+02  0.7816164E-02  0.1312668E+00
        -11   -1    0    0    0    0  0.00000000000E+00  0.00000000000E+00  0.45593999997E+02  0.45594000000E+02  0.51100000000E-03 0. -1.
         11   -1    0    0    0    0 -0.00000000000E+00 -0.00000000000E+00 -0.45593999997E+02  0.45594000000E+02  0.51100000000E-03 0.  1.
    9900012    2    1    2    0    0  0.31021300910E+02 -0.41622520490E+01 -0.30066217536E+02  0.47787275476E+02  0.20000020204E+02 0.  0.
         12    1    1    2    0    0 -0.31021300910E+02  0.41622520490E+01  0.30066217536E+02  0.43400724524E+02  0.00000000000E+00 0. -1.
         11    1    3    3    0    0  0.17094503192E+02  0.27588628757E+01 -0.21454056732E+02  0.27570090937E+02  0.51100000000E-03 0. -1.
        -11    1    3    3    0    0  0.23859958109E+01 -0.34865742915E+01  0.15102605863E+01  0.44866539425E+01  0.51100000000E-03 0.  1.
        -12    1    3    3    0    0  0.11540801907E+02 -0.34345406331E+01 -0.10122421391E+02  0.15730530596E+02  0.00000000000E+00 0.  1.
</event>
<event>
 7    1  0.2476315E-009  0.4778727E+02  0.7816164E-02  0.1312668E+00
        -11   -1    0    0    0    0  0.00000000000E+00  0.00000000000E+00  0.45593999997E+02  0.45594000000E+02  0.51100000000E-03 0.  1.
         11   -1    0    0    0    0 -0.00000000000E+00 -0.00000000000E+00 -0.45593999997E+02  0.45594000000E+02  0.51100000000E-03 0. -1.
    9900012    2    1    2    0    0 -0.13158326798E+02  0.40876625386E+02  0.62915256093E+01  0.47787270034E+02  0.19999995393E+02 0.  0.
         12    1    1    2    0    0  0.13158326798E+02 -0.40876625386E+02 -0.62915256093E+01  0.43400729966E+02  0.00000000000E+00 0. -1.
         11    1    3    3    0    0 -0.97943989585E+01  0.73454253406E+01  0.61631339009E+01  0.13706558435E+02  0.51100000000E-03 0. -1.
        -11    1    3    3    0    0 -0.27076726952E+01  0.66974949179E+01  0.43535582980E+00  0.72372276847E+01  0.51100000000E-03 0.  1.
         12    1    3    3    0    0 -0.65625514469E+00  0.26833705127E+02 -0.30696412142E+00  0.26843483914E+02  0.00000000000E+00 0. -1.
</event>
<event>
 7    1  0.2476315E-009  0.4778730E+02  0.7816164E-02  0.1312668E+00
        -11   -1    0    0    0    0  0.00000000000E+00  0.00000000000E+00  0.45593999997E+02  0.45594000000E+02  0.51100000000E-03 0.  1.
         11   -1    0    0    0    0 -0.00000000000E+00 -0.00000000000E+00 -0.45593999997E+02  0.45594000000E+02  0.51100000000E-03 0. -1.
    9900012    2    1    2    0    0 -0.34765080571E+02  0.25827127861E+02  0.28229712684E+01  0.47787302685E+02  0.20000144262E+02 0.  0.
         12    1    1    2    0    0  0.34765080571E+02 -0.25827127861E+02 -0.28229712684E+01  0.43400697315E+02  0.00000000000E+00 0. -1.
         11    1    3    3    0    0 -0.51163183472E+01  0.10387851065E+01 -0.74197952107E+00  0.52731699952E+01  0.51100000000E-03 0. -1.
        -11    1    3    3    0    0 -0.31406543758E+02  0.19935051090E+02  0.33075860961E+01  0.37345915156E+02  0.51100000000E-03 0.  1.
        -12    1    3    3    0    0  0.17577815340E+01  0.48532916637E+01  0.25736469340E+00  0.51682175341E+01  0.00000000000E+00 0.  1.
</event>
<event>
 7    1  0.2476315E-009  0.4778726E+02  0.7816164E-02  0.1312668E+00
        -11   -1    0    0    0    0  0.00000000000E+00  0.00000000000E+00  0.45593999997E+02  0.45594000000E+02  0.51100000000E-03 0.  1.
         11   -1    0    0    0    0 -0.00000000000E+00 -0.00000000000E+00 -0.45593999997E+02  0.45594000000E+02  0.51100000000E-03 0. -1.
    9900012    2    1    2    0    0 -0.29767487074E+02 -0.19937129874E+02  0.24495545920E+02  0.47787260327E+02  0.19999951134E+02 0.  0.
         12    1    1    2    0    0  0.29767487074E+02  0.19937129874E+02 -0.24495545920E+02  0.43400739673E+02  0.00000000000E+00 0. -1.
         11    1    3    3    0    0 -0.60871458072E+01 -0.37971543741E+01 -0.15609112795E+01  0.73422183094E+01  0.51100000000E-03 0. -1.
        -11    1    3    3    0    0 -0.16512102043E+02 -0.16970973090E+02  0.20808168092E+02  0.31522108132E+02  0.51100000000E-03 0.  1.
         12    1    3    3    0    0 -0.71682392236E+01  0.83099759087E+00  0.52482891077E+01  0.89229338853E+01  0.00000000000E+00 0. -1.
</event>
<event>
 7    1  0.2476315E-009  0.4778727E+02  0.7816164E-02  0.1312668E+00
        -11   -1    0    0    0    0  0.00000000000E+00  0.00000000000E+00  0.45593999997E+02  0.45594000000E+02  0.51100000000E-03 0. -1.
         11   -1    0    0    0    0 -0.00000000000E+00 -0.00000000000E+00 -0.45593999997E+02  0.45594000000E+02  0.51100000000E-03 0.  1.
    9900012    2    1    2    0    0  0.33962340548E+02 -0.26456444838E+02 -0.54990656463E+01  0.47787265306E+02  0.19999973835E+02 0.  0.
         12    1    1    2    0    0 -0.33962340548E+02  0.26456444838E+02  0.54990656463E+01  0.43400734694E+02  0.00000000000E+00 0. -1.
         11    1    3    3    0    0  0.11602098401E+02 -0.10339044095E+02  0.60035629400E+01  0.16659750548E+02  0.51100000000E-03 0. -1.
        -11    1    3    3    0    0  0.95288540103E+01 -0.30853896789E+01 -0.72118569676E+01  0.12342186573E+02  0.51100000000E-03 0.  1.
         12    1    3    3    0    0  0.12831388137E+02 -0.13032011065E+02 -0.42907716187E+01  0.18785328185E+02  0.00000000000E+00 0. -1.
</event>
<event>
 7    1  0.2476315E-009  0.4778725E+02  0.7816164E-02  0.1312668E+00
        -11   -1    0    0    0    0  0.00000000000E+00  0.00000000000E+00  0.45593999997E+02  0.45594000000E+02  0.51100000000E-03 0.  1.
         11   -1    0    0    0    0 -0.00000000000E+00 -0.00000000000E+00 -0.45593999997E+02  0.45594000000E+02  0.51100000000E-03 0. -1.
    9900012    2    1    2    0    0 -0.15261661067E+01  0.16943283190E+01  0.43340806114E+02  0.47787246481E+02  0.19999888005E+02 0.  0.
         12    1    1    2    0    0  0.15261661067E+01 -0.16943283190E+01 -0.43340806114E+02  0.43400753519E+02  0.00000000000E+00 0. -1.
         11    1    3    3    0    0  0.25677340071E+01  0.52935635577E+01  0.10738516165E+02  0.12244623422E+02  0.51100000000E-03 0. -1.
        -11    1    3    3    0    0 -0.20552481288E+01 -0.85464778437E+01  0.21030297449E+02  0.22793414388E+02  0.51100000000E-03 0.  1.
        -12    1    3    3    0    0 -0.20386519850E+01  0.49472426051E+01  0.11571992500E+02  0.12749208671E+02  0.00000000000E+00 0.  1.
</event>
<event>
 7    1  0.2476315E-009  0.4778727E+02  0.7816164E-02  0.1312668E+00
        -11   -1    0    0    0    0  0.00000000000E+00  0.00000000000E+00  0.45593999997E+02  0.45594000000E+02  0.51100000000E-03 0. -1.
         11   -1    0    0    0    0 -0.00000000000E+00 -0.00000000000E+00 -0.45593999997E+02  0.45594000000E+02  0.51100000000E-03 0.  1.
    9900012    2    1    2    0    0 -0.34110821489E+02 -0.39798539305E+01 -0.26537442751E+02  0.47787271346E+02  0.20000001373E+02 0.  0.
         12    1    1    2    0    0  0.34110821489E+02  0.39798539305E+01  0.26537442751E+02  0.43400728654E+02  0.00000000000E+00 0. -1.
         11    1    3    3    0    0 -0.82647403100E+01 -0.55447896465E+01 -0.10395334697E+02  0.14391442191E+02  0.51100000000E-03 0. -1.
        -11    1    3    3    0    0 -0.28792581169E+01  0.52054072744E+01 -0.39411315482E+01  0.71357487580E+01  0.51100000000E-03 0.  1.
        -12    1    3    3    0    0 -0.22966823062E+02 -0.36404715585E+01 -0.12200976506E+02  0.26260080397E+02  0.00000000000E+00 0.  1.
</event>
<event>
 7    1  0.2476315E-009  0.4778727E+02  0.7816164E-02  0.1312668E+00
        -11   -1    0    0    0    0  0.00000000000E+00  0.00000000000E+00  0.45593999997E+02  0.45594000000E+02  0.51100000000E-03 0. -1.
         11   -1    0    0    0    0 -0.00000000000E+00 -0.00000000000E+00 -0.45593999997E+02  0.45594000000E+02  0.51100000000E-03 0.  1.
    9900012    2    1    2    0    0 -0.10026570225E+02  0.13951940701E+02  0.39855166347E+02  0.47787273689E+02  0.20000012058E+02 0.  0.
         12    1    1    2    0    0  0.10026570225E+02 -0.13951940701E+02 -0.39855166347E+02  0.43400726311E+02  0.00000000000E+00 0. -1.
         11    1    3    3    0    0 -0.98978560347E+01  0.14246983338E+02  0.39644091031E+02  0.43273525882E+02  0.51100000000E-03 0. -1.
        -11    1    3    3    0    0 -0.89755745673E+00 -0.10799267036E+01  0.19823918262E+01  0.24293473788E+01  0.51100000000E-03 0.  1.
         12    1    3    3    0    0  0.76884326656E+00  0.78488406661E+00 -0.17713165103E+01  0.20844004285E+01  0.00000000000E+00 0. -1.
</event>
<event>
 7    1  0.2476315E-009  0.4778727E+02  0.7816164E-02  0.1312668E+00
        -11   -1    0    0    0    0  0.00000000000E+00  0.00000000000E+00  0.45593999997E+02  0.45594000000E+02  0.51100000000E-03 0. -1.
         11   -1    0    0    0    0 -0.00000000000E+00 -0.00000000000E+00 -0.45593999997E+02  0.45594000000E+02  0.51100000000E-03 0.  1.
    9900012    2    1    2    0    0 -0.80911237064E+01  0.39011230029E+02 -0.17212815282E+02  0.47787270039E+02  0.19999995415E+02 0.  0.
         12    1    1    2    0    0  0.80911237064E+01 -0.39011230029E+02  0.17212815282E+02  0.43400729961E+02  0.00000000000E+00 0. -1.
         11    1    3    3    0    0 -0.62245912092E+01  0.22466126738E+02  0.60583082672E+00  0.23320364868E+02  0.51100000000E-03 0. -1.
        -11    1    3    3    0    0 -0.20590741697E+01  0.13930388781E+02 -0.15750734007E+02  0.21127733907E+02  0.51100000000E-03 0.  1.
         12    1    3    3    0    0  0.19254167253E+00  0.26147145104E+01 -0.20679121019E+01  0.33391712636E+01  0.00000000000E+00 0. -1.
</event>
<event>
 7    1  0.2476315E-009  0.4778727E+02  0.7816164E-02  0.1312668E+00
        -11   -1    0    0    0    0  0.00000000000E+00  0.00000000000E+00  0.45593999997E+02  0.45594000000E+02  0.51100000000E-03 0. -1.
         11   -1    0    0    0    0 -0.00000000000E+00 -0.00000000000E+00 -0.45593999997E+02  0.45594000000E+02  0.51100000000E-03 0.  1.
    9900012    2    1    2    0    0  0.40756700028E+02  0.80647109874E+01 -0.12548902900E+02  0.47787272765E+02  0.20000007847E+02 0.  0.
         12    1    1    2    0    0 -0.40756700028E+02 -0.80647109874E+01  0.12548902900E+02  0.43400727235E+02  0.00000000000E+00 0. -1.
         11    1    3    3    0    0  0.22396841439E+02  0.20054643974E+01 -0.16398547991E+01  0.22546164150E+02  0.51100000000E-03 0. -1.
        -11    1    3    3    0    0  0.54178493190E+01  0.26483715486E+01 -0.10186450513E+02  0.11837682942E+02  0.51100000000E-03 0.  1.
        -12    1    3    3    0    0  0.12942009271E+02  0.34108750413E+01 -0.72259758722E+00  0.13403425673E+02  0.00000000000E+00 0.  1.
</event>
<event>
 7    1  0.2476315E-009  0.4778728E+02  0.7816164E-02  0.1312668E+00
        -11   -1    0    0    0    0  0.00000000000E+00  0.00000000000E+00  0.45593999997E+02  0.45594000000E+02  0.51100000000E-03 0.  1.
         11   -1    0    0    0    0 -0.00000000000E+00 -0.00000000000E+00 -0.45593999997E+02  0.45594000000E+02  0.51100000000E-03 0. -1.
    9900012    2    1    2    0    0 -0.19046790811E+02  0.33331183204E+01  0.38855277224E+02  0.47787280120E+02  0.20000041378E+02 0.  0.
         12    1    1    2    0    0  0.19046790811E+02 -0.33331183204E+01 -0.38855277224E+02  0.43400719880E+02  0.00000000000E+00 0. -1.
         11    1    3    3    0    0 -0.86277486328E+01  0.13510039720E+01  0.43522772655E+01  0.97573344649E+01  0.51100000000E-03 0. -1.
        -11    1    3    3    0    0 -0.17596172255E+01  0.40858393167E+01  0.23270319028E+02  0.23691730279E+02  0.51100000000E-03 0.  1.
        -12    1    3    3    0    0 -0.86594249530E+01 -0.21037249682E+01  0.11232680931E+02  0.14338215376E+02  0.00000000000E+00 0.  1.
</event>
<event>
 7    1  0.2476315E-009  0.4778726E+02  0.7816164E-02  0.1312668E+00
        -11   -1    0    0    0    0  0.00000000000E+00  0.00000000000E+00  0.45593999997E+02  0.45594000000E+02  0.51100000000E-03 0. -1.
         11   -1    0    0    0    0 -0.00000000000E+00 -0.00000000000E+00 -0.45593999997E+02  0.45594000000E+02  0.51100000000E-03 0.  1.
    9900012    2    1    2    0    0 -0.21447797028E+02  0.36931332466E+02 -0.77260957097E+01  0.47787264177E+02  0.19999968687E+02 0.  0.
         12    1    1    2    0    0  0.21447797028E+02 -0.36931332466E+02  0.77260957097E+01  0.43400735823E+02  0.00000000000E+00 0. -1.
         11    1    3    3    0    0 -0.54014378100E+00  0.11304539963E+02 -0.72666179790E+01  0.13449465275E+02  0.51100000000E-03 0. -1.
        -11    1    3    3    0    0 -0.19262611761E+02  0.19269787800E+02 -0.27463097555E+01  0.27384578712E+02  0.51100000000E-03 0.  1.
        -12    1    3    3    0    0 -0.16450414866E+01  0.63570047033E+01  0.22868320248E+01  0.69532201892E+01  0.00000000000E+00 0.  1.
</event>
<event>
 7    1  0.2476315E-009  0.4778728E+02  0.7816164E-02  0.1312668E+00
        -11   -1    0    0    0    0  0.00000000000E+00  0.00000000000E+00  0.45593999997E+02  0.45594000000E+02  0.51100000000E-03 0.  1.
         11   -1    0    0    0    0 -0.00000000000E+00 -0.00000000000E+00 -0.45593999997E+02  0.45594000000E+02  0.51100000000E-03 0. -1.
    9900012    2    1    2    0    0 -0.42858787513E+02  0.67893108983E+01  0.80765410778E+00  0.47787277486E+02  0.20000029370E+02 0.  0.
         12    1    1    2    0    0  0.42858787513E+02 -0.67893108983E+01 -0.80765410778E+00  0.43400722514E+02  0.00000000000E+00 0. -1.
         11    1    3    3    0    0 -0.19044389894E+02 -0.24033437133E+01 -0.49754893371E+01  0.19829784211E+02  0.51100000000E-03 0. -1.
        -11    1    3    3    0    0 -0.19768375855E+02  0.11017558155E+02  0.32972268795E+01  0.22870220310E+02  0.51100000000E-03 0.  1.
         12    1    3    3    0    0 -0.40460217639E+01 -0.18249035434E+01  0.24859165654E+01  0.50872729656E+01  0.00000000000E+00 0. -1.
</event>
<event>
 7    1  0.2476315E-009  0.4778727E+02  0.7816164E-02  0.1312668E+00
        -11   -1    0    0    0    0  0.00000000000E+00  0.00000000000E+00  0.45593999997E+02  0.45594000000E+02  0.51100000000E-03 0. -1.
         11   -1    0    0    0    0 -0.00000000000E+00 -0.00000000000E+00 -0.45593999997E+02  0.45594000000E+02  0.51100000000E-03 0.  1.
    9900012    2    1    2    0    0  0.21155009416E+02 -0.35663204605E+02 -0.12815015886E+02  0.47787271685E+02  0.20000002922E+02 0.  0.
         12    1    1    2    0    0 -0.21155009416E+02  0.35663204605E+02  0.12815015886E+02  0.43400728315E+02  0.00000000000E+00 0. -1.
         11    1    3    3    0    0  0.15438850796E+01  0.12872243859E+01  0.28470961189E+00  0.20301693483E+01  0.51100000000E-03 0. -1.
        -11    1    3    3    0    0  0.10040319755E+02 -0.25263494980E+02 -0.14088021501E+02  0.30619022673E+02  0.51100000000E-03 0.  1.
        -12    1    3    3    0    0  0.95708045819E+01 -0.11686934011E+02  0.98829600336E+00  0.15138079664E+02  0.00000000000E+00 0.  1.
</event>
<event>
 7    1  0.2476315E-009  0.4778727E+02  0.7816164E-02  0.1312668E+00
        -11   -1    0    0    0    0  0.00000000000E+00  0.00000000000E+00  0.45593999997E+02  0.45594000000E+02  0.51100000000E-03 0. -1.
         11   -1    0    0    0    0 -0.00000000000E+00 -0.00000000000E+00 -0.45593999997E+02  0.45594000000E+02  0.51100000000E-03 0.  1.
    9900012    2    1    2    0    0  0.36569032052E+02  0.18623418461E+01 -0.23299379060E+02  0.47787268590E+02  0.19999988808E+02 0.  0.
         12    1    1    2    0    0 -0.36569032052E+02 -0.18623418461E+01  0.23299379060E+02  0.43400731410E+02  0.00000000000E+00 0. -1.
         11    1    3    3    0    0  0.10034413640E+02  0.15634451206E+01 -0.14070381302E+01  0.10252491126E+02  0.51100000000E-03 0. -1.
        -11    1    3    3    0    0  0.14200285057E+02 -0.69265409396E+01 -0.84729597471E+01  0.17928081666E+02  0.51100000000E-03 0.  1.
        -12    1    3    3    0    0  0.12334333356E+02  0.72254376652E+01 -0.13419381182E+02  0.19606695797E+02  0.00000000000E+00 0.  1.
</event>
<event>
 7    1  0.2476315E-009  0.4778728E+02  0.7816164E-02  0.1312668E+00
        -11   -1    0    0    0    0  0.00000000000E+00  0.00000000000E+00  0.45593999997E+02  0.45594000000E+02  0.51100000000E-03 0. -1.
         11   -1    0    0    0    0 -0.00000000000E+00 -0.00000000000E+00 -0.45593999997E+02  0.45594000000E+02  0.51100000000E-03 0.  1.
    9900012    2    1    2    0    0 -0.20527151208E+02 -0.37125535673E+02 -0.91626087226E+01  0.47787277260E+02  0.20000028340E+02 0.  0.
         12    1    1    2    0    0  0.20527151208E+02  0.37125535673E+02  0.91626087226E+01  0.43400722740E+02  0.00000000000E+00 0. -1.
         11    1    3    3    0    0 -0.43154166160E+01  0.10190442744E+01 -0.26740387526E+01  0.51780068863E+01  0.51100000000E-03 0. -1.
        -11    1    3    3    0    0 -0.80915182026E+01 -0.25406158282E+02 -0.67341614342E+01  0.27500808642E+02  0.51100000000E-03 0.  1.
        -12    1    3    3    0    0 -0.81202163894E+01 -0.12738421665E+02  0.24559146419E+00  0.15108461732E+02  0.00000000000E+00 0.  1.
</event>
<event>
 7    1  0.2476315E-009  0.4778727E+02  0.7816164E-02  0.1312668E+00
        -11   -1    0    0    0    0  0.00000000000E+00  0.00000000000E+00  0.45593999997E+02  0.45594000000E+02  0.51100000000E-03 0. -1.
         11   -1    0    0    0    0 -0.00000000000E+00 -0.00000000000E+00 -0.45593999997E+02  0.45594000000E+02  0.51100000000E-03 0.  1.
    9900012    2    1    2    0    0  0.39391129322E+02  0.17844883566E+02 -0.36773343840E+01  0.47787265825E+02  0.19999976204E+02 0.  0.
         12    1    1    2    0    0 -0.39391129322E+02 -0.17844883566E+02  0.36773343840E+01  0.43400734175E+02  0.00000000000E+00 0. -1.
         11    1    3    3    0    0  0.12745387038E+02  0.98872122126E+01  0.36608368943E+01  0.16540966813E+02  0.51100000000E-03 0. -1.
        -11    1    3    3    0    0  0.12817898433E+02  0.72331700709E+01 -0.90752372062E+01  0.17290957178E+02  0.51100000000E-03 0.  1.
        -12    1    3    3    0    0  0.13827843851E+02  0.72450128221E+00  0.17370659279E+01  0.13955341835E+02  0.00000000000E+00 0.  1.
</event>
<event>
 7    1  0.2476315E-009  0.4778728E+02  0.7816164E-02  0.1312668E+00
        -11   -1    0    0    0    0  0.00000000000E+00  0.00000000000E+00  0.45593999997E+02  0.45594000000E+02  0.51100000000E-03 0.  1.
         11   -1    0    0    0    0 -0.00000000000E+00 -0.00000000000E+00 -0.45593999997E+02  0.45594000000E+02  0.51100000000E-03 0. -1.
    9900012    2    1    2    0    0  0.35326961639E+02  0.91585493935E+01  0.23489343827E+02  0.47787279740E+02  0.20000039646E+02 0.  0.
         12    1    1    2    0    0 -0.35326961639E+02 -0.91585493935E+01 -0.23489343827E+02  0.43400720260E+02  0.00000000000E+00 0. -1.
         11    1    3    3    0    0  0.21840455490E+02  0.19881785915E+00  0.17290181791E+02  0.27856694190E+02  0.51100000000E-03 0.  1.
        -11    1    3    3    0    0  0.80153189702E+01  0.10328122790E+02  0.28809878221E+01  0.13387141206E+02  0.51100000000E-03 0. -1.
         12    1    3    3    0    0  0.54711871787E+01 -0.13683912559E+01  0.33181742146E+01  0.65434443447E+01  0.00000000000E+00 0. -1.
</event>
<event>
 7    1  0.2476315E-009  0.4778727E+02  0.7816164E-02  0.1312668E+00
        -11   -1    0    0    0    0  0.00000000000E+00  0.00000000000E+00  0.45593999997E+02  0.45594000000E+02  0.51100000000E-03 0. -1.
         11   -1    0    0    0    0 -0.00000000000E+00 -0.00000000000E+00 -0.45593999997E+02  0.45594000000E+02  0.51100000000E-03 0.  1.
    9900012    2    1    2    0    0  0.28769246253E+02 -0.14148980634E+02 -0.29253378143E+02  0.47787270562E+02  0.19999997802E+02 0.  0.
         12    1    1    2    0    0 -0.28769246253E+02  0.14148980634E+02  0.29253378143E+02  0.43400729438E+02  0.00000000000E+00 0. -1.
         11    1    3    3    0    0  0.14039683984E+02 -0.15620010932E+02 -0.11468457553E+02  0.23929542135E+02  0.51100000000E-03 0. -1.
        -11    1    3    3    0    0  0.91805444082E+01  0.24485546941E+01 -0.74015703304E+01  0.12044129663E+02  0.51100000000E-03 0.  1.
         12    1    3    3    0    0  0.55490178605E+01 -0.97752439677E+00 -0.10383350260E+02  0.11813598765E+02  0.00000000000E+00 0. -1.
</event>
<event>
 7    1  0.2476315E-009  0.4778727E+02  0.7816164E-02  0.1312668E+00
        -11   -1    0    0    0    0  0.00000000000E+00  0.00000000000E+00  0.45593999997E+02  0.45594000000E+02  0.51100000000E-03 0.  1.
         11   -1    0    0    0    0 -0.00000000000E+00 -0.00000000000E+00 -0.45593999997E+02  0.45594000000E+02  0.51100000000E-03 0. -1.
    9900012    2    1    2    0    0  0.24574930432E+02 -0.27708687294E+02  0.22625754900E+02  0.47787270258E+02  0.19999996415E+02 0.  0.
         12    1    1    2    0    0 -0.24574930432E+02  0.27708687294E+02 -0.22625754900E+02  0.43400729742E+02  0.00000000000E+00 0. -1.
         11    1    3    3    0    0  0.16403644341E+02 -0.11498252806E+02  0.13716454323E+02  0.24278189486E+02  0.51100000000E-03 0. -1.
        -11    1    3    3    0    0  0.47831476402E+01 -0.17477038042E+02  0.70595456976E+01  0.19446401873E+02  0.51100000000E-03 0.  1.
        -12    1    3    3    0    0  0.33881384501E+01  0.12666035544E+01  0.18497548800E+01  0.40626788991E+01  0.00000000000E+00 0.  1.
</event>
<event>
 7    1  0.2476315E-009  0.4778727E+02  0.7816164E-02  0.1312668E+00
        -11   -1    0    0    0    0  0.00000000000E+00  0.00000000000E+00  0.45593999997E+02  0.45594000000E+02  0.51100000000E-03 0.  1.
         11   -1    0    0    0    0 -0.00000000000E+00 -0.00000000000E+00 -0.45593999997E+02  0.45594000000E+02  0.51100000000E-03 0. -1.
    9900012    2    1    2    0    0 -0.30240596697E-01  0.11516766313E+00  0.43400565382E+02  0.47787271279E+02  0.20000001069E+02 0.  0.
         12    1    1    2    0    0  0.30240596697E-01 -0.11516766313E+00 -0.43400565382E+02  0.43400728721E+02  0.00000000000E+00 0. -1.
         11    1    3    3    0    0 -0.33894110853E+01  0.61145202384E+01  0.11680366386E+02  0.13612730234E+02  0.51100000000E-03 0. -1.
        -11    1    3    3    0    0  0.42487840109E+01 -0.58268470300E+01  0.32302317695E+02  0.33097492966E+02  0.51100000000E-03 0.  1.
        -12    1    3    3    0    0 -0.88961352227E+00 -0.17250554534E+00 -0.58211870032E+00  0.10770480785E+01  0.00000000000E+00 0.  1.
</event>
<event>
 7    1  0.2476315E-009  0.4778727E+02  0.7816164E-02  0.1312668E+00
        -11   -1    0    0    0    0  0.00000000000E+00  0.00000000000E+00  0.45593999997E+02  0.45594000000E+02  0.51100000000E-03 0.  1.
         11   -1    0    0    0    0 -0.00000000000E+00 -0.00000000000E+00 -0.45593999997E+02  0.45594000000E+02  0.51100000000E-03 0. -1.
    9900012    2    1    2    0    0  0.35729916133E+02  0.90991810468E+01  0.22895443323E+02  0.47787270427E+02  0.19999997183E+02 0.  0.
         12    1    1    2    0    0 -0.35729916133E+02 -0.90991810468E+01 -0.22895443323E+02  0.43400729573E+02  0.00000000000E+00 0. -1.
         11    1    3    3    0    0  0.14501452075E+02  0.69262028509E+01  0.18210282951E+02  0.24287420687E+02  0.51100000000E-03 0. -1.
        -11    1    3    3    0    0  0.20790314092E+02  0.14375820068E+01  0.62148645073E+01  0.21746915716E+02  0.51100000000E-03 0.  1.
         12    1    3    3    0    0  0.43814996635E+00  0.73539618907E+00 -0.15297041358E+01  0.17529340236E+01  0.00000000000E+00 0. -1.
</event>
<event>
 7    1  0.2476315E-009  0.4778727E+02  0.7816164E-02  0.1312668E+00
        -11   -1    0    0    0    0  0.00000000000E+00  0.00000000000E+00  0.45593999997E+02  0.45594000000E+02  0.51100000000E-03 0. -1.
         11   -1    0    0    0    0 -0.00000000000E+00 -0.00000000000E+00 -0.45593999997E+02  0.45594000000E+02  0.51100000000E-03 0.  1.
    9900012    2    1    2    0    0 -0.14358316943E+02 -0.56312698828E+01 -0.40567856357E+02  0.47787269185E+02  0.19999991520E+02 0.  0.
         12    1    1    2    0    0  0.14358316943E+02  0.56312698828E+01  0.40567856357E+02  0.43400730815E+02  0.00000000000E+00 0. -1.
         11    1    3    3    0    0 -0.47908041666E+01 -0.62209772210E+01 -0.14433203957E+02  0.16430755883E+02  0.51100000000E-03 0. -1.
        -11    1    3    3    0    0 -0.10224999035E+02  0.58953264864E+01 -0.15808932348E+02  0.19728857592E+02  0.51100000000E-03 0.  1.
        -12    1    3    3    0    0  0.65748625796E+00 -0.53056191482E+01 -0.10325720051E+02  0.11627655710E+02  0.00000000000E+00 0.  1.
</event>
<event>
 7    1  0.2476315E-009  0.4778727E+02  0.7816164E-02  0.1312668E+00
        -11   -1    0    0    0    0  0.00000000000E+00  0.00000000000E+00  0.45593999997E+02  0.45594000000E+02  0.51100000000E-03 0.  1.
         11   -1    0    0    0    0 -0.00000000000E+00 -0.00000000000E+00 -0.45593999997E+02  0.45594000000E+02  0.51100000000E-03 0. -1.
    9900012    2    1    2    0    0 -0.92535428111E+01  0.82075010107E+01  0.41600869519E+02  0.47787268760E+02  0.19999989584E+02 0.  0.
         12    1    1    2    0    0  0.92535428111E+01 -0.82075010107E+01 -0.41600869519E+02  0.43400731240E+02  0.00000000000E+00 0. -1.
         11    1    3    3    0    0 -0.97869280032E+00  0.93905664422E+01  0.32570780462E+02  0.33911595626E+02  0.51100000000E-03 0. -1.
        -11    1    3    3    0    0 -0.39726021126E+01  0.14461305559E+01  0.92084730236E+00  0.43267564231E+01  0.51100000000E-03 0.  1.
         12    1    3    3    0    0 -0.43022478982E+01 -0.26291959874E+01  0.81092417550E+01  0.95489167113E+01  0.00000000000E+00 0. -1.
</event>
<event>
 7    1  0.2476315E-009  0.4778729E+02  0.7816164E-02  0.1312668E+00
        -11   -1    0    0    0    0  0.00000000000E+00  0.00000000000E+00  0.45593999997E+02  0.45594000000E+02  0.51100000000E-03 0.  1.
         11   -1    0    0    0    0 -0.00000000000E+00 -0.00000000000E+00 -0.45593999997E+02  0.45594000000E+02  0.51100000000E-03 0. -1.
    9900012    2    1    2    0    0  0.93112547898E+00  0.53499563988E+01  0.43059641095E+02  0.47787288953E+02  0.20000081652E+02 0.  0.
         12    1    1    2    0    0 -0.93112547898E+00 -0.53499563988E+01 -0.43059641095E+02  0.43400711047E+02  0.00000000000E+00 0. -1.
         11    1    3    3    0    0 -0.19905052269E+01 -0.69307061722E+01  0.10404671997E+02  0.12659146840E+02  0.51100000000E-03 0. -1.
        -11    1    3    3    0    0  0.22285644075E+01  0.89175606039E+01  0.26894578209E+02  0.28421958478E+02  0.51100000000E-03 0.  1.
         12    1    3    3    0    0  0.69306629838E+00  0.33631019672E+01  0.57603908895E+01  0.67061836342E+01  0.00000000000E+00 0. -1.
</event>
<event>
 7    1  0.2476315E-009  0.4778727E+02  0.7816164E-02  0.1312668E+00
        -11   -1    0    0    0    0  0.00000000000E+00  0.00000000000E+00  0.45593999997E+02  0.45594000000E+02  0.51100000000E-03 0.  1.
         11   -1    0    0    0    0 -0.00000000000E+00 -0.00000000000E+00 -0.45593999997E+02  0.45594000000E+02  0.51100000000E-03 0. -1.
    9900012    2    1    2    0    0 -0.35516680344E+02 -0.20352995474E+02  0.14420280148E+02  0.47787268590E+02  0.19999988809E+02 0.  0.
         12    1    1    2    0    0  0.35516680344E+02  0.20352995474E+02 -0.14420280148E+02  0.43400731410E+02  0.00000000000E+00 0. -1.
         11    1    3    3    0    0 -0.24984380117E+02 -0.18510835539E+02  0.10822781507E+02  0.32924199033E+02  0.51100000000E-03 0. -1.
        -11    1    3    3    0    0 -0.52987359154E+01  0.26319259722E+00  0.66037595818E+01  0.84708626195E+01  0.51100000000E-03 0.  1.
         12    1    3    3    0    0 -0.52335643114E+01 -0.21053525318E+01 -0.30062609408E+01  0.63922069373E+01  0.00000000000E+00 0. -1.
</event>
<event>
 7    1  0.2476315E-009  0.4778727E+02  0.7816164E-02  0.1312668E+00
        -11   -1    0    0    0    0  0.00000000000E+00  0.00000000000E+00  0.45593999997E+02  0.45594000000E+02  0.51100000000E-03 0.  1.
         11   -1    0    0    0    0 -0.00000000000E+00 -0.00000000000E+00 -0.45593999997E+02  0.45594000000E+02  0.51100000000E-03 0. -1.
    9900012    2    1    2    0    0  0.15541437805E+01  0.17016804728E+02  0.39895321221E+02  0.47787266580E+02  0.19999979645E+02 0.  0.
         12    1    1    2    0    0 -0.15541437805E+01 -0.17016804728E+02 -0.39895321221E+02  0.43400733420E+02  0.00000000000E+00 0. -1.
         11    1    3    3    0    0  0.23711989402E+00  0.26794248285E+01 -0.17210495099E+01  0.31933610714E+01  0.51100000000E-03 0. -1.
        -11    1    3    3    0    0  0.35214128253E+01  0.78544018071E+01  0.17172246849E+02  0.19208801060E+02  0.51100000000E-03 0.  1.
         12    1    3    3    0    0 -0.22043889388E+01  0.64829780920E+01  0.24444123882E+02  0.25385104449E+02  0.00000000000E+00 0. -1.
</event>
<event>
 7    1  0.2476315E-009  0.4778727E+02  0.7816164E-02  0.1312668E+00
        -11   -1    0    0    0    0  0.00000000000E+00  0.00000000000E+00  0.45593999997E+02  0.45594000000E+02  0.51100000000E-03 0.  1.
         11   -1    0    0    0    0 -0.00000000000E+00 -0.00000000000E+00 -0.45593999997E+02  0.45594000000E+02  0.51100000000E-03 0. -1.
    9900012    2    1    2    0    0 -0.24838772526E+02  0.35076343259E+02 -0.60256956025E+01  0.47787268618E+02  0.19999988936E+02 0.  0.
         12    1    1    2    0    0  0.24838772526E+02 -0.35076343259E+02  0.60256956025E+01  0.43400731382E+02  0.00000000000E+00 0. -1.
         11    1    3    3    0    0 -0.15369929554E+02  0.64613567444E+01 -0.25321979795E+01  0.16864041400E+02  0.51100000000E-03 0. -1.
        -11    1    3    3    0    0 -0.26933786819E+00  0.93254935228E+01 -0.48932690768E+00  0.93422060251E+01  0.51100000000E-03 0.  1.
         12    1    3    3    0    0 -0.91995051033E+01  0.19289492992E+02 -0.30041707153E+01  0.21581021192E+02  0.00000000000E+00 0. -1.
</event>
<event>
 7    1  0.2476315E-009  0.4778727E+02  0.7816164E-02  0.1312668E+00
        -11   -1    0    0    0    0  0.00000000000E+00  0.00000000000E+00  0.45593999997E+02  0.45594000000E+02  0.51100000000E-03 0. -1.
         11   -1    0    0    0    0 -0.00000000000E+00 -0.00000000000E+00 -0.45593999997E+02  0.45594000000E+02  0.51100000000E-03 0.  1.
    9900012    2    1    2    0    0  0.67701590278E+01 -0.30151902845E+02 -0.30473776843E+02  0.47787269897E+02  0.19999994768E+02 0.  0.
         12    1    1    2    0    0 -0.67701590278E+01  0.30151902845E+02  0.30473776843E+02  0.43400730103E+02  0.00000000000E+00 0. -1.
         11    1    3    3    0    0 -0.12055752182E+01 -0.15430684704E+02 -0.19645447642E+02  0.25010059083E+02  0.51100000000E-03 0. -1.
        -11    1    3    3    0    0  0.28304591841E+01 -0.14091968512E+02 -0.10042998189E+02  0.17534448626E+02  0.51100000000E-03 0.  1.
         12    1    3    3    0    0  0.51452750618E+01 -0.62924962921E+00 -0.78533101128E+00  0.52427621875E+01  0.00000000000E+00 0. -1.
</event>
<event>
 7    1  0.2476315E-009  0.4778727E+02  0.7816164E-02  0.1312668E+00
        -11   -1    0    0    0    0  0.00000000000E+00  0.00000000000E+00  0.45593999997E+02  0.45594000000E+02  0.51100000000E-03 0.  1.
         11   -1    0    0    0    0 -0.00000000000E+00 -0.00000000000E+00 -0.45593999997E+02  0.45594000000E+02  0.51100000000E-03 0. -1.
    9900012    2    1    2    0    0  0.27003532862E+02  0.17136800039E+02  0.29338753587E+02  0.47787272303E+02  0.20000005737E+02 0.  0.
         12    1    1    2    0    0 -0.27003532862E+02 -0.17136800039E+02 -0.29338753587E+02  0.43400727697E+02  0.00000000000E+00 0. -1.
         11    1    3    3    0    0  0.36721417388E+01  0.61413325375E+01  0.16779667994E+01  0.73495689076E+01  0.51100000000E-03 0. -1.
        -11    1    3    3    0    0  0.24808011322E+02  0.11660750832E+02  0.27469273439E+02  0.38806848870E+02  0.51100000000E-03 0.  1.
        -12    1    3    3    0    0 -0.14766201985E+01 -0.66528332993E+00  0.19151334901E+00  0.16308545253E+01  0.00000000000E+00 0.  1.
</event>
<event>
 7    1  0.2476315E-009  0.4778727E+02  0.7816164E-02  0.1312668E+00
        -11   -1    0    0    0    0  0.00000000000E+00  0.00000000000E+00  0.45593999997E+02  0.45594000000E+02  0.51100000000E-03 0. -1.
         11   -1    0    0    0    0 -0.00000000000E+00 -0.00000000000E+00 -0.45593999997E+02  0.45594000000E+02  0.51100000000E-03 0.  1.
    9900012    2    1    2    0    0  0.15312536767E+01 -0.39492052326E+02  0.17934782799E+02  0.47787269951E+02  0.19999995016E+02 0.  0.
         12    1    1    2    0    0 -0.15312536767E+01  0.39492052326E+02 -0.17934782799E+02  0.43400730049E+02  0.00000000000E+00 0. -1.
         11    1    3    3    0    0 -0.17368982720E+01 -0.77866528729E+01  0.53494680542E+01  0.96054977640E+01  0.51100000000E-03 0. -1.
        -11    1    3    3    0    0 -0.12476914807E+01 -0.27409787719E+02  0.42367500772E+01  0.27763343608E+02  0.51100000000E-03 0.  1.
        -12    1    3    3    0    0  0.45158434295E+01 -0.42956117341E+01  0.83485646678E+01  0.10418428579E+02  0.00000000000E+00 0.  1.
</event>
<event>
 7    1  0.2476315E-009  0.4778727E+02  0.7816164E-02  0.1312668E+00
        -11   -1    0    0    0    0  0.00000000000E+00  0.00000000000E+00  0.45593999997E+02  0.45594000000E+02  0.51100000000E-03 0. -1.
         11   -1    0    0    0    0 -0.00000000000E+00 -0.00000000000E+00 -0.45593999997E+02  0.45594000000E+02  0.51100000000E-03 0.  1.
    9900012    2    1    2    0    0  0.66902992627E+01 -0.17982596907E+02 -0.38929286718E+02  0.47787271203E+02  0.20000000722E+02 0.  0.
         12    1    1    2    0    0 -0.66902992627E+01  0.17982596907E+02  0.38929286718E+02  0.43400728797E+02  0.00000000000E+00 0. -1.
         11    1    3    3    0    0  0.56854235168E+01 -0.43437105380E+01 -0.18558394255E+01  0.73916170111E+01  0.51100000000E-03 0. -1.
        -11    1    3    3    0    0  0.16314860645E+01 -0.27914001071E+01 -0.19263074973E+02  0.19532529765E+02  0.51100000000E-03 0.  1.
        -12    1    3    3    0    0 -0.62661031860E+00 -0.10847486261E+02 -0.17810372320E+02  0.20863124427E+02  0.00000000000E+00 0.  1.
</event>
<event>
 7    1  0.2476315E-009  0.4778727E+02  0.7816164E-02  0.1312668E+00
        -11   -1    0    0    0    0  0.00000000000E+00  0.00000000000E+00  0.45593999997E+02  0.45594000000E+02  0.51100000000E-03 0. -1.
         11   -1    0    0    0    0 -0.00000000000E+00 -0.00000000000E+00 -0.45593999997E+02  0.45594000000E+02  0.51100000000E-03 0.  1.
    9900012    2    1    2    0    0  0.24859634355E+02  0.33843451263E+02 -0.10965536615E+02  0.47787267207E+02  0.19999982505E+02 0.  0.
         12    1    1    2    0    0 -0.24859634355E+02 -0.33843451263E+02  0.10965536615E+02  0.43400732793E+02  0.00000000000E+00 0. -1.
         11    1    3    3    0    0  0.62909168567E+01 -0.65465936839E+00 -0.35181646459E+01  0.72375200534E+01  0.51100000000E-03 0. -1.
        -11    1    3    3    0    0  0.15561537352E+02  0.32380290131E+02 -0.53674143022E+01  0.36324286232E+02  0.51100000000E-03 0.  1.
        -12    1    3    3    0    0  0.30071801461E+01  0.21178205010E+01 -0.20799576669E+01  0.42254609218E+01  0.00000000000E+00 0.  1.
</event>
<event>
 7    1  0.2476315E-009  0.4778727E+02  0.7816164E-02  0.1312668E+00
        -11   -1    0    0    0    0  0.00000000000E+00  0.00000000000E+00  0.45593999997E+02  0.45594000000E+02  0.51100000000E-03 0. -1.
         11   -1    0    0    0    0 -0.00000000000E+00 -0.00000000000E+00 -0.45593999997E+02  0.45594000000E+02  0.51100000000E-03 0.  1.
    9900012    2    1    2    0    0 -0.34693020030E+02  0.25446890365E+02 -0.56985246321E+01  0.47787273612E+02  0.20000011705E+02 0.  0.
         12    1    1    2    0    0  0.34693020030E+02 -0.25446890365E+02  0.56985246321E+01  0.43400726388E+02  0.00000000000E+00 0. -1.
         11    1    3    3    0    0 -0.12490779459E+02 -0.98664187403E-01 -0.14935337944E+01  0.12580141079E+02  0.51100000000E-03 0. -1.
        -11    1    3    3    0    0 -0.20443503847E+02  0.25697161537E+02 -0.50951573951E+01  0.33230130751E+02  0.51100000000E-03 0.  1.
        -12    1    3    3    0    0 -0.17587367237E+01 -0.15160698468E+00  0.89016655740E+00  0.19770017808E+01  0.00000000000E+00 0.  1.
</event>
<event>
 7    1  0.2476315E-009  0.4778728E+02  0.7816164E-02  0.1312668E+00
        -11   -1    0    0    0    0  0.00000000000E+00  0.00000000000E+00  0.45593999997E+02  0.45594000000E+02  0.51100000000E-03 0.  1.
         11   -1    0    0    0    0 -0.00000000000E+00 -0.00000000000E+00 -0.45593999997E+02  0.45594000000E+02  0.51100000000E-03 0. -1.
    9900012    2    1    2    0    0  0.42685756395E+02  0.77460868071E+01  0.12436858827E+01  0.47787280946E+02  0.20000045144E+02 0.  0.
         12    1    1    2    0    0 -0.42685756395E+02 -0.77460868071E+01 -0.12436858827E+01  0.43400719054E+02  0.00000000000E+00 0. -1.
         11    1    3    3    0    0  0.40415024697E+02  0.79437698176E+01  0.36093344140E+01  0.41346160588E+02  0.51100000000E-03 0.  1.
        -11    1    3    3    0    0  0.25003614130E+01 -0.23602921215E+01 -0.25167948638E+01  0.42611081589E+01  0.51100000000E-03 0. -1.
        -12    1    3    3    0    0 -0.22962971520E+00  0.21626091111E+01  0.15114633255E+00  0.21800121989E+01  0.00000000000E+00 0.  1.
</event>
<event>
 7    1  0.2476315E-009  0.4778727E+02  0.7816164E-02  0.1312668E+00
        -11   -1    0    0    0    0  0.00000000000E+00  0.00000000000E+00  0.45593999997E+02  0.45594000000E+02  0.51100000000E-03 0. -1.
         11   -1    0    0    0    0 -0.00000000000E+00 -0.00000000000E+00 -0.45593999997E+02  0.45594000000E+02  0.51100000000E-03 0.  1.
    9900012    2    1    2    0    0  0.54147321779E+01 -0.35510587296E+01 -0.42914962608E+02  0.47787270072E+02  0.19999995566E+02 0.  0.
         12    1    1    2    0    0 -0.54147321779E+01  0.35510587296E+01  0.42914962608E+02  0.43400729928E+02  0.00000000000E+00 0. -1.
         11    1    3    3    0    0  0.35175885790E+01 -0.82289980094E+01 -0.76781840893E+01  0.11791706781E+02  0.51100000000E-03 0. -1.
        -11    1    3    3    0    0 -0.57286142684E+00  0.49214248137E+00 -0.19741406182E+02  0.19755847052E+02  0.51100000000E-03 0.  1.
         12    1    3    3    0    0  0.24700050258E+01  0.41857967985E+01 -0.15495372337E+02  0.16239716239E+02  0.00000000000E+00 0. -1.
</event>
<event>
 7    1  0.2476315E-009  0.4778727E+02  0.7816164E-02  0.1312668E+00
        -11   -1    0    0    0    0  0.00000000000E+00  0.00000000000E+00  0.45593999997E+02  0.45594000000E+02  0.51100000000E-03 0.  1.
         11   -1    0    0    0    0 -0.00000000000E+00 -0.00000000000E+00 -0.45593999997E+02  0.45594000000E+02  0.51100000000E-03 0. -1.
    9900012    2    1    2    0    0 -0.22573781474E+02  0.28239608308E+02  0.24011913019E+02  0.47787273575E+02  0.20000011538E+02 0.  0.
         12    1    1    2    0    0  0.22573781474E+02 -0.28239608308E+02 -0.24011913019E+02  0.43400726425E+02  0.00000000000E+00 0. -1.
         11    1    3    3    0    0 -0.74573829381E+01  0.19707675269E+02  0.79138576464E+01  0.22508535446E+02  0.51100000000E-03 0. -1.
        -11    1    3    3    0    0 -0.13540544154E+01  0.28231283001E+01  0.73786030338E+01  0.80154413322E+01  0.51100000000E-03 0.  1.
         12    1    3    3    0    0 -0.13762344120E+02  0.57088047386E+01  0.87194523387E+01  0.17263296797E+02  0.00000000000E+00 0. -1.
</event>
<event>
 7    1  0.2476315E-009  0.4778727E+02  0.7816164E-02  0.1312668E+00
        -11   -1    0    0    0    0  0.00000000000E+00  0.00000000000E+00  0.45593999997E+02  0.45594000000E+02  0.51100000000E-03 0.  1.
         11   -1    0    0    0    0 -0.00000000000E+00 -0.00000000000E+00 -0.45593999997E+02  0.45594000000E+02  0.51100000000E-03 0. -1.
    9900012    2    1    2    0    0 -0.21589481493E+02 -0.32329601838E+02  0.19295454271E+02  0.47787269342E+02  0.19999992237E+02 0.  0.
         12    1    1    2    0    0  0.21589481493E+02  0.32329601838E+02 -0.19295454271E+02  0.43400730658E+02  0.00000000000E+00 0. -1.
         11    1    3    3    0    0 -0.76007832993E+01 -0.82188929630E+00  0.29831492513E+01  0.82064967248E+01  0.51100000000E-03 0. -1.
        -11    1    3    3    0    0 -0.33977775266E+01 -0.18208955810E+02  0.50892227047E+01  0.19209662980E+02  0.51100000000E-03 0.  1.
        -12    1    3    3    0    0 -0.10590920667E+02 -0.13298756732E+02  0.11223082315E+02  0.20371109637E+02  0.00000000000E+00 0.  1.
</event>
<event>
 7    1  0.2476315E-009  0.4778727E+02  0.7816164E-02  0.1312668E+00
        -11   -1    0    0    0    0  0.00000000000E+00  0.00000000000E+00  0.45593999997E+02  0.45594000000E+02  0.51100000000E-03 0.  1.
         11   -1    0    0    0    0 -0.00000000000E+00 -0.00000000000E+00 -0.45593999997E+02  0.45594000000E+02  0.51100000000E-03 0. -1.
    9900012    2    1    2    0    0 -0.18924833039E+02  0.61739205597E+01  0.38566260819E+02  0.47787273345E+02  0.20000010489E+02 0.  0.
         12    1    1    2    0    0  0.18924833039E+02 -0.61739205597E+01 -0.38566260819E+02  0.43400726655E+02  0.00000000000E+00 0. -1.
         11    1    3    3    0    0  0.11008448395E+01 -0.19442535085E+01  0.57982292844E+01  0.62138107600E+01  0.51100000000E-03 0. -1.
        -11    1    3    3    0    0 -0.11145149327E+02  0.78722758480E+01  0.28748801555E+02  0.31822644008E+02  0.51100000000E-03 0.  1.
        -12    1    3    3    0    0 -0.88805285521E+01  0.24589822011E+00  0.40192299794E+01  0.97508185772E+01  0.00000000000E+00 0.  1.
</event>
<event>
 7    1  0.2476315E-009  0.4778727E+02  0.7816164E-02  0.1312668E+00
        -11   -1    0    0    0    0  0.00000000000E+00  0.00000000000E+00  0.45593999997E+02  0.45594000000E+02  0.51100000000E-03 0. -1.
         11   -1    0    0    0    0 -0.00000000000E+00 -0.00000000000E+00 -0.45593999997E+02  0.45594000000E+02  0.51100000000E-03 0.  1.
    9900012    2    1    2    0    0  0.29307691446E+02  0.14127700402E+02 -0.28724388067E+02  0.47787272283E+02  0.20000005647E+02 0.  0.
         12    1    1    2    0    0 -0.29307691446E+02 -0.14127700402E+02  0.28724388067E+02  0.43400727717E+02  0.00000000000E+00 0. -1.
         11    1    3    3    0    0  0.31456167531E+02  0.13729381068E+02 -0.25639175213E+02  0.42841028070E+02  0.51100000000E-03 0. -1.
        -11    1    3    3    0    0 -0.19470931261E+01  0.16654831809E+01 -0.22921063131E+01  0.34378419800E+01  0.51100000000E-03 0.  1.
         12    1    3    3    0    0 -0.20138295841E+00 -0.12671638471E+01 -0.79310654097E+00  0.15084022331E+01  0.00000000000E+00 0. -1.
</event>
<event>
 7    1  0.2476315E-009  0.4778727E+02  0.7816164E-02  0.1312668E+00
        -11   -1    0    0    0    0  0.00000000000E+00  0.00000000000E+00  0.45593999997E+02  0.45594000000E+02  0.51100000000E-03 0.  1.
         11   -1    0    0    0    0 -0.00000000000E+00 -0.00000000000E+00 -0.45593999997E+02  0.45594000000E+02  0.51100000000E-03 0. -1.
    9900012    2    1    2    0    0  0.10325554481E+01  0.41344168581E+02 -0.13161193620E+02  0.47787268855E+02  0.19999990019E+02 0.  0.
         12    1    1    2    0    0 -0.10325554481E+01 -0.41344168581E+02  0.13161193620E+02  0.43400731145E+02  0.00000000000E+00 0. -1.
         11    1    3    3    0    0  0.51362453420E+01  0.18382648727E+02 -0.14958293796E+02  0.24249811215E+02  0.51100000000E-03 0. -1.
        -11    1    3    3    0    0 -0.32345328327E+01  0.21344259007E+02  0.12608952338E+01  0.21624741669E+02  0.51100000000E-03 0.  1.
        -12    1    3    3    0    0 -0.86915706122E+00  0.16172608471E+01  0.53620494255E+00  0.19127159708E+01  0.00000000000E+00 0.  1.
</event>
<event>
 7    1  0.2476315E-009  0.4778727E+02  0.7816164E-02  0.1312668E+00
        -11   -1    0    0    0    0  0.00000000000E+00  0.00000000000E+00  0.45593999997E+02  0.45594000000E+02  0.51100000000E-03 0.  1.
         11   -1    0    0    0    0 -0.00000000000E+00 -0.00000000000E+00 -0.45593999997E+02  0.45594000000E+02  0.51100000000E-03 0. -1.
    9900012    2    1    2    0    0 -0.71721221373E-01 -0.33188169904E+02  0.27967182893E+02  0.47787273227E+02  0.20000009950E+02 0.  0.
         12    1    1    2    0    0  0.71721221373E-01  0.33188169904E+02 -0.27967182893E+02  0.43400726773E+02  0.00000000000E+00 0. -1.
         11    1    3    3    0    0 -0.14920272404E+01 -0.12222685196E+02  0.35576394775E+01  0.12817058072E+02  0.51100000000E-03 0. -1.
        -11    1    3    3    0    0 -0.35165280239E+01 -0.15950383681E+02  0.22264622876E+02  0.27613296453E+02  0.51100000000E-03 0.  1.
        -12    1    3    3    0    0  0.49368340429E+01 -0.50151010262E+01  0.21449205388E+01  0.73569187020E+01  0.00000000000E+00 0.  1.
</event>
<event>
 7    1  0.2476315E-009  0.4778727E+02  0.7816164E-02  0.1312668E+00
        -11   -1    0    0    0    0  0.00000000000E+00  0.00000000000E+00  0.45593999997E+02  0.45594000000E+02  0.51100000000E-03 0.  1.
         11   -1    0    0    0    0 -0.00000000000E+00 -0.00000000000E+00 -0.45593999997E+02  0.45594000000E+02  0.51100000000E-03 0. -1.
    9900012    2    1    2    0    0  0.73960926900E+01  0.32681245331E+02  0.27583638578E+02  0.47787273040E+02  0.20000009098E+02 0.  0.
         12    1    1    2    0    0 -0.73960926900E+01 -0.32681245331E+02 -0.27583638578E+02  0.43400726960E+02  0.00000000000E+00 0. -1.
         11    1    3    3    0    0  0.48258016379E+01  0.26024014190E+02  0.25603161339E+02  0.36824713805E+02  0.51100000000E-03 0. -1.
        -11    1    3    3    0    0  0.30694047579E+01  0.29437122161E+01  0.46956647112E+01  0.63352943515E+01  0.51100000000E-03 0.  1.
         12    1    3    3    0    0 -0.49911370583E+00  0.37135189245E+01 -0.27151874717E+01  0.46272648833E+01  0.00000000000E+00 0. -1.
</event>
<event>
 7    1  0.2476315E-009  0.4778727E+02  0.7816164E-02  0.1312668E+00
        -11   -1    0    0    0    0  0.00000000000E+00  0.00000000000E+00  0.45593999997E+02  0.45594000000E+02  0.51100000000E-03 0. -1.
         11   -1    0    0    0    0 -0.00000000000E+00 -0.00000000000E+00 -0.45593999997E+02  0.45594000000E+02  0.51100000000E-03 0.  1.
    9900012    2    1    2    0    0  0.93143689070E+01  0.42272185910E+02 -0.31508797713E+01  0.47787271745E+02  0.20000003193E+02 0.  0.
         12    1    1    2    0    0 -0.93143689070E+01 -0.42272185910E+02  0.31508797713E+01  0.43400728255E+02  0.00000000000E+00 0. -1.
         11    1    3    3    0    0 -0.54267706519E+01  0.58616846074E+01 -0.10726739284E+01  0.80597652424E+01  0.51100000000E-03 0. -1.
        -11    1    3    3    0    0  0.13542941718E+02  0.27204451369E+02 -0.16655061042E+01  0.30434640716E+02  0.51100000000E-03 0.  1.
        -12    1    3    3    0    0  0.11981978406E+01  0.92060499335E+01 -0.41269973878E+00  0.92928657861E+01  0.00000000000E+00 0.  1.
</event>
<event>
 7    1  0.2476315E-009  0.4778730E+02  0.7816164E-02  0.1312668E+00
        -11   -1    0    0    0    0  0.00000000000E+00  0.00000000000E+00  0.45593999997E+02  0.45594000000E+02  0.51100000000E-03 0. -1.
         11   -1    0    0    0    0 -0.00000000000E+00 -0.00000000000E+00 -0.45593999997E+02  0.45594000000E+02  0.51100000000E-03 0.  1.
    9900012    2    1    2    0    0 -0.35394140797E+02 -0.64189042575E+01 -0.24283182318E+02  0.47787303253E+02  0.20000146852E+02 0.  0.
         12    1    1    2    0    0  0.35394140797E+02  0.64189042575E+01  0.24283182318E+02  0.43400696747E+02  0.00000000000E+00 0. -1.
         11    1    3    3    0    0  0.14372522024E+01 -0.22534825236E+01 -0.52786339514E+01  0.59167435326E+01  0.51100000000E-03 0. -1.
        -11    1    3    3    0    0 -0.23363070379E+02 -0.33957540806E+01 -0.99284330279E+01  0.25611286301E+02  0.51100000000E-03 0.  1.
         12    1    3    3    0    0 -0.13468322620E+02 -0.76966765336E+00 -0.90761153388E+01  0.16259273420E+02  0.00000000000E+00 0. -1.
</event>
<event>
 7    1  0.2476315E-009  0.4778727E+02  0.7816164E-02  0.1312668E+00
        -11   -1    0    0    0    0  0.00000000000E+00  0.00000000000E+00  0.45593999997E+02  0.45594000000E+02  0.51100000000E-03 0.  1.
         11   -1    0    0    0    0 -0.00000000000E+00 -0.00000000000E+00 -0.45593999997E+02  0.45594000000E+02  0.51100000000E-03 0. -1.
    9900012    2    1    2    0    0 -0.14619361465E+02 -0.51536557689E+01  0.40538100457E+02  0.47787268599E+02  0.19999988852E+02 0.  0.
         12    1    1    2    0    0  0.14619361465E+02  0.51536557689E+01 -0.40538100457E+02  0.43400731401E+02  0.00000000000E+00 0. -1.
         11    1    3    3    0    0 -0.52988458604E+01 -0.69689930227E+01  0.53463331880E+01  0.10258065608E+02  0.51100000000E-03 0. -1.
        -11    1    3    3    0    0 -0.77865706546E+01 -0.24833969228E+00  0.33630383126E+02  0.34520936033E+02  0.51100000000E-03 0.  1.
        -12    1    3    3    0    0 -0.15339449498E+01  0.20636769461E+01  0.15613841438E+01  0.30082669582E+01  0.00000000000E+00 0.  1.
</event>
<event>
 7    1  0.2476315E-009  0.4778727E+02  0.7816164E-02  0.1312668E+00
        -11   -1    0    0    0    0  0.00000000000E+00  0.00000000000E+00  0.45593999997E+02  0.45594000000E+02  0.51100000000E-03 0.  1.
         11   -1    0    0    0    0 -0.00000000000E+00 -0.00000000000E+00 -0.45593999997E+02  0.45594000000E+02  0.51100000000E-03 0. -1.
    9900012    2    1    2    0    0  0.36458147158E+02  0.96875066235E+01  0.21461101834E+02  0.47787272234E+02  0.20000005422E+02 0.  0.
         12    1    1    2    0    0 -0.36458147158E+02 -0.96875066235E+01 -0.21461101834E+02  0.43400727766E+02  0.00000000000E+00 0. -1.
         11    1    3    3    0    0  0.18620308335E+02  0.31490521068E+01  0.17509337111E+02  0.25752850289E+02  0.51100000000E-03 0. -1.
        -11    1    3    3    0    0  0.29003733439E+01  0.29752810477E+01 -0.30526250791E+01  0.51558687902E+01  0.51100000000E-03 0.  1.
        -12    1    3    3    0    0  0.14937465478E+02  0.35631734691E+01  0.70043898014E+01  0.16878553154E+02  0.00000000000E+00 0.  1.
</event>
<event>
 7    1  0.2476315E-009  0.4778727E+02  0.7816164E-02  0.1312668E+00
        -11   -1    0    0    0    0  0.00000000000E+00  0.00000000000E+00  0.45593999997E+02  0.45594000000E+02  0.51100000000E-03 0.  1.
         11   -1    0    0    0    0 -0.00000000000E+00 -0.00000000000E+00 -0.45593999997E+02  0.45594000000E+02  0.51100000000E-03 0. -1.
    9900012    2    1    2    0    0  0.75266604180E+01 -0.76928437641E+01  0.42045128703E+02  0.47787270630E+02  0.19999998111E+02 0.  0.
         12    1    1    2    0    0 -0.75266604180E+01  0.76928437641E+01 -0.42045128703E+02  0.43400729370E+02  0.00000000000E+00 0. -1.
         11    1    3    3    0    0  0.67243281257E+01 -0.52959440379E+01  0.25427865198E+02  0.26829833037E+02  0.51100000000E-03 0. -1.
        -11    1    3    3    0    0  0.36921773083E+01  0.29177033322E+00  0.16602135838E+02  0.17010238618E+02  0.51100000000E-03 0.  1.
         12    1    3    3    0    0 -0.28898450160E+01 -0.26886700594E+01  0.15127666860E-01  0.39471989753E+01  0.00000000000E+00 0. -1.
</event>
<event>
 7    1  0.2476315E-009  0.4778726E+02  0.7816164E-02  0.1312668E+00
        -11   -1    0    0    0    0  0.00000000000E+00  0.00000000000E+00  0.45593999997E+02  0.45594000000E+02  0.51100000000E-03 0.  1.
         11   -1    0    0    0    0 -0.00000000000E+00 -0.00000000000E+00 -0.45593999997E+02  0.45594000000E+02  0.51100000000E-03 0. -1.
    9900012    2    1    2    0    0 -0.30359626208E+01 -0.27287981242E+02  0.33612096967E+02  0.47787262082E+02  0.19999959138E+02 0.  0.
         12    1    1    2    0    0  0.30359626208E+01  0.27287981242E+02 -0.33612096967E+02  0.43400737918E+02  0.00000000000E+00 0. -1.
         11    1    3    3    0    0 -0.54570457621E+00  0.45676315788E+00  0.10683150247E+01  0.12836367555E+01  0.51100000000E-03 0. -1.
        -11    1    3    3    0    0 -0.76091540146E+01 -0.26993025410E+02  0.27467882433E+02  0.39255664702E+02  0.51100000000E-03 0.  1.
        -12    1    3    3    0    0  0.51188959700E+01 -0.75171898983E+00  0.50758995089E+01  0.72479606246E+01  0.00000000000E+00 0.  1.
</event>
<event>
 7    1  0.2476315E-009  0.4778727E+02  0.7816164E-02  0.1312668E+00
        -11   -1    0    0    0    0  0.00000000000E+00  0.00000000000E+00  0.45593999997E+02  0.45594000000E+02  0.51100000000E-03 0.  1.
         11   -1    0    0    0    0 -0.00000000000E+00 -0.00000000000E+00 -0.45593999997E+02  0.45594000000E+02  0.51100000000E-03 0. -1.
    9900012    2    1    2    0    0  0.33781013403E+02 -0.12977833366E+01  0.27217313259E+02  0.47787271330E+02  0.20000001301E+02 0.  0.
         12    1    1    2    0    0 -0.33781013403E+02  0.12977833366E+01 -0.27217313259E+02  0.43400728670E+02  0.00000000000E+00 0. -1.
         11    1    3    3    0    0  0.10089723007E+02  0.86625904624E+01  0.11512846981E+02  0.17589446545E+02  0.51100000000E-03 0. -1.
        -11    1    3    3    0    0  0.14491139065E+02 -0.53483408097E+01  0.84531793349E+01  0.17608353187E+02  0.51100000000E-03 0.  1.
         12    1    3    3    0    0  0.92001513303E+01 -0.46120329893E+01  0.72512869423E+01  0.12589471598E+02  0.00000000000E+00 0. -1.
</event>
<event>
 7    1  0.2476315E-009  0.4778727E+02  0.7816164E-02  0.1312668E+00
        -11   -1    0    0    0    0  0.00000000000E+00  0.00000000000E+00  0.45593999997E+02  0.45594000000E+02  0.51100000000E-03 0. -1.
         11   -1    0    0    0    0 -0.00000000000E+00 -0.00000000000E+00 -0.45593999997E+02  0.45594000000E+02  0.51100000000E-03 0.  1.
    9900012    2    1    2    0    0  0.63392339183E+01  0.42902601906E+02 -0.16746140821E+01  0.47787268793E+02  0.19999989735E+02 0.  0.
         12    1    1    2    0    0 -0.63392339183E+01 -0.42902601906E+02  0.16746140821E+01  0.43400731207E+02  0.00000000000E+00 0. -1.
         11    1    3    3    0    0 -0.39811778678E+01  0.18182181754E+02  0.26832516366E+01  0.18805354295E+02  0.51100000000E-03 0. -1.
        -11    1    3    3    0    0  0.82786536151E+01  0.77752162993E+01  0.36833273567E-01  0.11357440342E+02  0.51100000000E-03 0.  1.
        -12    1    3    3    0    0  0.20417581710E+01  0.16945203852E+02 -0.43946989923E+01  0.17624474155E+02  0.00000000000E+00 0.  1.
</event>
<event>
 7    1  0.2476315E-009  0.4778727E+02  0.7816164E-02  0.1312668E+00
        -11   -1    0    0    0    0  0.00000000000E+00  0.00000000000E+00  0.45593999997E+02  0.45594000000E+02  0.51100000000E-03 0. -1.
         11   -1    0    0    0    0 -0.00000000000E+00 -0.00000000000E+00 -0.45593999997E+02  0.45594000000E+02  0.51100000000E-03 0.  1.
    9900012    2    1    2    0    0  0.37929794031E+02  0.13487821404E+02 -0.16218287694E+02  0.47787268932E+02  0.19999990370E+02 0.  0.
         12    1    1    2    0    0 -0.37929794031E+02 -0.13487821404E+02  0.16218287694E+02  0.43400731068E+02  0.00000000000E+00 0. -1.
         11    1    3    3    0    0  0.21783864087E+02  0.57321325568E+01 -0.84828385311E+01  0.24069745076E+02  0.51100000000E-03 0. -1.
        -11    1    3    3    0    0  0.32585207183E+01  0.53928571098E+01  0.28096002595E+01  0.68988925892E+01  0.51100000000E-03 0.  1.
        -12    1    3    3    0    0  0.12887409226E+02  0.23628317372E+01 -0.10545049423E+02  0.16818631267E+02  0.00000000000E+00 0.  1.
</event>
<event>
 7    1  0.2476315E-009  0.4778727E+02  0.7816164E-02  0.1312668E+00
        -11   -1    0    0    0    0  0.00000000000E+00  0.00000000000E+00  0.45593999997E+02  0.45594000000E+02  0.51100000000E-03 0.  1.
         11   -1    0    0    0    0 -0.00000000000E+00 -0.00000000000E+00 -0.45593999997E+02  0.45594000000E+02  0.51100000000E-03 0. -1.
    9900012    2    1    2    0    0 -0.37803609156E+02 -0.19500730828E+02 -0.86158098803E+01  0.47787267887E+02  0.19999985602E+02 0.  0.
         12    1    1    2    0    0  0.37803609156E+02  0.19500730828E+02  0.86158098803E+01  0.43400732113E+02  0.00000000000E+00 0. -1.
         11    1    3    3    0    0 -0.98196609195E+01 -0.89066519121E+01 -0.58839337562E+00  0.13270282434E+02  0.51100000000E-03 0.  1.
        -11    1    3    3    0    0 -0.74686587391E+01  0.23199377210E+01  0.23228762346E+01  0.81583533052E+01  0.51100000000E-03 0. -1.
        -12    1    3    3    0    0 -0.20515289498E+02 -0.12914016637E+02 -0.10350292739E+02  0.26358632147E+02  0.00000000000E+00 0.  1.
</event>
<event>
 7    1  0.2476315E-009  0.4778728E+02  0.7816164E-02  0.1312668E+00
        -11   -1    0    0    0    0  0.00000000000E+00  0.00000000000E+00  0.45593999997E+02  0.45594000000E+02  0.51100000000E-03 0.  1.
         11   -1    0    0    0    0 -0.00000000000E+00 -0.00000000000E+00 -0.45593999997E+02  0.45594000000E+02  0.51100000000E-03 0. -1.
    9900012    2    1    2    0    0  0.43290595296E+02 -0.86253546004E+00 -0.29669362372E+01  0.47787282043E+02  0.20000050149E+02 0.  0.
         12    1    1    2    0    0 -0.43290595296E+02  0.86253546004E+00  0.29669362372E+01  0.43400717957E+02  0.00000000000E+00 0. -1.
         11    1    3    3    0    0  0.12272828226E+00  0.69834334862E+00 -0.41289785750E+01  0.41894164269E+01  0.51100000000E-03 0. -1.
        -11    1    3    3    0    0  0.17852901940E+02 -0.25150387839E+01  0.26419768432E+01  0.18221733443E+02  0.51100000000E-03 0.  1.
         12    1    3    3    0    0  0.25314965074E+02  0.95415997523E+00 -0.14799345054E+01  0.25376132174E+02  0.00000000000E+00 0. -1.
</event>
<event>
 7    1  0.2476315E-009  0.4778728E+02  0.7816164E-02  0.1312668E+00
        -11   -1    0    0    0    0  0.00000000000E+00  0.00000000000E+00  0.45593999997E+02  0.45594000000E+02  0.51100000000E-03 0.  1.
         11   -1    0    0    0    0 -0.00000000000E+00 -0.00000000000E+00 -0.45593999997E+02  0.45594000000E+02  0.51100000000E-03 0. -1.
    9900012    2    1    2    0    0 -0.15032865824E+02  0.20475826043E+02  0.35190567982E+02  0.47787279016E+02  0.20000036345E+02 0.  0.
         12    1    1    2    0    0  0.15032865824E+02 -0.20475826043E+02 -0.35190567982E+02  0.43400720984E+02  0.00000000000E+00 0. -1.
         11    1    3    3    0    0  0.10938211493E+01 -0.50379970972E-01 -0.50646522700E+00  0.12064369588E+01  0.51100000000E-03 0. -1.
        -11    1    3    3    0    0 -0.72398374522E+01 -0.24887292533E+00  0.72146016610E+01  0.10223877027E+02  0.51100000000E-03 0.  1.
        -12    1    3    3    0    0 -0.88868495213E+01  0.20775078939E+02  0.28482431548E+02  0.36356965031E+02  0.00000000000E+00 0.  1.
</event>
<event>
 7    1  0.2476315E-009  0.4778726E+02  0.7816164E-02  0.1312668E+00
        -11   -1    0    0    0    0  0.00000000000E+00  0.00000000000E+00  0.45593999997E+02  0.45594000000E+02  0.51100000000E-03 0.  1.
         11   -1    0    0    0    0 -0.00000000000E+00 -0.00000000000E+00 -0.45593999997E+02  0.45594000000E+02  0.51100000000E-03 0. -1.
    9900012    2    1    2    0    0 -0.30444427682E+02  0.11289565655E+02  0.28797692323E+02  0.47787256312E+02  0.19999932827E+02 0.  0.
         12    1    1    2    0    0  0.30444427682E+02 -0.11289565655E+02 -0.28797692323E+02  0.43400743688E+02  0.00000000000E+00 0. -1.
         11    1    3    3    0    0 -0.84254070610E+00 -0.40033750695E+00  0.88147404651E+01  0.88639604404E+01  0.51100000000E-03 0. -1.
        -11    1    3    3    0    0 -0.25017793019E+02  0.53822707121E+01  0.15796892514E+02  0.30073254212E+02  0.51100000000E-03 0.  1.
         12    1    3    3    0    0 -0.45840939570E+01  0.63076324504E+01  0.41860593443E+01  0.88500416592E+01  0.00000000000E+00 0. -1.
</event>
<event>
 7    1  0.2476315E-009  0.4778728E+02  0.7816164E-02  0.1312668E+00
        -11   -1    0    0    0    0  0.00000000000E+00  0.00000000000E+00  0.45593999997E+02  0.45594000000E+02  0.51100000000E-03 0.  1.
         11   -1    0    0    0    0 -0.00000000000E+00 -0.00000000000E+00 -0.45593999997E+02  0.45594000000E+02  0.51100000000E-03 0. -1.
    9900012    2    1    2    0    0  0.31144104428E+01  0.27064261613E+01  0.43204150177E+02  0.47787275496E+02  0.20000020297E+02 0.  0.
         12    1    1    2    0    0 -0.31144104428E+01 -0.27064261613E+01 -0.43204150177E+02  0.43400724504E+02  0.00000000000E+00 0. -1.
         11    1    3    3    0    0 -0.14202943241E+01 -0.20765183576E+00  0.10698020530E+01  0.17902044424E+01  0.51100000000E-03 0. -1.
        -11    1    3    3    0    0 -0.29648136383E+01  0.20668766325E+01  0.45822007950E+00  0.36430845209E+01  0.51100000000E-03 0.  1.
        -12    1    3    3    0    0  0.74995184052E+01  0.84720136452E+00  0.41676128044E+02  0.42353986533E+02  0.00000000000E+00 0.  1.
</event>
<event>
 7    1  0.2476315E-009  0.4778730E+02  0.7816164E-02  0.1312668E+00
        -11   -1    0    0    0    0  0.00000000000E+00  0.00000000000E+00  0.45593999997E+02  0.45594000000E+02  0.51100000000E-03 0.  1.
         11   -1    0    0    0    0 -0.00000000000E+00 -0.00000000000E+00 -0.45593999997E+02  0.45594000000E+02  0.51100000000E-03 0. -1.
    9900012    2    1    2    0    0  0.36173409412E+02 -0.10784975815E+02  0.21419363291E+02  0.47787304434E+02  0.20000152234E+02 0.  0.
         12    1    1    2    0    0 -0.36173409412E+02  0.10784975815E+02 -0.21419363291E+02  0.43400695566E+02  0.00000000000E+00 0. -1.
         11    1    3    3    0    0  0.27520284282E+02 -0.46754293003E+01  0.19202469357E+02  0.33881566017E+02  0.51100000000E-03 0. -1.
        -11    1    3    3    0    0  0.99680611832E+01 -0.31015123355E+01  0.15169215237E+01  0.10549060323E+02  0.51100000000E-03 0.  1.
         12    1    3    3    0    0 -0.13149360529E+01 -0.30080341796E+01  0.69997241027E+00  0.33566780936E+01  0.00000000000E+00 0. -1.
</event>
<event>
 7    1  0.2476315E-009  0.4778727E+02  0.7816164E-02  0.1312668E+00
        -11   -1    0    0    0    0  0.00000000000E+00  0.00000000000E+00  0.45593999997E+02  0.45594000000E+02  0.51100000000E-03 0.  1.
         11   -1    0    0    0    0 -0.00000000000E+00 -0.00000000000E+00 -0.45593999997E+02  0.45594000000E+02  0.51100000000E-03 0. -1.
    9900012    2    1    2    0    0  0.13039847039E+02 -0.98904921413E+01  0.40196568887E+02  0.47787267335E+02  0.19999983087E+02 0.  0.
         12    1    1    2    0    0 -0.13039847039E+02  0.98904921413E+01 -0.40196568887E+02  0.43400732665E+02  0.00000000000E+00 0. -1.
         11    1    3    3    0    0  0.83155517163E+01 -0.70849990401E+01  0.64683785786E+01  0.12695886477E+02  0.51100000000E-03 0. -1.
        -11    1    3    3    0    0  0.40639767173E+01 -0.52263079505E+01  0.28916690763E+02  0.29664881703E+02  0.51100000000E-03 0.  1.
         12    1    3    3    0    0  0.66031860504E+00  0.24208148493E+01  0.48114995455E+01  0.54264991542E+01  0.00000000000E+00 0. -1.
</event>
<event>
 7    1  0.2476315E-009  0.4778727E+02  0.7816164E-02  0.1312668E+00
        -11   -1    0    0    0    0  0.00000000000E+00  0.00000000000E+00  0.45593999997E+02  0.45594000000E+02  0.51100000000E-03 0. -1.
         11   -1    0    0    0    0 -0.00000000000E+00 -0.00000000000E+00 -0.45593999997E+02  0.45594000000E+02  0.51100000000E-03 0.  1.
    9900012    2    1    2    0    0 -0.68659351501E+01  0.41576991462E+02 -0.10384404597E+02  0.47787272548E+02  0.20000006857E+02 0.  0.
         12    1    1    2    0    0  0.68659351501E+01 -0.41576991462E+02  0.10384404597E+02  0.43400727452E+02  0.00000000000E+00 0. -1.
         11    1    3    3    0    0 -0.62403634040E+00  0.13831107385E+02  0.45802646888E+01  0.14583133331E+02  0.51100000000E-03 0. -1.
        -11    1    3    3    0    0 -0.46109899123E+01  0.27543953041E+02 -0.14629226860E+02  0.31526890996E+02  0.51100000000E-03 0.  1.
        -12    1    3    3    0    0 -0.16309088975E+01  0.20193103514E+00 -0.33544242556E+00  0.16772482212E+01  0.00000000000E+00 0.  1.
</event>
<event>
 7    1  0.2476315E-009  0.4778727E+02  0.7816164E-02  0.1312668E+00
        -11   -1    0    0    0    0  0.00000000000E+00  0.00000000000E+00  0.45593999997E+02  0.45594000000E+02  0.51100000000E-03 0. -1.
         11   -1    0    0    0    0 -0.00000000000E+00 -0.00000000000E+00 -0.45593999997E+02  0.45594000000E+02  0.51100000000E-03 0.  1.
    9900012    2    1    2    0    0 -0.26078942350E+02 -0.12743840769E+02 -0.32266190483E+02  0.47787265445E+02  0.19999974468E+02 0.  0.
         12    1    1    2    0    0  0.26078942350E+02  0.12743840769E+02  0.32266190483E+02  0.43400734555E+02  0.00000000000E+00 0. -1.
         11    1    3    3    0    0 -0.32670861929E+00  0.26391642354E+01  0.31776270583E+00  0.26782269847E+01  0.51100000000E-03 0. -1.
        -11    1    3    3    0    0 -0.20060122840E+01 -0.47412565340E+01 -0.60679750559E+01  0.79576328355E+01  0.51100000000E-03 0.  1.
         12    1    3    3    0    0 -0.23746221446E+02 -0.10641748471E+02 -0.26515978133E+02  0.37151405624E+02  0.00000000000E+00 0. -1.
</event>
<event>
 7    1  0.2476315E-009  0.4778727E+02  0.7816164E-02  0.1312668E+00
        -11   -1    0    0    0    0  0.00000000000E+00  0.00000000000E+00  0.45593999997E+02  0.45594000000E+02  0.51100000000E-03 0.  1.
         11   -1    0    0    0    0 -0.00000000000E+00 -0.00000000000E+00 -0.45593999997E+02  0.45594000000E+02  0.51100000000E-03 0. -1.
    9900012    2    1    2    0    0 -0.96326941971E+01 -0.22784758022E+02  0.35660754752E+02  0.47787269303E+02  0.19999992058E+02 0.  0.
         12    1    1    2    0    0  0.96326941971E+01  0.22784758022E+02 -0.35660754752E+02  0.43400730697E+02  0.00000000000E+00 0. -1.
         11    1    3    3    0    0 -0.43557780719E+01  0.70511737860E+00  0.80295790772E+01  0.91621031182E+01  0.51100000000E-03 0. -1.
        -11    1    3    3    0    0 -0.19099288087E+01 -0.13411797827E+02  0.66157184437E+01  0.15076202432E+02  0.51100000000E-03 0.  1.
        -12    1    3    3    0    0 -0.33669873166E+01 -0.10078077574E+02  0.21015457231E+02  0.23548963752E+02  0.00000000000E+00 0.  1.
</event>
<event>
 7    1  0.2476315E-009  0.4778727E+02  0.7816164E-02  0.1312668E+00
        -11   -1    0    0    0    0  0.00000000000E+00  0.00000000000E+00  0.45593999997E+02  0.45594000000E+02  0.51100000000E-03 0. -1.
         11   -1    0    0    0    0 -0.00000000000E+00 -0.00000000000E+00 -0.45593999997E+02  0.45594000000E+02  0.51100000000E-03 0.  1.
    9900012    2    1    2    0    0  0.27130088950E+02 -0.25671039598E+02 -0.22103830276E+02  0.47787270590E+02  0.19999997928E+02 0.  0.
         12    1    1    2    0    0 -0.27130088950E+02  0.25671039598E+02  0.22103830276E+02  0.43400729410E+02  0.00000000000E+00 0. -1.
         11    1    3    3    0    0  0.28502361903E+01  0.18434649964E+01  0.14148025471E+01  0.36774822966E+01  0.51100000000E-03 0. -1.
        -11    1    3    3    0    0  0.17659716600E+02 -0.17393301218E+02 -0.18873162309E+02  0.31154273759E+02  0.51100000000E-03 0.  1.
         12    1    3    3    0    0  0.66201361599E+01 -0.10121203375E+02 -0.46454705140E+01  0.12955514534E+02  0.00000000000E+00 0. -1.
</event>
<event>
 7    1  0.2476315E-009  0.4778727E+02  0.7816164E-02  0.1312668E+00
        -11   -1    0    0    0    0  0.00000000000E+00  0.00000000000E+00  0.45593999997E+02  0.45594000000E+02  0.51100000000E-03 0. -1.
         11   -1    0    0    0    0 -0.00000000000E+00 -0.00000000000E+00 -0.45593999997E+02  0.45594000000E+02  0.51100000000E-03 0.  1.
    9900012    2    1    2    0    0  0.60266365710E+01 -0.35420583369E+02 -0.24345127394E+02  0.47787270716E+02  0.19999998501E+02 0.  0.
         12    1    1    2    0    0 -0.60266365710E+01  0.35420583369E+02  0.24345127394E+02  0.43400729284E+02  0.00000000000E+00 0. -1.
         11    1    3    3    0    0  0.28640499348E+01 -0.15625489263E+02 -0.17663417423E+02  0.23756157351E+02  0.51100000000E-03 0. -1.
        -11    1    3    3    0    0 -0.19411825651E+01 -0.99339887140E+01 -0.79289250618E+01  0.12857689311E+02  0.51100000000E-03 0.  1.
         12    1    3    3    0    0  0.51037692012E+01 -0.98611053919E+01  0.12472150906E+01  0.11173424054E+02  0.00000000000E+00 0. -1.
</event>
<event>
 7    1  0.2476315E-009  0.4778727E+02  0.7816164E-02  0.1312668E+00
        -11   -1    0    0    0    0  0.00000000000E+00  0.00000000000E+00  0.45593999997E+02  0.45594000000E+02  0.51100000000E-03 0.  1.
         11   -1    0    0    0    0 -0.00000000000E+00 -0.00000000000E+00 -0.45593999997E+02  0.45594000000E+02  0.51100000000E-03 0. -1.
    9900012    2    1    2    0    0 -0.15582794605E+02  0.34102642605E+02 -0.21858853614E+02  0.47787271876E+02  0.20000003793E+02 0.  0.
         12    1    1    2    0    0  0.15582794605E+02 -0.34102642605E+02  0.21858853614E+02  0.43400728124E+02  0.00000000000E+00 0. -1.
         11    1    3    3    0    0 -0.48642871886E+01  0.41940630583E+01 -0.26133960871E+01  0.69340676489E+01  0.51100000000E-03 0. -1.
        -11    1    3    3    0    0 -0.14675926362E+02  0.26399385772E+02 -0.18726517778E+02  0.35538610722E+02  0.51100000000E-03 0.  1.
        -12    1    3    3    0    0  0.39574189461E+01  0.35091937747E+01 -0.51893974950E+00  0.53145935053E+01  0.00000000000E+00 0.  1.
</event>
<event>
 7    1  0.2476315E-009  0.4778731E+02  0.7816164E-02  0.1312668E+00
        -11   -1    0    0    0    0  0.00000000000E+00  0.00000000000E+00  0.45593999997E+02  0.45594000000E+02  0.51100000000E-03 0.  1.
         11   -1    0    0    0    0 -0.00000000000E+00 -0.00000000000E+00 -0.45593999997E+02  0.45594000000E+02  0.51100000000E-03 0. -1.
    9900012    2    1    2    0    0  0.25813283979E+01 -0.34534083345E+01  0.43185998690E+02  0.47787311431E+02  0.20000184136E+02 0.  0.
         12    1    1    2    0    0 -0.25813283979E+01  0.34534083345E+01 -0.43185998690E+02  0.43400688569E+02  0.00000000000E+00 0. -1.
         11    1    3    3    0    0 -0.11977944162E+01 -0.10033202186E+02  0.27865682397E+02  0.29641121998E+02  0.51100000000E-03 0. -1.
        -11    1    3    3    0    0  0.48990704379E+01  0.41295597360E+01  0.13351673863E+02  0.14809502016E+02  0.51100000000E-03 0.  1.
         12    1    3    3    0    0 -0.11199476239E+01  0.24502341151E+01  0.19686424303E+01  0.33366874168E+01  0.00000000000E+00 0. -1.
</event>
<event>
 7    1  0.2476315E-009  0.4778727E+02  0.7816164E-02  0.1312668E+00
        -11   -1    0    0    0    0  0.00000000000E+00  0.00000000000E+00  0.45593999997E+02  0.45594000000E+02  0.51100000000E-03 0. -1.
         11   -1    0    0    0    0 -0.00000000000E+00 -0.00000000000E+00 -0.45593999997E+02  0.45594000000E+02  0.51100000000E-03 0.  1.
    9900012    2    1    2    0    0  0.23873243655E+01 -0.34064118893E+02 -0.26787308321E+02  0.47787269584E+02  0.19999993340E+02 0.  0.
         12    1    1    2    0    0 -0.23873243655E+01  0.34064118893E+02  0.26787308321E+02  0.43400730416E+02  0.00000000000E+00 0. -1.
         11    1    3    3    0    0 -0.75709190633E+01 -0.18599723059E+02 -0.19402221549E+02  0.27923372193E+02  0.51100000000E-03 0.  1.
        -11    1    3    3    0    0  0.72408259056E+01 -0.12011182431E+02 -0.52155180130E+01  0.14963278103E+02  0.51100000000E-03 0. -1.
        -12    1    3    3    0    0  0.27174175232E+01 -0.34532134030E+01 -0.21695687590E+01  0.49006192876E+01  0.00000000000E+00 0.  1.
</event>
<event>
 7    1  0.2476315E-009  0.4778727E+02  0.7816164E-02  0.1312668E+00
        -11   -1    0    0    0    0  0.00000000000E+00  0.00000000000E+00  0.45593999997E+02  0.45594000000E+02  0.51100000000E-03 0.  1.
         11   -1    0    0    0    0 -0.00000000000E+00 -0.00000000000E+00 -0.45593999997E+02  0.45594000000E+02  0.51100000000E-03 0. -1.
    9900012    2    1    2    0    0 -0.89874507228E+01  0.27044674008E+02  0.32732778969E+02  0.47787268649E+02  0.19999989081E+02 0.  0.
         12    1    1    2    0    0  0.89874507228E+01 -0.27044674008E+02 -0.32732778969E+02  0.43400731351E+02  0.00000000000E+00 0. -1.
         11    1    3    3    0    0 -0.42973451584E+01  0.71939421762E+01  0.17193473987E+01  0.85543050672E+01  0.51100000000E-03 0. -1.
        -11    1    3    3    0    0 -0.47249455723E+00  0.52767409473E+01  0.19444764881E+02  0.20153563647E+02  0.51100000000E-03 0.  1.
        -12    1    3    3    0    0 -0.42176110071E+01  0.14573990885E+02  0.11568666690E+02  0.19079399935E+02  0.00000000000E+00 0.  1.
</event>
<event>
 7    1  0.2476315E-009  0.4778727E+02  0.7816164E-02  0.1312668E+00
        -11   -1    0    0    0    0  0.00000000000E+00  0.00000000000E+00  0.45593999997E+02  0.45594000000E+02  0.51100000000E-03 0.  1.
         11   -1    0    0    0    0 -0.00000000000E+00 -0.00000000000E+00 -0.45593999997E+02  0.45594000000E+02  0.51100000000E-03 0. -1.
    9900012    2    1    2    0    0 -0.24607719232E+02 -0.33011465969E+01  0.35597553496E+02  0.47787271555E+02  0.20000002326E+02 0.  0.
         12    1    1    2    0    0  0.24607719232E+02  0.33011465969E+01 -0.35597553496E+02  0.43400728445E+02  0.00000000000E+00 0. -1.
         11    1    3    3    0    0 -0.15653213521E+02 -0.80832691389E+01  0.28649874608E+02  0.33632984536E+02  0.51100000000E-03 0. -1.
        -11    1    3    3    0    0 -0.67716672766E+01  0.46508431631E+01  0.82224945263E+01  0.11623047635E+02  0.51100000000E-03 0.  1.
         12    1    3    3    0    0 -0.21828384346E+01  0.13127937894E+00 -0.12748156376E+01  0.25312393836E+01  0.00000000000E+00 0. -1.
</event>
<event>
 7    1  0.2476315E-009  0.4778727E+02  0.7816164E-02  0.1312668E+00
        -11   -1    0    0    0    0  0.00000000000E+00  0.00000000000E+00  0.45593999997E+02  0.45594000000E+02  0.51100000000E-03 0.  1.
         11   -1    0    0    0    0 -0.00000000000E+00 -0.00000000000E+00 -0.45593999997E+02  0.45594000000E+02  0.51100000000E-03 0. -1.
    9900012    2    1    2    0    0  0.53863540244E+01  0.22082364798E+02  0.36972683965E+02  0.47787274150E+02  0.20000014161E+02 0.  0.
         12    1    1    2    0    0 -0.53863540244E+01 -0.22082364798E+02 -0.36972683965E+02  0.43400725850E+02  0.00000000000E+00 0. -1.
         11    1    3    3    0    0 -0.52193006331E+00 -0.11876874917E+01 -0.67072926095E+00  0.14604419097E+01  0.51100000000E-03 0. -1.
        -11    1    3    3    0    0  0.18973521261E+01  0.21542208007E+02  0.35227864813E+02  0.41336051219E+02  0.51100000000E-03 0.  1.
        -12    1    3    3    0    0  0.40109319616E+01  0.17278442827E+01  0.24155484130E+01  0.49907810212E+01  0.00000000000E+00 0.  1.
</event>
<event>
 7    1  0.2476315E-009  0.4778727E+02  0.7816164E-02  0.1312668E+00
        -11   -1    0    0    0    0  0.00000000000E+00  0.00000000000E+00  0.45593999997E+02  0.45594000000E+02  0.51100000000E-03 0.  1.
         11   -1    0    0    0    0 -0.00000000000E+00 -0.00000000000E+00 -0.45593999997E+02  0.45594000000E+02  0.51100000000E-03 0. -1.
    9900012    2    1    2    0    0 -0.41522196882E+02 -0.12295141856E+02 -0.28913248210E+01  0.47787272974E+02  0.20000008796E+02 0.  0.
         12    1    1    2    0    0  0.41522196882E+02  0.12295141856E+02  0.28913248210E+01  0.43400727026E+02  0.00000000000E+00 0. -1.
         11    1    3    3    0    0  0.14872031493E+00 -0.41420919939E+01  0.26491502597E+01  0.49190488082E+01  0.51100000000E-03 0. -1.
        -11    1    3    3    0    0 -0.11818968276E+02 -0.20602597162E+01 -0.68858617940E+00  0.12016939394E+02  0.51100000000E-03 0.  1.
         12    1    3    3    0    0 -0.29851948921E+02 -0.60927901455E+01 -0.48518889012E+01  0.30851284772E+02  0.00000000000E+00 0. -1.
</event>
<event>
 7    1  0.2476315E-009  0.4778727E+02  0.7816164E-02  0.1312668E+00
        -11   -1    0    0    0    0  0.00000000000E+00  0.00000000000E+00  0.45593999997E+02  0.45594000000E+02  0.51100000000E-03 0.  1.
         11   -1    0    0    0    0 -0.00000000000E+00 -0.00000000000E+00 -0.45593999997E+02  0.45594000000E+02  0.51100000000E-03 0. -1.
    9900012    2    1    2    0    0  0.38021681697E+02  0.12382789525E+02  0.16871321600E+02  0.47787271342E+02  0.20000001357E+02 0.  0.
         12    1    1    2    0    0 -0.38021681697E+02 -0.12382789525E+02 -0.16871321600E+02  0.43400728658E+02  0.00000000000E+00 0. -1.
         11    1    3    3    0    0  0.92197590584E+01  0.70647254274E+01 -0.15294840526E+01  0.11715529189E+02  0.51100000000E-03 0. -1.
        -11    1    3    3    0    0  0.64231545133E+01  0.57291856805E+01  0.43424305244E+01  0.96403934351E+01  0.51100000000E-03 0.  1.
         12    1    3    3    0    0  0.22378768125E+02 -0.41112158291E+00  0.14058375129E+02  0.26431348717E+02  0.00000000000E+00 0. -1.
</event>
<event>
 7    1  0.2476315E-009  0.4778727E+02  0.7816164E-02  0.1312668E+00
        -11   -1    0    0    0    0  0.00000000000E+00  0.00000000000E+00  0.45593999997E+02  0.45594000000E+02  0.51100000000E-03 0.  1.
         11   -1    0    0    0    0 -0.00000000000E+00 -0.00000000000E+00 -0.45593999997E+02  0.45594000000E+02  0.51100000000E-03 0. -1.
    9900012    2    1    2    0    0 -0.20973229495E+02  0.96768353739E+01  0.36743784641E+02  0.47787271803E+02  0.20000003457E+02 0.  0.
         12    1    1    2    0    0  0.20973229495E+02 -0.96768353739E+01 -0.36743784641E+02  0.43400728197E+02  0.00000000000E+00 0. -1.
         11    1    3    3    0    0 -0.13938311295E+02 -0.15351489092E+01  0.15007298014E+02  0.20539040822E+02  0.51100000000E-03 0. -1.
        -11    1    3    3    0    0 -0.49522937692E+01  0.85755510389E+01  0.69835532476E+01  0.12117561860E+02  0.51100000000E-03 0.  1.
        -12    1    3    3    0    0 -0.20826244310E+01  0.26364332443E+01  0.14752933379E+02  0.15130669121E+02  0.00000000000E+00 0.  1.
</event>
<event>
 7    1  0.2476315E-009  0.4778726E+02  0.7816164E-02  0.1312668E+00
        -11   -1    0    0    0    0  0.00000000000E+00  0.00000000000E+00  0.45593999997E+02  0.45594000000E+02  0.51100000000E-03 0. -1.
         11   -1    0    0    0    0 -0.00000000000E+00 -0.00000000000E+00 -0.45593999997E+02  0.45594000000E+02  0.51100000000E-03 0.  1.
    9900012    2    1    2    0    0 -0.13064941750E+02 -0.39766257440E+02 -0.11470669550E+02  0.47787260448E+02  0.19999951687E+02 0.  0.
         12    1    1    2    0    0  0.13064941750E+02  0.39766257440E+02  0.11470669550E+02  0.43400739552E+02  0.00000000000E+00 0. -1.
         11    1    3    3    0    0 -0.76684937565E+01 -0.13577111753E+02 -0.10575979214E+02  0.18841313560E+02  0.51100000000E-03 0. -1.
        -11    1    3    3    0    0 -0.14681910167E+01 -0.24096450066E+02 -0.23693017865E+01  0.24257124353E+02  0.51100000000E-03 0.  1.
         12    1    3    3    0    0 -0.39282569768E+01 -0.20926956205E+01  0.14746114510E+01  0.46888225353E+01  0.00000000000E+00 0. -1.
</event>
<event>
 7    1  0.2476315E-009  0.4778727E+02  0.7816164E-02  0.1312668E+00
        -11   -1    0    0    0    0  0.00000000000E+00  0.00000000000E+00  0.45593999997E+02  0.45594000000E+02  0.51100000000E-03 0.  1.
         11   -1    0    0    0    0 -0.00000000000E+00 -0.00000000000E+00 -0.45593999997E+02  0.45594000000E+02  0.51100000000E-03 0. -1.
    9900012    2    1    2    0    0  0.13157699851E+00 -0.17757334911E+02  0.39601557535E+02  0.47787267116E+02  0.19999982091E+02 0.  0.
         12    1    1    2    0    0 -0.13157699851E+00  0.17757334911E+02 -0.39601557535E+02  0.43400732884E+02  0.00000000000E+00 0. -1.
         11    1    3    3    0    0 -0.15112130050E+01 -0.14695693466E+02  0.21892765803E+02  0.26410989492E+02  0.51100000000E-03 0. -1.
        -11    1    3    3    0    0  0.38059737696E+01  0.16205721190E+01  0.14980975261E+02  0.15541599350E+02  0.51100000000E-03 0.  1.
        -12    1    3    3    0    0 -0.21631837661E+01 -0.46822135642E+01  0.27278164711E+01  0.58346782745E+01  0.00000000000E+00 0.  1.
</event>
<event>
 7    1  0.2476315E-009  0.4778727E+02  0.7816164E-02  0.1312668E+00
        -11   -1    0    0    0    0  0.00000000000E+00  0.00000000000E+00  0.45593999997E+02  0.45594000000E+02  0.51100000000E-03 0.  1.
         11   -1    0    0    0    0 -0.00000000000E+00 -0.00000000000E+00 -0.45593999997E+02  0.45594000000E+02  0.51100000000E-03 0. -1.
    9900012    2    1    2    0    0  0.32238756003E+02  0.28601222189E+02  0.51240729489E+01  0.47787269328E+02  0.19999992172E+02 0.  0.
         12    1    1    2    0    0 -0.32238756003E+02 -0.28601222189E+02 -0.51240729489E+01  0.43400730672E+02  0.00000000000E+00 0. -1.
         11    1    3    3    0    0  0.71375590978E+01  0.20462105259E+01  0.35506394003E+00  0.74335589090E+01  0.51100000000E-03 0. -1.
        -11    1    3    3    0    0  0.44556753613E+01 -0.14418503467E+01  0.29194750730E+01  0.55186330111E+01  0.51100000000E-03 0.  1.
        -12    1    3    3    0    0  0.20645521544E+02  0.27996862010E+02  0.18495339358E+01  0.34835077408E+02  0.00000000000E+00 0.  1.
</event>
<event>
 7    1  0.2476315E-009  0.4778728E+02  0.7816164E-02  0.1312668E+00
        -11   -1    0    0    0    0  0.00000000000E+00  0.00000000000E+00  0.45593999997E+02  0.45594000000E+02  0.51100000000E-03 0. -1.
         11   -1    0    0    0    0 -0.00000000000E+00 -0.00000000000E+00 -0.45593999997E+02  0.45594000000E+02  0.51100000000E-03 0.  1.
    9900012    2    1    2    0    0 -0.15904105774E+02 -0.69435404980E+01 -0.39780259484E+02  0.47787281345E+02  0.20000046965E+02 0.  0.
         12    1    1    2    0    0  0.15904105774E+02  0.69435404980E+01  0.39780259484E+02  0.43400718655E+02  0.00000000000E+00 0. -1.
         11    1    3    3    0    0  0.11821367082E+01  0.37353529746E+01 -0.86647234867E+01  0.95093502620E+01  0.51100000000E-03 0. -1.
        -11    1    3    3    0    0 -0.11932958354E+02 -0.12021714332E+02 -0.24498785062E+02  0.29784351266E+02  0.51100000000E-03 0.  1.
        -12    1    3    3    0    0 -0.51532841281E+01  0.13428208595E+01 -0.66167509358E+01  0.84935798172E+01  0.00000000000E+00 0.  1.
</event>
<event>
 7    1  0.2476315E-009  0.4778728E+02  0.7816164E-02  0.1312668E+00
        -11   -1    0    0    0    0  0.00000000000E+00  0.00000000000E+00  0.45593999997E+02  0.45594000000E+02  0.51100000000E-03 0.  1.
         11   -1    0    0    0    0 -0.00000000000E+00 -0.00000000000E+00 -0.45593999997E+02  0.45594000000E+02  0.51100000000E-03 0. -1.
    9900012    2    1    2    0    0  0.12806650031E+02 -0.39967903798E+02  0.11053469027E+02  0.47787276543E+02  0.20000025071E+02 0.  0.
         12    1    1    2    0    0 -0.12806650031E+02  0.39967903798E+02 -0.11053469027E+02  0.43400723457E+02  0.00000000000E+00 0. -1.
         11    1    3    3    0    0 -0.16514661346E+01 -0.10606613980E+02 -0.29217713294E+01  0.11124942628E+02  0.51100000000E-03 0. -1.
        -11    1    3    3    0    0  0.68483033535E+01 -0.22922097980E+02  0.10063788941E+02  0.25953837534E+02  0.51100000000E-03 0.  1.
         12    1    3    3    0    0  0.76098128123E+01 -0.64391918376E+01  0.39114514147E+01  0.10708496380E+02  0.00000000000E+00 0. -1.
</event>
<event>
 7    1  0.2476315E-009  0.4778727E+02  0.7816164E-02  0.1312668E+00
        -11   -1    0    0    0    0  0.00000000000E+00  0.00000000000E+00  0.45593999997E+02  0.45594000000E+02  0.51100000000E-03 0. -1.
         11   -1    0    0    0    0 -0.00000000000E+00 -0.00000000000E+00 -0.45593999997E+02  0.45594000000E+02  0.51100000000E-03 0.  1.
    9900012    2    1    2    0    0 -0.18586166892E+02 -0.22853643994E+02 -0.31873008857E+02  0.47787270315E+02  0.19999996676E+02 0.  0.
         12    1    1    2    0    0  0.18586166892E+02  0.22853643994E+02  0.31873008857E+02  0.43400729685E+02  0.00000000000E+00 0. -1.
         11    1    3    3    0    0 -0.58898495150E+01 -0.53109802231E+01 -0.14929521540E+02  0.16905249241E+02  0.51100000000E-03 0. -1.
        -11    1    3    3    0    0 -0.99543764660E+01 -0.19624216492E+02 -0.12659599943E+02  0.25386314320E+02  0.51100000000E-03 0.  1.
        -12    1    3    3    0    0 -0.27419409111E+01  0.20815527215E+01 -0.42838873746E+01  0.54957067544E+01  0.00000000000E+00 0.  1.
</event>
<event>
 7    1  0.2476315E-009  0.4778727E+02  0.7816164E-02  0.1312668E+00
        -11   -1    0    0    0    0  0.00000000000E+00  0.00000000000E+00  0.45593999997E+02  0.45594000000E+02  0.51100000000E-03 0. -1.
         11   -1    0    0    0    0 -0.00000000000E+00 -0.00000000000E+00 -0.45593999997E+02  0.45594000000E+02  0.51100000000E-03 0.  1.
    9900012    2    1    2    0    0 -0.11065381820E+02 -0.41131234956E+01 -0.41764373858E+02  0.47787269782E+02  0.19999994243E+02 0.  0.
         12    1    1    2    0    0  0.11065381820E+02  0.41131234956E+01  0.41764373858E+02  0.43400730218E+02  0.00000000000E+00 0. -1.
         11    1    3    3    0    0 -0.57096869933E+01 -0.87150346829E-01 -0.31100815430E+01  0.65023632789E+01  0.51100000000E-03 0.  1.
        -11    1    3    3    0    0 -0.28950839804E+01 -0.86684142467E+01 -0.26889413713E+02  0.28400061389E+02  0.51100000000E-03 0. -1.
        -12    1    3    3    0    0 -0.24606108458E+01  0.46424410979E+01 -0.11764878602E+02  0.12884845114E+02  0.00000000000E+00 0.  1.
</event>
<event>
 7    1  0.2476315E-009  0.4778727E+02  0.7816164E-02  0.1312668E+00
        -11   -1    0    0    0    0  0.00000000000E+00  0.00000000000E+00  0.45593999997E+02  0.45594000000E+02  0.51100000000E-03 0.  1.
         11   -1    0    0    0    0 -0.00000000000E+00 -0.00000000000E+00 -0.45593999997E+02  0.45594000000E+02  0.51100000000E-03 0. -1.
    9900012    2    1    2    0    0  0.24723123417E+02 -0.25467615465E+02  0.24975809444E+02  0.47787270440E+02  0.19999997244E+02 0.  0.
         12    1    1    2    0    0 -0.24723123417E+02  0.25467615465E+02 -0.24975809444E+02  0.43400729560E+02  0.00000000000E+00 0. -1.
         11    1    3    3    0    0  0.43026107949E+01 -0.80756106437E+00  0.25048468262E+01  0.50436963042E+01  0.51100000000E-03 0. -1.
        -11    1    3    3    0    0  0.22491423576E+02 -0.20945282448E+02  0.23096238205E+02  0.38444833343E+02  0.51100000000E-03 0.  1.
        -12    1    3    3    0    0 -0.20709109542E+01 -0.37147719526E+01 -0.62527558750E+00  0.42987407924E+01  0.00000000000E+00 0.  1.
</event>
<event>
 7    1  0.2476315E-009  0.4778727E+02  0.7816164E-02  0.1312668E+00
        -11   -1    0    0    0    0  0.00000000000E+00  0.00000000000E+00  0.45593999997E+02  0.45594000000E+02  0.51100000000E-03 0.  1.
         11   -1    0    0    0    0 -0.00000000000E+00 -0.00000000000E+00 -0.45593999997E+02  0.45594000000E+02  0.51100000000E-03 0. -1.
    9900012    2    1    2    0    0  0.18732881555E+02 -0.33618199349E+02  0.20062876476E+02  0.47787271996E+02  0.20000004337E+02 0.  0.
         12    1    1    2    0    0 -0.18732881555E+02  0.33618199349E+02 -0.20062876476E+02  0.43400728004E+02  0.00000000000E+00 0. -1.
         11    1    3    3    0    0  0.13097060155E+02 -0.18342307800E+02  0.17678355913E+02  0.28644327679E+02  0.51100000000E-03 0. -1.
        -11    1    3    3    0    0  0.45056397123E+01 -0.13505108361E+02 -0.19077996287E+01  0.14364137313E+02  0.51100000000E-03 0.  1.
        -12    1    3    3    0    0  0.11301816884E+01 -0.17707831872E+01  0.42923201921E+01  0.47788070034E+01  0.00000000000E+00 0.  1.
</event>
<event>
 7    1  0.2476315E-009  0.4778727E+02  0.7816164E-02  0.1312668E+00
        -11   -1    0    0    0    0  0.00000000000E+00  0.00000000000E+00  0.45593999997E+02  0.45594000000E+02  0.51100000000E-03 0.  1.
         11   -1    0    0    0    0 -0.00000000000E+00 -0.00000000000E+00 -0.45593999997E+02  0.45594000000E+02  0.51100000000E-03 0. -1.
    9900012    2    1    2    0    0 -0.18139750635E+02  0.25754649149E+02  0.29854163753E+02  0.47787267296E+02  0.19999982910E+02 0.  0.
         12    1    1    2    0    0  0.18139750635E+02 -0.25754649149E+02 -0.29854163753E+02  0.43400732704E+02  0.00000000000E+00 0. -1.
         11    1    3    3    0    0 -0.51279914370E+01  0.42718109151E+01 -0.12799344667E+01  0.67957999656E+01  0.51100000000E-03 0. -1.
        -11    1    3    3    0    0 -0.13393367664E+02  0.15331219819E+02  0.25604102965E+02  0.32710834404E+02  0.51100000000E-03 0.  1.
         12    1    3    3    0    0  0.38160846662E+00  0.61516184148E+01  0.55299952543E+01  0.82806329260E+01  0.00000000000E+00 0. -1.
</event>
<event>
 7    1  0.2476315E-009  0.4778726E+02  0.7816164E-02  0.1312668E+00
        -11   -1    0    0    0    0  0.00000000000E+00  0.00000000000E+00  0.45593999997E+02  0.45594000000E+02  0.51100000000E-03 0.  1.
         11   -1    0    0    0    0 -0.00000000000E+00 -0.00000000000E+00 -0.45593999997E+02  0.45594000000E+02  0.51100000000E-03 0. -1.
    9900012    2    1    2    0    0 -0.17871082539E+02 -0.26767324770E+02  0.29116297920E+02  0.47787261861E+02  0.19999958127E+02 0.  0.
         12    1    1    2    0    0  0.17871082539E+02  0.26767324770E+02 -0.29116297920E+02  0.43400738139E+02  0.00000000000E+00 0. -1.
         11    1    3    3    0    0  0.11933017824E+01 -0.51662606107E+01 -0.86524705761E+00  0.53724175725E+01  0.51100000000E-03 0. -1.
        -11    1    3    3    0    0 -0.88334285621E+01 -0.14490096351E+02  0.21277263606E+02  0.27216066932E+02  0.51100000000E-03 0.  1.
        -12    1    3    3    0    0 -0.10230955759E+02 -0.71109678083E+01  0.87042813720E+01  0.15198777356E+02  0.00000000000E+00 0.  1.
</event>
<event>
 7    1  0.2476315E-009  0.4778727E+02  0.7816164E-02  0.1312668E+00
        -11   -1    0    0    0    0  0.00000000000E+00  0.00000000000E+00  0.45593999997E+02  0.45594000000E+02  0.51100000000E-03 0.  1.
         11   -1    0    0    0    0 -0.00000000000E+00 -0.00000000000E+00 -0.45593999997E+02  0.45594000000E+02  0.51100000000E-03 0. -1.
    9900012    2    1    2    0    0  0.13168246762E+02 -0.38039001980E+02  0.16225129744E+02  0.47787271554E+02  0.20000002325E+02 0.  0.
         12    1    1    2    0    0 -0.13168246762E+02  0.38039001980E+02 -0.16225129744E+02  0.43400728446E+02  0.00000000000E+00 0. -1.
         11    1    3    3    0    0  0.24118787896E+01  0.91046960961E+00  0.40292500375E+01  0.47834057251E+01  0.51100000000E-03 0. -1.
        -11    1    3    3    0    0  0.60287988047E+01 -0.17401006049E+02  0.14719711212E+01  0.18474526402E+02  0.51100000000E-03 0.  1.
         12    1    3    3    0    0  0.47275691672E+01 -0.21548465540E+02  0.10723908586E+02  0.24529339427E+02  0.00000000000E+00 0. -1.
</event>
<event>
 7    1  0.2476315E-009  0.4778725E+02  0.7816164E-02  0.1312668E+00
        -11   -1    0    0    0    0  0.00000000000E+00  0.00000000000E+00  0.45593999997E+02  0.45594000000E+02  0.51100000000E-03 0.  1.
         11   -1    0    0    0    0 -0.00000000000E+00 -0.00000000000E+00 -0.45593999997E+02  0.45594000000E+02  0.51100000000E-03 0. -1.
    9900012    2    1    2    0    0 -0.42782553169E+02 -0.26426490052E-01 -0.72991219679E+01  0.47787254205E+02  0.19999923224E+02 0.  0.
         12    1    1    2    0    0  0.42782553169E+02  0.26426490052E-01  0.72991219679E+01  0.43400745795E+02  0.00000000000E+00 0. -1.
         11    1    3    3    0    0 -0.19206924614E+02  0.22871757801E+01 -0.99425939472E+01  0.21748386167E+02  0.51100000000E-03 0.  1.
        -11    1    3    3    0    0 -0.16491227732E+02 -0.63473270689E+01  0.27655356001E+01  0.17885674168E+02  0.51100000000E-03 0. -1.
         12    1    3    3    0    0 -0.70844008226E+01  0.40337247987E+01 -0.12206362075E+00  0.81531938708E+01  0.00000000000E+00 0. -1.
</event>
<event>
 7    1  0.2476315E-009  0.4778727E+02  0.7816164E-02  0.1312668E+00
        -11   -1    0    0    0    0  0.00000000000E+00  0.00000000000E+00  0.45593999997E+02  0.45594000000E+02  0.51100000000E-03 0.  1.
         11   -1    0    0    0    0 -0.00000000000E+00 -0.00000000000E+00 -0.45593999997E+02  0.45594000000E+02  0.51100000000E-03 0. -1.
    9900012    2    1    2    0    0  0.91059080452E+01 -0.28814365770E+02  0.31151852342E+02  0.47787272582E+02  0.20000007009E+02 0.  0.
         12    1    1    2    0    0 -0.91059080452E+01  0.28814365770E+02 -0.31151852342E+02  0.43400727418E+02  0.00000000000E+00 0. -1.
         11    1    3    3    0    0  0.45489529484E+01 -0.60868326259E+01  0.25237441986E+01  0.80069837881E+01  0.51100000000E-03 0. -1.
        -11    1    3    3    0    0  0.29034894194E+01 -0.21209874150E+02  0.30215986718E+02  0.37030998715E+02  0.51100000000E-03 0.  1.
        -12    1    3    3    0    0  0.16534656774E+01 -0.15176589943E+01 -0.15878785739E+01  0.27492900784E+01  0.00000000000E+00 0.  1.
</event>
<event>
 7    1  0.2476315E-009  0.4778727E+02  0.7816164E-02  0.1312668E+00
        -11   -1    0    0    0    0  0.00000000000E+00  0.00000000000E+00  0.45593999997E+02  0.45594000000E+02  0.51100000000E-03 0.  1.
         11   -1    0    0    0    0 -0.00000000000E+00 -0.00000000000E+00 -0.45593999997E+02  0.45594000000E+02  0.51100000000E-03 0. -1.
    9900012    2    1    2    0    0  0.30642929182E+02 -0.17825582643E+02  0.25037628094E+02  0.47787270444E+02  0.19999997264E+02 0.  0.
         12    1    1    2    0    0 -0.30642929182E+02  0.17825582643E+02 -0.25037628094E+02  0.43400729556E+02  0.00000000000E+00 0. -1.
         11    1    3    3    0    0  0.26744663185E+02 -0.17473794139E+02  0.24733970654E+02  0.40402720144E+02  0.51100000000E-03 0.  1.
        -11    1    3    3    0    0  0.23788499803E+01  0.28817843626E+01  0.65792446566E+00  0.37942684676E+01  0.51100000000E-03 0. -1.
         12    1    3    3    0    0  0.15194160163E+01 -0.32335728664E+01 -0.35426702515E+00  0.35902818327E+01  0.00000000000E+00 0. -1.
</event>
<event>
 7    1  0.2476315E-009  0.4778727E+02  0.7816164E-02  0.1312668E+00
        -11   -1    0    0    0    0  0.00000000000E+00  0.00000000000E+00  0.45593999997E+02  0.45594000000E+02  0.51100000000E-03 0.  1.
         11   -1    0    0    0    0 -0.00000000000E+00 -0.00000000000E+00 -0.45593999997E+02  0.45594000000E+02  0.51100000000E-03 0. -1.
    9900012    2    1    2    0    0 -0.27676043141E+02 -0.33412453436E+02 -0.11259879909E+01  0.47787271233E+02  0.20000000861E+02 0.  0.
         12    1    1    2    0    0  0.27676043141E+02  0.33412453436E+02  0.11259879909E+01  0.43400728767E+02  0.00000000000E+00 0. -1.
         11    1    3    3    0    0 -0.73035016214E+01 -0.61845207374E+01 -0.65032442549E+01  0.11570722483E+02  0.51100000000E-03 0. -1.
        -11    1    3    3    0    0 -0.15171443023E+02 -0.12885046413E+02  0.64458342570E+01  0.20922377590E+02  0.51100000000E-03 0.  1.
        -12    1    3    3    0    0 -0.52010984961E+01 -0.14342886285E+02 -0.10685779930E+01  0.15294171161E+02  0.00000000000E+00 0.  1.
</event>
<event>
 7    1  0.2476315E-009  0.4778727E+02  0.7816164E-02  0.1312668E+00
        -11   -1    0    0    0    0  0.00000000000E+00  0.00000000000E+00  0.45593999997E+02  0.45594000000E+02  0.51100000000E-03 0.  1.
         11   -1    0    0    0    0 -0.00000000000E+00 -0.00000000000E+00 -0.45593999997E+02  0.45594000000E+02  0.51100000000E-03 0. -1.
    9900012    2    1    2    0    0  0.18878411762E+01  0.51893948089E+00  0.43356545593E+02  0.47787270878E+02  0.19999999243E+02 0.  0.
         12    1    1    2    0    0 -0.18878411762E+01 -0.51893948089E+00 -0.43356545593E+02  0.43400729122E+02  0.00000000000E+00 0. -1.
         11    1    3    3    0    0 -0.58588115955E+01  0.50373710669E+01  0.28011527247E+02  0.29057639951E+02  0.51100000000E-03 0.  1.
        -11    1    3    3    0    0  0.56172844883E+01 -0.49964564940E+01  0.14603022030E+02  0.16424576561E+02  0.51100000000E-03 0. -1.
         12    1    3    3    0    0  0.21293682834E+01  0.47802490800E+00  0.74199631619E+00  0.23050543664E+01  0.00000000000E+00 0. -1.
</event>
<event>
 7    1  0.2476315E-009  0.4778729E+02  0.7816164E-02  0.1312668E+00
        -11   -1    0    0    0    0  0.00000000000E+00  0.00000000000E+00  0.45593999997E+02  0.45594000000E+02  0.51100000000E-03 0.  1.
         11   -1    0    0    0    0 -0.00000000000E+00 -0.00000000000E+00 -0.45593999997E+02  0.45594000000E+02  0.51100000000E-03 0. -1.
    9900012    2    1    2    0    0 -0.15335183703E+02 -0.29692626885E+02  0.27691191306E+02  0.47787285415E+02  0.20000065523E+02 0.  0.
         12    1    1    2    0    0  0.15335183703E+02  0.29692626885E+02 -0.27691191306E+02  0.43400714585E+02  0.00000000000E+00 0. -1.
         11    1    3    3    0    0  0.27130834611E+01 -0.12695570306E+02  0.72045078019E+01  0.14847331753E+02  0.51100000000E-03 0. -1.
        -11    1    3    3    0    0 -0.94598175385E+01 -0.79593409237E+01  0.14663051356E+02  0.19179268264E+02  0.51100000000E-03 0.  1.
         12    1    3    3    0    0 -0.85884496260E+01 -0.90377156549E+01  0.58236321477E+01  0.13760685398E+02  0.00000000000E+00 0. -1.
</event>
<event>
 7    1  0.2476315E-009  0.4778727E+02  0.7816164E-02  0.1312668E+00
        -11   -1    0    0    0    0  0.00000000000E+00  0.00000000000E+00  0.45593999997E+02  0.45594000000E+02  0.51100000000E-03 0. -1.
         11   -1    0    0    0    0 -0.00000000000E+00 -0.00000000000E+00 -0.45593999997E+02  0.45594000000E+02  0.51100000000E-03 0.  1.
    9900012    2    1    2    0    0 -0.17427545967E+02 -0.26270635528E+02 -0.29828808863E+02  0.47787268581E+02  0.19999988770E+02 0.  0.
         12    1    1    2    0    0  0.17427545967E+02  0.26270635528E+02  0.29828808863E+02  0.43400731419E+02  0.00000000000E+00 0. -1.
         11    1    3    3    0    0 -0.14167263046E+02 -0.11949818834E+02 -0.98263353938E+01  0.20977759173E+02  0.51100000000E-03 0. -1.
        -11    1    3    3    0    0 -0.27722896199E+01 -0.78637671440E+01 -0.18305985662E+02  0.20115504834E+02  0.51100000000E-03 0.  1.
        -12    1    3    3    0    0 -0.48799330069E+00 -0.64570495503E+01 -0.16964878078E+01  0.66940045742E+01  0.00000000000E+00 0.  1.
</event>
<event>
 7    1  0.2476315E-009  0.4778727E+02  0.7816164E-02  0.1312668E+00
        -11   -1    0    0    0    0  0.00000000000E+00  0.00000000000E+00  0.45593999997E+02  0.45594000000E+02  0.51100000000E-03 0.  1.
         11   -1    0    0    0    0 -0.00000000000E+00 -0.00000000000E+00 -0.45593999997E+02  0.45594000000E+02  0.51100000000E-03 0. -1.
    9900012    2    1    2    0    0  0.16601729490E+01  0.42030571679E+01  0.43164817171E+02  0.47787270684E+02  0.19999998355E+02 0.  0.
         12    1    1    2    0    0 -0.16601729490E+01 -0.42030571679E+01 -0.43164817171E+02  0.43400729316E+02  0.00000000000E+00 0. -1.
         11    1    3    3    0    0 -0.31028497494E+01  0.11243982511E+02  0.21796304296E+02  0.24721118512E+02  0.51100000000E-03 0. -1.
        -11    1    3    3    0    0  0.45253607882E+01 -0.69197164911E+01  0.19525454610E+02  0.21203885129E+02  0.51100000000E-03 0.  1.
         12    1    3    3    0    0  0.23766191014E+00 -0.12120885159E+00  0.18430582644E+01  0.18622670419E+01  0.00000000000E+00 0. -1.
</event>
<event>
 7    1  0.2476315E-009  0.4778728E+02  0.7816164E-02  0.1312668E+00
        -11   -1    0    0    0    0  0.00000000000E+00  0.00000000000E+00  0.45593999997E+02  0.45594000000E+02  0.51100000000E-03 0.  1.
         11   -1    0    0    0    0 -0.00000000000E+00 -0.00000000000E+00 -0.45593999997E+02  0.45594000000E+02  0.51100000000E-03 0. -1.
    9900012    2    1    2    0    0  0.13653327296E+02  0.19897552750E+02  0.36073492814E+02  0.47787276095E+02  0.20000023026E+02 0.  0.
         12    1    1    2    0    0 -0.13653327296E+02 -0.19897552750E+02 -0.36073492814E+02  0.43400723905E+02  0.00000000000E+00 0. -1.
         11    1    3    3    0    0 -0.10779293864E+01  0.10060840487E+01  0.21381447133E+00  0.14899173684E+01  0.51100000000E-03 0. -1.
        -11    1    3    3    0    0 -0.16247465840E+01  0.10874254098E+02  0.11932653281E+02  0.16225825656E+02  0.51100000000E-03 0.  1.
        -12    1    3    3    0    0  0.16356003266E+02  0.80172146031E+01  0.23927025062E+02  0.30071533070E+02  0.00000000000E+00 0.  1.
</event>
<event>
 7    1  0.2476315E-009  0.4778727E+02  0.7816164E-02  0.1312668E+00
        -11   -1    0    0    0    0  0.00000000000E+00  0.00000000000E+00  0.45593999997E+02  0.45594000000E+02  0.51100000000E-03 0.  1.
         11   -1    0    0    0    0 -0.00000000000E+00 -0.00000000000E+00 -0.45593999997E+02  0.45594000000E+02  0.51100000000E-03 0. -1.
    9900012    2    1    2    0    0  0.11773994956E+00 -0.39576028148E+02  0.17814256833E+02  0.47787267135E+02  0.19999982176E+02 0.  0.
         12    1    1    2    0    0 -0.11773994956E+00  0.39576028148E+02 -0.17814256833E+02  0.43400732865E+02  0.00000000000E+00 0. -1.
         11    1    3    3    0    0  0.26634057892E+01 -0.24758666329E+02  0.13056768132E+02  0.28116978556E+02  0.51100000000E-03 0. -1.
        -11    1    3    3    0    0  0.35916142430E+01 -0.95338149759E+00 -0.19266679877E+00  0.37209877596E+01  0.51100000000E-03 0.  1.
         12    1    3    3    0    0 -0.61372800826E+01 -0.13863980322E+02  0.49501554991E+01  0.15949300820E+02  0.00000000000E+00 0. -1.
</event>
<event>
 7    1  0.2476315E-009  0.4778727E+02  0.7816164E-02  0.1312668E+00
        -11   -1    0    0    0    0  0.00000000000E+00  0.00000000000E+00  0.45593999997E+02  0.45594000000E+02  0.51100000000E-03 0. -1.
         11   -1    0    0    0    0 -0.00000000000E+00 -0.00000000000E+00 -0.45593999997E+02  0.45594000000E+02  0.51100000000E-03 0.  1.
    9900012    2    1    2    0    0  0.11279094602E+02  0.19165531104E+02 -0.37270471518E+02  0.47787267233E+02  0.19999982624E+02 0.  0.
         12    1    1    2    0    0 -0.11279094602E+02 -0.19165531104E+02  0.37270471518E+02  0.43400732767E+02  0.00000000000E+00 0. -1.
         11    1    3    3    0    0  0.94204630551E+01  0.50423592238E+01 -0.23397472571E+02  0.25721824074E+02  0.51100000000E-03 0. -1.
        -11    1    3    3    0    0  0.45445130441E+00  0.31710687928E+00 -0.61675846099E+01  0.61924294863E+01  0.51100000000E-03 0.  1.
         12    1    3    3    0    0  0.14041802421E+01  0.13806065001E+02 -0.77054143365E+01  0.15873013673E+02  0.00000000000E+00 0. -1.
</event>
<event>
 7    1  0.2476315E-009  0.4778727E+02  0.7816164E-02  0.1312668E+00
        -11   -1    0    0    0    0  0.00000000000E+00  0.00000000000E+00  0.45593999997E+02  0.45594000000E+02  0.51100000000E-03 0.  1.
         11   -1    0    0    0    0 -0.00000000000E+00 -0.00000000000E+00 -0.45593999997E+02  0.45594000000E+02  0.51100000000E-03 0. -1.
    9900012    2    1    2    0    0  0.38306682234E+02 -0.20400764121E+02 -0.17422998502E+00  0.47787269170E+02  0.19999991453E+02 0.  0.
         12    1    1    2    0    0 -0.38306682234E+02  0.20400764121E+02  0.17422998502E+00  0.43400730830E+02  0.00000000000E+00 0. -1.
         11    1    3    3    0    0  0.45297214482E+01 -0.69783680990E+01 -0.58622286469E+01  0.10177510633E+02  0.51100000000E-03 0. -1.
        -11    1    3    3    0    0  0.13896657029E+02 -0.41327296265E+01  0.59319073942E+01  0.15664739268E+02  0.51100000000E-03 0.  1.
         12    1    3    3    0    0  0.19880303757E+02 -0.92896663957E+01 -0.24390873233E+00  0.21945019268E+02  0.00000000000E+00 0. -1.
</event>
<event>
 7    1  0.2476315E-009  0.4778727E+02  0.7816164E-02  0.1312668E+00
        -11   -1    0    0    0    0  0.00000000000E+00  0.00000000000E+00  0.45593999997E+02  0.45594000000E+02  0.51100000000E-03 0. -1.
         11   -1    0    0    0    0 -0.00000000000E+00 -0.00000000000E+00 -0.45593999997E+02  0.45594000000E+02  0.51100000000E-03 0.  1.
    9900012    2    1    2    0    0 -0.30227608472E+02 -0.27731750662E+02 -0.14172679325E+02  0.47787272495E+02  0.20000006613E+02 0.  0.
         12    1    1    2    0    0  0.30227608472E+02  0.27731750662E+02  0.14172679325E+02  0.43400727505E+02  0.00000000000E+00 0. -1.
         11    1    3    3    0    0 -0.20960943199E+01  0.21494719154E+01  0.37800733751E+00  0.30260090418E+01  0.51100000000E-03 0. -1.
        -11    1    3    3    0    0 -0.23293383404E+02 -0.21901794432E+02 -0.69349366430E+01  0.32716412643E+02  0.51100000000E-03 0.  1.
         12    1    3    3    0    0 -0.48381307483E+01 -0.79794281455E+01 -0.76157500195E+01  0.12044850810E+02  0.00000000000E+00 0. -1.
</event>
<event>
 7    1  0.2476315E-009  0.4778726E+02  0.7816164E-02  0.1312668E+00
        -11   -1    0    0    0    0  0.00000000000E+00  0.00000000000E+00  0.45593999997E+02  0.45594000000E+02  0.51100000000E-03 0.  1.
         11   -1    0    0    0    0 -0.00000000000E+00 -0.00000000000E+00 -0.45593999997E+02  0.45594000000E+02  0.51100000000E-03 0. -1.
    9900012    2    1    2    0    0  0.33157739233E+02 -0.48691337139E+01  0.27576804849E+02  0.47787259225E+02  0.19999946108E+02 0.  0.
         12    1    1    2    0    0 -0.33157739233E+02  0.48691337139E+01 -0.27576804849E+02  0.43400740775E+02  0.00000000000E+00 0. -1.
         11    1    3    3    0    0  0.60200718227E+00  0.43595266130E+01  0.12951479374E+01  0.45875149458E+01  0.51100000000E-03 0. -1.
        -11    1    3    3    0    0  0.31603542455E+02 -0.95014868570E+01  0.26315561838E+02  0.42208659577E+02  0.51100000000E-03 0.  1.
         12    1    3    3    0    0  0.95218959610E+00  0.27282653009E+00 -0.33904926034E-01  0.99108470195E+00  0.00000000000E+00 0. -1.
</event>
<event>
 7    1  0.2476315E-009  0.4778727E+02  0.7816164E-02  0.1312668E+00
        -11   -1    0    0    0    0  0.00000000000E+00  0.00000000000E+00  0.45593999997E+02  0.45594000000E+02  0.51100000000E-03 0.  1.
         11   -1    0    0    0    0 -0.00000000000E+00 -0.00000000000E+00 -0.45593999997E+02  0.45594000000E+02  0.51100000000E-03 0. -1.
    9900012    2    1    2    0    0 -0.16184228110E+02 -0.10255238790E+01  0.40257204146E+02  0.47787269311E+02  0.19999992095E+02 0.  0.
         12    1    1    2    0    0  0.16184228110E+02  0.10255238790E+01 -0.40257204146E+02  0.43400730689E+02  0.00000000000E+00 0. -1.
         11    1    3    3    0    0 -0.10569058953E+02 -0.54063081347E+01  0.24261645129E+02  0.27010379476E+02  0.51100000000E-03 0. -1.
        -11    1    3    3    0    0 -0.33733052631E+01  0.27357353346E+00 -0.68452126741E+00  0.34529118875E+01  0.51100000000E-03 0.  1.
        -12    1    3    3    0    0 -0.22418638934E+01  0.41072107222E+01  0.16680080284E+02  0.17323977947E+02  0.00000000000E+00 0.  1.
</event>
<event>
 7    1  0.2476315E-009  0.4778727E+02  0.7816164E-02  0.1312668E+00
        -11   -1    0    0    0    0  0.00000000000E+00  0.00000000000E+00  0.45593999997E+02  0.45594000000E+02  0.51100000000E-03 0.  1.
         11   -1    0    0    0    0 -0.00000000000E+00 -0.00000000000E+00 -0.45593999997E+02  0.45594000000E+02  0.51100000000E-03 0. -1.
    9900012    2    1    2    0    0 -0.18603910134E+02 -0.39005171686E+02  0.40142479815E+01  0.47787273308E+02  0.20000010321E+02 0.  0.
         12    1    1    2    0    0  0.18603910134E+02  0.39005171686E+02 -0.40142479815E+01  0.43400726692E+02  0.00000000000E+00 0. -1.
         11    1    3    3    0    0  0.18768840468E+01 -0.63668190570E+01  0.35128736404E+01  0.75099507391E+01  0.51100000000E-03 0. -1.
        -11    1    3    3    0    0 -0.13708304746E+02 -0.26339197818E+02 -0.40519980582E+01  0.29968143907E+02  0.51100000000E-03 0.  1.
         12    1    3    3    0    0 -0.67724894349E+01 -0.62991548112E+01  0.45533723993E+01  0.10309178662E+02  0.00000000000E+00 0. -1.
</event>
<event>
 7    1  0.2476315E-009  0.4778728E+02  0.7816164E-02  0.1312668E+00
        -11   -1    0    0    0    0  0.00000000000E+00  0.00000000000E+00  0.45593999997E+02  0.45594000000E+02  0.51100000000E-03 0. -1.
         11   -1    0    0    0    0 -0.00000000000E+00 -0.00000000000E+00 -0.45593999997E+02  0.45594000000E+02  0.51100000000E-03 0.  1.
    9900012    2    1    2    0    0  0.14734678860E+02 -0.20234748510E+02 -0.35455139484E+02  0.47787277377E+02  0.20000028874E+02 0.  0.
         12    1    1    2    0    0 -0.14734678860E+02  0.20234748510E+02  0.35455139484E+02  0.43400722623E+02  0.00000000000E+00 0. -1.
         11    1    3    3    0    0  0.60682499030E+01 -0.19651056477E+01 -0.13309719862E+02  0.14759198493E+02  0.51100000000E-03 0. -1.
        -11    1    3    3    0    0 -0.24823853582E+01 -0.91216748673E+01 -0.52454842139E+01  0.10811211512E+02  0.51100000000E-03 0.  1.
        -12    1    3    3    0    0  0.11148814315E+02 -0.91479679949E+01 -0.16899935408E+02  0.22216867373E+02  0.00000000000E+00 0.  1.
</event>
<event>
 7    1  0.2476315E-009  0.4778727E+02  0.7816164E-02  0.1312668E+00
        -11   -1    0    0    0    0  0.00000000000E+00  0.00000000000E+00  0.45593999997E+02  0.45594000000E+02  0.51100000000E-03 0. -1.
         11   -1    0    0    0    0 -0.00000000000E+00 -0.00000000000E+00 -0.45593999997E+02  0.45594000000E+02  0.51100000000E-03 0.  1.
    9900012    2    1    2    0    0  0.30225185296E+02 -0.77325202033E+01 -0.30170672130E+02  0.47787272453E+02  0.20000006421E+02 0.  0.
         12    1    1    2    0    0 -0.30225185296E+02  0.77325202033E+01  0.30170672130E+02  0.43400727547E+02  0.00000000000E+00 0. -1.
         11    1    3    3    0    0  0.48770569239E+01 -0.49384828114E+01 -0.16108221933E+01  0.71252400041E+01  0.51100000000E-03 0. -1.
        -11    1    3    3    0    0  0.12402650422E+02 -0.82031499450E+01 -0.15808008708E+02  0.21702777382E+02  0.51100000000E-03 0.  1.
        -12    1    3    3    0    0  0.12945477950E+02  0.54091125531E+01 -0.12751841229E+02  0.18959255067E+02  0.00000000000E+00 0.  1.
</event>
<event>
 7    1  0.2476315E-009  0.4778727E+02  0.7816164E-02  0.1312668E+00
        -11   -1    0    0    0    0  0.00000000000E+00  0.00000000000E+00  0.45593999997E+02  0.45594000000E+02  0.51100000000E-03 0.  1.
         11   -1    0    0    0    0 -0.00000000000E+00 -0.00000000000E+00 -0.45593999997E+02  0.45594000000E+02  0.51100000000E-03 0. -1.
    9900012    2    1    2    0    0 -0.14077115928E+02 -0.39317977724E+02 -0.11813325378E+02  0.47787271646E+02  0.20000002742E+02 0.  0.
         12    1    1    2    0    0  0.14077115928E+02  0.39317977724E+02  0.11813325378E+02  0.43400728354E+02  0.00000000000E+00 0. -1.
         11    1    3    3    0    0 -0.26426872083E+01  0.48669347215E+00  0.74339218497E+00  0.27880635607E+01  0.51100000000E-03 0. -1.
        -11    1    3    3    0    0 -0.44437232105E+01 -0.33498872069E+02 -0.10100745258E+02  0.35269620935E+02  0.51100000000E-03 0.  1.
        -12    1    3    3    0    0 -0.69907055094E+01 -0.63057991278E+01 -0.24559723046E+01  0.97295871506E+01  0.00000000000E+00 0.  1.
</event>
<event>
 7    1  0.2476315E-009  0.4778727E+02  0.7816164E-02  0.1312668E+00
        -11   -1    0    0    0    0  0.00000000000E+00  0.00000000000E+00  0.45593999997E+02  0.45594000000E+02  0.51100000000E-03 0. -1.
         11   -1    0    0    0    0 -0.00000000000E+00 -0.00000000000E+00 -0.45593999997E+02  0.45594000000E+02  0.51100000000E-03 0.  1.
    9900012    2    1    2    0    0  0.22599404634E+02 -0.29088653614E+01 -0.36938176517E+02  0.47787268763E+02  0.19999989598E+02 0.  0.
         12    1    1    2    0    0 -0.22599404634E+02  0.29088653614E+01  0.36938176517E+02  0.43400731237E+02  0.00000000000E+00 0. -1.
         11    1    3    3    0    0  0.20826880738E+02 -0.37266432256E+01 -0.20634918972E+02  0.29554131898E+02  0.51100000000E-03 0. -1.
        -11    1    3    3    0    0  0.35683768169E+01 -0.45660475333E+00 -0.15463378435E+02  0.15876330618E+02  0.51100000000E-03 0.  1.
         12    1    3    3    0    0 -0.17958529205E+01  0.12743826175E+01 -0.83987911044E+00  0.23568062474E+01  0.00000000000E+00 0. -1.
</event>
<event>
 7    1  0.2476315E-009  0.4778727E+02  0.7816164E-02  0.1312668E+00
        -11   -1    0    0    0    0  0.00000000000E+00  0.00000000000E+00  0.45593999997E+02  0.45594000000E+02  0.51100000000E-03 0.  1.
         11   -1    0    0    0    0 -0.00000000000E+00 -0.00000000000E+00 -0.45593999997E+02  0.45594000000E+02  0.51100000000E-03 0. -1.
    9900012    2    1    2    0    0 -0.16181309822E+02 -0.15439310741E+00  0.40271142886E+02  0.47787267586E+02  0.19999984230E+02 0.  0.
         12    1    1    2    0    0  0.16181309822E+02  0.15439310741E+00 -0.40271142886E+02  0.43400732414E+02  0.00000000000E+00 0. -1.
         11    1    3    3    0    0  0.40650131485E+01  0.17921951861E+01  0.76541641072E+01  0.88500013517E+01  0.51100000000E-03 0. -1.
        -11    1    3    3    0    0 -0.14497103032E+02 -0.38097126229E+01  0.25701640088E+02  0.29753221844E+02  0.51100000000E-03 0.  1.
         12    1    3    3    0    0 -0.57492199378E+01  0.18631243293E+01  0.69153386906E+01  0.91840443905E+01  0.00000000000E+00 0. -1.
</event>
<event>
 7    1  0.2476315E-009  0.4778727E+02  0.7816164E-02  0.1312668E+00
        -11   -1    0    0    0    0  0.00000000000E+00  0.00000000000E+00  0.45593999997E+02  0.45594000000E+02  0.51100000000E-03 0. -1.
         11   -1    0    0    0    0 -0.00000000000E+00 -0.00000000000E+00 -0.45593999997E+02  0.45594000000E+02  0.51100000000E-03 0.  1.
    9900012    2    1    2    0    0  0.33953500304E+02 -0.36313611198E+01 -0.26787989372E+02  0.47787270270E+02  0.19999996469E+02 0.  0.
         12    1    1    2    0    0 -0.33953500304E+02  0.36313611198E+01  0.26787989372E+02  0.43400729730E+02  0.00000000000E+00 0. -1.
         11    1    3    3    0    0  0.54197473997E+00 -0.34905962759E+01 -0.55376892224E+01  0.65684093329E+01  0.51100000000E-03 0. -1.
        -11    1    3    3    0    0  0.32319556595E+02 -0.27247487828E+01 -0.18766943615E+02  0.37472338696E+02  0.51100000000E-03 0.  1.
        -12    1    3    3    0    0  0.10919689692E+01  0.25839839388E+01 -0.24833565342E+01  0.37465222409E+01  0.00000000000E+00 0.  1.
</event>
<event>
 7    1  0.2476315E-009  0.4778727E+02  0.7816164E-02  0.1312668E+00
        -11   -1    0    0    0    0  0.00000000000E+00  0.00000000000E+00  0.45593999997E+02  0.45594000000E+02  0.51100000000E-03 0.  1.
         11   -1    0    0    0    0 -0.00000000000E+00 -0.00000000000E+00 -0.45593999997E+02  0.45594000000E+02  0.51100000000E-03 0. -1.
    9900012    2    1    2    0    0  0.53079304057E+01  0.29622520901E+02  0.31272283415E+02  0.47787267521E+02  0.19999983937E+02 0.  0.
         12    1    1    2    0    0 -0.53079304057E+01 -0.29622520901E+02 -0.31272283415E+02  0.43400732479E+02  0.00000000000E+00 0. -1.
         11    1    3    3    0    0  0.21248908042E+01 -0.21696926911E+01  0.48493796114E+01  0.57218187825E+01  0.51100000000E-03 0. -1.
        -11    1    3    3    0    0  0.21472093989E+01  0.27733015925E+02  0.25585083375E+02  0.37793215954E+02  0.51100000000E-03 0.  1.
         12    1    3    3    0    0  0.10358302026E+01  0.40591976662E+01  0.83782042817E+00  0.42722327853E+01  0.00000000000E+00 0. -1.
</event>
<event>
 7    1  0.2476315E-009  0.4778728E+02  0.7816164E-02  0.1312668E+00
        -11   -1    0    0    0    0  0.00000000000E+00  0.00000000000E+00  0.45593999997E+02  0.45594000000E+02  0.51100000000E-03 0.  1.
         11   -1    0    0    0    0 -0.00000000000E+00 -0.00000000000E+00 -0.45593999997E+02  0.45594000000E+02  0.51100000000E-03 0. -1.
    9900012    2    1    2    0    0  0.33257419805E+02  0.24206639661E+02  0.13842152323E+02  0.47787279307E+02  0.20000037672E+02 0.  0.
         12    1    1    2    0    0 -0.33257419805E+02 -0.24206639661E+02 -0.13842152323E+02  0.43400720693E+02  0.00000000000E+00 0. -1.
         11    1    3    3    0    0  0.13902984942E+02  0.20150596355E+02  0.22529417774E+01  0.24584858565E+02  0.51100000000E-03 0. -1.
        -11    1    3    3    0    0  0.81462493959E+01  0.12068596456E+01  0.68216537843E+01  0.10693589203E+02  0.51100000000E-03 0.  1.
         12    1    3    3    0    0  0.11208185467E+02  0.28491836601E+01  0.47675567615E+01  0.12508831539E+02  0.00000000000E+00 0. -1.
</event>
<event>
 7    1  0.2476315E-009  0.4778728E+02  0.7816164E-02  0.1312668E+00
        -11   -1    0    0    0    0  0.00000000000E+00  0.00000000000E+00  0.45593999997E+02  0.45594000000E+02  0.51100000000E-03 0.  1.
         11   -1    0    0    0    0 -0.00000000000E+00 -0.00000000000E+00 -0.45593999997E+02  0.45594000000E+02  0.51100000000E-03 0. -1.
    9900012    2    1    2    0    0 -0.61291493462E+01 -0.23000253478E+01  0.42904152103E+02  0.47787275859E+02  0.20000021951E+02 0.  0.
         12    1    1    2    0    0  0.61291493462E+01  0.23000253478E+01 -0.42904152103E+02  0.43400724141E+02  0.00000000000E+00 0. -1.
         11    1    3    3    0    0 -0.13368635978E+01 -0.43314880918E+01  0.74402935482E+01  0.87124601413E+01  0.51100000000E-03 0. -1.
        -11    1    3    3    0    0  0.56442805487E+01 -0.11823356315E+00  0.14450847504E+02  0.15514473112E+02  0.51100000000E-03 0.  1.
        -12    1    3    3    0    0 -0.10436566297E+02  0.21496963072E+01  0.21013011051E+02  0.23560342606E+02  0.00000000000E+00 0.  1.
</event>
<event>
 7    1  0.2476315E-009  0.4778726E+02  0.7816164E-02  0.1312668E+00
        -11   -1    0    0    0    0  0.00000000000E+00  0.00000000000E+00  0.45593999997E+02  0.45594000000E+02  0.51100000000E-03 0.  1.
         11   -1    0    0    0    0 -0.00000000000E+00 -0.00000000000E+00 -0.45593999997E+02  0.45594000000E+02  0.51100000000E-03 0. -1.
    9900012    2    1    2    0    0 -0.37953995140E+02 -0.72825263097E+01  0.19750532142E+02  0.47787257420E+02  0.19999937883E+02 0.  0.
         12    1    1    2    0    0  0.37953995140E+02  0.72825263097E+01 -0.19750532142E+02  0.43400742580E+02  0.00000000000E+00 0. -1.
         11    1    3    3    0    0 -0.23010401473E+02 -0.11722200357E+02  0.55313014292E+01  0.26409919594E+02  0.51100000000E-03 0. -1.
        -11    1    3    3    0    0 -0.43283841587E+01 -0.22344218291E+00  0.32605427957E+01  0.54236496400E+01  0.51100000000E-03 0.  1.
         12    1    3    3    0    0 -0.10615209508E+02  0.46631162307E+01  0.10958687918E+02  0.15953688187E+02  0.00000000000E+00 0. -1.
</event>
<event>
 7    1  0.2476315E-009  0.4778727E+02  0.7816164E-02  0.1312668E+00
        -11   -1    0    0    0    0  0.00000000000E+00  0.00000000000E+00  0.45593999997E+02  0.45594000000E+02  0.51100000000E-03 0. -1.
         11   -1    0    0    0    0 -0.00000000000E+00 -0.00000000000E+00 -0.45593999997E+02  0.45594000000E+02  0.51100000000E-03 0.  1.
    9900012    2    1    2    0    0 -0.33581963064E+02  0.11003006840E+02 -0.25195417928E+02  0.47787268585E+02  0.19999988788E+02 0.  0.
         12    1    1    2    0    0  0.33581963064E+02 -0.11003006840E+02  0.25195417928E+02  0.43400731415E+02  0.00000000000E+00 0. -1.
         11    1    3    3    0    0 -0.81276601779E+01  0.12254126633E+02 -0.86504799853E+01  0.17060283812E+02  0.51100000000E-03 0. -1.
        -11    1    3    3    0    0 -0.11141793452E+02 -0.19248517681E+01 -0.51716445727E+01  0.12433443751E+02  0.51100000000E-03 0.  1.
         12    1    3    3    0    0 -0.14312509433E+02  0.67373197558E+00 -0.11373293370E+02  0.18293541023E+02  0.00000000000E+00 0. -1.
</event>
<event>
 7    1  0.2476315E-009  0.4778727E+02  0.7816164E-02  0.1312668E+00
        -11   -1    0    0    0    0  0.00000000000E+00  0.00000000000E+00  0.45593999997E+02  0.45594000000E+02  0.51100000000E-03 0.  1.
         11   -1    0    0    0    0 -0.00000000000E+00 -0.00000000000E+00 -0.45593999997E+02  0.45594000000E+02  0.51100000000E-03 0. -1.
    9900012    2    1    2    0    0  0.28730723968E+02  0.22429757567E+02  0.23560025029E+02  0.47787270702E+02  0.19999998437E+02 0.  0.
         12    1    1    2    0    0 -0.28730723968E+02 -0.22429757567E+02 -0.23560025029E+02  0.43400729298E+02  0.00000000000E+00 0. -1.
         11    1    3    3    0    0 -0.16386657507E+01  0.94643406089E+00  0.32513422693E+00  0.19200717176E+01  0.51100000000E-03 0. -1.
        -11    1    3    3    0    0  0.29654941843E+02  0.23130413008E+02  0.22924996484E+02  0.44045284034E+02  0.51100000000E-03 0.  1.
        -12    1    3    3    0    0  0.71444787662E+00 -0.16470895022E+01  0.30989431895E+00  0.18219149501E+01  0.00000000000E+00 0.  1.
</event>
<event>
 7    1  0.2476315E-009  0.4778727E+02  0.7816164E-02  0.1312668E+00
        -11   -1    0    0    0    0  0.00000000000E+00  0.00000000000E+00  0.45593999997E+02  0.45594000000E+02  0.51100000000E-03 0.  1.
         11   -1    0    0    0    0 -0.00000000000E+00 -0.00000000000E+00 -0.45593999997E+02  0.45594000000E+02  0.51100000000E-03 0. -1.
    9900012    2    1    2    0    0  0.28729524745E+02  0.30449273698E+02  0.11449003336E+02  0.47787267999E+02  0.19999986114E+02 0.  0.
         12    1    1    2    0    0 -0.28729524745E+02 -0.30449273698E+02 -0.11449003336E+02  0.43400732001E+02  0.00000000000E+00 0. -1.
         11    1    3    3    0    0  0.19052630276E+02  0.24964562335E+02  0.14275572001E+01  0.31436762124E+02  0.51100000000E-03 0. -1.
        -11    1    3    3    0    0  0.68580274255E+01  0.53253019601E+01  0.37213317485E+01  0.94466762080E+01  0.51100000000E-03 0.  1.
         12    1    3    3    0    0  0.28188670443E+01  0.15940940256E+00  0.63001143879E+01  0.69038296670E+01  0.00000000000E+00 0. -1.
</event>
<event>
 7    1  0.2476315E-009  0.4778727E+02  0.7816164E-02  0.1312668E+00
        -11   -1    0    0    0    0  0.00000000000E+00  0.00000000000E+00  0.45593999997E+02  0.45594000000E+02  0.51100000000E-03 0. -1.
         11   -1    0    0    0    0 -0.00000000000E+00 -0.00000000000E+00 -0.45593999997E+02  0.45594000000E+02  0.51100000000E-03 0.  1.
    9900012    2    1    2    0    0 -0.25760085169E+02  0.98096396852E+01 -0.33523311694E+02  0.47787269066E+02  0.19999990979E+02 0.  0.
         12    1    1    2    0    0  0.25760085169E+02 -0.98096396852E+01  0.33523311694E+02  0.43400730934E+02  0.00000000000E+00 0. -1.
         11    1    3    3    0    0 -0.21123319469E+02  0.11983909576E+02 -0.18613962359E+02  0.30598828558E+02  0.51100000000E-03 0. -1.
        -11    1    3    3    0    0 -0.41954473584E+01 -0.40393807513E+01 -0.13788846064E+02  0.14968321597E+02  0.51100000000E-03 0.  1.
        -12    1    3    3    0    0 -0.44131834128E+00  0.18651108607E+01 -0.11205032705E+01  0.22201189113E+01  0.00000000000E+00 0.  1.
</event>
<event>
 7    1  0.2476315E-009  0.4778725E+02  0.7816164E-02  0.1312668E+00
        -11   -1    0    0    0    0  0.00000000000E+00  0.00000000000E+00  0.45593999997E+02  0.45594000000E+02  0.51100000000E-03 0.  1.
         11   -1    0    0    0    0 -0.00000000000E+00 -0.00000000000E+00 -0.45593999997E+02  0.45594000000E+02  0.51100000000E-03 0. -1.
    9900012    2    1    2    0    0 -0.29644271695E+02  0.30597489650E+02 -0.82846689162E+01  0.47787251662E+02  0.19999911629E+02 0.  0.
         12    1    1    2    0    0  0.29644271695E+02 -0.30597489650E+02  0.82846689162E+01  0.43400748338E+02  0.00000000000E+00 0. -1.
         11    1    3    3    0    0 -0.51488051747E+01  0.11062311677E+02 -0.14342926299E+01  0.12285850804E+02  0.51100000000E-03 0. -1.
        -11    1    3    3    0    0 -0.23212367713E+02  0.21625141542E+02 -0.81092238631E+01  0.32744774751E+02  0.51100000000E-03 0.  1.
        -12    1    3    3    0    0 -0.12830988075E+01 -0.20899635698E+01  0.12588475768E+01  0.27566261072E+01  0.00000000000E+00 0.  1.
</event>
<event>
 7    1  0.2476315E-009  0.4778727E+02  0.7816164E-02  0.1312668E+00
        -11   -1    0    0    0    0  0.00000000000E+00  0.00000000000E+00  0.45593999997E+02  0.45594000000E+02  0.51100000000E-03 0.  1.
         11   -1    0    0    0    0 -0.00000000000E+00 -0.00000000000E+00 -0.45593999997E+02  0.45594000000E+02  0.51100000000E-03 0. -1.
    9900012    2    1    2    0    0 -0.22383066961E+02  0.89290924625E+00  0.37172895185E+02  0.47787272933E+02  0.20000008610E+02 0.  0.
         12    1    1    2    0    0  0.22383066961E+02 -0.89290924625E+00 -0.37172895185E+02  0.43400727067E+02  0.00000000000E+00 0. -1.
         11    1    3    3    0    0  0.14884994497E+00  0.47012055078E+01  0.47719136141E+01  0.67003469563E+01  0.51100000000E-03 0. -1.
        -11    1    3    3    0    0 -0.17633540884E+02 -0.51676359753E+01  0.30601168217E+02  0.35694225334E+02  0.51100000000E-03 0.  1.
        -12    1    3    3    0    0 -0.48983760222E+01  0.13593397138E+01  0.17998133543E+01  0.53927006428E+01  0.00000000000E+00 0.  1.
</event>
<event>
 7    1  0.2476315E-009  0.4778725E+02  0.7816164E-02  0.1312668E+00
        -11   -1    0    0    0    0  0.00000000000E+00  0.00000000000E+00  0.45593999997E+02  0.45594000000E+02  0.51100000000E-03 0. -1.
         11   -1    0    0    0    0 -0.00000000000E+00 -0.00000000000E+00 -0.45593999997E+02  0.45594000000E+02  0.51100000000E-03 0.  1.
    9900012    2    1    2    0    0  0.36904816683E+02  0.66618168993E+01 -0.21846726364E+02  0.47787254020E+02  0.19999922379E+02 0.  0.
         12    1    1    2    0    0 -0.36904816683E+02 -0.66618168993E+01  0.21846726364E+02  0.43400745980E+02  0.00000000000E+00 0. -1.
         11    1    3    3    0    0 -0.89994740739E+00 -0.24333607335E+01 -0.33298194316E+00  0.26157268648E+01  0.51100000000E-03 0. -1.
        -11    1    3    3    0    0  0.20183682552E+02  0.72852842903E+01 -0.15476806326E+02  0.26457285251E+02  0.51100000000E-03 0.  1.
         12    1    3    3    0    0  0.17621081538E+02  0.18098933426E+01 -0.60369380954E+01  0.18714241904E+02  0.00000000000E+00 0. -1.
</event>
<event>
 7    1  0.2476315E-009  0.4778727E+02  0.7816164E-02  0.1312668E+00
        -11   -1    0    0    0    0  0.00000000000E+00  0.00000000000E+00  0.45593999997E+02  0.45594000000E+02  0.51100000000E-03 0. -1.
         11   -1    0    0    0    0 -0.00000000000E+00 -0.00000000000E+00 -0.45593999997E+02  0.45594000000E+02  0.51100000000E-03 0.  1.
    9900012    2    1    2    0    0 -0.41489496555E+02 -0.78236611551E+01 -0.10051617865E+02  0.47787273970E+02  0.20000013339E+02 0.  0.
         12    1    1    2    0    0  0.41489496555E+02  0.78236611551E+01  0.10051617865E+02  0.43400726030E+02  0.00000000000E+00 0. -1.
         11    1    3    3    0    0 -0.11097212391E+02  0.52591453049E+01 -0.74299830258E+01  0.14353096538E+02  0.51100000000E-03 0. -1.
        -11    1    3    3    0    0 -0.23911375136E+02 -0.99288238898E+01 -0.40715482220E+00  0.25894037538E+02  0.51100000000E-03 0.  1.
         12    1    3    3    0    0 -0.64809090276E+01 -0.31539825702E+01 -0.22144800172E+01  0.75401398942E+01  0.00000000000E+00 0. -1.
</event>
<event>
 7    1  0.2476315E-009  0.4778727E+02  0.7816164E-02  0.1312668E+00
        -11   -1    0    0    0    0  0.00000000000E+00  0.00000000000E+00  0.45593999997E+02  0.45594000000E+02  0.51100000000E-03 0.  1.
         11   -1    0    0    0    0 -0.00000000000E+00 -0.00000000000E+00 -0.45593999997E+02  0.45594000000E+02  0.51100000000E-03 0. -1.
    9900012    2    1    2    0    0 -0.35595173365E+02 -0.12177286667E+02  0.21640727999E+02  0.47787265147E+02  0.19999973110E+02 0.  0.
         12    1    1    2    0    0  0.35595173365E+02  0.12177286667E+02 -0.21640727999E+02  0.43400734853E+02  0.00000000000E+00 0. -1.
         11    1    3    3    0    0 -0.93218041314E+01 -0.92584463104E+01  0.33570691076E+01  0.13560412000E+02  0.51100000000E-03 0. -1.
        -11    1    3    3    0    0 -0.20813948759E+02  0.22980330954E+01  0.10664404570E+02  0.23499594553E+02  0.51100000000E-03 0.  1.
        -12    1    3    3    0    0 -0.54594204749E+01 -0.52168734524E+01  0.76192543211E+01  0.10727258594E+02  0.00000000000E+00 0.  1.
</event>
<event>
 7    1  0.2476315E-009  0.4778727E+02  0.7816164E-02  0.1312668E+00
        -11   -1    0    0    0    0  0.00000000000E+00  0.00000000000E+00  0.45593999997E+02  0.45594000000E+02  0.51100000000E-03 0.  1.
         11   -1    0    0    0    0 -0.00000000000E+00 -0.00000000000E+00 -0.45593999997E+02  0.45594000000E+02  0.51100000000E-03 0. -1.
    9900012    2    1    2    0    0 -0.19806463075E+02  0.20485744736E+02  0.32736243083E+02  0.47787270419E+02  0.19999997148E+02 0.  0.
         12    1    1    2    0    0  0.19806463075E+02 -0.20485744736E+02 -0.32736243083E+02  0.43400729581E+02  0.00000000000E+00 0. -1.
         11    1    3    3    0    0 -0.33068216294E+00  0.67726282915E+01  0.27894997722E+01  0.73320634141E+01  0.51100000000E-03 0. -1.
        -11    1    3    3    0    0 -0.66868555572E+01  0.69121508176E+01  0.33756737021E+01  0.10192499172E+02  0.51100000000E-03 0.  1.
         12    1    3    3    0    0 -0.12788925355E+02  0.68009656272E+01  0.26571069609E+02  0.30262707833E+02  0.00000000000E+00 0. -1.
</event>
<event>
 7    1  0.2476315E-009  0.4778723E+02  0.7816164E-02  0.1312668E+00
        -11   -1    0    0    0    0  0.00000000000E+00  0.00000000000E+00  0.45593999997E+02  0.45594000000E+02  0.51100000000E-03 0.  1.
         11   -1    0    0    0    0 -0.00000000000E+00 -0.00000000000E+00 -0.45593999997E+02  0.45594000000E+02  0.51100000000E-03 0. -1.
    9900012    2    1    2    0    0 -0.13852917904E+02 -0.31698105252E+02  0.26209798322E+02  0.47787231123E+02  0.19999817983E+02 0.  0.
         12    1    1    2    0    0  0.13852917904E+02  0.31698105252E+02 -0.26209798322E+02  0.43400768877E+02  0.00000000000E+00 0. -1.
         11    1    3    3    0    0 -0.38801693570E+00 -0.17696088099E+02  0.60604308693E+01  0.18709113120E+02  0.51100000000E-03 0. -1.
        -11    1    3    3    0    0 -0.83412779218E+01 -0.12101484374E+02  0.17919080733E+02  0.23175769588E+02  0.51100000000E-03 0.  1.
        -12    1    3    3    0    0 -0.51236230462E+01 -0.19005327790E+01  0.22302867197E+01  0.59023484153E+01  0.00000000000E+00 0.  1.
</event>
<event>
 7    1  0.2476315E-009  0.4778730E+02  0.7816164E-02  0.1312668E+00
        -11   -1    0    0    0    0  0.00000000000E+00  0.00000000000E+00  0.45593999997E+02  0.45594000000E+02  0.51100000000E-03 0.  1.
         11   -1    0    0    0    0 -0.00000000000E+00 -0.00000000000E+00 -0.45593999997E+02  0.45594000000E+02  0.51100000000E-03 0. -1.
    9900012    2    1    2    0    0 -0.88853318107E+01  0.18296821053E+02  0.38339248324E+02  0.47787300189E+02  0.20000132881E+02 0.  0.
         12    1    1    2    0    0  0.88853318107E+01 -0.18296821053E+02 -0.38339248324E+02  0.43400699811E+02  0.00000000000E+00 0. -1.
         11    1    3    3    0    0 -0.18300284131E+01  0.23845846303E+01  0.18039907184E+01  0.35056569462E+01  0.51100000000E-03 0. -1.
        -11    1    3    3    0    0  0.34127002862E+01  0.10785246432E+01  0.10794763084E+00  0.35806970831E+01  0.51100000000E-03 0.  1.
        -12    1    3    3    0    0 -0.10468003684E+02  0.14833711779E+02  0.36427309975E+02  0.40700946160E+02  0.00000000000E+00 0.  1.
</event>
<event>
 7    1  0.2476315E-009  0.4778727E+02  0.7816164E-02  0.1312668E+00
        -11   -1    0    0    0    0  0.00000000000E+00  0.00000000000E+00  0.45593999997E+02  0.45594000000E+02  0.51100000000E-03 0. -1.
         11   -1    0    0    0    0 -0.00000000000E+00 -0.00000000000E+00 -0.45593999997E+02  0.45594000000E+02  0.51100000000E-03 0.  1.
    9900012    2    1    2    0    0  0.18317223386E+02  0.37379503427E+02 -0.12283121686E+02  0.47787273884E+02  0.20000012948E+02 0.  0.
         12    1    1    2    0    0 -0.18317223386E+02 -0.37379503427E+02  0.12283121686E+02  0.43400726116E+02  0.00000000000E+00 0. -1.
         11    1    3    3    0    0  0.30092443821E+00  0.13787342267E+02 -0.12149511672E+01  0.13844040917E+02  0.51100000000E-03 0. -1.
        -11    1    3    3    0    0  0.12408548204E+02  0.15019108300E+02 -0.13130161099E+02  0.23493548337E+02  0.51100000000E-03 0.  1.
        -12    1    3    3    0    0  0.56077507429E+01  0.85730528596E+01  0.20619905806E+01  0.10449684631E+02  0.00000000000E+00 0.  1.
</event>
<event>
 7    1  0.2476315E-009  0.4778727E+02  0.7816164E-02  0.1312668E+00
        -11   -1    0    0    0    0  0.00000000000E+00  0.00000000000E+00  0.45593999997E+02  0.45594000000E+02  0.51100000000E-03 0.  1.
         11   -1    0    0    0    0 -0.00000000000E+00 -0.00000000000E+00 -0.45593999997E+02  0.45594000000E+02  0.51100000000E-03 0. -1.
    9900012    2    1    2    0    0 -0.32397008006E+01  0.17821294880E+02  0.39440195732E+02  0.47787271298E+02  0.20000001157E+02 0.  0.
         12    1    1    2    0    0  0.32397008006E+01 -0.17821294880E+02 -0.39440195732E+02  0.43400728702E+02  0.00000000000E+00 0. -1.
         11    1    3    3    0    0 -0.33641883871E+01 -0.15089106035E+01  0.15413834847E+02  0.15848687001E+02  0.51100000000E-03 0. -1.
        -11    1    3    3    0    0 -0.11910108372E+01  0.44100405114E+01  0.11633784171E+02  0.12498475848E+02  0.51100000000E-03 0.  1.
         12    1    3    3    0    0  0.13154984237E+01  0.14920164972E+02  0.12392576715E+02  0.19440108449E+02  0.00000000000E+00 0. -1.
</event>
<event>
 7    1  0.2476315E-009  0.4778727E+02  0.7816164E-02  0.1312668E+00
        -11   -1    0    0    0    0  0.00000000000E+00  0.00000000000E+00  0.45593999997E+02  0.45594000000E+02  0.51100000000E-03 0.  1.
         11   -1    0    0    0    0 -0.00000000000E+00 -0.00000000000E+00 -0.45593999997E+02  0.45594000000E+02  0.51100000000E-03 0. -1.
    9900012    2    1    2    0    0 -0.18397045426E+02 -0.38026983757E+02  0.99559216886E+01  0.47787272463E+02  0.20000006466E+02 0.  0.
         12    1    1    2    0    0  0.18397045426E+02  0.38026983757E+02 -0.99559216886E+01  0.43400727537E+02  0.00000000000E+00 0. -1.
         11    1    3    3    0    0 -0.50843757222E+01 -0.20440716731E+02  0.90105105766E+01  0.22909890399E+02  0.51100000000E-03 0. -1.
        -11    1    3    3    0    0 -0.71817109275E+01 -0.10796345363E+02  0.61509483488E+01  0.14351731982E+02  0.51100000000E-03 0.  1.
         12    1    3    3    0    0 -0.61309587767E+01 -0.67899216633E+01 -0.52055372368E+01  0.10525650082E+02  0.00000000000E+00 0. -1.
</event>
<event>
 7    1  0.2476315E-009  0.4778727E+02  0.7816164E-02  0.1312668E+00
        -11   -1    0    0    0    0  0.00000000000E+00  0.00000000000E+00  0.45593999997E+02  0.45594000000E+02  0.51100000000E-03 0.  1.
         11   -1    0    0    0    0 -0.00000000000E+00 -0.00000000000E+00 -0.45593999997E+02  0.45594000000E+02  0.51100000000E-03 0. -1.
    9900012    2    1    2    0    0  0.41591943739E+02 -0.10706798059E+01  0.12352610139E+02  0.47787272857E+02  0.20000008266E+02 0.  0.
         12    1    1    2    0    0 -0.41591943739E+02  0.10706798059E+01 -0.12352610139E+02  0.43400727143E+02  0.00000000000E+00 0. -1.
         11    1    3    3    0    0  0.29371621268E+02  0.26708750220E+01  0.11154516807E+02  0.31531713476E+02  0.51100000000E-03 0. -1.
        -11    1    3    3    0    0  0.55306282861E+01 -0.57521350317E+01  0.37523833345E+01  0.88178958721E+01  0.51100000000E-03 0.  1.
        -12    1    3    3    0    0  0.66896941856E+01  0.20105802038E+01 -0.25542900031E+01  0.74376635090E+01  0.00000000000E+00 0.  1.
</event>
<event>
 7    1  0.2476315E-009  0.4778727E+02  0.7816164E-02  0.1312668E+00
        -11   -1    0    0    0    0  0.00000000000E+00  0.00000000000E+00  0.45593999997E+02  0.45594000000E+02  0.51100000000E-03 0.  1.
         11   -1    0    0    0    0 -0.00000000000E+00 -0.00000000000E+00 -0.45593999997E+02  0.45594000000E+02  0.51100000000E-03 0. -1.
    9900012    2    1    2    0    0 -0.30248013505E+02  0.15553603347E+02  0.26958607742E+02  0.47787269252E+02  0.19999991827E+02 0.  0.
         12    1    1    2    0    0  0.30248013505E+02 -0.15553603347E+02 -0.26958607742E+02  0.43400730748E+02  0.00000000000E+00 0. -1.
         11    1    3    3    0    0  0.89663419642E+00 -0.23535089078E+01  0.15207268653E+01  0.29420345887E+01  0.51100000000E-03 0. -1.
        -11    1    3    3    0    0 -0.30026731539E+02  0.15151888006E+02  0.21526991134E+02  0.39932388666E+02  0.51100000000E-03 0.  1.
         12    1    3    3    0    0 -0.11179161624E+01  0.27552242491E+01  0.39108897431E+01  0.49128459972E+01  0.00000000000E+00 0. -1.
</event>
<event>
 7    1  0.2476315E-009  0.4778727E+02  0.7816164E-02  0.1312668E+00
        -11   -1    0    0    0    0  0.00000000000E+00  0.00000000000E+00  0.45593999997E+02  0.45594000000E+02  0.51100000000E-03 0.  1.
         11   -1    0    0    0    0 -0.00000000000E+00 -0.00000000000E+00 -0.45593999997E+02  0.45594000000E+02  0.51100000000E-03 0. -1.
    9900012    2    1    2    0    0 -0.24225824365E+02 -0.33221660036E+02  0.13894380233E+02  0.47787273465E+02  0.20000011035E+02 0.  0.
         12    1    1    2    0    0  0.24225824365E+02  0.33221660036E+02 -0.13894380233E+02  0.43400726535E+02  0.00000000000E+00 0. -1.
         11    1    3    3    0    0 -0.60753938941E+01 -0.30054038383E+01 -0.30537221955E+01  0.74342506487E+01  0.51100000000E-03 0. -1.
        -11    1    3    3    0    0 -0.10242684730E+02 -0.12940094543E+02  0.12850208704E+02  0.20916177979E+02  0.51100000000E-03 0.  1.
        -12    1    3    3    0    0 -0.79077457411E+01 -0.17276161655E+02  0.40978937247E+01  0.19436844837E+02  0.00000000000E+00 0.  1.
</event>
<event>
 7    1  0.2476315E-009  0.4778727E+02  0.7816164E-02  0.1312668E+00
        -11   -1    0    0    0    0  0.00000000000E+00  0.00000000000E+00  0.45593999997E+02  0.45594000000E+02  0.51100000000E-03 0.  1.
         11   -1    0    0    0    0 -0.00000000000E+00 -0.00000000000E+00 -0.45593999997E+02  0.45594000000E+02  0.51100000000E-03 0. -1.
    9900012    2    1    2    0    0 -0.42539405005E+02  0.36005845026E+01  0.78139772589E+01  0.47787269274E+02  0.19999991928E+02 0.  0.
         12    1    1    2    0    0  0.42539405005E+02 -0.36005845026E+01 -0.78139772589E+01  0.43400730726E+02  0.00000000000E+00 0. -1.
         11    1    3    3    0    0 -0.52994956883E+01  0.44942670654E+01  0.24301724869E+01  0.73613062416E+01  0.51100000000E-03 0. -1.
        -11    1    3    3    0    0 -0.87594573999E+01  0.37152996749E+01  0.65501000703E+01  0.11551422285E+02  0.51100000000E-03 0.  1.
         12    1    3    3    0    0 -0.28480451917E+02 -0.46089822377E+01 -0.11662952983E+01  0.28874540747E+02  0.00000000000E+00 0. -1.
</event>
<event>
 7    1  0.2476315E-009  0.4778727E+02  0.7816164E-02  0.1312668E+00
        -11   -1    0    0    0    0  0.00000000000E+00  0.00000000000E+00  0.45593999997E+02  0.45594000000E+02  0.51100000000E-03 0. -1.
         11   -1    0    0    0    0 -0.00000000000E+00 -0.00000000000E+00 -0.45593999997E+02  0.45594000000E+02  0.51100000000E-03 0.  1.
    9900012    2    1    2    0    0  0.20466712463E+02 -0.38230870564E+02 -0.17712194483E+01  0.47787274183E+02  0.20000014310E+02 0.  0.
         12    1    1    2    0    0 -0.20466712463E+02  0.38230870564E+02  0.17712194483E+01  0.43400725817E+02  0.00000000000E+00 0. -1.
         11    1    3    3    0    0  0.18459796319E+01 -0.78863096378E+01  0.38101590479E+00  0.81084335038E+01  0.51100000000E-03 0. -1.
        -11    1    3    3    0    0 -0.27420305606E+01 -0.70759095641E+01 -0.27878412175E+01  0.80845090556E+01  0.51100000000E-03 0.  1.
        -12    1    3    3    0    0  0.21362763392E+02 -0.23268651362E+02  0.63560586441E+00  0.31594331624E+02  0.00000000000E+00 0.  1.
</event>
<event>
 7    1  0.2476315E-009  0.4778727E+02  0.7816164E-02  0.1312668E+00
        -11   -1    0    0    0    0  0.00000000000E+00  0.00000000000E+00  0.45593999997E+02  0.45594000000E+02  0.51100000000E-03 0.  1.
         11   -1    0    0    0    0 -0.00000000000E+00 -0.00000000000E+00 -0.45593999997E+02  0.45594000000E+02  0.51100000000E-03 0. -1.
    9900012    2    1    2    0    0  0.42346464127E+02  0.77196481475E+01 -0.55504323693E+01  0.47787270846E+02  0.19999999095E+02 0.  0.
         12    1    1    2    0    0 -0.42346464127E+02 -0.77196481475E+01  0.55504323693E+01  0.43400729154E+02  0.00000000000E+00 0. -1.
         11    1    3    3    0    0  0.70789836343E+01  0.34929815423E+01 -0.65971804559E+01  0.10287648885E+02  0.51100000000E-03 0. -1.
        -11    1    3    3    0    0  0.34749056693E+02  0.30674770322E+01 -0.12154939973E+01  0.34905354637E+02  0.51100000000E-03 0.  1.
        -12    1    3    3    0    0  0.51842379974E+00  0.11591895730E+01  0.22622420839E+01  0.25942673240E+01  0.00000000000E+00 0.  1.
</event>
<event>
 7    1  0.2476315E-009  0.4778727E+02  0.7816164E-02  0.1312668E+00
        -11   -1    0    0    0    0  0.00000000000E+00  0.00000000000E+00  0.45593999997E+02  0.45594000000E+02  0.51100000000E-03 0.  1.
         11   -1    0    0    0    0 -0.00000000000E+00 -0.00000000000E+00 -0.45593999997E+02  0.45594000000E+02  0.51100000000E-03 0. -1.
    9900012    2    1    2    0    0 -0.39939852558E+01  0.38919774553E+02  0.18786235097E+02  0.47787269607E+02  0.19999993448E+02 0.  0.
         12    1    1    2    0    0  0.39939852558E+01 -0.38919774553E+02 -0.18786235097E+02  0.43400730393E+02  0.00000000000E+00 0. -1.
         11    1    3    3    0    0  0.38230796130E+00 -0.13202335608E+00 -0.83404211983E-01  0.41297223578E+00  0.51100000000E-03 0.  1.
        -11    1    3    3    0    0 -0.29642126183E+01  0.12601770804E+02 -0.26890873045E+01  0.13222041243E+02  0.51100000000E-03 0. -1.
        -12    1    3    3    0    0 -0.14120805988E+01  0.26450027105E+02  0.21558726613E+02  0.34152256129E+02  0.00000000000E+00 0.  1.
</event>
<event>
 7    1  0.2476315E-009  0.4778727E+02  0.7816164E-02  0.1312668E+00
        -11   -1    0    0    0    0  0.00000000000E+00  0.00000000000E+00  0.45593999997E+02  0.45594000000E+02  0.51100000000E-03 0.  1.
         11   -1    0    0    0    0 -0.00000000000E+00 -0.00000000000E+00 -0.45593999997E+02  0.45594000000E+02  0.51100000000E-03 0. -1.
    9900012    2    1    2    0    0  0.14120224774E+02 -0.30466750643E+02  0.27495812272E+02  0.47787270341E+02  0.19999996794E+02 0.  0.
         12    1    1    2    0    0 -0.14120224774E+02  0.30466750643E+02 -0.27495812272E+02  0.43400729659E+02  0.00000000000E+00 0. -1.
         11    1    3    3    0    0  0.10181161764E+02 -0.22829834432E+02  0.18412997604E+02  0.31046672544E+02  0.51100000000E-03 0.  1.
        -11    1    3    3    0    0  0.21317832408E+01  0.20205676089E+01 -0.54186467266E+00  0.29867726449E+01  0.51100000000E-03 0. -1.
         12    1    3    3    0    0  0.18072797687E+01 -0.96574838205E+01  0.96246793409E+01  0.13753825152E+02  0.00000000000E+00 0. -1.
</event>
<event>
 7    1  0.2476315E-009  0.4778727E+02  0.7816164E-02  0.1312668E+00
        -11   -1    0    0    0    0  0.00000000000E+00  0.00000000000E+00  0.45593999997E+02  0.45594000000E+02  0.51100000000E-03 0. -1.
         11   -1    0    0    0    0 -0.00000000000E+00 -0.00000000000E+00 -0.45593999997E+02  0.45594000000E+02  0.51100000000E-03 0.  1.
    9900012    2    1    2    0    0  0.37185955979E+01  0.26700541178E+02 -0.34012883991E+02  0.47787272704E+02  0.20000007566E+02 0.  0.
         12    1    1    2    0    0 -0.37185955979E+01 -0.26700541178E+02  0.34012883991E+02  0.43400727296E+02  0.00000000000E+00 0. -1.
         11    1    3    3    0    0  0.49966651741E+01  0.24830825465E+01 -0.15659133465E+02  0.16623502126E+02  0.51100000000E-03 0. -1.
        -11    1    3    3    0    0  0.13717614081E+01  0.11688230200E+02 -0.53996840477E+01  0.12948090309E+02  0.51100000000E-03 0.  1.
         12    1    3    3    0    0 -0.26498309843E+01  0.12529228432E+02 -0.12954066478E+02  0.18215680269E+02  0.00000000000E+00 0. -1.
</event>
<event>
 7    1  0.2476315E-009  0.4778727E+02  0.7816164E-02  0.1312668E+00
        -11   -1    0    0    0    0  0.00000000000E+00  0.00000000000E+00  0.45593999997E+02  0.45594000000E+02  0.51100000000E-03 0.  1.
         11   -1    0    0    0    0 -0.00000000000E+00 -0.00000000000E+00 -0.45593999997E+02  0.45594000000E+02  0.51100000000E-03 0. -1.
    9900012    2    1    2    0    0 -0.56650853748E+01 -0.20960371534E+02  0.37579156580E+02  0.47787269863E+02  0.19999994615E+02 0.  0.
         12    1    1    2    0    0  0.56650853748E+01  0.20960371534E+02 -0.37579156580E+02  0.43400730137E+02  0.00000000000E+00 0. -1.
         11    1    3    3    0    0 -0.10395311227E+01 -0.17147691097E+02  0.16211421184E+02  0.23620628950E+02  0.51100000000E-03 0. -1.
        -11    1    3    3    0    0 -0.69901758893E+01 -0.49589671589E+01  0.17563587745E+02  0.19543119735E+02  0.51100000000E-03 0.  1.
         12    1    3    3    0    0  0.23646216371E+01  0.11462867222E+01  0.38041476515E+01  0.46235211788E+01  0.00000000000E+00 0. -1.
</event>
<event>
 7    1  0.2476315E-009  0.4778727E+02  0.7816164E-02  0.1312668E+00
        -11   -1    0    0    0    0  0.00000000000E+00  0.00000000000E+00  0.45593999997E+02  0.45594000000E+02  0.51100000000E-03 0.  1.
         11   -1    0    0    0    0 -0.00000000000E+00 -0.00000000000E+00 -0.45593999997E+02  0.45594000000E+02  0.51100000000E-03 0. -1.
    9900012    2    1    2    0    0  0.30181786845E+01  0.98899287268E+01  0.42150959446E+02  0.47787268728E+02  0.19999989437E+02 0.  0.
         12    1    1    2    0    0 -0.30181786845E+01 -0.98899287268E+01 -0.42150959446E+02  0.43400731272E+02  0.00000000000E+00 0. -1.
         11    1    3    3    0    0  0.20874565866E+00 -0.26742428703E+00 -0.53012476052E+00  0.62938304882E+00  0.51100000000E-03 0. -1.
        -11    1    3    3    0    0  0.62862761587E+01 -0.17264909934E+01  0.79230276357E+01  0.10260234221E+02  0.51100000000E-03 0.  1.
        -12    1    3    3    0    0 -0.34768431329E+01  0.11883844007E+02  0.34758056570E+02  0.36897651458E+02  0.00000000000E+00 0.  1.
</event>
<event>
 7    1  0.2476315E-009  0.4778727E+02  0.7816164E-02  0.1312668E+00
        -11   -1    0    0    0    0  0.00000000000E+00  0.00000000000E+00  0.45593999997E+02  0.45594000000E+02  0.51100000000E-03 0.  1.
         11   -1    0    0    0    0 -0.00000000000E+00 -0.00000000000E+00 -0.45593999997E+02  0.45594000000E+02  0.51100000000E-03 0. -1.
    9900012    2    1    2    0    0 -0.31625900542E+02  0.98528082682E+01  0.28041897914E+02  0.47787268963E+02  0.19999990512E+02 0.  0.
         12    1    1    2    0    0  0.31625900542E+02 -0.98528082682E+01 -0.28041897914E+02  0.43400731037E+02  0.00000000000E+00 0. -1.
         11    1    3    3    0    0  0.13456676536E+01 -0.73349423117E+00 -0.20606241132E+00  0.15463819708E+01  0.51100000000E-03 0. -1.
        -11    1    3    3    0    0 -0.27130418106E+02  0.13096220161E+02  0.24721289915E+02  0.38970665178E+02  0.51100000000E-03 0.  1.
        -12    1    3    3    0    0 -0.58411500899E+01 -0.25099176620E+01  0.35266704104E+01  0.72702218141E+01  0.00000000000E+00 0.  1.
</event>
<event>
 7    1  0.2476315E-009  0.4778727E+02  0.7816164E-02  0.1312668E+00
        -11   -1    0    0    0    0  0.00000000000E+00  0.00000000000E+00  0.45593999997E+02  0.45594000000E+02  0.51100000000E-03 0.  1.
         11   -1    0    0    0    0 -0.00000000000E+00 -0.00000000000E+00 -0.45593999997E+02  0.45594000000E+02  0.51100000000E-03 0. -1.
    9900012    2    1    2    0    0  0.16132660921E+02 -0.23071977612E+02  0.33030966571E+02  0.47787266689E+02  0.19999980141E+02 0.  0.
         12    1    1    2    0    0 -0.16132660921E+02  0.23071977612E+02 -0.33030966571E+02  0.43400733311E+02  0.00000000000E+00 0. -1.
         11    1    3    3    0    0  0.11225351361E+02 -0.56269386668E+01  0.14932082686E+02  0.19509947349E+02  0.51100000000E-03 0. -1.
        -11    1    3    3    0    0 -0.32927964060E+01 -0.47505956936E+01  0.88142947352E+01  0.10540515147E+02  0.51100000000E-03 0.  1.
        -12    1    3    3    0    0  0.82001059661E+01 -0.12694443251E+02  0.92845891499E+01  0.17736804194E+02  0.00000000000E+00 0.  1.
</event>
<event>
 7    1  0.2476315E-009  0.4778727E+02  0.7816164E-02  0.1312668E+00
        -11   -1    0    0    0    0  0.00000000000E+00  0.00000000000E+00  0.45593999997E+02  0.45594000000E+02  0.51100000000E-03 0.  1.
         11   -1    0    0    0    0 -0.00000000000E+00 -0.00000000000E+00 -0.45593999997E+02  0.45594000000E+02  0.51100000000E-03 0. -1.
    9900012    2    1    2    0    0 -0.36145188830E+02 -0.12792111254E+02  0.20334961108E+02  0.47787269256E+02  0.19999991845E+02 0.  0.
         12    1    1    2    0    0  0.36145188830E+02  0.12792111254E+02 -0.20334961108E+02  0.43400730744E+02  0.00000000000E+00 0. -1.
         11    1    3    3    0    0 -0.36142017641E+01 -0.57807214493E+01 -0.19247990947E+01  0.70840699236E+01  0.51100000000E-03 0. -1.
        -11    1    3    3    0    0 -0.21999364574E+02 -0.44768965114E+01  0.10728420692E+02  0.24881994592E+02  0.51100000000E-03 0.  1.
         12    1    3    3    0    0 -0.10531622492E+02 -0.25344932929E+01  0.11531339510E+02  0.15821204741E+02  0.00000000000E+00 0. -1.
</event>
<event>
 7    1  0.2476315E-009  0.4778728E+02  0.7816164E-02  0.1312668E+00
        -11   -1    0    0    0    0  0.00000000000E+00  0.00000000000E+00  0.45593999997E+02  0.45594000000E+02  0.51100000000E-03 0.  1.
         11   -1    0    0    0    0 -0.00000000000E+00 -0.00000000000E+00 -0.45593999997E+02  0.45594000000E+02  0.51100000000E-03 0. -1.
    9900012    2    1    2    0    0 -0.15929826415E+02 -0.40104560099E+02  0.46354697547E+01  0.47787277769E+02  0.20000030660E+02 0.  0.
         12    1    1    2    0    0  0.15929826415E+02  0.40104560099E+02 -0.46354697547E+01  0.43400722231E+02  0.00000000000E+00 0. -1.
         11    1    3    3    0    0  0.20491747025E+01 -0.52792889681E+00  0.30021217876E+01  0.36729499547E+01  0.51100000000E-03 0.  1.
        -11    1    3    3    0    0 -0.13155170211E+02 -0.29624180622E+02 -0.19934617213E+01  0.32474982228E+02  0.51100000000E-03 0. -1.
         12    1    3    3    0    0 -0.48238309069E+01 -0.99524505797E+01  0.36268096885E+01  0.11639345586E+02  0.00000000000E+00 0. -1.
</event>
<event>
 7    1  0.2476315E-009  0.4778727E+02  0.7816164E-02  0.1312668E+00
        -11   -1    0    0    0    0  0.00000000000E+00  0.00000000000E+00  0.45593999997E+02  0.45594000000E+02  0.51100000000E-03 0.  1.
         11   -1    0    0    0    0 -0.00000000000E+00 -0.00000000000E+00 -0.45593999997E+02  0.45594000000E+02  0.51100000000E-03 0. -1.
    9900012    2    1    2    0    0  0.14262927057E+02  0.13081849809E+02  0.38846586702E+02  0.47787272114E+02  0.20000004876E+02 0.  0.
         12    1    1    2    0    0 -0.14262927057E+02 -0.13081849809E+02 -0.38846586702E+02  0.43400727886E+02  0.00000000000E+00 0. -1.
         11    1    3    3    0    0 -0.13595555666E+00 -0.98776905219E+00 -0.16417287799E+01  0.19207928732E+01  0.51100000000E-03 0. -1.
        -11    1    3    3    0    0  0.42129269392E+01  0.94599642985E+01  0.20311193234E+02  0.22798777353E+02  0.51100000000E-03 0.  1.
         12    1    3    3    0    0  0.10185955675E+02  0.46096545630E+01  0.20177122248E+02  0.23067701888E+02  0.00000000000E+00 0. -1.
</event>
<event>
 7    1  0.2476315E-009  0.4778727E+02  0.7816164E-02  0.1312668E+00
        -11   -1    0    0    0    0  0.00000000000E+00  0.00000000000E+00  0.45593999997E+02  0.45594000000E+02  0.51100000000E-03 0.  1.
         11   -1    0    0    0    0 -0.00000000000E+00 -0.00000000000E+00 -0.45593999997E+02  0.45594000000E+02  0.51100000000E-03 0. -1.
    9900012    2    1    2    0    0  0.43390400230E+02 -0.46790424915E+00 -0.82305630908E+00  0.47787272031E+02  0.20000004499E+02 0.  0.
         12    1    1    2    0    0 -0.43390400230E+02  0.46790424915E+00  0.82305630908E+00  0.43400727969E+02  0.00000000000E+00 0. -1.
         11    1    3    3    0    0  0.27677142737E+02 -0.10733542899E+01 -0.95580401946E+01  0.29300724430E+02  0.51100000000E-03 0. -1.
        -11    1    3    3    0    0  0.13650400512E+02 -0.86125025675E+00  0.66561524895E+01  0.15211165385E+02  0.51100000000E-03 0.  1.
         12    1    3    3    0    0  0.20628569816E+01  0.14667002975E+01  0.20788313960E+01  0.32753822162E+01  0.00000000000E+00 0. -1.
</event>
<event>
 7    1  0.2476315E-009  0.4778727E+02  0.7816164E-02  0.1312668E+00
        -11   -1    0    0    0    0  0.00000000000E+00  0.00000000000E+00  0.45593999997E+02  0.45594000000E+02  0.51100000000E-03 0.  1.
         11   -1    0    0    0    0 -0.00000000000E+00 -0.00000000000E+00 -0.45593999997E+02  0.45594000000E+02  0.51100000000E-03 0. -1.
    9900012    2    1    2    0    0  0.27405511047E+01 -0.15903750567E+02  0.40288748871E+02  0.47787272034E+02  0.20000004510E+02 0.  0.
         12    1    1    2    0    0 -0.27405511047E+01  0.15903750567E+02 -0.40288748871E+02  0.43400727966E+02  0.00000000000E+00 0. -1.
         11    1    3    3    0    0 -0.25985705059E+01 -0.13804039745E+02  0.22177695630E+02  0.26251747860E+02  0.51100000000E-03 0. -1.
        -11    1    3    3    0    0  0.83666830876E+01 -0.20861444536E+01  0.13557124144E+02  0.16067015899E+02  0.51100000000E-03 0.  1.
         12    1    3    3    0    0 -0.30275614770E+01 -0.13566367978E-01  0.45539290960E+01  0.54685082751E+01  0.00000000000E+00 0. -1.
</event>
<event>
 7    1  0.2476315E-009  0.4778727E+02  0.7816164E-02  0.1312668E+00
        -11   -1    0    0    0    0  0.00000000000E+00  0.00000000000E+00  0.45593999997E+02  0.45594000000E+02  0.51100000000E-03 0.  1.
         11   -1    0    0    0    0 -0.00000000000E+00 -0.00000000000E+00 -0.45593999997E+02  0.45594000000E+02  0.51100000000E-03 0. -1.
    9900012    2    1    2    0    0 -0.17976040757E+02  0.11008211495E+02  0.37938166702E+02  0.47787271270E+02  0.20000001027E+02 0.  0.
         12    1    1    2    0    0  0.17976040757E+02 -0.11008211495E+02 -0.37938166702E+02  0.43400728730E+02  0.00000000000E+00 0. -1.
         11    1    3    3    0    0  0.63007997206E+00 -0.32974103947E+00  0.12642072941E+02  0.12662059012E+02  0.51100000000E-03 0. -1.
        -11    1    3    3    0    0 -0.13689290871E+02  0.99666245183E+01  0.24754710927E+02  0.29992098996E+02  0.51100000000E-03 0.  1.
         12    1    3    3    0    0 -0.49168298586E+01  0.13713280160E+01  0.54138283437E+00  0.51331132618E+01  0.00000000000E+00 0. -1.
</event>
<event>
 7    1  0.2476315E-009  0.4778727E+02  0.7816164E-02  0.1312668E+00
        -11   -1    0    0    0    0  0.00000000000E+00  0.00000000000E+00  0.45593999997E+02  0.45594000000E+02  0.51100000000E-03 0. -1.
         11   -1    0    0    0    0 -0.00000000000E+00 -0.00000000000E+00 -0.45593999997E+02  0.45594000000E+02  0.51100000000E-03 0.  1.
    9900012    2    1    2    0    0  0.27759250743E+02  0.41069579601E+01 -0.33108612613E+02  0.47787270344E+02  0.19999996808E+02 0.  0.
         12    1    1    2    0    0 -0.27759250743E+02 -0.41069579601E+01  0.33108612613E+02  0.43400729656E+02  0.00000000000E+00 0. -1.
         11    1    3    3    0    0  0.16064576129E+02 -0.43279358048E+01 -0.12319432448E+02  0.20701933500E+02  0.51100000000E-03 0. -1.
        -11    1    3    3    0    0  0.11458359408E+02  0.76677797432E+01 -0.21800372183E+02  0.25794283748E+02  0.51100000000E-03 0.  1.
        -12    1    3    3    0    0  0.23631520646E+00  0.76711402170E+00  0.10111920183E+01  0.12910530961E+01  0.00000000000E+00 0.  1.
</event>
<event>
 7    1  0.2476315E-009  0.4778727E+02  0.7816164E-02  0.1312668E+00
        -11   -1    0    0    0    0  0.00000000000E+00  0.00000000000E+00  0.45593999997E+02  0.45594000000E+02  0.51100000000E-03 0. -1.
         11   -1    0    0    0    0 -0.00000000000E+00 -0.00000000000E+00 -0.45593999997E+02  0.45594000000E+02  0.51100000000E-03 0.  1.
    9900012    2    1    2    0    0 -0.25765295380E+02 -0.28384283067E+02 -0.20349570058E+02  0.47787274513E+02  0.20000015813E+02 0.  0.
         12    1    1    2    0    0  0.25765295380E+02  0.28384283067E+02  0.20349570058E+02  0.43400725487E+02  0.00000000000E+00 0. -1.
         11    1    3    3    0    0 -0.27690186148E+01  0.12536217702E+01  0.93188135487E+00  0.31792192049E+01  0.51100000000E-03 0. -1.
        -11    1    3    3    0    0 -0.20111434752E+02 -0.22639801028E+02 -0.21326552932E+02  0.37038523980E+02  0.51100000000E-03 0.  1.
        -12    1    3    3    0    0 -0.28848420134E+01 -0.69981038101E+01  0.45101519399E-01  0.75695313280E+01  0.00000000000E+00 0.  1.
</event>
<event>
 7    1  0.2476315E-009  0.4778727E+02  0.7816164E-02  0.1312668E+00
        -11   -1    0    0    0    0  0.00000000000E+00  0.00000000000E+00  0.45593999997E+02  0.45594000000E+02  0.51100000000E-03 0.  1.
         11   -1    0    0    0    0 -0.00000000000E+00 -0.00000000000E+00 -0.45593999997E+02  0.45594000000E+02  0.51100000000E-03 0. -1.
    9900012    2    1    2    0    0 -0.87369596295E+01  0.30108781565E+02  0.30012499125E+02  0.47787270805E+02  0.19999998909E+02 0.  0.
         12    1    1    2    0    0  0.87369596295E+01 -0.30108781565E+02 -0.30012499125E+02  0.43400729195E+02  0.00000000000E+00 0. -1.
         11    1    3    3    0    0 -0.90853486347E+00  0.86052296129E+01 -0.97241172542E+00  0.87075253151E+01  0.51100000000E-03 0. -1.
        -11    1    3    3    0    0 -0.86345806297E+01  0.19396930226E+02  0.25715864652E+02  0.33348202049E+02  0.51100000000E-03 0.  1.
         12    1    3    3    0    0  0.80615586368E+00  0.21066217261E+01  0.52690461984E+01  0.57315434409E+01  0.00000000000E+00 0. -1.
</event>
<event>
 7    1  0.2476315E-009  0.4778727E+02  0.7816164E-02  0.1312668E+00
        -11   -1    0    0    0    0  0.00000000000E+00  0.00000000000E+00  0.45593999997E+02  0.45594000000E+02  0.51100000000E-03 0.  1.
         11   -1    0    0    0    0 -0.00000000000E+00 -0.00000000000E+00 -0.45593999997E+02  0.45594000000E+02  0.51100000000E-03 0. -1.
    9900012    2    1    2    0    0 -0.19661623727E+02  0.27375290916E+02  0.27342954021E+02  0.47787272645E+02  0.20000007299E+02 0.  0.
         12    1    1    2    0    0  0.19661623727E+02 -0.27375290916E+02 -0.27342954021E+02  0.43400727355E+02  0.00000000000E+00 0. -1.
         11    1    3    3    0    0 -0.97675858748E+01  0.83367903638E+01  0.16099816527E+02  0.20593977271E+02  0.51100000000E-03 0. -1.
        -11    1    3    3    0    0 -0.11839738026E+02  0.16307878956E+02  0.61032746442E+01  0.21056501946E+02  0.51100000000E-03 0.  1.
        -12    1    3    3    0    0  0.19457001732E+01  0.27306215965E+01  0.51398628495E+01  0.61367934281E+01  0.00000000000E+00 0.  1.
</event>
<event>
 7    1  0.2476315E-009  0.4778728E+02  0.7816164E-02  0.1312668E+00
        -11   -1    0    0    0    0  0.00000000000E+00  0.00000000000E+00  0.45593999997E+02  0.45594000000E+02  0.51100000000E-03 0.  1.
         11   -1    0    0    0    0 -0.00000000000E+00 -0.00000000000E+00 -0.45593999997E+02  0.45594000000E+02  0.51100000000E-03 0. -1.
    9900012    2    1    2    0    0  0.29336892267E+01 -0.10941053786E+02  0.41896416604E+02  0.47787275182E+02  0.20000018866E+02 0.  0.
         12    1    1    2    0    0 -0.29336892267E+01  0.10941053786E+02 -0.41896416604E+02  0.43400724818E+02  0.00000000000E+00 0. -1.
         11    1    3    3    0    0  0.97028440079E+01 -0.91805747261E+01  0.25926767917E+02  0.29165483521E+02  0.51100000000E-03 0. -1.
        -11    1    3    3    0    0 -0.75113512184E+01 -0.16670277476E+00  0.14497654808E+02  0.16328814474E+02  0.51100000000E-03 0.  1.
         12    1    3    3    0    0  0.74219643718E+00 -0.15937762855E+01  0.14719938792E+01  0.22929771870E+01  0.00000000000E+00 0. -1.
</event>
<event>
 7    1  0.2476315E-009  0.4778727E+02  0.7816164E-02  0.1312668E+00
        -11   -1    0    0    0    0  0.00000000000E+00  0.00000000000E+00  0.45593999997E+02  0.45594000000E+02  0.51100000000E-03 0. -1.
         11   -1    0    0    0    0 -0.00000000000E+00 -0.00000000000E+00 -0.45593999997E+02  0.45594000000E+02  0.51100000000E-03 0.  1.
    9900012    2    1    2    0    0  0.15083165184E+02 -0.24482715879E+02 -0.32507200928E+02  0.47787270041E+02  0.19999995426E+02 0.  0.
         12    1    1    2    0    0 -0.15083165184E+02  0.24482715879E+02  0.32507200928E+02  0.43400729959E+02  0.00000000000E+00 0. -1.
         11    1    3    3    0    0 -0.23785157728E+01 -0.11920820377E+02 -0.11469399867E+02  0.16712582963E+02  0.51100000000E-03 0. -1.
        -11    1    3    3    0    0  0.31372034381E+01 -0.62349075840E+01 -0.45291654926E+01  0.83204241666E+01  0.51100000000E-03 0.  1.
         12    1    3    3    0    0  0.14324477519E+02 -0.63269879187E+01 -0.16508635569E+02  0.22754262911E+02  0.00000000000E+00 0. -1.
</event>
<event>
 7    1  0.2476315E-009  0.4778728E+02  0.7816164E-02  0.1312668E+00
        -11   -1    0    0    0    0  0.00000000000E+00  0.00000000000E+00  0.45593999997E+02  0.45594000000E+02  0.51100000000E-03 0.  1.
         11   -1    0    0    0    0 -0.00000000000E+00 -0.00000000000E+00 -0.45593999997E+02  0.45594000000E+02  0.51100000000E-03 0. -1.
    9900012    2    1    2    0    0 -0.13532492594E+02 -0.16213968638E+02  0.37915716923E+02  0.47787277373E+02  0.20000028854E+02 0.  0.
         12    1    1    2    0    0  0.13532492594E+02  0.16213968638E+02 -0.37915716923E+02  0.43400722627E+02  0.00000000000E+00 0. -1.
         11    1    3    3    0    0 -0.89684421691E+01  0.23917141166E+01  0.14406300934E+02  0.17137524857E+02  0.51100000000E-03 0. -1.
        -11    1    3    3    0    0 -0.42425853085E+01 -0.88940467713E+01  0.13332812720E+02  0.16579128245E+02  0.51100000000E-03 0.  1.
         12    1    3    3    0    0 -0.32146511633E+00 -0.97116359832E+01  0.10176603269E+02  0.14070624271E+02  0.00000000000E+00 0. -1.
</event>
<event>
 7    1  0.2476315E-009  0.4778726E+02  0.7816164E-02  0.1312668E+00
        -11   -1    0    0    0    0  0.00000000000E+00  0.00000000000E+00  0.45593999997E+02  0.45594000000E+02  0.51100000000E-03 0.  1.
         11   -1    0    0    0    0 -0.00000000000E+00 -0.00000000000E+00 -0.45593999997E+02  0.45594000000E+02  0.51100000000E-03 0. -1.
    9900012    2    1    2    0    0  0.32248908952E+02 -0.29025522793E+02  0.10729341452E+01  0.47787259342E+02  0.19999946646E+02 0.  0.
         12    1    1    2    0    0 -0.32248908952E+02  0.29025522793E+02 -0.10729341452E+01  0.43400740658E+02  0.00000000000E+00 0. -1.
         11    1    3    3    0    0  0.10394068171E+02  0.74774081159E+00  0.38600882710E+00  0.10428076167E+02  0.51100000000E-03 0. -1.
        -11    1    3    3    0    0  0.14512097326E+02 -0.16125899570E+02  0.21096910387E+01  0.21796706225E+02  0.51100000000E-03 0.  1.
         12    1    3    3    0    0  0.73427434539E+01 -0.13647364035E+02 -0.14227657206E+01  0.15562476950E+02  0.00000000000E+00 0. -1.
</event>
<event>
 7    1  0.2476315E-009  0.4778729E+02  0.7816164E-02  0.1312668E+00
        -11   -1    0    0    0    0  0.00000000000E+00  0.00000000000E+00  0.45593999997E+02  0.45594000000E+02  0.51100000000E-03 0. -1.
         11   -1    0    0    0    0 -0.00000000000E+00 -0.00000000000E+00 -0.45593999997E+02  0.45594000000E+02  0.51100000000E-03 0.  1.
    9900012    2    1    2    0    0 -0.10550623327E+02 -0.20964884815E+02 -0.36507251841E+02  0.47787291655E+02  0.20000093970E+02 0.  0.
         12    1    1    2    0    0  0.10550623327E+02  0.20964884815E+02  0.36507251841E+02  0.43400708345E+02  0.00000000000E+00 0. -1.
         11    1    3    3    0    0 -0.86579662441E+01 -0.91000271511E+01 -0.57108370552E+01  0.13797990207E+02  0.51100000000E-03 0. -1.
        -11    1    3    3    0    0 -0.13676533181E+01 -0.31454276646E+01 -0.21674327678E+01  0.40573335894E+01  0.51100000000E-03 0.  1.
         12    1    3    3    0    0 -0.52500376484E+00 -0.87194299997E+01 -0.28628982018E+02  0.29931967858E+02  0.00000000000E+00 0. -1.
</event>
<event>
 7    1  0.2476315E-009  0.4778727E+02  0.7816164E-02  0.1312668E+00
        -11   -1    0    0    0    0  0.00000000000E+00  0.00000000000E+00  0.45593999997E+02  0.45594000000E+02  0.51100000000E-03 0.  1.
         11   -1    0    0    0    0 -0.00000000000E+00 -0.00000000000E+00 -0.45593999997E+02  0.45594000000E+02  0.51100000000E-03 0. -1.
    9900012    2    1    2    0    0  0.66782731570E+01 -0.37428674030E+02  0.20931274884E+02  0.47787271432E+02  0.20000001766E+02 0.  0.
         12    1    1    2    0    0 -0.66782731570E+01  0.37428674030E+02 -0.20931274884E+02  0.43400728568E+02  0.00000000000E+00 0. -1.
         11    1    3    3    0    0  0.50522083091E+01 -0.19278069777E+02  0.10479648523E+02  0.22516478778E+02  0.51100000000E-03 0. -1.
        -11    1    3    3    0    0 -0.16282556058E+01  0.19432852879E+01  0.20045961432E+01  0.32320241315E+01  0.51100000000E-03 0.  1.
        -12    1    3    3    0    0  0.32543204537E+01 -0.20093889541E+02  0.84470302183E+01  0.22038768523E+02  0.00000000000E+00 0.  1.
</event>
<event>
 7    1  0.2476315E-009  0.4778727E+02  0.7816164E-02  0.1312668E+00
        -11   -1    0    0    0    0  0.00000000000E+00  0.00000000000E+00  0.45593999997E+02  0.45594000000E+02  0.51100000000E-03 0. -1.
         11   -1    0    0    0    0 -0.00000000000E+00 -0.00000000000E+00 -0.45593999997E+02  0.45594000000E+02  0.51100000000E-03 0.  1.
    9900012    2    1    2    0    0 -0.11441749533E+02 -0.34750494806E+02 -0.23347655315E+02  0.47787268090E+02  0.19999986528E+02 0.  0.
         12    1    1    2    0    0  0.11441749533E+02  0.34750494806E+02  0.23347655315E+02  0.43400731910E+02  0.00000000000E+00 0. -1.
         11    1    3    3    0    0 -0.11356170302E+02 -0.26498588697E+02 -0.13187526432E+02  0.31702502433E+02  0.51100000000E-03 0. -1.
        -11    1    3    3    0    0 -0.13355770954E+01 -0.51894164316E+01 -0.11364579798E+02  0.12564532754E+02  0.51100000000E-03 0.  1.
         12    1    3    3    0    0  0.12499978641E+01 -0.30624896768E+01  0.12044509149E+01  0.35202329024E+01  0.00000000000E+00 0. -1.
</event>
<event>
 7    1  0.2476315E-009  0.4778727E+02  0.7816164E-02  0.1312668E+00
        -11   -1    0    0    0    0  0.00000000000E+00  0.00000000000E+00  0.45593999997E+02  0.45594000000E+02  0.51100000000E-03 0.  1.
         11   -1    0    0    0    0 -0.00000000000E+00 -0.00000000000E+00 -0.45593999997E+02  0.45594000000E+02  0.51100000000E-03 0. -1.
    9900012    2    1    2    0    0 -0.33920237268E+02 -0.20726833222E+01  0.26995272911E+02  0.47787271066E+02  0.20000000097E+02 0.  0.
         12    1    1    2    0    0  0.33920237268E+02  0.20726833222E+01 -0.26995272911E+02  0.43400728934E+02  0.00000000000E+00 0. -1.
         11    1    3    3    0    0 -0.44133077457E+01 -0.52496713028E+01  0.92928727682E+01  0.11549624175E+02  0.51100000000E-03 0. -1.
        -11    1    3    3    0    0 -0.21376848542E+02  0.69693869880E+01  0.14281185534E+02  0.26636333627E+02  0.51100000000E-03 0.  1.
        -12    1    3    3    0    0 -0.81300809809E+01 -0.37923990075E+01  0.34212146086E+01  0.96013132636E+01  0.00000000000E+00 0.  1.
</event>
<event>
 7    1  0.2476315E-009  0.4778727E+02  0.7816164E-02  0.1312668E+00
        -11   -1    0    0    0    0  0.00000000000E+00  0.00000000000E+00  0.45593999997E+02  0.45594000000E+02  0.51100000000E-03 0.  1.
         11   -1    0    0    0    0 -0.00000000000E+00 -0.00000000000E+00 -0.45593999997E+02  0.45594000000E+02  0.51100000000E-03 0. -1.
    9900012    2    1    2    0    0 -0.12809317079E+02 -0.14950566526E+02  0.38678489196E+02  0.47787267634E+02  0.19999984449E+02 0.  0.
         12    1    1    2    0    0  0.12809317079E+02  0.14950566526E+02 -0.38678489196E+02  0.43400732366E+02  0.00000000000E+00 0. -1.
         11    1    3    3    0    0  0.66533635125E+00 -0.19947515309E+01  0.17487772087E+02  0.17613741197E+02  0.51100000000E-03 0.  1.
        -11    1    3    3    0    0 -0.10485056583E+02 -0.10046199892E+02  0.85252919789E+01  0.16838739484E+02  0.51100000000E-03 0. -1.
         12    1    3    3    0    0 -0.29895968465E+01 -0.29096151029E+01  0.12665425129E+02  0.13334786952E+02  0.00000000000E+00 0. -1.
</event>
<event>
 7    1  0.2476315E-009  0.4778727E+02  0.7816164E-02  0.1312668E+00
        -11   -1    0    0    0    0  0.00000000000E+00  0.00000000000E+00  0.45593999997E+02  0.45594000000E+02  0.51100000000E-03 0. -1.
         11   -1    0    0    0    0 -0.00000000000E+00 -0.00000000000E+00 -0.45593999997E+02  0.45594000000E+02  0.51100000000E-03 0.  1.
    9900012    2    1    2    0    0  0.25651133008E+02  0.29237502908E+02 -0.19256453930E+02  0.47787271678E+02  0.20000002888E+02 0.  0.
         12    1    1    2    0    0 -0.25651133008E+02 -0.29237502908E+02  0.19256453930E+02  0.43400728322E+02  0.00000000000E+00 0. -1.
         11    1    3    3    0    0 -0.11967215756E+01 -0.41716996076E+00 -0.43240832521E+00  0.13390857054E+01  0.51100000000E-03 0. -1.
        -11    1    3    3    0    0  0.23816769786E+02  0.31000198418E+02 -0.17960562781E+02  0.43021304498E+02  0.51100000000E-03 0.  1.
        -12    1    3    3    0    0  0.30310847982E+01 -0.13455255490E+01 -0.86348282343E+00  0.34268814749E+01  0.00000000000E+00 0.  1.
</event>
<event>
 7    1  0.2476315E-009  0.4778727E+02  0.7816164E-02  0.1312668E+00
        -11   -1    0    0    0    0  0.00000000000E+00  0.00000000000E+00  0.45593999997E+02  0.45594000000E+02  0.51100000000E-03 0.  1.
         11   -1    0    0    0    0 -0.00000000000E+00 -0.00000000000E+00 -0.45593999997E+02  0.45594000000E+02  0.51100000000E-03 0. -1.
    9900012    2    1    2    0    0  0.28696148963E+02 -0.32543434496E+02  0.10388445247E+01  0.47787270835E+02  0.19999999045E+02 0.  0.
         12    1    1    2    0    0 -0.28696148963E+02  0.32543434496E+02 -0.10388445247E+01  0.43400729165E+02  0.00000000000E+00 0. -1.
         11    1    3    3    0    0  0.15193482481E+02 -0.50716658921E+01  0.50430158442E+00  0.16025542898E+02  0.51100000000E-03 0. -1.
        -11    1    3    3    0    0  0.79262068620E+01 -0.14258934696E+02 -0.38558641469E+01  0.16763342819E+02  0.51100000000E-03 0.  1.
         12    1    3    3    0    0  0.55764596203E+01 -0.13212833908E+02  0.43904070872E+01  0.14998385119E+02  0.00000000000E+00 0. -1.
</event>
<event>
 7    1  0.2476315E-009  0.4778727E+02  0.7816164E-02  0.1312668E+00
        -11   -1    0    0    0    0  0.00000000000E+00  0.00000000000E+00  0.45593999997E+02  0.45594000000E+02  0.51100000000E-03 0. -1.
         11   -1    0    0    0    0 -0.00000000000E+00 -0.00000000000E+00 -0.45593999997E+02  0.45594000000E+02  0.51100000000E-03 0.  1.
    9900012    2    1    2    0    0 -0.71177403048E-01 -0.39133159375E+02  0.18767371262E+02  0.47787268981E+02  0.19999990590E+02 0.  0.
         12    1    1    2    0    0  0.71177403048E-01  0.39133159375E+02 -0.18767371262E+02  0.43400731019E+02  0.00000000000E+00 0. -1.
         11    1    3    3    0    0 -0.39556667606E+00 -0.17662281530E+00 -0.19134448771E+01  0.19618715995E+01  0.51100000000E-03 0. -1.
        -11    1    3    3    0    0 -0.44114784755E+01 -0.32235138824E+02  0.17966714416E+02  0.37166761286E+02  0.51100000000E-03 0.  1.
        -12    1    3    3    0    0  0.47358677485E+01 -0.67213977366E+01  0.27141017227E+01  0.86586360951E+01  0.00000000000E+00 0.  1.
</event>
<event>
 7    1  0.2476315E-009  0.4778728E+02  0.7816164E-02  0.1312668E+00
        -11   -1    0    0    0    0  0.00000000000E+00  0.00000000000E+00  0.45593999997E+02  0.45594000000E+02  0.51100000000E-03 0.  1.
         11   -1    0    0    0    0 -0.00000000000E+00 -0.00000000000E+00 -0.45593999997E+02  0.45594000000E+02  0.51100000000E-03 0. -1.
    9900012    2    1    2    0    0 -0.31997698793E+02  0.28687901773E+02 -0.60641642950E+01  0.47787279674E+02  0.20000039347E+02 0.  0.
         12    1    1    2    0    0  0.31997698793E+02 -0.28687901773E+02  0.60641642950E+01  0.43400720326E+02  0.00000000000E+00 0. -1.
         11    1    3    3    0    0 -0.24492577433E+00  0.54166563606E+01 -0.57758506944E+01  0.79221591923E+01  0.51100000000E-03 0. -1.
        -11    1    3    3    0    0 -0.16890612278E+02  0.14551536350E+02 -0.27329870568E+01  0.22461282505E+02  0.51100000000E-03 0.  1.
         12    1    3    3    0    0 -0.14862160741E+02  0.87197090629E+01  0.24446734562E+01  0.17403837977E+02  0.00000000000E+00 0. -1.
</event>
<event>
 7    1  0.2476315E-009  0.4778727E+02  0.7816164E-02  0.1312668E+00
        -11   -1    0    0    0    0  0.00000000000E+00  0.00000000000E+00  0.45593999997E+02  0.45594000000E+02  0.51100000000E-03 0.  1.
         11   -1    0    0    0    0 -0.00000000000E+00 -0.00000000000E+00 -0.45593999997E+02  0.45594000000E+02  0.51100000000E-03 0. -1.
    9900012    2    1    2    0    0 -0.10381524117E+02 -0.16822987941E+02  0.38637215563E+02  0.47787269675E+02  0.19999993758E+02 0.  0.
         12    1    1    2    0    0  0.10381524117E+02  0.16822987941E+02 -0.38637215563E+02  0.43400730325E+02  0.00000000000E+00 0. -1.
         11    1    3    3    0    0 -0.91458742690E+01 -0.10090391543E+02  0.10181296039E+02  0.17003582180E+02  0.51100000000E-03 0. -1.
        -11    1    3    3    0    0  0.19703786634E+01 -0.41699377935E-01  0.17136363054E+02  0.17249320853E+02  0.51100000000E-03 0.  1.
        -12    1    3    3    0    0 -0.32060285117E+01 -0.66908970203E+01  0.11319556470E+02  0.13534366643E+02  0.00000000000E+00 0.  1.
</event>
<event>
 7    1  0.2476315E-009  0.4778727E+02  0.7816164E-02  0.1312668E+00
        -11   -1    0    0    0    0  0.00000000000E+00  0.00000000000E+00  0.45593999997E+02  0.45594000000E+02  0.51100000000E-03 0. -1.
         11   -1    0    0    0    0 -0.00000000000E+00 -0.00000000000E+00 -0.45593999997E+02  0.45594000000E+02  0.51100000000E-03 0.  1.
    9900012    2    1    2    0    0  0.24914788596E+02 -0.27556590928E+02 -0.22439043816E+02  0.47787273258E+02  0.20000010093E+02 0.  0.
         12    1    1    2    0    0 -0.24914788596E+02  0.27556590928E+02  0.22439043816E+02  0.43400726742E+02  0.00000000000E+00 0. -1.
         11    1    3    3    0    0  0.23601889945E+02 -0.15605385171E+02 -0.11872337539E+02  0.30684355202E+02  0.51100000000E-03 0.  1.
        -11    1    3    3    0    0 -0.97862756609E+00 -0.38696859946E+01 -0.68263830780E+01  0.79076980089E+01  0.51100000000E-03 0. -1.
        -12    1    3    3    0    0  0.22915262176E+01 -0.80815197622E+01 -0.37403231994E+01  0.91952200468E+01  0.00000000000E+00 0.  1.
</event>
<event>
 7    1  0.2476315E-009  0.4778727E+02  0.7816164E-02  0.1312668E+00
        -11   -1    0    0    0    0  0.00000000000E+00  0.00000000000E+00  0.45593999997E+02  0.45594000000E+02  0.51100000000E-03 0.  1.
         11   -1    0    0    0    0 -0.00000000000E+00 -0.00000000000E+00 -0.45593999997E+02  0.45594000000E+02  0.51100000000E-03 0. -1.
    9900012    2    1    2    0    0  0.69528130439E+01 -0.30849659065E+02  0.29725077586E+02  0.47787270615E+02  0.19999998043E+02 0.  0.
         12    1    1    2    0    0 -0.69528130439E+01  0.30849659065E+02 -0.29725077586E+02  0.43400729385E+02  0.00000000000E+00 0. -1.
         11    1    3    3    0    0 -0.28466983121E+01 -0.11163523886E+02  0.14339614390E+02  0.18394360493E+02  0.51100000000E-03 0. -1.
        -11    1    3    3    0    0  0.25624056333E+01 -0.32644082386E+00 -0.12423703895E+01  0.28663514591E+01  0.51100000000E-03 0.  1.
        -12    1    3    3    0    0  0.72371057227E+01 -0.19359694355E+02  0.16627833585E+02  0.26526558663E+02  0.00000000000E+00 0.  1.
</event>
<event>
 7    1  0.2476315E-009  0.4778728E+02  0.7816164E-02  0.1312668E+00
        -11   -1    0    0    0    0  0.00000000000E+00  0.00000000000E+00  0.45593999997E+02  0.45594000000E+02  0.51100000000E-03 0.  1.
         11   -1    0    0    0    0 -0.00000000000E+00 -0.00000000000E+00 -0.45593999997E+02  0.45594000000E+02  0.51100000000E-03 0. -1.
    9900012    2    1    2    0    0 -0.15213337871E+01  0.24238187982E+02  0.35969686298E+02  0.47787279435E+02  0.20000038258E+02 0.  0.
         12    1    1    2    0    0  0.15213337871E+01 -0.24238187982E+02 -0.35969686298E+02  0.43400720565E+02  0.00000000000E+00 0. -1.
         11    1    3    3    0    0  0.20511157355E+01  0.15304298288E+02  0.12952841200E+02  0.20154521014E+02  0.51100000000E-03 0. -1.
        -11    1    3    3    0    0  0.50927366088E+00  0.85009590093E+01  0.67810590829E+01  0.10886157554E+02  0.51100000000E-03 0.  1.
         12    1    3    3    0    0 -0.40817231834E+01  0.43293068460E+00  0.16235786015E+02  0.16746600868E+02  0.00000000000E+00 0. -1.
</event>
<event>
 7    1  0.2476315E-009  0.4778727E+02  0.7816164E-02  0.1312668E+00
        -11   -1    0    0    0    0  0.00000000000E+00  0.00000000000E+00  0.45593999997E+02  0.45594000000E+02  0.51100000000E-03 0. -1.
         11   -1    0    0    0    0 -0.00000000000E+00 -0.00000000000E+00 -0.45593999997E+02  0.45594000000E+02  0.51100000000E-03 0.  1.
    9900012    2    1    2    0    0 -0.26312801068E+02  0.21571194103E+02 -0.26943335564E+02  0.47787271361E+02  0.20000001442E+02 0.  0.
         12    1    1    2    0    0  0.26312801068E+02 -0.21571194103E+02  0.26943335564E+02  0.43400728639E+02  0.00000000000E+00 0. -1.
         11    1    3    3    0    0 -0.10234686233E+01  0.58704214028E+01  0.10399452703E+01  0.60490347905E+01  0.51100000000E-03 0. -1.
        -11    1    3    3    0    0 -0.21106354912E+02  0.10581175956E+02 -0.25294200838E+02  0.34601099673E+02  0.51100000000E-03 0.  1.
        -12    1    3    3    0    0 -0.41829775329E+01  0.51195967440E+01 -0.26890799968E+01  0.71371368973E+01  0.00000000000E+00 0.  1.
</event>
<event>
 7    1  0.2476315E-009  0.4778727E+02  0.7816164E-02  0.1312668E+00
        -11   -1    0    0    0    0  0.00000000000E+00  0.00000000000E+00  0.45593999997E+02  0.45594000000E+02  0.51100000000E-03 0.  1.
         11   -1    0    0    0    0 -0.00000000000E+00 -0.00000000000E+00 -0.45593999997E+02  0.45594000000E+02  0.51100000000E-03 0. -1.
    9900012    2    1    2    0    0 -0.16218699389E+02  0.14729202183E+02  0.37465021197E+02  0.47787269359E+02  0.19999992317E+02 0.  0.
         12    1    1    2    0    0  0.16218699389E+02 -0.14729202183E+02 -0.37465021197E+02  0.43400730641E+02  0.00000000000E+00 0. -1.
         11    1    3    3    0    0 -0.60336486660E+01 -0.10716466503E+01  0.69656866296E+00  0.61675401037E+01  0.51100000000E-03 0. -1.
        -11    1    3    3    0    0 -0.91752899648E+01  0.11898906595E+02  0.24863930561E+02  0.29051419368E+02  0.51100000000E-03 0.  1.
        -12    1    3    3    0    0 -0.10097607587E+01  0.39019422382E+01  0.11904521973E+02  0.12568309888E+02  0.00000000000E+00 0.  1.
</event>
<event>
 7    1  0.2476315E-009  0.4778727E+02  0.7816164E-02  0.1312668E+00
        -11   -1    0    0    0    0  0.00000000000E+00  0.00000000000E+00  0.45593999997E+02  0.45594000000E+02  0.51100000000E-03 0.  1.
         11   -1    0    0    0    0 -0.00000000000E+00 -0.00000000000E+00 -0.45593999997E+02  0.45594000000E+02  0.51100000000E-03 0. -1.
    9900012    2    1    2    0    0 -0.91985515156E+01  0.31741097680E+02  0.28133836241E+02  0.47787269896E+02  0.19999994762E+02 0.  0.
         12    1    1    2    0    0  0.91985515156E+01 -0.31741097680E+02 -0.28133836241E+02  0.43400730104E+02  0.00000000000E+00 0. -1.
         11    1    3    3    0    0  0.51056238640E+01  0.54651036209E+01  0.61950458071E+01  0.97115058277E+01  0.51100000000E-03 0. -1.
        -11    1    3    3    0    0 -0.10144809421E+02  0.11578397086E+02  0.14240688238E+02  0.20970780601E+02  0.51100000000E-03 0.  1.
        -12    1    3    3    0    0 -0.41593659585E+01  0.14697596973E+02  0.76981021963E+01  0.17104983466E+02  0.00000000000E+00 0.  1.
</event>
<event>
 7    1  0.2476315E-009  0.4778728E+02  0.7816164E-02  0.1312668E+00
        -11   -1    0    0    0    0  0.00000000000E+00  0.00000000000E+00  0.45593999997E+02  0.45594000000E+02  0.51100000000E-03 0.  1.
         11   -1    0    0    0    0 -0.00000000000E+00 -0.00000000000E+00 -0.45593999997E+02  0.45594000000E+02  0.51100000000E-03 0. -1.
    9900012    2    1    2    0    0 -0.24824685552E+01 -0.31470930886E+02  0.29783228873E+02  0.47787275777E+02  0.20000021579E+02 0.  0.
         12    1    1    2    0    0  0.24824685552E+01  0.31470930886E+02 -0.29783228873E+02  0.43400724223E+02  0.00000000000E+00 0. -1.
         11    1    3    3    0    0 -0.32773914825E+01 -0.26078147799E+02  0.25843336981E+02  0.36860400895E+02  0.51100000000E-03 0.  1.
        -11    1    3    3    0    0  0.18313343082E+01 -0.60367119875E+01 -0.49444573864E+00  0.63277289621E+01  0.51100000000E-03 0. -1.
         12    1    3    3    0    0 -0.10364113809E+01  0.64392889985E+00  0.44343376304E+01  0.45991459206E+01  0.00000000000E+00 0. -1.
</event>
<event>
 7    1  0.2476315E-009  0.4778727E+02  0.7816164E-02  0.1312668E+00
        -11   -1    0    0    0    0  0.00000000000E+00  0.00000000000E+00  0.45593999997E+02  0.45594000000E+02  0.51100000000E-03 0.  1.
         11   -1    0    0    0    0 -0.00000000000E+00 -0.00000000000E+00 -0.45593999997E+02  0.45594000000E+02  0.51100000000E-03 0. -1.
    9900012    2    1    2    0    0 -0.24245470393E+02  0.35894951467E+02  0.27079566440E+01  0.47787269538E+02  0.19999993133E+02 0.  0.
         12    1    1    2    0    0  0.24245470393E+02 -0.35894951467E+02 -0.27079566440E+01  0.43400730462E+02  0.00000000000E+00 0. -1.
         11    1    3    3    0    0 -0.17412664621E+02  0.22226263252E+02  0.76188251752E+01  0.29244728835E+02  0.51100000000E-03 0. -1.
        -11    1    3    3    0    0 -0.38985212768E+01  0.18590954022E+01  0.17616228152E+01  0.46645491812E+01  0.51100000000E-03 0.  1.
         12    1    3    3    0    0 -0.29342844955E+01  0.11809592813E+02 -0.66724913463E+01  0.13877991522E+02  0.00000000000E+00 0. -1.
</event>
<event>
 7    1  0.2476315E-009  0.4778727E+02  0.7816164E-02  0.1312668E+00
        -11   -1    0    0    0    0  0.00000000000E+00  0.00000000000E+00  0.45593999997E+02  0.45594000000E+02  0.51100000000E-03 0.  1.
         11   -1    0    0    0    0 -0.00000000000E+00 -0.00000000000E+00 -0.45593999997E+02  0.45594000000E+02  0.51100000000E-03 0. -1.
    9900012    2    1    2    0    0 -0.23072213812E+02 -0.35032499222E+02  0.11136429951E+02  0.47787272771E+02  0.20000007873E+02 0.  0.
         12    1    1    2    0    0  0.23072213812E+02  0.35032499222E+02 -0.11136429951E+02  0.43400727229E+02  0.00000000000E+00 0. -1.
         11    1    3    3    0    0  0.27302893809E+01 -0.78588064965E+01  0.12593774190E+01  0.84143538907E+01  0.51100000000E-03 0. -1.
        -11    1    3    3    0    0 -0.20691156815E+02 -0.20000412640E+02  0.47076094410E+01  0.29159939352E+02  0.51100000000E-03 0.  1.
         12    1    3    3    0    0 -0.51113463778E+01 -0.71732800860E+01  0.51694430908E+01  0.10212979529E+02  0.00000000000E+00 0. -1.
</event>
<event>
 7    1  0.2476315E-009  0.4778727E+02  0.7816164E-02  0.1312668E+00
        -11   -1    0    0    0    0  0.00000000000E+00  0.00000000000E+00  0.45593999997E+02  0.45594000000E+02  0.51100000000E-03 0. -1.
         11   -1    0    0    0    0 -0.00000000000E+00 -0.00000000000E+00 -0.45593999997E+02  0.45594000000E+02  0.51100000000E-03 0.  1.
    9900012    2    1    2    0    0 -0.75367027949E+01  0.14955320060E+02 -0.40039477821E+02  0.47787271074E+02  0.20000000135E+02 0.  0.
         12    1    1    2    0    0  0.75367027949E+01 -0.14955320060E+02  0.40039477821E+02  0.43400728926E+02  0.00000000000E+00 0. -1.
         11    1    3    3    0    0 -0.82925895447E+01  0.22958142565E+01 -0.19463720570E+02  0.21280841693E+02  0.51100000000E-03 0. -1.
        -11    1    3    3    0    0 -0.41803238065E+01  0.82849816739E+01 -0.15940386621E+02  0.18444835438E+02  0.51100000000E-03 0.  1.
         12    1    3    3    0    0  0.49362105563E+01  0.43745241301E+01 -0.46353706299E+01  0.80615939427E+01  0.00000000000E+00 0. -1.
</event>
<event>
 7    1  0.2476315E-009  0.4778727E+02  0.7816164E-02  0.1312668E+00
        -11   -1    0    0    0    0  0.00000000000E+00  0.00000000000E+00  0.45593999997E+02  0.45594000000E+02  0.51100000000E-03 0.  1.
         11   -1    0    0    0    0 -0.00000000000E+00 -0.00000000000E+00 -0.45593999997E+02  0.45594000000E+02  0.51100000000E-03 0. -1.
    9900012    2    1    2    0    0  0.29284305014E+02 -0.13791676271E+02  0.28910940004E+02  0.47787270669E+02  0.19999998289E+02 0.  0.
         12    1    1    2    0    0 -0.29284305014E+02  0.13791676271E+02 -0.28910940004E+02  0.43400729331E+02  0.00000000000E+00 0. -1.
         11    1    3    3    0    0  0.24229069043E+01 -0.49287346731E+01 -0.65400997310E+00  0.55308799165E+01  0.51100000000E-03 0. -1.
        -11    1    3    3    0    0  0.16167469174E+02 -0.97427156436E-01  0.18318908332E+02  0.24433152769E+02  0.51100000000E-03 0.  1.
        -12    1    3    3    0    0  0.10693928936E+02 -0.87655144412E+01  0.11246041646E+02  0.17823237983E+02  0.00000000000E+00 0.  1.
</event>
<event>
 7    1  0.2476315E-009  0.4778727E+02  0.7816164E-02  0.1312668E+00
        -11   -1    0    0    0    0  0.00000000000E+00  0.00000000000E+00  0.45593999997E+02  0.45594000000E+02  0.51100000000E-03 0.  1.
         11   -1    0    0    0    0 -0.00000000000E+00 -0.00000000000E+00 -0.45593999997E+02  0.45594000000E+02  0.51100000000E-03 0. -1.
    9900012    2    1    2    0    0 -0.20576096930E+02  0.81346250166E+01  0.37337316536E+02  0.47787273103E+02  0.20000009387E+02 0.  0.
         12    1    1    2    0    0  0.20576096930E+02 -0.81346250166E+01 -0.37337316536E+02  0.43400726897E+02  0.00000000000E+00 0. -1.
         11    1    3    3    0    0 -0.18603961709E+02  0.75046468308E+01  0.19605208103E+02  0.28049800362E+02  0.51100000000E-03 0. -1.
        -11    1    3    3    0    0  0.25830870767E+01 -0.97016183269E+00  0.23794225983E+01  0.36435154713E+01  0.51100000000E-03 0.  1.
        -12    1    3    3    0    0 -0.45552222975E+01  0.16001400186E+01  0.15352685835E+02  0.16093957270E+02  0.00000000000E+00 0.  1.
</event>
<event>
 7    1  0.2476315E-009  0.4778730E+02  0.7816164E-02  0.1312668E+00
        -11   -1    0    0    0    0  0.00000000000E+00  0.00000000000E+00  0.45593999997E+02  0.45594000000E+02  0.51100000000E-03 0. -1.
         11   -1    0    0    0    0 -0.00000000000E+00 -0.00000000000E+00 -0.45593999997E+02  0.45594000000E+02  0.51100000000E-03 0.  1.
    9900012    2    1    2    0    0  0.23641768425E+02  0.34404180728E+02 -0.11876025900E+02  0.47787298889E+02  0.20000126952E+02 0.  0.
         12    1    1    2    0    0 -0.23641768425E+02 -0.34404180728E+02  0.11876025900E+02  0.43400701111E+02  0.00000000000E+00 0. -1.
         11    1    3    3    0    0  0.84949476541E+01  0.30924832742E+01  0.12596562324E+01  0.91276679679E+01  0.51100000000E-03 0.  1.
        -11    1    3    3    0    0  0.47785999196E+01  0.15461742776E+02 -0.11070229388E+02  0.19607408952E+02  0.51100000000E-03 0. -1.
        -12    1    3    3    0    0  0.10368220851E+02  0.15849954677E+02 -0.20654527450E+01  0.19052221968E+02  0.00000000000E+00 0.  1.
</event>
<event>
 7    1  0.2476315E-009  0.4778727E+02  0.7816164E-02  0.1312668E+00
        -11   -1    0    0    0    0  0.00000000000E+00  0.00000000000E+00  0.45593999997E+02  0.45594000000E+02  0.51100000000E-03 0. -1.
         11   -1    0    0    0    0 -0.00000000000E+00 -0.00000000000E+00 -0.45593999997E+02  0.45594000000E+02  0.51100000000E-03 0.  1.
    9900012    2    1    2    0    0 -0.43203625312E+02  0.35517656057E+01 -0.21106452268E+01  0.47787273021E+02  0.20000009011E+02 0.  0.
         12    1    1    2    0    0  0.43203625312E+02 -0.35517656057E+01  0.21106452268E+01  0.43400726979E+02  0.00000000000E+00 0. -1.
         11    1    3    3    0    0 -0.33324758626E+01  0.16814688757E+01 -0.64443912061E+01  0.74473425618E+01  0.51100000000E-03 0. -1.
        -11    1    3    3    0    0 -0.37739014360E+02  0.19061654762E+01  0.31936242882E+01  0.37921839460E+02  0.51100000000E-03 0.  1.
         12    1    3    3    0    0 -0.21321350899E+01 -0.35868746267E-01  0.11401216911E+01  0.24180909989E+01  0.00000000000E+00 0. -1.
</event>
<event>
 7    1  0.2476315E-009  0.4778727E+02  0.7816164E-02  0.1312668E+00
        -11   -1    0    0    0    0  0.00000000000E+00  0.00000000000E+00  0.45593999997E+02  0.45594000000E+02  0.51100000000E-03 0.  1.
         11   -1    0    0    0    0 -0.00000000000E+00 -0.00000000000E+00 -0.45593999997E+02  0.45594000000E+02  0.51100000000E-03 0. -1.
    9900012    2    1    2    0    0  0.26877785372E+02 -0.24466085687E+02  0.23719592442E+02  0.47787265433E+02  0.19999974414E+02 0.  0.
         12    1    1    2    0    0 -0.26877785372E+02  0.24466085687E+02 -0.23719592442E+02  0.43400734567E+02  0.00000000000E+00 0. -1.
         11    1    3    3    0    0  0.46323829197E+01  0.28251450226E+01  0.90233535279E+00  0.55004204624E+01  0.51100000000E-03 0. -1.
        -11    1    3    3    0    0  0.15640717389E+02 -0.21060091866E+02  0.19219261313E+02  0.32519832649E+02  0.51100000000E-03 0.  1.
        -12    1    3    3    0    0  0.66046850628E+01 -0.62311388434E+01  0.35979957768E+01  0.97670123208E+01  0.00000000000E+00 0.  1.
</event>
<event>
 7    1  0.2476315E-009  0.4778727E+02  0.7816164E-02  0.1312668E+00
        -11   -1    0    0    0    0  0.00000000000E+00  0.00000000000E+00  0.45593999997E+02  0.45594000000E+02  0.51100000000E-03 0. -1.
         11   -1    0    0    0    0 -0.00000000000E+00 -0.00000000000E+00 -0.45593999997E+02  0.45594000000E+02  0.51100000000E-03 0.  1.
    9900012    2    1    2    0    0 -0.32551454417E+02 -0.13932323052E+02 -0.25098134534E+02  0.47787272272E+02  0.20000005595E+02 0.  0.
         12    1    1    2    0    0  0.32551454417E+02  0.13932323052E+02  0.25098134534E+02  0.43400727728E+02  0.00000000000E+00 0. -1.
         11    1    3    3    0    0 -0.10545184053E+02  0.30205592960E+01 -0.26835021103E+01  0.11292735231E+02  0.51100000000E-03 0. -1.
        -11    1    3    3    0    0 -0.76292745324E+01 -0.27004759451E+01 -0.36015389134E+01  0.88583002335E+01  0.51100000000E-03 0.  1.
         12    1    3    3    0    0 -0.14376995832E+02 -0.14252406402E+02 -0.18813093510E+02  0.27636236807E+02  0.00000000000E+00 0. -1.
</event>
<event>
 7    1  0.2476315E-009  0.4778727E+02  0.7816164E-02  0.1312668E+00
        -11   -1    0    0    0    0  0.00000000000E+00  0.00000000000E+00  0.45593999997E+02  0.45594000000E+02  0.51100000000E-03 0.  1.
         11   -1    0    0    0    0 -0.00000000000E+00 -0.00000000000E+00 -0.45593999997E+02  0.45594000000E+02  0.51100000000E-03 0. -1.
    9900012    2    1    2    0    0  0.14149467970E+02 -0.30596946053E+02  0.27335735441E+02  0.47787274387E+02  0.20000015242E+02 0.  0.
         12    1    1    2    0    0 -0.14149467970E+02  0.30596946053E+02 -0.27335735441E+02  0.43400725613E+02  0.00000000000E+00 0. -1.
         11    1    3    3    0    0  0.11285016958E+02 -0.23515779741E+02  0.14673121217E+02  0.29927311792E+02  0.51100000000E-03 0. -1.
        -11    1    3    3    0    0  0.58064714884E+01 -0.51463790858E+01  0.44980080319E+01  0.89684115292E+01  0.51100000000E-03 0.  1.
         12    1    3    3    0    0 -0.29420204769E+01 -0.19347872264E+01  0.81646061921E+01  0.88915510666E+01  0.00000000000E+00 0. -1.
</event>
<event>
 7    1  0.2476315E-009  0.4778727E+02  0.7816164E-02  0.1312668E+00
        -11   -1    0    0    0    0  0.00000000000E+00  0.00000000000E+00  0.45593999997E+02  0.45594000000E+02  0.51100000000E-03 0.  1.
         11   -1    0    0    0    0 -0.00000000000E+00 -0.00000000000E+00 -0.45593999997E+02  0.45594000000E+02  0.51100000000E-03 0. -1.
    9900012    2    1    2    0    0 -0.23298644128E+02  0.27281804075E+02  0.24423343811E+02  0.47787269883E+02  0.19999994702E+02 0.  0.
         12    1    1    2    0    0  0.23298644128E+02 -0.27281804075E+02 -0.24423343811E+02  0.43400730117E+02  0.00000000000E+00 0. -1.
         11    1    3    3    0    0 -0.10436412315E+02  0.85362103436E+01  0.53001629040E+01  0.14487143131E+02  0.51100000000E-03 0. -1.
        -11    1    3    3    0    0 -0.11755975605E+02  0.16154065981E+02  0.21689514348E+02  0.29488842687E+02  0.51100000000E-03 0.  1.
        -12    1    3    3    0    0 -0.11062562089E+01  0.25915277508E+01 -0.25663334412E+01  0.38112840637E+01  0.00000000000E+00 0.  1.
</event>
<event>
 7    1  0.2476315E-009  0.4778727E+02  0.7816164E-02  0.1312668E+00
        -11   -1    0    0    0    0  0.00000000000E+00  0.00000000000E+00  0.45593999997E+02  0.45594000000E+02  0.51100000000E-03 0.  1.
         11   -1    0    0    0    0 -0.00000000000E+00 -0.00000000000E+00 -0.45593999997E+02  0.45594000000E+02  0.51100000000E-03 0. -1.
    9900012    2    1    2    0    0 -0.26673868537E+02  0.23244658725E+02  0.25135910831E+02  0.47787269185E+02  0.19999991523E+02 0.  0.
         12    1    1    2    0    0  0.26673868537E+02 -0.23244658725E+02 -0.25135910831E+02  0.43400730815E+02  0.00000000000E+00 0. -1.
         11    1    3    3    0    0 -0.25720409393E+01  0.12326869511E+02  0.67267417682E+01  0.14276419775E+02  0.51100000000E-03 0. -1.
        -11    1    3    3    0    0 -0.18111967663E+02  0.12220433070E+02  0.14923007644E+02  0.26458996853E+02  0.51100000000E-03 0.  1.
         12    1    3    3    0    0 -0.59898599345E+01 -0.13026438558E+01  0.34861614185E+01  0.70518525570E+01  0.00000000000E+00 0. -1.
</event>
<event>
 7    1  0.2476315E-009  0.4778727E+02  0.7816164E-02  0.1312668E+00
        -11   -1    0    0    0    0  0.00000000000E+00  0.00000000000E+00  0.45593999997E+02  0.45594000000E+02  0.51100000000E-03 0. -1.
         11   -1    0    0    0    0 -0.00000000000E+00 -0.00000000000E+00 -0.45593999997E+02  0.45594000000E+02  0.51100000000E-03 0.  1.
    9900012    2    1    2    0    0  0.30144069015E+02 -0.94951129831E+01 -0.29745616646E+02  0.47787265249E+02  0.19999973575E+02 0.  0.
         12    1    1    2    0    0 -0.30144069015E+02  0.94951129831E+01  0.29745616646E+02  0.43400734751E+02  0.00000000000E+00 0. -1.
         11    1    3    3    0    0  0.28678736903E+01 -0.35057169669E+01 -0.16981269441E+01  0.48371878540E+01  0.51100000000E-03 0. -1.
        -11    1    3    3    0    0 -0.10029847377E+01  0.54039017058E+00 -0.70155789869E+01  0.71074853995E+01  0.51100000000E-03 0.  1.
        -12    1    3    3    0    0  0.28279180062E+02 -0.65297861868E+01 -0.21031910715E+02  0.35842591995E+02  0.00000000000E+00 0.  1.
</event>
<event>
 7    1  0.2476315E-009  0.4778722E+02  0.7816164E-02  0.1312668E+00
        -11   -1    0    0    0    0  0.00000000000E+00  0.00000000000E+00  0.45593999997E+02  0.45594000000E+02  0.51100000000E-03 0.  1.
         11   -1    0    0    0    0 -0.00000000000E+00 -0.00000000000E+00 -0.45593999997E+02  0.45594000000E+02  0.51100000000E-03 0. -1.
    9900012    2    1    2    0    0  0.83505811731E+01 -0.10637048470E+02  0.41240129305E+02  0.47787224993E+02  0.19999790034E+02 0.  0.
         12    1    1    2    0    0 -0.83505811731E+01  0.10637048470E+02 -0.41240129305E+02  0.43400775007E+02  0.00000000000E+00 0. -1.
         11    1    3    3    0    0  0.36009767742E+01  0.76775045682E+00 -0.65904540729E+00  0.37404298687E+01  0.51100000000E-03 0. -1.
        -11    1    3    3    0    0  0.59994325782E+01 -0.89742484718E+01  0.31691470960E+02  0.33479540899E+02  0.51100000000E-03 0.  1.
         12    1    3    3    0    0 -0.12498281793E+01 -0.24305504547E+01  0.10207703752E+02  0.10567254226E+02  0.00000000000E+00 0. -1.
</event>
<event>
 7    1  0.2476315E-009  0.4778728E+02  0.7816164E-02  0.1312668E+00
        -11   -1    0    0    0    0  0.00000000000E+00  0.00000000000E+00  0.45593999997E+02  0.45594000000E+02  0.51100000000E-03 0. -1.
         11   -1    0    0    0    0 -0.00000000000E+00 -0.00000000000E+00 -0.45593999997E+02  0.45594000000E+02  0.51100000000E-03 0.  1.
    9900012    2    1    2    0    0  0.10228455672E+02  0.41809291834E+02 -0.55663614292E+01  0.47787279169E+02  0.20000037041E+02 0.  0.
         12    1    1    2    0    0 -0.10228455672E+02 -0.41809291834E+02  0.55663614292E+01  0.43400720831E+02  0.00000000000E+00 0. -1.
         11    1    3    3    0    0 -0.28124737493E+01  0.77629155619E+01  0.39144298719E+01  0.91375942182E+01  0.51100000000E-03 0. -1.
        -11    1    3    3    0    0  0.29111387642E+00  0.42912887260E+01 -0.38889995080E+01  0.57986398106E+01  0.51100000000E-03 0.  1.
         12    1    3    3    0    0  0.12749815544E+02  0.29755087547E+02 -0.55917917931E+01  0.32851045140E+02  0.00000000000E+00 0. -1.
</event>
<event>
 7    1  0.2476315E-009  0.4778728E+02  0.7816164E-02  0.1312668E+00
        -11   -1    0    0    0    0  0.00000000000E+00  0.00000000000E+00  0.45593999997E+02  0.45594000000E+02  0.51100000000E-03 0.  1.
         11   -1    0    0    0    0 -0.00000000000E+00 -0.00000000000E+00 -0.45593999997E+02  0.45594000000E+02  0.51100000000E-03 0. -1.
    9900012    2    1    2    0    0  0.21022300881E+02  0.24118739393E+02  0.29325275947E+02  0.47787279573E+02  0.20000038883E+02 0.  0.
         12    1    1    2    0    0 -0.21022300881E+02 -0.24118739393E+02 -0.29325275947E+02  0.43400720427E+02  0.00000000000E+00 0. -1.
         11    1    3    3    0    0  0.10119331903E+02  0.19475176509E+02  0.16843475419E+02  0.27665611193E+02  0.51100000000E-03 0. -1.
        -11    1    3    3    0    0  0.56376637179E+01 -0.85084231345E+00  0.10969698235E+02  0.12362906797E+02  0.51100000000E-03 0.  1.
         12    1    3    3    0    0  0.52653052600E+01  0.54944051976E+01  0.15121022931E+01  0.77587615829E+01  0.00000000000E+00 0. -1.
</event>
<event>
 7    1  0.2476315E-009  0.4778727E+02  0.7816164E-02  0.1312668E+00
        -11   -1    0    0    0    0  0.00000000000E+00  0.00000000000E+00  0.45593999997E+02  0.45594000000E+02  0.51100000000E-03 0.  1.
         11   -1    0    0    0    0 -0.00000000000E+00 -0.00000000000E+00 -0.45593999997E+02  0.45594000000E+02  0.51100000000E-03 0. -1.
    9900012    2    1    2    0    0 -0.19971386617E+02 -0.20293151261E+02  0.32755988996E+02  0.47787273202E+02  0.20000009836E+02 0.  0.
         12    1    1    2    0    0  0.19971386617E+02  0.20293151261E+02 -0.32755988996E+02  0.43400726798E+02  0.00000000000E+00 0. -1.
         11    1    3    3    0    0 -0.13944629607E+02 -0.78421781287E+01  0.93248850217E+01  0.18517719450E+02  0.51100000000E-03 0. -1.
        -11    1    3    3    0    0 -0.76918737532E+01 -0.11420721204E+02  0.23579888308E+02  0.27305840539E+02  0.51100000000E-03 0.  1.
        -12    1    3    3    0    0  0.16651167433E+01 -0.10302519279E+01 -0.14878433404E+00  0.19637132127E+01  0.00000000000E+00 0.  1.
</event>
<event>
 7    1  0.2476315E-009  0.4778727E+02  0.7816164E-02  0.1312668E+00
        -11   -1    0    0    0    0  0.00000000000E+00  0.00000000000E+00  0.45593999997E+02  0.45594000000E+02  0.51100000000E-03 0.  1.
         11   -1    0    0    0    0 -0.00000000000E+00 -0.00000000000E+00 -0.45593999997E+02  0.45594000000E+02  0.51100000000E-03 0. -1.
    9900012    2    1    2    0    0  0.31981888115E+02 -0.53445908202E+01  0.28848180105E+02  0.47787270584E+02  0.19999997902E+02 0.  0.
         12    1    1    2    0    0 -0.31981888115E+02  0.53445908202E+01 -0.28848180105E+02  0.43400729416E+02  0.00000000000E+00 0. -1.
         11    1    3    3    0    0  0.24945059846E+02 -0.26865271835E+01  0.21023146113E+02  0.32732951468E+02  0.51100000000E-03 0. -1.
        -11    1    3    3    0    0  0.72394141996E+01  0.44014767148E+00  0.91523407667E+01  0.11677679123E+02  0.51100000000E-03 0.  1.
         12    1    3    3    0    0 -0.20258593084E+00 -0.30982113082E+01 -0.13273067752E+01  0.33766399934E+01  0.00000000000E+00 0. -1.
</event>
<event>
 7    1  0.2476315E-009  0.4778727E+02  0.7816164E-02  0.1312668E+00
        -11   -1    0    0    0    0  0.00000000000E+00  0.00000000000E+00  0.45593999997E+02  0.45594000000E+02  0.51100000000E-03 0.  1.
         11   -1    0    0    0    0 -0.00000000000E+00 -0.00000000000E+00 -0.45593999997E+02  0.45594000000E+02  0.51100000000E-03 0. -1.
    9900012    2    1    2    0    0 -0.27252806919E+01 -0.75086748402E+01  0.42659300835E+02  0.47787270738E+02  0.19999998604E+02 0.  0.
         12    1    1    2    0    0  0.27252806919E+01  0.75086748402E+01 -0.42659300835E+02  0.43400729262E+02  0.00000000000E+00 0. -1.
         11    1    3    3    0    0  0.39002752858E+00 -0.26413578403E+00 -0.30650678204E+00  0.56199275263E+00  0.51100000000E-03 0. -1.
        -11    1    3    3    0    0  0.16765153310E+01 -0.77725414012E+01  0.41399836013E+02  0.42156488535E+02  0.51100000000E-03 0.  1.
        -12    1    3    3    0    0 -0.47918235515E+01  0.52800234497E+00  0.15659716045E+01  0.50687894503E+01  0.00000000000E+00 0.  1.
</event>
<event>
 7    1  0.2476315E-009  0.4778727E+02  0.7816164E-02  0.1312668E+00
        -11   -1    0    0    0    0  0.00000000000E+00  0.00000000000E+00  0.45593999997E+02  0.45594000000E+02  0.51100000000E-03 0.  1.
         11   -1    0    0    0    0 -0.00000000000E+00 -0.00000000000E+00 -0.45593999997E+02  0.45594000000E+02  0.51100000000E-03 0. -1.
    9900012    2    1    2    0    0 -0.49373864143E+01 -0.29703189309E+02  0.31256459645E+02  0.47787268333E+02  0.19999987636E+02 0.  0.
         12    1    1    2    0    0  0.49373864143E+01  0.29703189309E+02 -0.31256459645E+02  0.43400731667E+02  0.00000000000E+00 0. -1.
         11    1    3    3    0    0  0.35454715524E+01 -0.17753552866E+02  0.15123001158E+02  0.23589492835E+02  0.51100000000E-03 0.  1.
        -11    1    3    3    0    0 -0.10397724935E+02 -0.12272364884E+02  0.14610263658E+02  0.21729782054E+02  0.51100000000E-03 0. -1.
        -12    1    3    3    0    0  0.19148669688E+01  0.32272844131E+00  0.15231948289E+01  0.24679934444E+01  0.00000000000E+00 0.  1.
</event>
<event>
 7    1  0.2476315E-009  0.4778728E+02  0.7816164E-02  0.1312668E+00
        -11   -1    0    0    0    0  0.00000000000E+00  0.00000000000E+00  0.45593999997E+02  0.45594000000E+02  0.51100000000E-03 0.  1.
         11   -1    0    0    0    0 -0.00000000000E+00 -0.00000000000E+00 -0.45593999997E+02  0.45594000000E+02  0.51100000000E-03 0. -1.
    9900012    2    1    2    0    0 -0.14909065301E+02  0.19259208227E+02  0.35922492024E+02  0.47787276931E+02  0.20000026840E+02 0.  0.
         12    1    1    2    0    0  0.14909065301E+02 -0.19259208227E+02 -0.35922492024E+02  0.43400723069E+02  0.00000000000E+00 0. -1.
         11    1    3    3    0    0 -0.11322415713E+02  0.38942601227E+01  0.14880863726E+02  0.19099802747E+02  0.51100000000E-03 0.  1.
        -11    1    3    3    0    0 -0.46098031744E+01  0.46454384216E+01  0.20545362935E+01  0.68594098200E+01  0.51100000000E-03 0. -1.
         12    1    3    3    0    0  0.10231535860E+01  0.10719509682E+02  0.18987092005E+02  0.21828064364E+02  0.00000000000E+00 0. -1.
</event>
<event>
 7    1  0.2476315E-009  0.4778727E+02  0.7816164E-02  0.1312668E+00
        -11   -1    0    0    0    0  0.00000000000E+00  0.00000000000E+00  0.45593999997E+02  0.45594000000E+02  0.51100000000E-03 0. -1.
         11   -1    0    0    0    0 -0.00000000000E+00 -0.00000000000E+00 -0.45593999997E+02  0.45594000000E+02  0.51100000000E-03 0.  1.
    9900012    2    1    2    0    0 -0.16697554909E+02  0.42904633856E+01 -0.39829723144E+02  0.47787271184E+02  0.20000000637E+02 0.  0.
         12    1    1    2    0    0  0.16697554909E+02 -0.42904633856E+01  0.39829723144E+02  0.43400728816E+02  0.00000000000E+00 0. -1.
         11    1    3    3    0    0 -0.10566762747E+02 -0.17844847017E+01 -0.92478180391E+01  0.14154963771E+02  0.51100000000E-03 0. -1.
        -11    1    3    3    0    0 -0.64299147760E+01  0.53310343146E+01 -0.31396969375E+02  0.32488973777E+02  0.51100000000E-03 0.  1.
        -12    1    3    3    0    0  0.29912261378E+00  0.74391377274E+00  0.81506427015E+00  0.11433336363E+01  0.00000000000E+00 0.  1.
</event>
<event>
 7    1  0.2476315E-009  0.4778727E+02  0.7816164E-02  0.1312668E+00
        -11   -1    0    0    0    0  0.00000000000E+00  0.00000000000E+00  0.45593999997E+02  0.45594000000E+02  0.51100000000E-03 0. -1.
         11   -1    0    0    0    0 -0.00000000000E+00 -0.00000000000E+00 -0.45593999997E+02  0.45594000000E+02  0.51100000000E-03 0.  1.
    9900012    2    1    2    0    0 -0.11715688917E+01  0.21675183690E+02 -0.37582401102E+02  0.47787273805E+02  0.20000012586E+02 0.  0.
         12    1    1    2    0    0  0.11715688917E+01 -0.21675183690E+02  0.37582401102E+02  0.43400726195E+02  0.00000000000E+00 0. -1.
         11    1    3    3    0    0  0.12806270418E+00  0.18753275188E+00  0.18014876087E+01  0.18157440498E+01  0.51100000000E-03 0. -1.
        -11    1    3    3    0    0 -0.76217240229E+00  0.19484337183E+02 -0.39328017439E+02  0.43896620122E+02  0.51100000000E-03 0.  1.
        -12    1    3    3    0    0 -0.53745919358E+00  0.20033137548E+01 -0.55871271840E-01  0.20749096327E+01  0.00000000000E+00 0.  1.
</event>
<event>
 7    1  0.2476315E-009  0.4778727E+02  0.7816164E-02  0.1312668E+00
        -11   -1    0    0    0    0  0.00000000000E+00  0.00000000000E+00  0.45593999997E+02  0.45594000000E+02  0.51100000000E-03 0.  1.
         11   -1    0    0    0    0 -0.00000000000E+00 -0.00000000000E+00 -0.45593999997E+02  0.45594000000E+02  0.51100000000E-03 0. -1.
    9900012    2    1    2    0    0  0.13940236904E+01 -0.48708129321E+01  0.43104005508E+02  0.47787269459E+02  0.19999992772E+02 0.  0.
         12    1    1    2    0    0 -0.13940236904E+01  0.48708129321E+01 -0.43104005508E+02  0.43400730541E+02  0.00000000000E+00 0. -1.
         11    1    3    3    0    0 -0.50480424407E+01  0.47343556411E+01  0.73936519061E+01  0.10127336500E+02  0.51100000000E-03 0. -1.
        -11    1    3    3    0    0  0.18633211942E+01 -0.49811203196E+01  0.18899943109E+02  0.19633934279E+02  0.51100000000E-03 0.  1.
         12    1    3    3    0    0  0.45787449369E+01 -0.46240482536E+01  0.16810410493E+02  0.18025998679E+02  0.00000000000E+00 0. -1.
</event>
<event>
 7    1  0.2476315E-009  0.4778727E+02  0.7816164E-02  0.1312668E+00
        -11   -1    0    0    0    0  0.00000000000E+00  0.00000000000E+00  0.45593999997E+02  0.45594000000E+02  0.51100000000E-03 0. -1.
         11   -1    0    0    0    0 -0.00000000000E+00 -0.00000000000E+00 -0.45593999997E+02  0.45594000000E+02  0.51100000000E-03 0.  1.
    9900012    2    1    2    0    0 -0.76402704578E+01 -0.35706734102E+02 -0.23458013774E+02  0.47787274164E+02  0.20000014222E+02 0.  0.
         12    1    1    2    0    0  0.76402704578E+01  0.35706734102E+02  0.23458013774E+02  0.43400725836E+02  0.00000000000E+00 0. -1.
         11    1    3    3    0    0 -0.18836236452E+01 -0.16929326480E+02 -0.21331187700E+02  0.27297796652E+02  0.51100000000E-03 0.  1.
        -11    1    3    3    0    0 -0.51893088854E+01 -0.13700086332E+02  0.66968558057E+00  0.14665257286E+02  0.51100000000E-03 0. -1.
        -12    1    3    3    0    0 -0.56733792721E+00 -0.50773212902E+01 -0.27965116541E+01  0.58242202259E+01  0.00000000000E+00 0.  1.
</event>
<event>
 7    1  0.2476315E-009  0.4778727E+02  0.7816164E-02  0.1312668E+00
        -11   -1    0    0    0    0  0.00000000000E+00  0.00000000000E+00  0.45593999997E+02  0.45594000000E+02  0.51100000000E-03 0.  1.
         11   -1    0    0    0    0 -0.00000000000E+00 -0.00000000000E+00 -0.45593999997E+02  0.45594000000E+02  0.51100000000E-03 0. -1.
    9900012    2    1    2    0    0  0.34352439138E+02  0.64701692473E+01  0.25722950991E+02  0.47787269908E+02  0.19999994820E+02 0.  0.
         12    1    1    2    0    0 -0.34352439138E+02 -0.64701692473E+01 -0.25722950991E+02  0.43400730092E+02  0.00000000000E+00 0. -1.
         11    1    3    3    0    0  0.94053422913E+01  0.36128808324E+01  0.10330818013E+01  0.10128209605E+02  0.51100000000E-03 0. -1.
        -11    1    3    3    0    0  0.14805800469E+01 -0.38683579630E+00  0.92642648558E+01  0.93898009983E+01  0.51100000000E-03 0.  1.
        -12    1    3    3    0    0  0.23466516799E+02  0.32441242112E+01  0.15425604334E+02  0.28269259305E+02  0.00000000000E+00 0.  1.
</event>
<event>
 7    1  0.2476315E-009  0.4778727E+02  0.7816164E-02  0.1312668E+00
        -11   -1    0    0    0    0  0.00000000000E+00  0.00000000000E+00  0.45593999997E+02  0.45594000000E+02  0.51100000000E-03 0.  1.
         11   -1    0    0    0    0 -0.00000000000E+00 -0.00000000000E+00 -0.45593999997E+02  0.45594000000E+02  0.51100000000E-03 0. -1.
    9900012    2    1    2    0    0 -0.38095787510E+02  0.20067150446E+02  0.54445765717E+01  0.47787274579E+02  0.20000016114E+02 0.  0.
         12    1    1    2    0    0  0.38095787510E+02 -0.20067150446E+02 -0.54445765717E+01  0.43400725421E+02  0.00000000000E+00 0. -1.
         11    1    3    3    0    0  0.57586286407E+00  0.50148303499E+01 -0.84789169449E+00  0.51185019355E+01  0.51100000000E-03 0. -1.
        -11    1    3    3    0    0 -0.36781519497E+02  0.14955959509E+02  0.43282657748E+01  0.39941141524E+02  0.51100000000E-03 0.  1.
        -12    1    3    3    0    0 -0.18901308771E+01  0.96360587063E-01  0.19642024914E+01  0.27276311192E+01  0.00000000000E+00 0.  1.
</event>
<event>
 7    1  0.2476315E-009  0.4778727E+02  0.7816164E-02  0.1312668E+00
        -11   -1    0    0    0    0  0.00000000000E+00  0.00000000000E+00  0.45593999997E+02  0.45594000000E+02  0.51100000000E-03 0. -1.
         11   -1    0    0    0    0 -0.00000000000E+00 -0.00000000000E+00 -0.45593999997E+02  0.45594000000E+02  0.51100000000E-03 0.  1.
    9900012    2    1    2    0    0  0.32853042015E+02  0.24122453501E+02  0.14913357866E+02  0.47787269875E+02  0.19999994667E+02 0.  0.
         12    1    1    2    0    0 -0.32853042015E+02 -0.24122453501E+02 -0.14913357866E+02  0.43400730125E+02  0.00000000000E+00 0. -1.
         11    1    3    3    0    0  0.53850735190E+01  0.93006252067E+01  0.73536633022E+01  0.13022173792E+02  0.51100000000E-03 0. -1.
        -11    1    3    3    0    0  0.27647109165E+02  0.16429216587E+02  0.64419326176E+01  0.32799089910E+02  0.51100000000E-03 0.  1.
        -12    1    3    3    0    0 -0.17914066830E+00 -0.16073882928E+01  0.11177619463E+01  0.19660061728E+01  0.00000000000E+00 0.  1.
</event>
<event>
 7    1  0.2476315E-009  0.4778726E+02  0.7816164E-02  0.1312668E+00
        -11   -1    0    0    0    0  0.00000000000E+00  0.00000000000E+00  0.45593999997E+02  0.45594000000E+02  0.51100000000E-03 0.  1.
         11   -1    0    0    0    0 -0.00000000000E+00 -0.00000000000E+00 -0.45593999997E+02  0.45594000000E+02  0.51100000000E-03 0. -1.
    9900012    2    1    2    0    0  0.15809417468E+02 -0.35943321114E+02  0.18486854461E+02  0.47787264969E+02  0.19999972300E+02 0.  0.
         12    1    1    2    0    0 -0.15809417468E+02  0.35943321114E+02 -0.18486854461E+02  0.43400735031E+02  0.00000000000E+00 0. -1.
         11    1    3    3    0    0 -0.13352883166E+01 -0.76248276339E+01 -0.30093026005E+01  0.83052329129E+01  0.51100000000E-03 0. -1.
        -11    1    3    3    0    0  0.58663546912E+01 -0.10195329520E+02  0.80689050307E+01  0.14264154024E+02  0.51100000000E-03 0.  1.
         12    1    3    3    0    0  0.11278351093E+02 -0.18123163960E+02  0.13427252031E+02  0.25217878032E+02  0.00000000000E+00 0. -1.
</event>
<event>
 7    1  0.2476315E-009  0.4778726E+02  0.7816164E-02  0.1312668E+00
        -11   -1    0    0    0    0  0.00000000000E+00  0.00000000000E+00  0.45593999997E+02  0.45594000000E+02  0.51100000000E-03 0. -1.
         11   -1    0    0    0    0 -0.00000000000E+00 -0.00000000000E+00 -0.45593999997E+02  0.45594000000E+02  0.51100000000E-03 0.  1.
    9900012    2    1    2    0    0  0.23574477883E+02 -0.87895758492E+01 -0.35363987676E+02  0.47787259506E+02  0.19999947393E+02 0.  0.
         12    1    1    2    0    0 -0.23574477883E+02  0.87895758492E+01  0.35363987676E+02  0.43400740494E+02  0.00000000000E+00 0. -1.
         11    1    3    3    0    0  0.10450946295E+02 -0.33315560658E+01 -0.45529515838E+01  0.11876485704E+02  0.51100000000E-03 0. -1.
        -11    1    3    3    0    0  0.59000703589E+01  0.64073169749E+00 -0.22672718900E+02  0.23436585714E+02  0.51100000000E-03 0.  1.
         12    1    3    3    0    0  0.72234612282E+01 -0.60987514810E+01 -0.81383171927E+01  0.12474188089E+02  0.00000000000E+00 0. -1.
</event>
<event>
 7    1  0.2476315E-009  0.4778726E+02  0.7816164E-02  0.1312668E+00
        -11   -1    0    0    0    0  0.00000000000E+00  0.00000000000E+00  0.45593999997E+02  0.45594000000E+02  0.51100000000E-03 0.  1.
         11   -1    0    0    0    0 -0.00000000000E+00 -0.00000000000E+00 -0.45593999997E+02  0.45594000000E+02  0.51100000000E-03 0. -1.
    9900012    2    1    2    0    0 -0.30137485958E+02  0.37539394313E+01  0.31004259914E+02  0.47787259754E+02  0.19999948521E+02 0.  0.
         12    1    1    2    0    0  0.30137485958E+02 -0.37539394313E+01 -0.31004259914E+02  0.43400740246E+02  0.00000000000E+00 0. -1.
         11    1    3    3    0    0 -0.16029749467E+02 -0.56154272793E+01  0.19676845608E+02  0.25993540445E+02  0.51100000000E-03 0. -1.
        -11    1    3    3    0    0 -0.99068077308E+01  0.80369810863E+01  0.11779289169E+02  0.17363454667E+02  0.51100000000E-03 0.  1.
         12    1    3    3    0    0 -0.42009287606E+01  0.13323856243E+01 -0.45187486378E+00  0.44302646417E+01  0.00000000000E+00 0. -1.
</event>
<event>
 7    1  0.2476315E-009  0.4778727E+02  0.7816164E-02  0.1312668E+00
        -11   -1    0    0    0    0  0.00000000000E+00  0.00000000000E+00  0.45593999997E+02  0.45594000000E+02  0.51100000000E-03 0. -1.
         11   -1    0    0    0    0 -0.00000000000E+00 -0.00000000000E+00 -0.45593999997E+02  0.45594000000E+02  0.51100000000E-03 0.  1.
    9900012    2    1    2    0    0  0.19997535114E+02 -0.38494666381E+02 -0.13720617999E+01  0.47787270698E+02  0.19999998419E+02 0.  0.
         12    1    1    2    0    0 -0.19997535114E+02  0.38494666381E+02  0.13720617999E+01  0.43400729302E+02  0.00000000000E+00 0. -1.
         11    1    3    3    0    0  0.65295758848E+01 -0.10110319974E+02 -0.68889184788E+01  0.13867628827E+02  0.51100000000E-03 0. -1.
        -11    1    3    3    0    0  0.25895782629E+01 -0.18087666379E+02  0.49478683056E+01  0.18930160899E+02  0.51100000000E-03 0.  1.
        -12    1    3    3    0    0  0.10878380967E+02 -0.10296680027E+02  0.56898837326E+00  0.14989480972E+02  0.00000000000E+00 0.  1.
</event>
<event>
 7    1  0.2476315E-009  0.4778727E+02  0.7816164E-02  0.1312668E+00
        -11   -1    0    0    0    0  0.00000000000E+00  0.00000000000E+00  0.45593999997E+02  0.45594000000E+02  0.51100000000E-03 0. -1.
         11   -1    0    0    0    0 -0.00000000000E+00 -0.00000000000E+00 -0.45593999997E+02  0.45594000000E+02  0.51100000000E-03 0.  1.
    9900012    2    1    2    0    0 -0.23176831082E+02  0.30329105503E+02 -0.20654369763E+02  0.47787272703E+02  0.20000007560E+02 0.  0.
         12    1    1    2    0    0  0.23176831082E+02 -0.30329105503E+02  0.20654369763E+02  0.43400727297E+02  0.00000000000E+00 0. -1.
         11    1    3    3    0    0  0.19817506182E+01  0.58795198680E+01 -0.33199744827E+01  0.70369254805E+01  0.51100000000E-03 0. -1.
        -11    1    3    3    0    0 -0.20386774896E+02  0.15231983280E+02 -0.76986427545E+01  0.26587647617E+02  0.51100000000E-03 0.  1.
        -12    1    3    3    0    0 -0.47718068048E+01  0.92176023551E+01 -0.96357525261E+01  0.14162699605E+02  0.00000000000E+00 0.  1.
</event>
<event>
 7    1  0.2476315E-009  0.4778727E+02  0.7816164E-02  0.1312668E+00
        -11   -1    0    0    0    0  0.00000000000E+00  0.00000000000E+00  0.45593999997E+02  0.45594000000E+02  0.51100000000E-03 0. -1.
         11   -1    0    0    0    0 -0.00000000000E+00 -0.00000000000E+00 -0.45593999997E+02  0.45594000000E+02  0.51100000000E-03 0.  1.
    9900012    2    1    2    0    0 -0.24573582530E+01  0.36157130511E+02 -0.23879839964E+02  0.47787268980E+02  0.19999990588E+02 0.  0.
         12    1    1    2    0    0  0.24573582530E+01 -0.36157130511E+02  0.23879839964E+02  0.43400731020E+02  0.00000000000E+00 0. -1.
         11    1    3    3    0    0  0.62181373374E+01  0.16753474086E+02 -0.33814029084E+01  0.18187303587E+02  0.51100000000E-03 0. -1.
        -11    1    3    3    0    0 -0.50905196448E+01  0.91114709018E+01 -0.94244467380E+01  0.14062449603E+02  0.51100000000E-03 0.  1.
         12    1    3    3    0    0 -0.35849759456E+01  0.10292185523E+02 -0.11073990318E+02  0.15537515790E+02  0.00000000000E+00 0. -1.
</event>
<event>
 7    1  0.2476315E-009  0.4778727E+02  0.7816164E-02  0.1312668E+00
        -11   -1    0    0    0    0  0.00000000000E+00  0.00000000000E+00  0.45593999997E+02  0.45594000000E+02  0.51100000000E-03 0.  1.
         11   -1    0    0    0    0 -0.00000000000E+00 -0.00000000000E+00 -0.45593999997E+02  0.45594000000E+02  0.51100000000E-03 0. -1.
    9900012    2    1    2    0    0  0.31890680999E+02  0.29437926397E+02  0.12605886768E+00  0.47787274938E+02  0.20000017750E+02 0.  0.
         12    1    1    2    0    0 -0.31890680999E+02 -0.29437926397E+02 -0.12605886768E+00  0.43400725062E+02  0.00000000000E+00 0. -1.
         11    1    3    3    0    0  0.95468868380E+00  0.98540048747E+01 -0.36403087416E+01  0.10548207931E+02  0.51100000000E-03 0. -1.
        -11    1    3    3    0    0  0.15124792587E+02  0.70009210419E+01  0.35010161697E+01  0.17030248404E+02  0.51100000000E-03 0.  1.
         12    1    3    3    0    0  0.15811199728E+02  0.12583000480E+02  0.26535143962E+00  0.20208818603E+02  0.00000000000E+00 0. -1.
</event>
<event>
 7    1  0.2476315E-009  0.4778727E+02  0.7816164E-02  0.1312668E+00
        -11   -1    0    0    0    0  0.00000000000E+00  0.00000000000E+00  0.45593999997E+02  0.45594000000E+02  0.51100000000E-03 0.  1.
         11   -1    0    0    0    0 -0.00000000000E+00 -0.00000000000E+00 -0.45593999997E+02  0.45594000000E+02  0.51100000000E-03 0. -1.
    9900012    2    1    2    0    0 -0.31872960703E+02 -0.28911122122E+02 -0.56466644951E+01  0.47787269289E+02  0.19999991994E+02 0.  0.
         12    1    1    2    0    0  0.31872960703E+02  0.28911122122E+02  0.56466644951E+01  0.43400730711E+02  0.00000000000E+00 0. -1.
         11    1    3    3    0    0 -0.71236336324E+01 -0.18346764972E+02 -0.11042519262E+01  0.19712161567E+02  0.51100000000E-03 0. -1.
        -11    1    3    3    0    0 -0.11243028245E+02 -0.44451432226E+01  0.12536701117E+01  0.12154697503E+02  0.51100000000E-03 0.  1.
         12    1    3    3    0    0 -0.13506298826E+02 -0.61192139272E+01 -0.57960826805E+01  0.15920410218E+02  0.00000000000E+00 0. -1.
</event>
<event>
 7    1  0.2476315E-009  0.4778727E+02  0.7816164E-02  0.1312668E+00
        -11   -1    0    0    0    0  0.00000000000E+00  0.00000000000E+00  0.45593999997E+02  0.45594000000E+02  0.51100000000E-03 0. -1.
         11   -1    0    0    0    0 -0.00000000000E+00 -0.00000000000E+00 -0.45593999997E+02  0.45594000000E+02  0.51100000000E-03 0.  1.
    9900012    2    1    2    0    0  0.84306602942E+01  0.42447126485E+02 -0.32845685036E+01  0.47787274544E+02  0.20000015955E+02 0.  0.
         12    1    1    2    0    0 -0.84306602942E+01 -0.42447126485E+02  0.32845685036E+01  0.43400725456E+02  0.00000000000E+00 0. -1.
         11    1    3    3    0    0  0.86700198969E+01  0.11199333715E+02  0.30290246044E+01  0.14483415032E+02  0.51100000000E-03 0. -1.
        -11    1    3    3    0    0 -0.11073225808E+01  0.30341565371E+02 -0.39365012406E+01  0.30615891213E+02  0.51100000000E-03 0.  1.
        -12    1    3    3    0    0  0.86796297816E+00  0.90622739930E+00 -0.23770918674E+01  0.26879682991E+01  0.00000000000E+00 0.  1.
</event>
<event>
 7    1  0.2476315E-009  0.4778727E+02  0.7816164E-02  0.1312668E+00
        -11   -1    0    0    0    0  0.00000000000E+00  0.00000000000E+00  0.45593999997E+02  0.45594000000E+02  0.51100000000E-03 0. -1.
         11   -1    0    0    0    0 -0.00000000000E+00 -0.00000000000E+00 -0.45593999997E+02  0.45594000000E+02  0.51100000000E-03 0.  1.
    9900012    2    1    2    0    0  0.13084546565E+02  0.41273582332E+02 -0.29848246314E+01  0.47787272640E+02  0.20000007273E+02 0.  0.
         12    1    1    2    0    0 -0.13084546565E+02 -0.41273582332E+02  0.29848246314E+01  0.43400727360E+02  0.00000000000E+00 0. -1.
         11    1    3    3    0    0 -0.44581622592E+01  0.64823533163E+01  0.14036344248E+01  0.79916397007E+01  0.51100000000E-03 0. -1.
        -11    1    3    3    0    0  0.71413436200E+01  0.20783628479E+02 -0.40430370586E+01  0.22345114687E+02  0.51100000000E-03 0.  1.
         12    1    3    3    0    0  0.10401365204E+02  0.14007600536E+02 -0.34542199756E+00  0.17450518252E+02  0.00000000000E+00 0. -1.
</event>
<event>
 7    1  0.2476315E-009  0.4778727E+02  0.7816164E-02  0.1312668E+00
        -11   -1    0    0    0    0  0.00000000000E+00  0.00000000000E+00  0.45593999997E+02  0.45594000000E+02  0.51100000000E-03 0. -1.
         11   -1    0    0    0    0 -0.00000000000E+00 -0.00000000000E+00 -0.45593999997E+02  0.45594000000E+02  0.51100000000E-03 0.  1.
    9900012    2    1    2    0    0  0.12104592021E+02  0.34533033505E+02 -0.23336058814E+02  0.47787271987E+02  0.20000004299E+02 0.  0.
         12    1    1    2    0    0 -0.12104592021E+02 -0.34533033505E+02  0.23336058814E+02  0.43400728013E+02  0.00000000000E+00 0. -1.
         11    1    3    3    0    0  0.39980258456E+01 -0.14935949158E+01 -0.18821709909E+01  0.46645047255E+01  0.51100000000E-03 0. -1.
        -11    1    3    3    0    0  0.19717010593E+01  0.14992598389E+02 -0.58043633119E+01  0.16197414770E+02  0.51100000000E-03 0.  1.
         12    1    3    3    0    0  0.61348651162E+01  0.21034030032E+02 -0.15649524511E+02  0.26925352492E+02  0.00000000000E+00 0. -1.
</event>
<event>
 7    1  0.2476315E-009  0.4778727E+02  0.7816164E-02  0.1312668E+00
        -11   -1    0    0    0    0  0.00000000000E+00  0.00000000000E+00  0.45593999997E+02  0.45594000000E+02  0.51100000000E-03 0.  1.
         11   -1    0    0    0    0 -0.00000000000E+00 -0.00000000000E+00 -0.45593999997E+02  0.45594000000E+02  0.51100000000E-03 0. -1.
    9900012    2    1    2    0    0 -0.46418059472E+01 -0.41488441364E+02  0.11865328142E+02  0.47787272573E+02  0.20000006967E+02 0.  0.
         12    1    1    2    0    0  0.46418059472E+01  0.41488441364E+02 -0.11865328142E+02  0.43400727427E+02  0.00000000000E+00 0. -1.
         11    1    3    3    0    0  0.62869373130E+01 -0.90604866046E+01  0.67264988121E+01  0.12917576585E+02  0.51100000000E-03 0. -1.
        -11    1    3    3    0    0 -0.69746422265E+01 -0.14900054516E+02  0.35572886799E+01  0.16831861507E+02  0.51100000000E-03 0.  1.
         12    1    3    3    0    0 -0.39541010337E+01 -0.17527900244E+02  0.15815406504E+01  0.18037834481E+02  0.00000000000E+00 0. -1.
</event>
<event>
 7    1  0.2476315E-009  0.4778727E+02  0.7816164E-02  0.1312668E+00
        -11   -1    0    0    0    0  0.00000000000E+00  0.00000000000E+00  0.45593999997E+02  0.45594000000E+02  0.51100000000E-03 0.  1.
         11   -1    0    0    0    0 -0.00000000000E+00 -0.00000000000E+00 -0.45593999997E+02  0.45594000000E+02  0.51100000000E-03 0. -1.
    9900012    2    1    2    0    0  0.17942079427E+02  0.16336419906E+02  0.35983692301E+02  0.47787274878E+02  0.20000017478E+02 0.  0.
         12    1    1    2    0    0 -0.17942079427E+02 -0.16336419906E+02 -0.35983692301E+02  0.43400725122E+02  0.00000000000E+00 0. -1.
         11    1    3    3    0    0 -0.20055153739E+01  0.46556105616E+01  0.37256828706E+01  0.62910662634E+01  0.51100000000E-03 0. -1.
        -11    1    3    3    0    0  0.16673783160E+02  0.97040073053E+01  0.16830415368E+02  0.25601673468E+02  0.51100000000E-03 0.  1.
        -12    1    3    3    0    0  0.32738116412E+01  0.19768020387E+01  0.15427594063E+02  0.15894535147E+02  0.00000000000E+00 0.  1.
</event>
<event>
 7    1  0.2476315E-009  0.4778727E+02  0.7816164E-02  0.1312668E+00
        -11   -1    0    0    0    0  0.00000000000E+00  0.00000000000E+00  0.45593999997E+02  0.45594000000E+02  0.51100000000E-03 0.  1.
         11   -1    0    0    0    0 -0.00000000000E+00 -0.00000000000E+00 -0.45593999997E+02  0.45594000000E+02  0.51100000000E-03 0. -1.
    9900012    2    1    2    0    0  0.41260250151E+01 -0.24812676477E+02  0.35368492439E+02  0.47787271275E+02  0.20000001053E+02 0.  0.
         12    1    1    2    0    0 -0.41260250151E+01  0.24812676477E+02 -0.35368492439E+02  0.43400728725E+02  0.00000000000E+00 0. -1.
         11    1    3    3    0    0  0.55050188360E+01 -0.31422386245E+01  0.32830306530E+01  0.71384302538E+01  0.51100000000E-03 0. -1.
        -11    1    3    3    0    0 -0.21071794665E+01 -0.22435109332E+02  0.32471699672E+02  0.39524493873E+02  0.51100000000E-03 0.  1.
        -12    1    3    3    0    0  0.72818564559E+00  0.76467147948E+00 -0.38623788581E+00  0.11243471485E+01  0.00000000000E+00 0.  1.
</event>
<event>
 7    1  0.2476315E-009  0.4778727E+02  0.7816164E-02  0.1312668E+00
        -11   -1    0    0    0    0  0.00000000000E+00  0.00000000000E+00  0.45593999997E+02  0.45594000000E+02  0.51100000000E-03 0.  1.
         11   -1    0    0    0    0 -0.00000000000E+00 -0.00000000000E+00 -0.45593999997E+02  0.45594000000E+02  0.51100000000E-03 0. -1.
    9900012    2    1    2    0    0 -0.16039148900E+02  0.13840984419E+02  0.37878704811E+02  0.47787269300E+02  0.19999992046E+02 0.  0.
         12    1    1    2    0    0  0.16039148900E+02 -0.13840984419E+02 -0.37878704811E+02  0.43400730700E+02  0.00000000000E+00 0. -1.
         11    1    3    3    0    0 -0.74642788129E+01  0.32883116039E+01  0.27041311629E+02  0.28244662970E+02  0.51100000000E-03 0.  1.
        -11    1    3    3    0    0 -0.12428591711E+01  0.58036839022E+01  0.42409938290E+00  0.59504038774E+01  0.51100000000E-03 0. -1.
         12    1    3    3    0    0 -0.73320109155E+01  0.47489889130E+01  0.10413293799E+02  0.13592202453E+02  0.00000000000E+00 0. -1.
</event>
<event>
 7    1  0.2476315E-009  0.4778725E+02  0.7816164E-02  0.1312668E+00
        -11   -1    0    0    0    0  0.00000000000E+00  0.00000000000E+00  0.45593999997E+02  0.45594000000E+02  0.51100000000E-03 0.  1.
         11   -1    0    0    0    0 -0.00000000000E+00 -0.00000000000E+00 -0.45593999997E+02  0.45594000000E+02  0.51100000000E-03 0. -1.
    9900012    2    1    2    0    0 -0.40533690685E+01 -0.72108043820E+01  0.42605155627E+02  0.47787253616E+02  0.19999920537E+02 0.  0.
         12    1    1    2    0    0  0.40533690685E+01  0.72108043820E+01 -0.42605155627E+02  0.43400746384E+02  0.00000000000E+00 0. -1.
         11    1    3    3    0    0 -0.61258587928E+01 -0.18991514066E+01  0.44873864153E+01  0.78274874075E+01  0.51100000000E-03 0. -1.
        -11    1    3    3    0    0 -0.15923530399E+01 -0.78049732436E-01  0.27651680861E+02  0.27697601605E+02  0.51100000000E-03 0.  1.
        -12    1    3    3    0    0  0.36648427642E+01 -0.52336032430E+01  0.10466088351E+02  0.12262164604E+02  0.00000000000E+00 0.  1.
</event>
<event>
 7    1  0.2476315E-009  0.4778726E+02  0.7816164E-02  0.1312668E+00
        -11   -1    0    0    0    0  0.00000000000E+00  0.00000000000E+00  0.45593999997E+02  0.45594000000E+02  0.51100000000E-03 0.  1.
         11   -1    0    0    0    0 -0.00000000000E+00 -0.00000000000E+00 -0.45593999997E+02  0.45594000000E+02  0.51100000000E-03 0. -1.
    9900012    2    1    2    0    0 -0.24919932340E+02  0.16625866240E+02  0.31403845514E+02  0.47787263035E+02  0.19999963481E+02 0.  0.
         12    1    1    2    0    0  0.24919932340E+02 -0.16625866240E+02 -0.31403845514E+02  0.43400736965E+02  0.00000000000E+00 0. -1.
         11    1    3    3    0    0 -0.36405917457E+01  0.82881616900E+00  0.12068829883E+02  0.12633190393E+02  0.51100000000E-03 0. -1.
        -11    1    3    3    0    0  0.11995947450E+01  0.32108205183E+01  0.35775168006E+01  0.49544951985E+01  0.51100000000E-03 0.  1.
        -12    1    3    3    0    0 -0.22478935340E+02  0.12586229553E+02  0.15757498830E+02  0.30199577443E+02  0.00000000000E+00 0.  1.
</event>
<event>
 7    1  0.2476315E-009  0.4778727E+02  0.7816164E-02  0.1312668E+00
        -11   -1    0    0    0    0  0.00000000000E+00  0.00000000000E+00  0.45593999997E+02  0.45594000000E+02  0.51100000000E-03 0. -1.
         11   -1    0    0    0    0 -0.00000000000E+00 -0.00000000000E+00 -0.45593999997E+02  0.45594000000E+02  0.51100000000E-03 0.  1.
    9900012    2    1    2    0    0 -0.35530037211E+02  0.24770156531E+02 -0.27710915275E+01  0.47787272506E+02  0.20000006663E+02 0.  0.
         12    1    1    2    0    0  0.35530037211E+02 -0.24770156531E+02  0.27710915275E+01  0.43400727494E+02  0.00000000000E+00 0. -1.
         11    1    3    3    0    0  0.24177650422E+00  0.90707651410E+00  0.45796325856E+00  0.10444971459E+01  0.51100000000E-03 0. -1.
        -11    1    3    3    0    0 -0.14394402986E+02  0.41482834454E+01  0.61410438549E+01  0.16190105396E+02  0.51100000000E-03 0.  1.
        -12    1    3    3    0    0 -0.21377410729E+02  0.19714796572E+02 -0.93700986409E+01  0.30552669964E+02  0.00000000000E+00 0.  1.
</event>
<event>
 7    1  0.2476315E-009  0.4778728E+02  0.7816164E-02  0.1312668E+00
        -11   -1    0    0    0    0  0.00000000000E+00  0.00000000000E+00  0.45593999997E+02  0.45594000000E+02  0.51100000000E-03 0. -1.
         11   -1    0    0    0    0 -0.00000000000E+00 -0.00000000000E+00 -0.45593999997E+02  0.45594000000E+02  0.51100000000E-03 0.  1.
    9900012    2    1    2    0    0 -0.17972504778E+02 -0.32567094071E+02 -0.22360583748E+02  0.47787282842E+02  0.20000053790E+02 0.  0.
         12    1    1    2    0    0  0.17972504778E+02  0.32567094071E+02  0.22360583748E+02  0.43400717158E+02  0.00000000000E+00 0. -1.
         11    1    3    3    0    0 -0.54231084560E+01 -0.27534994897E+01 -0.79483104529E+01  0.10008371700E+02  0.51100000000E-03 0. -1.
        -11    1    3    3    0    0  0.14742386919E+01 -0.12248033406E+02 -0.36966356101E+01  0.12878385657E+02  0.51100000000E-03 0.  1.
        -12    1    3    3    0    0 -0.14023635014E+02 -0.17565561175E+02 -0.10715637685E+02  0.24900525485E+02  0.00000000000E+00 0.  1.
</event>
<event>
 7    1  0.2476315E-009  0.4778727E+02  0.7816164E-02  0.1312668E+00
        -11   -1    0    0    0    0  0.00000000000E+00  0.00000000000E+00  0.45593999997E+02  0.45594000000E+02  0.51100000000E-03 0.  1.
         11   -1    0    0    0    0 -0.00000000000E+00 -0.00000000000E+00 -0.45593999997E+02  0.45594000000E+02  0.51100000000E-03 0. -1.
    9900012    2    1    2    0    0 -0.28750563122E+02 -0.30031663396E+02  0.12455015418E+02  0.47787273102E+02  0.20000009384E+02 0.  0.
         12    1    1    2    0    0  0.28750563122E+02  0.30031663396E+02 -0.12455015418E+02  0.43400726898E+02  0.00000000000E+00 0. -1.
         11    1    3    3    0    0 -0.16846485709E+01 -0.98282033498E+01  0.44945111978E+01  0.10937652996E+02  0.51100000000E-03 0. -1.
        -11    1    3    3    0    0 -0.13517357397E+02 -0.30920055802E+01  0.53726660698E+01  0.14870944505E+02  0.51100000000E-03 0.  1.
        -12    1    3    3    0    0 -0.13548557154E+02 -0.17111454466E+02  0.25878381501E+01  0.21978675601E+02  0.00000000000E+00 0.  1.
</event>
<event>
 7    1  0.2476315E-009  0.4778727E+02  0.7816164E-02  0.1312668E+00
        -11   -1    0    0    0    0  0.00000000000E+00  0.00000000000E+00  0.45593999997E+02  0.45594000000E+02  0.51100000000E-03 0.  1.
         11   -1    0    0    0    0 -0.00000000000E+00 -0.00000000000E+00 -0.45593999997E+02  0.45594000000E+02  0.51100000000E-03 0. -1.
    9900012    2    1    2    0    0 -0.43553106459E+01 -0.93587599089E+01  0.42155286565E+02  0.47787270706E+02  0.19999998456E+02 0.  0.
         12    1    1    2    0    0  0.43553106459E+01  0.93587599089E+01 -0.42155286565E+02  0.43400729294E+02  0.00000000000E+00 0. -1.
         11    1    3    3    0    0 -0.45076462657E+00  0.21911809083E+01  0.19495936082E+02  0.19623862680E+02  0.51100000000E-03 0.  1.
        -11    1    3    3    0    0 -0.74136330700E+01 -0.93614596739E+01  0.12979213845E+02  0.17636861252E+02  0.51100000000E-03 0. -1.
        -12    1    3    3    0    0  0.35090870506E+01 -0.21884811433E+01  0.96801366385E+01  0.10526546774E+02  0.00000000000E+00 0.  1.
</event>
<event>
 7    1  0.2476315E-009  0.4778728E+02  0.7816164E-02  0.1312668E+00
        -11   -1    0    0    0    0  0.00000000000E+00  0.00000000000E+00  0.45593999997E+02  0.45594000000E+02  0.51100000000E-03 0. -1.
         11   -1    0    0    0    0 -0.00000000000E+00 -0.00000000000E+00 -0.45593999997E+02  0.45594000000E+02  0.51100000000E-03 0.  1.
    9900012    2    1    2    0    0  0.14874742590E+02 -0.40186337959E+02  0.68864436932E+01  0.47787276131E+02  0.20000023189E+02 0.  0.
         12    1    1    2    0    0 -0.14874742590E+02  0.40186337959E+02 -0.68864436932E+01  0.43400723869E+02  0.00000000000E+00 0. -1.
         11    1    3    3    0    0  0.11176111942E+01 -0.26421620058E+02  0.27934103857E+01  0.26592371145E+02  0.51100000000E-03 0. -1.
        -11    1    3    3    0    0  0.11352588117E+02 -0.78502475182E+01  0.37691357931E+00  0.13807595995E+02  0.51100000000E-03 0.  1.
        -12    1    3    3    0    0  0.24045432788E+01 -0.59144703828E+01  0.37161197282E+01  0.73873089906E+01  0.00000000000E+00 0.  1.
</event>
<event>
 7    1  0.2476315E-009  0.4778727E+02  0.7816164E-02  0.1312668E+00
        -11   -1    0    0    0    0  0.00000000000E+00  0.00000000000E+00  0.45593999997E+02  0.45594000000E+02  0.51100000000E-03 0.  1.
         11   -1    0    0    0    0 -0.00000000000E+00 -0.00000000000E+00 -0.45593999997E+02  0.45594000000E+02  0.51100000000E-03 0. -1.
    9900012    2    1    2    0    0  0.17681651397E+01  0.22316379582E+02  0.37181659692E+02  0.47787273934E+02  0.20000013173E+02 0.  0.
         12    1    1    2    0    0 -0.17681651397E+01 -0.22316379582E+02 -0.37181659692E+02  0.43400726066E+02  0.00000000000E+00 0. -1.
         11    1    3    3    0    0  0.46767685981E+01  0.20757239040E+01  0.17813624848E+01  0.54179375051E+01  0.51100000000E-03 0.  1.
        -11    1    3    3    0    0 -0.59506711506E+01  0.95176947209E+01  0.23621128185E+02  0.26152527544E+02  0.51100000000E-03 0. -1.
        -12    1    3    3    0    0  0.30420676921E+01  0.10722960957E+02  0.11779169023E+02  0.16216808885E+02  0.00000000000E+00 0.  1.
</event>
<event>
 7    1  0.2476315E-009  0.4778728E+02  0.7816164E-02  0.1312668E+00
        -11   -1    0    0    0    0  0.00000000000E+00  0.00000000000E+00  0.45593999997E+02  0.45594000000E+02  0.51100000000E-03 0.  1.
         11   -1    0    0    0    0 -0.00000000000E+00 -0.00000000000E+00 -0.45593999997E+02  0.45594000000E+02  0.51100000000E-03 0. -1.
    9900012    2    1    2    0    0  0.35420265456E+02  0.12405507879E+02  0.21797501473E+02  0.47787275338E+02  0.20000019577E+02 0.  0.
         12    1    1    2    0    0 -0.35420265456E+02 -0.12405507879E+02 -0.21797501473E+02  0.43400724662E+02  0.00000000000E+00 0. -1.
         11    1    3    3    0    0  0.20875704758E+01 -0.19946322404E+01 -0.14370873101E+01  0.32251710751E+01  0.51100000000E-03 0. -1.
        -11    1    3    3    0    0  0.20255035911E+02  0.78841604177E+01  0.20129579287E+02  0.29624760383E+02  0.51100000000E-03 0.  1.
        -12    1    3    3    0    0  0.13077659070E+02  0.65159797017E+01  0.31050094959E+01  0.14937343880E+02  0.00000000000E+00 0.  1.
</event>
<event>
 7    1  0.2476315E-009  0.4778727E+02  0.7816164E-02  0.1312668E+00
        -11   -1    0    0    0    0  0.00000000000E+00  0.00000000000E+00  0.45593999997E+02  0.45594000000E+02  0.51100000000E-03 0.  1.
         11   -1    0    0    0    0 -0.00000000000E+00 -0.00000000000E+00 -0.45593999997E+02  0.45594000000E+02  0.51100000000E-03 0. -1.
    9900012    2    1    2    0    0 -0.40895978097E+01 -0.40565820384E+02  0.14876586853E+02  0.47787269245E+02  0.19999991794E+02 0.  0.
         12    1    1    2    0    0  0.40895978097E+01  0.40565820384E+02 -0.14876586853E+02  0.43400730755E+02  0.00000000000E+00 0. -1.
         11    1    3    3    0    0  0.10600555289E+01  0.67059313640E+00 -0.21489746084E+01  0.24882734994E+01  0.51100000000E-03 0. -1.
        -11    1    3    3    0    0 -0.43275896483E+01 -0.37358141307E+02  0.17147364358E+02  0.41332685115E+02  0.51100000000E-03 0.  1.
         12    1    3    3    0    0 -0.82206369020E+00 -0.38782722133E+01 -0.12180289694E+00  0.39663106304E+01  0.00000000000E+00 0. -1.
</event>
<event>
 7    1  0.2476315E-009  0.4778727E+02  0.7816164E-02  0.1312668E+00
        -11   -1    0    0    0    0  0.00000000000E+00  0.00000000000E+00  0.45593999997E+02  0.45594000000E+02  0.51100000000E-03 0. -1.
         11   -1    0    0    0    0 -0.00000000000E+00 -0.00000000000E+00 -0.45593999997E+02  0.45594000000E+02  0.51100000000E-03 0.  1.
    9900012    2    1    2    0    0  0.34231014474E+02  0.26401567212E+02  0.38493962763E+01  0.47787274720E+02  0.20000016758E+02 0.  0.
         12    1    1    2    0    0 -0.34231014474E+02 -0.26401567212E+02 -0.38493962763E+01  0.43400725280E+02  0.00000000000E+00 0. -1.
         11    1    3    3    0    0  0.11014824622E+02  0.16957859434E+02  0.73540501116E+01  0.21516909893E+02  0.51100000000E-03 0. -1.
        -11    1    3    3    0    0  0.16044781140E+02  0.29262088329E+01 -0.15335707643E+01  0.16381377828E+02  0.51100000000E-03 0.  1.
         12    1    3    3    0    0  0.71714087108E+01  0.65174989451E+01 -0.19710830710E+01  0.98889869991E+01  0.00000000000E+00 0. -1.
</event>
<event>
 7    1  0.2476315E-009  0.4778723E+02  0.7816164E-02  0.1312668E+00
        -11   -1    0    0    0    0  0.00000000000E+00  0.00000000000E+00  0.45593999997E+02  0.45594000000E+02  0.51100000000E-03 0.  1.
         11   -1    0    0    0    0 -0.00000000000E+00 -0.00000000000E+00 -0.45593999997E+02  0.45594000000E+02  0.51100000000E-03 0. -1.
    9900012    2    1    2    0    0  0.27443332273E+02  0.42483407074E+01  0.33353290514E+02  0.47787229579E+02  0.19999810942E+02 0.  0.
         12    1    1    2    0    0 -0.27443332273E+02 -0.42483407074E+01 -0.33353290514E+02  0.43400770421E+02  0.00000000000E+00 0. -1.
         11    1    3    3    0    0  0.68426879578E+01  0.89627832216E+01  0.58737289913E+01  0.12714344422E+02  0.51100000000E-03 0. -1.
        -11    1    3    3    0    0  0.60683111502E+01  0.72632757748E+00  0.59119993618E+01  0.85031575711E+01  0.51100000000E-03 0.  1.
         12    1    3    3    0    0  0.14532333165E+02 -0.54407700916E+01  0.21567562161E+02  0.26569727586E+02  0.00000000000E+00 0. -1.
</event>
<event>
 7    1  0.2476315E-009  0.4778726E+02  0.7816164E-02  0.1312668E+00
        -11   -1    0    0    0    0  0.00000000000E+00  0.00000000000E+00  0.45593999997E+02  0.45594000000E+02  0.51100000000E-03 0.  1.
         11   -1    0    0    0    0 -0.00000000000E+00 -0.00000000000E+00 -0.45593999997E+02  0.45594000000E+02  0.51100000000E-03 0. -1.
    9900012    2    1    2    0    0  0.36128068214E+02 -0.95049593128E+01  0.22091683493E+02  0.47787262173E+02  0.19999959551E+02 0.  0.
         12    1    1    2    0    0 -0.36128068214E+02  0.95049593128E+01 -0.22091683493E+02  0.43400737827E+02  0.00000000000E+00 0. -1.
         11    1    3    3    0    0  0.21283823646E+02 -0.11839467962E+02  0.93515137347E+01  0.26088789930E+02  0.51100000000E-03 0. -1.
        -11    1    3    3    0    0  0.13048919465E+02  0.32902617667E+01  0.61397166741E+01  0.14791762667E+02  0.51100000000E-03 0.  1.
        -12    1    3    3    0    0  0.17953251025E+01 -0.95575311719E+00  0.66004530842E+01  0.69067095756E+01  0.00000000000E+00 0.  1.
</event>
<event>
 7    1  0.2476315E-009  0.4778727E+02  0.7816164E-02  0.1312668E+00
        -11   -1    0    0    0    0  0.00000000000E+00  0.00000000000E+00  0.45593999997E+02  0.45594000000E+02  0.51100000000E-03 0.  1.
         11   -1    0    0    0    0 -0.00000000000E+00 -0.00000000000E+00 -0.45593999997E+02  0.45594000000E+02  0.51100000000E-03 0. -1.
    9900012    2    1    2    0    0 -0.40769123295E+02  0.13170380336E+02 -0.69313198952E+01  0.47787268117E+02  0.19999986654E+02 0.  0.
         12    1    1    2    0    0  0.40769123295E+02 -0.13170380336E+02  0.69313198952E+01  0.43400731883E+02  0.00000000000E+00 0. -1.
         11    1    3    3    0    0  0.14258558923E+01  0.27783613158E+01  0.48499042364E+00  0.31603121047E+01  0.51100000000E-03 0. -1.
        -11    1    3    3    0    0 -0.35458709580E+02  0.63794707316E+01 -0.74299360778E+01  0.36786161560E+02  0.51100000000E-03 0.  1.
        -12    1    3    3    0    0 -0.67362696074E+01  0.40125482888E+01  0.13625758948E-01  0.78407944530E+01  0.00000000000E+00 0.  1.
</event>
<event>
 7    1  0.2476315E-009  0.4778727E+02  0.7816164E-02  0.1312668E+00
        -11   -1    0    0    0    0  0.00000000000E+00  0.00000000000E+00  0.45593999997E+02  0.45594000000E+02  0.51100000000E-03 0.  1.
         11   -1    0    0    0    0 -0.00000000000E+00 -0.00000000000E+00 -0.45593999997E+02  0.45594000000E+02  0.51100000000E-03 0. -1.
    9900012    2    1    2    0    0 -0.21151055949E+02 -0.20155439569E+02  0.32093833542E+02  0.47787273470E+02  0.20000011057E+02 0.  0.
         12    1    1    2    0    0  0.21151055949E+02  0.20155439569E+02 -0.32093833542E+02  0.43400726530E+02  0.00000000000E+00 0. -1.
         11    1    3    3    0    0 -0.83595786711E+01 -0.98487497941E+01  0.58593111022E+01  0.14184919983E+02  0.51100000000E-03 0. -1.
        -11    1    3    3    0    0 -0.34218633180E+01 -0.86381715642E+01  0.20459061122E+02  0.22469987512E+02  0.51100000000E-03 0.  1.
        -12    1    3    3    0    0 -0.93696139595E+01 -0.16685182110E+01  0.57754613178E+01  0.11132365975E+02  0.00000000000E+00 0.  1.
</event>
<event>
 7    1  0.2476315E-009  0.4778727E+02  0.7816164E-02  0.1312668E+00
        -11   -1    0    0    0    0  0.00000000000E+00  0.00000000000E+00  0.45593999997E+02  0.45594000000E+02  0.51100000000E-03 0.  1.
         11   -1    0    0    0    0 -0.00000000000E+00 -0.00000000000E+00 -0.45593999997E+02  0.45594000000E+02  0.51100000000E-03 0. -1.
    9900012    2    1    2    0    0  0.43725593520E+01  0.13304278422E+02  0.41079199188E+02  0.47787266071E+02  0.19999977326E+02 0.  0.
         12    1    1    2    0    0 -0.43725593520E+01 -0.13304278422E+02 -0.41079199188E+02  0.43400733929E+02  0.00000000000E+00 0. -1.
         11    1    3    3    0    0  0.38845651043E+01  0.21322675057E+01  0.13589021352E+02  0.14293282070E+02  0.51100000000E-03 0. -1.
        -11    1    3    3    0    0  0.27022595110E+01  0.40547908589E+01 -0.14134134337E+00  0.48747833809E+01  0.51100000000E-03 0.  1.
        -12    1    3    3    0    0 -0.22142652634E+01  0.71172200569E+01  0.27631519179E+02  0.28619200620E+02  0.00000000000E+00 0.  1.
</event>
<event>
 7    1  0.2476315E-009  0.4778727E+02  0.7816164E-02  0.1312668E+00
        -11   -1    0    0    0    0  0.00000000000E+00  0.00000000000E+00  0.45593999997E+02  0.45594000000E+02  0.51100000000E-03 0. -1.
         11   -1    0    0    0    0 -0.00000000000E+00 -0.00000000000E+00 -0.45593999997E+02  0.45594000000E+02  0.51100000000E-03 0.  1.
    9900012    2    1    2    0    0 -0.29601583866E+02  0.26775686173E+02 -0.17042065637E+02  0.47787272603E+02  0.20000007104E+02 0.  0.
         12    1    1    2    0    0  0.29601583866E+02 -0.26775686173E+02  0.17042065637E+02  0.43400727397E+02  0.00000000000E+00 0. -1.
         11    1    3    3    0    0 -0.62028249043E+01  0.93283882532E+01 -0.94935293699E+01  0.14684037740E+02  0.51100000000E-03 0. -1.
        -11    1    3    3    0    0 -0.15564476398E+02  0.10462520009E+02  0.20683011417E+01  0.18867832954E+02  0.51100000000E-03 0.  1.
        -12    1    3    3    0    0 -0.78342825641E+01  0.69847779108E+01 -0.96168374089E+01  0.14235401909E+02  0.00000000000E+00 0.  1.
</event>
<event>
 7    1  0.2476315E-009  0.4778727E+02  0.7816164E-02  0.1312668E+00
        -11   -1    0    0    0    0  0.00000000000E+00  0.00000000000E+00  0.45593999997E+02  0.45594000000E+02  0.51100000000E-03 0. -1.
         11   -1    0    0    0    0 -0.00000000000E+00 -0.00000000000E+00 -0.45593999997E+02  0.45594000000E+02  0.51100000000E-03 0.  1.
    9900012    2    1    2    0    0  0.12091361956E+02 -0.41592040665E+02 -0.27430409063E+01  0.47787272425E+02  0.20000006293E+02 0.  0.
         12    1    1    2    0    0 -0.12091361956E+02  0.41592040665E+02  0.27430409063E+01  0.43400727575E+02  0.00000000000E+00 0. -1.
         11    1    3    3    0    0  0.60645201592E+01 -0.73759793061E+01 -0.67999970934E+01  0.11722774254E+02  0.51100000000E-03 0. -1.
        -11    1    3    3    0    0  0.67040573149E+01 -0.24292583389E+02 -0.30743270938E+00  0.25202549619E+02  0.51100000000E-03 0.  1.
         12    1    3    3    0    0 -0.67721551850E+00 -0.99234779706E+01  0.43643888964E+01  0.10861948551E+02  0.00000000000E+00 0. -1.
</event>
<event>
 7    1  0.2476315E-009  0.4778727E+02  0.7816164E-02  0.1312668E+00
        -11   -1    0    0    0    0  0.00000000000E+00  0.00000000000E+00  0.45593999997E+02  0.45594000000E+02  0.51100000000E-03 0. -1.
         11   -1    0    0    0    0 -0.00000000000E+00 -0.00000000000E+00 -0.45593999997E+02  0.45594000000E+02  0.51100000000E-03 0.  1.
    9900012    2    1    2    0    0  0.30438667312E+02  0.12880855550E+01 -0.30910380364E+02  0.47787271361E+02  0.20000001443E+02 0.  0.
         12    1    1    2    0    0 -0.30438667312E+02 -0.12880855550E+01  0.30910380364E+02  0.43400728639E+02  0.00000000000E+00 0. -1.
         11    1    3    3    0    0  0.61574107518E+01 -0.69092716834E+01 -0.10560673622E+02  0.14042064306E+02  0.51100000000E-03 0. -1.
        -11    1    3    3    0    0  0.20493935941E+02  0.68204569423E+01 -0.20407308141E+02  0.29714950262E+02  0.51100000000E-03 0.  1.
         12    1    3    3    0    0  0.37873206188E+01  0.13769002962E+01  0.57601398341E-01  0.40302567928E+01  0.00000000000E+00 0. -1.
</event>
<event>
 7    1  0.2476315E-009  0.4778727E+02  0.7816164E-02  0.1312668E+00
        -11   -1    0    0    0    0  0.00000000000E+00  0.00000000000E+00  0.45593999997E+02  0.45594000000E+02  0.51100000000E-03 0.  1.
         11   -1    0    0    0    0 -0.00000000000E+00 -0.00000000000E+00 -0.45593999997E+02  0.45594000000E+02  0.51100000000E-03 0. -1.
    9900012    2    1    2    0    0  0.20938855830E+02  0.37573950719E+02  0.57780494968E+01  0.47787270604E+02  0.19999997991E+02 0.  0.
         12    1    1    2    0    0 -0.20938855830E+02 -0.37573950719E+02 -0.57780494968E+01  0.43400729396E+02  0.00000000000E+00 0. -1.
         11    1    3    3    0    0  0.26199641054E+01  0.11400592966E+02  0.11306182830E+01  0.11752277645E+02  0.51100000000E-03 0. -1.
        -11    1    3    3    0    0  0.93630834999E+01  0.14834533413E+02 -0.54936087485E+01  0.18382340753E+02  0.51100000000E-03 0.  1.
        -12    1    3    3    0    0  0.89558082251E+01  0.11338824340E+02  0.10141039962E+02  0.17652652206E+02  0.00000000000E+00 0.  1.
</event>
<event>
 7    1  0.2476315E-009  0.4778727E+02  0.7816164E-02  0.1312668E+00
        -11   -1    0    0    0    0  0.00000000000E+00  0.00000000000E+00  0.45593999997E+02  0.45594000000E+02  0.51100000000E-03 0.  1.
         11   -1    0    0    0    0 -0.00000000000E+00 -0.00000000000E+00 -0.45593999997E+02  0.45594000000E+02  0.51100000000E-03 0. -1.
    9900012    2    1    2    0    0  0.23343166174E+02 -0.33751009303E+02  0.14127602933E+02  0.47787271888E+02  0.20000003848E+02 0.  0.
         12    1    1    2    0    0 -0.23343166174E+02  0.33751009303E+02 -0.14127602933E+02  0.43400728112E+02  0.00000000000E+00 0. -1.
         11    1    3    3    0    0  0.14471597114E+02 -0.95643999310E+01  0.58176842537E+01  0.18296183192E+02  0.51100000000E-03 0. -1.
        -11    1    3    3    0    0  0.27826747208E+01 -0.18611456999E+02  0.16621950790E+01  0.18891598740E+02  0.51100000000E-03 0.  1.
        -12    1    3    3    0    0  0.60888943396E+01 -0.55751523729E+01  0.66477236005E+01  0.10599489956E+02  0.00000000000E+00 0.  1.
</event>
<event>
 7    1  0.2476315E-009  0.4778727E+02  0.7816164E-02  0.1312668E+00
        -11   -1    0    0    0    0  0.00000000000E+00  0.00000000000E+00  0.45593999997E+02  0.45594000000E+02  0.51100000000E-03 0.  1.
         11   -1    0    0    0    0 -0.00000000000E+00 -0.00000000000E+00 -0.45593999997E+02  0.45594000000E+02  0.51100000000E-03 0. -1.
    9900012    2    1    2    0    0  0.28600548829E+02 -0.18246240273E+02  0.27068555462E+02  0.47787269911E+02  0.19999994833E+02 0.  0.
         12    1    1    2    0    0 -0.28600548829E+02  0.18246240273E+02 -0.27068555462E+02  0.43400730089E+02  0.00000000000E+00 0. -1.
         11    1    3    3    0    0  0.76543471866E+00 -0.51784739231E+01 -0.33281496811E+00  0.52453072879E+01  0.51100000000E-03 0. -1.
        -11    1    3    3    0    0  0.20862805571E+02 -0.62249589115E+01  0.13732048877E+02  0.25740550428E+02  0.51100000000E-03 0.  1.
         12    1    3    3    0    0  0.69723085401E+01 -0.68428074387E+01  0.13669321553E+02  0.16801412195E+02  0.00000000000E+00 0. -1.
</event>
<event>
 7    1  0.2476315E-009  0.4778727E+02  0.7816164E-02  0.1312668E+00
        -11   -1    0    0    0    0  0.00000000000E+00  0.00000000000E+00  0.45593999997E+02  0.45594000000E+02  0.51100000000E-03 0.  1.
         11   -1    0    0    0    0 -0.00000000000E+00 -0.00000000000E+00 -0.45593999997E+02  0.45594000000E+02  0.51100000000E-03 0. -1.
    9900012    2    1    2    0    0  0.27236475208E+01 -0.26368483465E+02  0.34364346539E+02  0.47787268565E+02  0.19999988696E+02 0.  0.
         12    1    1    2    0    0 -0.27236475208E+01  0.26368483465E+02 -0.34364346539E+02  0.43400731435E+02  0.00000000000E+00 0. -1.
         11    1    3    3    0    0  0.29705001021E+01 -0.39217879507E+01  0.14225342848E+01  0.51213177640E+01  0.51100000000E-03 0. -1.
        -11    1    3    3    0    0  0.61538783237E+01 -0.14860113254E+02  0.14188605019E+02  0.21447836651E+02  0.51100000000E-03 0.  1.
        -12    1    3    3    0    0 -0.64007309051E+01 -0.75865822600E+01  0.18753207235E+02  0.21218114150E+02  0.00000000000E+00 0.  1.
</event>
<event>
 7    1  0.2476315E-009  0.4778727E+02  0.7816164E-02  0.1312668E+00
        -11   -1    0    0    0    0  0.00000000000E+00  0.00000000000E+00  0.45593999997E+02  0.45594000000E+02  0.51100000000E-03 0. -1.
         11   -1    0    0    0    0 -0.00000000000E+00 -0.00000000000E+00 -0.45593999997E+02  0.45594000000E+02  0.51100000000E-03 0.  1.
    9900012    2    1    2    0    0  0.20471724762E+02  0.36145934670E+02 -0.12569917664E+02  0.47787274914E+02  0.20000017644E+02 0.  0.
         12    1    1    2    0    0 -0.20471724762E+02 -0.36145934670E+02  0.12569917664E+02  0.43400725086E+02  0.00000000000E+00 0. -1.
         11    1    3    3    0    0  0.13394837140E+02  0.11448334119E+02 -0.64075028742E+00  0.17632259563E+02  0.51100000000E-03 0.  1.
        -11    1    3    3    0    0 -0.50430058138E+00  0.12915148256E+02 -0.22332996043E+01  0.13116516342E+02  0.51100000000E-03 0. -1.
         12    1    3    3    0    0  0.75811882042E+01  0.11782452295E+02 -0.96958677720E+01  0.17038499010E+02  0.00000000000E+00 0. -1.
</event>
<event>
 7    1  0.2476315E-009  0.4778727E+02  0.7816164E-02  0.1312668E+00
        -11   -1    0    0    0    0  0.00000000000E+00  0.00000000000E+00  0.45593999997E+02  0.45594000000E+02  0.51100000000E-03 0. -1.
         11   -1    0    0    0    0 -0.00000000000E+00 -0.00000000000E+00 -0.45593999997E+02  0.45594000000E+02  0.51100000000E-03 0.  1.
    9900012    2    1    2    0    0 -0.38721533310E+02 -0.77369557016E+01 -0.18011264707E+02  0.47787270953E+02  0.19999999585E+02 0.  0.
         12    1    1    2    0    0  0.38721533310E+02  0.77369557016E+01  0.18011264707E+02  0.43400729047E+02  0.00000000000E+00 0. -1.
         11    1    3    3    0    0 -0.70276604173E+01 -0.91812680560E+01 -0.52729038413E+01  0.12707761771E+02  0.51100000000E-03 0. -1.
        -11    1    3    3    0    0 -0.17843887593E+02 -0.20333156169E+01 -0.42081417768E+01  0.18445789610E+02  0.51100000000E-03 0.  1.
         12    1    3    3    0    0 -0.13849985300E+02  0.34776279713E+01 -0.85302190892E+01  0.16633719572E+02  0.00000000000E+00 0. -1.
</event>
<event>
 7    1  0.2476315E-009  0.4778727E+02  0.7816164E-02  0.1312668E+00
        -11   -1    0    0    0    0  0.00000000000E+00  0.00000000000E+00  0.45593999997E+02  0.45594000000E+02  0.51100000000E-03 0. -1.
         11   -1    0    0    0    0 -0.00000000000E+00 -0.00000000000E+00 -0.45593999997E+02  0.45594000000E+02  0.51100000000E-03 0.  1.
    9900012    2    1    2    0    0 -0.21097329789E+02  0.30682255502E+02 -0.22296310133E+02  0.47787267605E+02  0.19999984316E+02 0.  0.
         12    1    1    2    0    0  0.21097329789E+02 -0.30682255502E+02  0.22296310133E+02  0.43400732395E+02  0.00000000000E+00 0. -1.
         11    1    3    3    0    0 -0.17567563972E+01  0.96932211079E+00 -0.18772369384E+01  0.27476894252E+01  0.51100000000E-03 0. -1.
        -11    1    3    3    0    0 -0.37341211035E+01  0.15082370990E+02 -0.17576447436E+02  0.23459605278E+02  0.51100000000E-03 0.  1.
        -12    1    3    3    0    0 -0.15606452289E+02  0.14630562401E+02 -0.28426257592E+01  0.21579972901E+02  0.00000000000E+00 0.  1.
</event>
<event>
 7    1  0.2476315E-009  0.4778726E+02  0.7816164E-02  0.1312668E+00
        -11   -1    0    0    0    0  0.00000000000E+00  0.00000000000E+00  0.45593999997E+02  0.45594000000E+02  0.51100000000E-03 0.  1.
         11   -1    0    0    0    0 -0.00000000000E+00 -0.00000000000E+00 -0.45593999997E+02  0.45594000000E+02  0.51100000000E-03 0. -1.
    9900012    2    1    2    0    0 -0.26683588859E+02  0.21963644424E+02  0.26252775711E+02  0.47787264715E+02  0.19999971142E+02 0.  0.
         12    1    1    2    0    0  0.26683588859E+02 -0.21963644424E+02 -0.26252775711E+02  0.43400735285E+02  0.00000000000E+00 0. -1.
         11    1    3    3    0    0 -0.19054051234E+01 -0.32828492216E+01  0.21509813699E+01  0.43628418274E+01  0.51100000000E-03 0. -1.
        -11    1    3    3    0    0 -0.17445495828E+02  0.22021857921E+02  0.18198380665E+02  0.33473700275E+02  0.51100000000E-03 0.  1.
        -12    1    3    3    0    0 -0.73326879073E+01  0.32246357244E+01  0.59034136755E+01  0.99507226132E+01  0.00000000000E+00 0.  1.
</event>
<event>
 7    1  0.2476315E-009  0.4778728E+02  0.7816164E-02  0.1312668E+00
        -11   -1    0    0    0    0  0.00000000000E+00  0.00000000000E+00  0.45593999997E+02  0.45594000000E+02  0.51100000000E-03 0.  1.
         11   -1    0    0    0    0 -0.00000000000E+00 -0.00000000000E+00 -0.45593999997E+02  0.45594000000E+02  0.51100000000E-03 0. -1.
    9900012    2    1    2    0    0 -0.36294096469E+02  0.14137356914E+02  0.19144100605E+02  0.47787275502E+02  0.20000020322E+02 0.  0.
         12    1    1    2    0    0  0.36294096469E+02 -0.14137356914E+02 -0.19144100605E+02  0.43400724498E+02  0.00000000000E+00 0. -1.
         11    1    3    3    0    0 -0.29694409694E+02  0.85592099497E+01  0.16963914436E+02  0.35253261343E+02  0.51100000000E-03 0. -1.
        -11    1    3    3    0    0 -0.87225532128E+01  0.52876977813E+01  0.17767823243E+01  0.10353725806E+02  0.51100000000E-03 0.  1.
         12    1    3    3    0    0  0.21228664378E+01  0.29044918309E+00  0.40340384410E+00  0.21802883530E+01  0.00000000000E+00 0. -1.
</event>
<event>
 7    1  0.2476315E-009  0.4778727E+02  0.7816164E-02  0.1312668E+00
        -11   -1    0    0    0    0  0.00000000000E+00  0.00000000000E+00  0.45593999997E+02  0.45594000000E+02  0.51100000000E-03 0. -1.
         11   -1    0    0    0    0 -0.00000000000E+00 -0.00000000000E+00 -0.45593999997E+02  0.45594000000E+02  0.51100000000E-03 0.  1.
    9900012    2    1    2    0    0 -0.14481329871E+02  0.40078190743E+02  0.82251393355E+01  0.47787271836E+02  0.20000003611E+02 0.  0.
         12    1    1    2    0    0  0.14481329871E+02 -0.40078190743E+02 -0.82251393355E+01  0.43400728164E+02  0.00000000000E+00 0. -1.
         11    1    3    3    0    0 -0.75227451312E+01  0.22715244877E+02 -0.12223918582E+01  0.23959722165E+02  0.51100000000E-03 0.  1.
        -11    1    3    3    0    0 -0.32183242318E+01  0.16363751988E+01  0.64427716796E+01  0.73854344374E+01  0.51100000000E-03 0. -1.
         12    1    3    3    0    0 -0.37402605076E+01  0.15726570667E+02  0.30047595141E+01  0.16442115234E+02  0.00000000000E+00 0. -1.
</event>
<event>
 7    1  0.2476315E-009  0.4778727E+02  0.7816164E-02  0.1312668E+00
        -11   -1    0    0    0    0  0.00000000000E+00  0.00000000000E+00  0.45593999997E+02  0.45594000000E+02  0.51100000000E-03 0. -1.
         11   -1    0    0    0    0 -0.00000000000E+00 -0.00000000000E+00 -0.45593999997E+02  0.45594000000E+02  0.51100000000E-03 0.  1.
    9900012    2    1    2    0    0 -0.38532944914E+02 -0.17469613612E+02 -0.96771964824E+01  0.47787269876E+02  0.19999994674E+02 0.  0.
         12    1    1    2    0    0  0.38532944914E+02  0.17469613612E+02  0.96771964824E+01  0.43400730124E+02  0.00000000000E+00 0. -1.
         11    1    3    3    0    0 -0.92205071823E+01 -0.21829757358E+01 -0.74365020180E+01  0.12045110970E+02  0.51100000000E-03 0. -1.
        -11    1    3    3    0    0 -0.29178594847E+02 -0.14986693227E+02  0.67378835780E+00  0.32809226784E+02  0.51100000000E-03 0.  1.
         12    1    3    3    0    0 -0.13384288456E+00 -0.29994464897E+00 -0.29144828222E+01  0.29329321218E+01  0.00000000000E+00 0. -1.
</event>
<event>
 7    1  0.2476315E-009  0.4778727E+02  0.7816164E-02  0.1312668E+00
        -11   -1    0    0    0    0  0.00000000000E+00  0.00000000000E+00  0.45593999997E+02  0.45594000000E+02  0.51100000000E-03 0. -1.
         11   -1    0    0    0    0 -0.00000000000E+00 -0.00000000000E+00 -0.45593999997E+02  0.45594000000E+02  0.51100000000E-03 0.  1.
    9900012    2    1    2    0    0  0.23987839669E+02  0.36156199707E+02  0.96746196270E+00  0.47787271758E+02  0.20000003255E+02 0.  0.
         12    1    1    2    0    0 -0.23987839669E+02 -0.36156199707E+02 -0.96746196270E+00  0.43400728242E+02  0.00000000000E+00 0. -1.
         11    1    3    3    0    0  0.10210075390E+02  0.11112611212E+02 -0.42220994965E+01  0.15670414540E+02  0.51100000000E-03 0. -1.
        -11    1    3    3    0    0  0.10209260620E+02  0.26030149074E+02  0.41159240767E+01  0.28261961971E+02  0.51100000000E-03 0.  1.
        -12    1    3    3    0    0  0.35685036584E+01 -0.98656057894E+00  0.10736373825E+01  0.38548952469E+01  0.00000000000E+00 0.  1.
</event>
<event>
 7    1  0.2476315E-009  0.4778725E+02  0.7816164E-02  0.1312668E+00
        -11   -1    0    0    0    0  0.00000000000E+00  0.00000000000E+00  0.45593999997E+02  0.45594000000E+02  0.51100000000E-03 0.  1.
         11   -1    0    0    0    0 -0.00000000000E+00 -0.00000000000E+00 -0.45593999997E+02  0.45594000000E+02  0.51100000000E-03 0. -1.
    9900012    2    1    2    0    0 -0.26343248219E+02  0.73041963202E+01  0.33709160008E+02  0.47787245639E+02  0.19999884167E+02 0.  0.
         12    1    1    2    0    0  0.26343248219E+02 -0.73041963202E+01 -0.33709160008E+02  0.43400754361E+02  0.00000000000E+00 0. -1.
         11    1    3    3    0    0 -0.21329326838E+01  0.37555963448E+01  0.17615854614E+02  0.18137591896E+02  0.51100000000E-03 0. -1.
        -11    1    3    3    0    0 -0.14833835122E+02  0.13528308465E+01  0.12232119785E+02  0.19274272241E+02  0.51100000000E-03 0.  1.
         12    1    3    3    0    0 -0.93764804131E+01  0.21957691289E+01  0.38611856094E+01  0.10375381502E+02  0.00000000000E+00 0. -1.
</event>
<event>
 7    1  0.2476315E-009  0.4778727E+02  0.7816164E-02  0.1312668E+00
        -11   -1    0    0    0    0  0.00000000000E+00  0.00000000000E+00  0.45593999997E+02  0.45594000000E+02  0.51100000000E-03 0.  1.
         11   -1    0    0    0    0 -0.00000000000E+00 -0.00000000000E+00 -0.45593999997E+02  0.45594000000E+02  0.51100000000E-03 0. -1.
    9900012    2    1    2    0    0 -0.13478592180E+02  0.19289503960E+02  0.36467328933E+02  0.47787268558E+02  0.19999988663E+02 0.  0.
         12    1    1    2    0    0  0.13478592180E+02 -0.19289503960E+02 -0.36467328933E+02  0.43400731442E+02  0.00000000000E+00 0. -1.
         11    1    3    3    0    0  0.74870045193E+00  0.12522985267E+02  0.10972602719E+02  0.16666845024E+02  0.51100000000E-03 0. -1.
        -11    1    3    3    0    0 -0.12611846523E+02  0.74064908562E+01  0.25483994681E+02  0.29382797087E+02  0.51100000000E-03 0.  1.
         12    1    3    3    0    0 -0.16154461091E+01 -0.63997216340E+00  0.10731533037E-01  0.17376264464E+01  0.00000000000E+00 0. -1.
</event>
<event>
 7    1  0.2476315E-009  0.4778727E+02  0.7816164E-02  0.1312668E+00
        -11   -1    0    0    0    0  0.00000000000E+00  0.00000000000E+00  0.45593999997E+02  0.45594000000E+02  0.51100000000E-03 0. -1.
         11   -1    0    0    0    0 -0.00000000000E+00 -0.00000000000E+00 -0.45593999997E+02  0.45594000000E+02  0.51100000000E-03 0.  1.
    9900012    2    1    2    0    0  0.16701204442E+01 -0.42561053898E+02  0.83301179934E+01  0.47787268704E+02  0.19999989331E+02 0.  0.
         12    1    1    2    0    0 -0.16701204442E+01  0.42561053898E+02 -0.83301179934E+01  0.43400731296E+02  0.00000000000E+00 0. -1.
         11    1    3    3    0    0  0.77978522088E+00 -0.16479887091E+02  0.12650581031E+02  0.20790188653E+02  0.51100000000E-03 0. -1.
        -11    1    3    3    0    0  0.85206747973E+00 -0.25441144257E+02 -0.31328812830E+01  0.25647471327E+02  0.51100000000E-03 0.  1.
        -12    1    3    3    0    0  0.38267743588E-01 -0.64002255018E+00 -0.11875817548E+01  0.13496087245E+01  0.00000000000E+00 0.  1.
</event>
<event>
 7    1  0.2476315E-009  0.4778727E+02  0.7816164E-02  0.1312668E+00
        -11   -1    0    0    0    0  0.00000000000E+00  0.00000000000E+00  0.45593999997E+02  0.45594000000E+02  0.51100000000E-03 0.  1.
         11   -1    0    0    0    0 -0.00000000000E+00 -0.00000000000E+00 -0.45593999997E+02  0.45594000000E+02  0.51100000000E-03 0. -1.
    9900012    2    1    2    0    0 -0.22428256047E+02  0.35256407314E+02 -0.11729557731E+02  0.47787269009E+02  0.19999990718E+02 0.  0.
         12    1    1    2    0    0  0.22428256047E+02 -0.35256407314E+02  0.11729557731E+02  0.43400730991E+02  0.00000000000E+00 0. -1.
         11    1    3    3    0    0 -0.35041676212E+01  0.17028833230E+02 -0.11915540091E+02  0.21077012307E+02  0.51100000000E-03 0. -1.
        -11    1    3    3    0    0 -0.10202923517E+02  0.95326705368E+01  0.24845726981E+01  0.14182544116E+02  0.51100000000E-03 0.  1.
         12    1    3    3    0    0 -0.87211649091E+01  0.86949035480E+01 -0.22985903382E+01  0.12527712585E+02  0.00000000000E+00 0. -1.
</event>
<event>
 7    1  0.2476315E-009  0.4778726E+02  0.7816164E-02  0.1312668E+00
        -11   -1    0    0    0    0  0.00000000000E+00  0.00000000000E+00  0.45593999997E+02  0.45594000000E+02  0.51100000000E-03 0.  1.
         11   -1    0    0    0    0 -0.00000000000E+00 -0.00000000000E+00 -0.45593999997E+02  0.45594000000E+02  0.51100000000E-03 0. -1.
    9900012    2    1    2    0    0  0.65971470985E+01  0.24616169129E+02  0.35130414083E+02  0.47787261226E+02  0.19999955234E+02 0.  0.
         12    1    1    2    0    0 -0.65971470985E+01 -0.24616169129E+02 -0.35130414083E+02  0.43400738774E+02  0.00000000000E+00 0. -1.
         11    1    3    3    0    0  0.85691737109E+00  0.39772544627E+01  0.22395339692E+02  0.22761900198E+02  0.51100000000E-03 0. -1.
        -11    1    3    3    0    0  0.39000297133E+01  0.97837879017E+01  0.61715541527E+01  0.12207408340E+02  0.51100000000E-03 0.  1.
         12    1    3    3    0    0  0.18402000141E+01  0.10855126765E+02  0.65635202388E+01  0.12817952688E+02  0.00000000000E+00 0. -1.
</event>
<event>
 7    1  0.2476315E-009  0.4778727E+02  0.7816164E-02  0.1312668E+00
        -11   -1    0    0    0    0  0.00000000000E+00  0.00000000000E+00  0.45593999997E+02  0.45594000000E+02  0.51100000000E-03 0. -1.
         11   -1    0    0    0    0 -0.00000000000E+00 -0.00000000000E+00 -0.45593999997E+02  0.45594000000E+02  0.51100000000E-03 0.  1.
    9900012    2    1    2    0    0  0.15215371295E+02 -0.49895997257E+01 -0.40338810079E+02  0.47787271577E+02  0.20000002427E+02 0.  0.
         12    1    1    2    0    0 -0.15215371295E+02  0.49895997257E+01  0.40338810079E+02  0.43400728423E+02  0.00000000000E+00 0. -1.
         11    1    3    3    0    0 -0.41471364564E+01  0.39388121337E+00 -0.34272206310E+01  0.53944160678E+01  0.51100000000E-03 0.  1.
        -11    1    3    3    0    0  0.17117650883E+02 -0.57242716618E+01 -0.28967006605E+02  0.34130173303E+02  0.51100000000E-03 0. -1.
        -12    1    3    3    0    0  0.22448568688E+01  0.34079072275E+00 -0.79445828430E+01  0.82626822054E+01  0.00000000000E+00 0.  1.
</event>
<event>
 7    1  0.2476315E-009  0.4778727E+02  0.7816164E-02  0.1312668E+00
        -11   -1    0    0    0    0  0.00000000000E+00  0.00000000000E+00  0.45593999997E+02  0.45594000000E+02  0.51100000000E-03 0.  1.
         11   -1    0    0    0    0 -0.00000000000E+00 -0.00000000000E+00 -0.45593999997E+02  0.45594000000E+02  0.51100000000E-03 0. -1.
    9900012    2    1    2    0    0  0.38521742025E+02 -0.64649353707E+01  0.18918326956E+02  0.47787273131E+02  0.20000009512E+02 0.  0.
         12    1    1    2    0    0 -0.38521742025E+02  0.64649353707E+01 -0.18918326956E+02  0.43400726869E+02  0.00000000000E+00 0. -1.
         11    1    3    3    0    0  0.13422580627E+02 -0.10255721295E+02  0.59348451050E+01  0.17904409419E+02  0.51100000000E-03 0. -1.
        -11    1    3    3    0    0  0.19371108633E+01 -0.22032503043E+01  0.20431191328E+01  0.35750589438E+01  0.51100000000E-03 0.  1.
         12    1    3    3    0    0  0.23162050535E+02  0.59940362287E+01  0.10940362718E+02  0.26307804768E+02  0.00000000000E+00 0. -1.
</event>
<event>
 7    1  0.2476315E-009  0.4778727E+02  0.7816164E-02  0.1312668E+00
        -11   -1    0    0    0    0  0.00000000000E+00  0.00000000000E+00  0.45593999997E+02  0.45594000000E+02  0.51100000000E-03 0. -1.
         11   -1    0    0    0    0 -0.00000000000E+00 -0.00000000000E+00 -0.45593999997E+02  0.45594000000E+02  0.51100000000E-03 0.  1.
    9900012    2    1    2    0    0  0.12025275823E+02 -0.58660401340E+01 -0.41286867995E+02  0.47787272422E+02  0.20000006282E+02 0.  0.
         12    1    1    2    0    0 -0.12025275823E+02  0.58660401340E+01  0.41286867995E+02  0.43400727578E+02  0.00000000000E+00 0. -1.
         11    1    3    3    0    0 -0.52482360584E+00 -0.50090756884E+01 -0.18001034577E+02  0.18692338676E+02  0.51100000000E-03 0.  1.
        -11    1    3    3    0    0  0.82931687486E+01  0.32697322743E+01 -0.58097334987E+01  0.10640526332E+02  0.51100000000E-03 0. -1.
         12    1    3    3    0    0  0.42569306798E+01 -0.41266967199E+01 -0.17476099919E+02  0.18454407414E+02  0.00000000000E+00 0. -1.
</event>
<event>
 7    1  0.2476315E-009  0.4778728E+02  0.7816164E-02  0.1312668E+00
        -11   -1    0    0    0    0  0.00000000000E+00  0.00000000000E+00  0.45593999997E+02  0.45594000000E+02  0.51100000000E-03 0. -1.
         11   -1    0    0    0    0 -0.00000000000E+00 -0.00000000000E+00 -0.45593999997E+02  0.45594000000E+02  0.51100000000E-03 0.  1.
    9900012    2    1    2    0    0 -0.22364152135E+02  0.60255989576E+01 -0.36703669232E+02  0.47787280207E+02  0.20000041775E+02 0.  0.
         12    1    1    2    0    0  0.22364152135E+02 -0.60255989576E+01  0.36703669232E+02  0.43400719793E+02  0.00000000000E+00 0. -1.
         11    1    3    3    0    0 -0.68723440325E+01 -0.23892483315E+01 -0.41814980491E+01  0.83918142428E+01  0.51100000000E-03 0. -1.
        -11    1    3    3    0    0 -0.85039881925E+01  0.11558884719E+02 -0.18464935881E+02  0.23385454635E+02  0.51100000000E-03 0.  1.
        -12    1    3    3    0    0 -0.69878199096E+01 -0.31440374297E+01 -0.14057235301E+02  0.16010011329E+02  0.00000000000E+00 0.  1.
</event>
<event>
 7    1  0.2476315E-009  0.4778727E+02  0.7816164E-02  0.1312668E+00
        -11   -1    0    0    0    0  0.00000000000E+00  0.00000000000E+00  0.45593999997E+02  0.45594000000E+02  0.51100000000E-03 0. -1.
         11   -1    0    0    0    0 -0.00000000000E+00 -0.00000000000E+00 -0.45593999997E+02  0.45594000000E+02  0.51100000000E-03 0.  1.
    9900012    2    1    2    0    0 -0.13424877135E+02  0.87210551714E+01 -0.40340290438E+02  0.47787272333E+02  0.20000005874E+02 0.  0.
         12    1    1    2    0    0  0.13424877135E+02 -0.87210551714E+01  0.40340290438E+02  0.43400727667E+02  0.00000000000E+00 0. -1.
         11    1    3    3    0    0 -0.39986024789E+01  0.58242359751E+01 -0.21004227672E+02  0.22160508271E+02  0.51100000000E-03 0.  1.
        -11    1    3    3    0    0 -0.11005158533E+02  0.56528588309E+00 -0.71883204091E+01  0.13156937829E+02  0.51100000000E-03 0. -1.
         12    1    3    3    0    0  0.15788838770E+01  0.23315333133E+01 -0.12147742358E+02  0.12469826233E+02  0.00000000000E+00 0. -1.
</event>
<event>
 7    1  0.2476315E-009  0.4778727E+02  0.7816164E-02  0.1312668E+00
        -11   -1    0    0    0    0  0.00000000000E+00  0.00000000000E+00  0.45593999997E+02  0.45594000000E+02  0.51100000000E-03 0. -1.
         11   -1    0    0    0    0 -0.00000000000E+00 -0.00000000000E+00 -0.45593999997E+02  0.45594000000E+02  0.51100000000E-03 0.  1.
    9900012    2    1    2    0    0  0.23614276116E+02 -0.85688403120E+01  0.35391586836E+02  0.47787268675E+02  0.19999989195E+02 0.  0.
         12    1    1    2    0    0 -0.23614276116E+02  0.85688403120E+01 -0.35391586836E+02  0.43400731325E+02  0.00000000000E+00 0. -1.
         11    1    3    3    0    0  0.85991768327E+01  0.23903727776E+01  0.30015155469E+01  0.94164122709E+01  0.51100000000E-03 0. -1.
        -11    1    3    3    0    0  0.79609784330E+01 -0.43978390685E+01  0.23743312282E+02  0.25425637543E+02  0.51100000000E-03 0.  1.
        -12    1    3    3    0    0  0.70541208508E+01 -0.65613740211E+01  0.86467590074E+01  0.12945218861E+02  0.00000000000E+00 0.  1.
</event>
<event>
 7    1  0.2476315E-009  0.4778727E+02  0.7816164E-02  0.1312668E+00
        -11   -1    0    0    0    0  0.00000000000E+00  0.00000000000E+00  0.45593999997E+02  0.45594000000E+02  0.51100000000E-03 0.  1.
         11   -1    0    0    0    0 -0.00000000000E+00 -0.00000000000E+00 -0.45593999997E+02  0.45594000000E+02  0.51100000000E-03 0. -1.
    9900012    2    1    2    0    0  0.33058459519E+02 -0.14075752724E+02  0.24344087590E+02  0.47787272343E+02  0.20000005922E+02 0.  0.
         12    1    1    2    0    0 -0.33058459519E+02  0.14075752724E+02 -0.24344087590E+02  0.43400727657E+02  0.00000000000E+00 0. -1.
         11    1    3    3    0    0  0.24576953103E+02 -0.14941564763E+02  0.12737625966E+02  0.31456701939E+02  0.51100000000E-03 0. -1.
        -11    1    3    3    0    0  0.81225693690E+01  0.16162629426E+01  0.12572886150E+02  0.15055427774E+02  0.51100000000E-03 0.  1.
        -12    1    3    3    0    0  0.35893704672E+00 -0.75045090443E+00 -0.96642452545E+00  0.12751426300E+01  0.00000000000E+00 0.  1.
</event>
<event>
 7    1  0.2476315E-009  0.4778727E+02  0.7816164E-02  0.1312668E+00
        -11   -1    0    0    0    0  0.00000000000E+00  0.00000000000E+00  0.45593999997E+02  0.45594000000E+02  0.51100000000E-03 0.  1.
         11   -1    0    0    0    0 -0.00000000000E+00 -0.00000000000E+00 -0.45593999997E+02  0.45594000000E+02  0.51100000000E-03 0. -1.
    9900012    2    1    2    0    0 -0.35446187590E+02 -0.50933453111E+00  0.25038604873E+02  0.47787269933E+02  0.19999994934E+02 0.  0.
         12    1    1    2    0    0  0.35446187590E+02  0.50933453111E+00 -0.25038604873E+02  0.43400730067E+02  0.00000000000E+00 0. -1.
         11    1    3    3    0    0 -0.10580048735E+01 -0.25215468705E+01  0.79571930936E+01  0.84139464653E+01  0.51100000000E-03 0. -1.
        -11    1    3    3    0    0 -0.17871898401E+02 -0.29853998528E+01  0.72731753736E+01  0.19524764915E+02  0.51100000000E-03 0.  1.
         12    1    3    3    0    0 -0.16516284316E+02  0.49976121922E+01  0.98082364054E+01  0.19848558553E+02  0.00000000000E+00 0. -1.
</event>
<event>
 7    1  0.2476315E-009  0.4778728E+02  0.7816164E-02  0.1312668E+00
        -11   -1    0    0    0    0  0.00000000000E+00  0.00000000000E+00  0.45593999997E+02  0.45594000000E+02  0.51100000000E-03 0.  1.
         11   -1    0    0    0    0 -0.00000000000E+00 -0.00000000000E+00 -0.45593999997E+02  0.45594000000E+02  0.51100000000E-03 0. -1.
    9900012    2    1    2    0    0  0.13540441504E+02  0.40155492254E+02  0.93709677200E+01  0.47787283989E+02  0.20000059019E+02 0.  0.
         12    1    1    2    0    0 -0.13540441504E+02 -0.40155492254E+02 -0.93709677200E+01  0.43400716011E+02  0.00000000000E+00 0. -1.
         11    1    3    3    0    0  0.81141539141E+01  0.14768264021E+02  0.24957288369E+01  0.17034370508E+02  0.51100000000E-03 0. -1.
        -11    1    3    3    0    0 -0.27045709061E+00  0.81403926192E+01 -0.45160010236E+01  0.93130770714E+01  0.51100000000E-03 0.  1.
        -12    1    3    3    0    0  0.56967446804E+01  0.17246835614E+02  0.11391239907E+02  0.21439836409E+02  0.00000000000E+00 0.  1.
</event>
<event>
 7    1  0.2476315E-009  0.4778728E+02  0.7816164E-02  0.1312668E+00
        -11   -1    0    0    0    0  0.00000000000E+00  0.00000000000E+00  0.45593999997E+02  0.45594000000E+02  0.51100000000E-03 0.  1.
         11   -1    0    0    0    0 -0.00000000000E+00 -0.00000000000E+00 -0.45593999997E+02  0.45594000000E+02  0.51100000000E-03 0. -1.
    9900012    2    1    2    0    0 -0.27770757169E+01 -0.38344593044E+02  0.20139584953E+02  0.47787275958E+02  0.20000022404E+02 0.  0.
         12    1    1    2    0    0  0.27770757169E+01  0.38344593044E+02 -0.20139584953E+02  0.43400724042E+02  0.00000000000E+00 0. -1.
         11    1    3    3    0    0 -0.77581112928E+01 -0.13584205937E+02  0.67692516412E+01  0.17045284093E+02  0.51100000000E-03 0. -1.
        -11    1    3    3    0    0  0.46774179327E+01 -0.24502685785E+02  0.14970821280E+02  0.29092702508E+02  0.51100000000E-03 0.  1.
         12    1    3    3    0    0  0.30361764319E+00 -0.25770132267E+00 -0.16004879684E+01  0.16492893566E+01  0.00000000000E+00 0. -1.
</event>
<event>
 7    1  0.2476315E-009  0.4778726E+02  0.7816164E-02  0.1312668E+00
        -11   -1    0    0    0    0  0.00000000000E+00  0.00000000000E+00  0.45593999997E+02  0.45594000000E+02  0.51100000000E-03 0.  1.
         11   -1    0    0    0    0 -0.00000000000E+00 -0.00000000000E+00 -0.45593999997E+02  0.45594000000E+02  0.51100000000E-03 0. -1.
    9900012    2    1    2    0    0 -0.38521902120E+02 -0.96074470567E+01  0.17532372051E+02  0.47787262084E+02  0.19999959146E+02 0.  0.
         12    1    1    2    0    0  0.38521902120E+02  0.96074470567E+01 -0.17532372051E+02  0.43400737916E+02  0.00000000000E+00 0. -1.
         11    1    3    3    0    0 -0.21515689061E+01  0.24708082604E+01 -0.10318468106E+01  0.34349454609E+01  0.51100000000E-03 0. -1.
        -11    1    3    3    0    0 -0.32588460296E+02 -0.61469909749E+01  0.16371975548E+02  0.36984251056E+02  0.51100000000E-03 0.  1.
         12    1    3    3    0    0 -0.37818729179E+01 -0.59312643422E+01  0.21922433134E+01  0.73680655677E+01  0.00000000000E+00 0. -1.
</event>
<event>
 7    1  0.2476315E-009  0.4778727E+02  0.7816164E-02  0.1312668E+00
        -11   -1    0    0    0    0  0.00000000000E+00  0.00000000000E+00  0.45593999997E+02  0.45594000000E+02  0.51100000000E-03 0.  1.
         11   -1    0    0    0    0 -0.00000000000E+00 -0.00000000000E+00 -0.45593999997E+02  0.45594000000E+02  0.51100000000E-03 0. -1.
    9900012    2    1    2    0    0  0.41705788804E+02 -0.10841376056E+02  0.51686756849E+01  0.47787268866E+02  0.19999990069E+02 0.  0.
         12    1    1    2    0    0 -0.41705788804E+02  0.10841376056E+02 -0.51686756849E+01  0.43400731134E+02  0.00000000000E+00 0. -1.
         11    1    3    3    0    0  0.15337530020E+01 -0.24742530059E+01 -0.24042742312E+01  0.37755610243E+01  0.51100000000E-03 0. -1.
        -11    1    3    3    0    0  0.34416213483E+02 -0.11685763472E+02  0.84351436009E+01  0.37311988238E+02  0.51100000000E-03 0.  1.
        -12    1    3    3    0    0  0.57558223195E+01  0.33186404219E+01 -0.86219368476E+00  0.66997196042E+01  0.00000000000E+00 0.  1.
</event>
<event>
 7    1  0.2476315E-009  0.4778727E+02  0.7816164E-02  0.1312668E+00
        -11   -1    0    0    0    0  0.00000000000E+00  0.00000000000E+00  0.45593999997E+02  0.45594000000E+02  0.51100000000E-03 0.  1.
         11   -1    0    0    0    0 -0.00000000000E+00 -0.00000000000E+00 -0.45593999997E+02  0.45594000000E+02  0.51100000000E-03 0. -1.
    9900012    2    1    2    0    0 -0.30503502804E+02  0.11492716813E+02  0.28654438162E+02  0.47787273630E+02  0.20000011789E+02 0.  0.
         12    1    1    2    0    0  0.30503502804E+02 -0.11492716813E+02 -0.28654438162E+02  0.43400726370E+02  0.00000000000E+00 0. -1.
         11    1    3    3    0    0 -0.73838310582E+01 -0.30304787441E+01  0.53797952791E+01  0.96253290864E+01  0.51100000000E-03 0. -1.
        -11    1    3    3    0    0 -0.12936859922E+02  0.10132931212E+02  0.21294122876E+02  0.26897552098E+02  0.51100000000E-03 0.  1.
        -12    1    3    3    0    0 -0.10182811824E+02  0.43902643447E+01  0.19805200078E+01  0.11264392445E+02  0.00000000000E+00 0.  1.
</event>
<event>
 7    1  0.2476315E-009  0.4778728E+02  0.7816164E-02  0.1312668E+00
        -11   -1    0    0    0    0  0.00000000000E+00  0.00000000000E+00  0.45593999997E+02  0.45594000000E+02  0.51100000000E-03 0.  1.
         11   -1    0    0    0    0 -0.00000000000E+00 -0.00000000000E+00 -0.45593999997E+02  0.45594000000E+02  0.51100000000E-03 0. -1.
    9900012    2    1    2    0    0 -0.19875560191E+01 -0.38194758920E+02  0.20514207244E+02  0.47787277808E+02  0.20000030838E+02 0.  0.
         12    1    1    2    0    0  0.19875560191E+01  0.38194758920E+02 -0.20514207244E+02  0.43400722192E+02  0.00000000000E+00 0. -1.
         11    1    3    3    0    0 -0.46988076665E+01 -0.12205788162E+02  0.39955066466E+01  0.13675676648E+02  0.51100000000E-03 0. -1.
        -11    1    3    3    0    0  0.85204829086E+01 -0.18447180371E+02  0.11553922148E+02  0.23374991121E+02  0.51100000000E-03 0.  1.
        -12    1    3    3    0    0 -0.58092312611E+01 -0.75417903875E+01  0.49647784499E+01  0.10736610040E+02  0.00000000000E+00 0.  1.
</event>
<event>
 7    1  0.2476315E-009  0.4778727E+02  0.7816164E-02  0.1312668E+00
        -11   -1    0    0    0    0  0.00000000000E+00  0.00000000000E+00  0.45593999997E+02  0.45594000000E+02  0.51100000000E-03 0.  1.
         11   -1    0    0    0    0 -0.00000000000E+00 -0.00000000000E+00 -0.45593999997E+02  0.45594000000E+02  0.51100000000E-03 0. -1.
    9900012    2    1    2    0    0 -0.31889482677E+01  0.16795165290E+02  0.39892056755E+02  0.47787272353E+02  0.20000005965E+02 0.  0.
         12    1    1    2    0    0  0.31889482677E+01 -0.16795165290E+02 -0.39892056755E+02  0.43400727647E+02  0.00000000000E+00 0. -1.
         11    1    3    3    0    0 -0.51577557104E+01 -0.10367460137E+01  0.60179312058E+01  0.79932960989E+01  0.51100000000E-03 0. -1.
        -11    1    3    3    0    0  0.52921094616E+01  0.14164075694E+02  0.29667046102E+02  0.33298064321E+02  0.51100000000E-03 0.  1.
        -12    1    3    3    0    0 -0.33233020189E+01  0.36678356100E+01  0.42070794471E+01  0.64959119333E+01  0.00000000000E+00 0.  1.
</event>
<event>
 7    1  0.2476315E-009  0.4778727E+02  0.7816164E-02  0.1312668E+00
        -11   -1    0    0    0    0  0.00000000000E+00  0.00000000000E+00  0.45593999997E+02  0.45594000000E+02  0.51100000000E-03 0.  1.
         11   -1    0    0    0    0 -0.00000000000E+00 -0.00000000000E+00 -0.45593999997E+02  0.45594000000E+02  0.51100000000E-03 0. -1.
    9900012    2    1    2    0    0 -0.12887672881E+02 -0.30507787100E+02  0.28050060887E+02  0.47787273027E+02  0.20000009038E+02 0.  0.
         12    1    1    2    0    0  0.12887672881E+02  0.30507787100E+02 -0.28050060887E+02  0.43400726973E+02  0.00000000000E+00 0. -1.
         11    1    3    3    0    0 -0.82852139560E+00 -0.60424264140E+01  0.14146563465E+02  0.15405279056E+02  0.51100000000E-03 0. -1.
        -11    1    3    3    0    0 -0.59728526087E+01 -0.93013366930E+01  0.11350813233E+02  0.15843951334E+02  0.51100000000E-03 0.  1.
         12    1    3    3    0    0 -0.60862988769E+01 -0.15164023993E+02  0.25526841895E+01  0.16538042637E+02  0.00000000000E+00 0. -1.
</event>
<event>
 7    1  0.2476315E-009  0.4778726E+02  0.7816164E-02  0.1312668E+00
        -11   -1    0    0    0    0  0.00000000000E+00  0.00000000000E+00  0.45593999997E+02  0.45594000000E+02  0.51100000000E-03 0. -1.
         11   -1    0    0    0    0 -0.00000000000E+00 -0.00000000000E+00 -0.45593999997E+02  0.45594000000E+02  0.51100000000E-03 0.  1.
    9900012    2    1    2    0    0 -0.24171167383E+02 -0.26157129783E+01 -0.35951870194E+02  0.47787259712E+02  0.19999948332E+02 0.  0.
         12    1    1    2    0    0  0.24171167383E+02  0.26157129783E+01  0.35951870194E+02  0.43400740288E+02  0.00000000000E+00 0. -1.
         11    1    3    3    0    0 -0.15621226559E+02 -0.10046621553E+02 -0.29088299132E+02  0.34512120632E+02  0.51100000000E-03 0. -1.
        -11    1    3    3    0    0 -0.38574961521E+01  0.38599381121E+01 -0.30294482058E+01  0.62415507277E+01  0.51100000000E-03 0.  1.
         12    1    3    3    0    0 -0.46924446720E+01  0.35709704622E+01 -0.38341228560E+01  0.70335883528E+01  0.00000000000E+00 0. -1.
</event>
<event>
 7    1  0.2476315E-009  0.4778727E+02  0.7816164E-02  0.1312668E+00
        -11   -1    0    0    0    0  0.00000000000E+00  0.00000000000E+00  0.45593999997E+02  0.45594000000E+02  0.51100000000E-03 0.  1.
         11   -1    0    0    0    0 -0.00000000000E+00 -0.00000000000E+00 -0.45593999997E+02  0.45594000000E+02  0.51100000000E-03 0. -1.
    9900012    2    1    2    0    0 -0.24755769669E+02 -0.29341349453E+01  0.35526975702E+02  0.47787270947E+02  0.19999999557E+02 0.  0.
         12    1    1    2    0    0  0.24755769669E+02  0.29341349453E+01 -0.35526975702E+02  0.43400729053E+02  0.00000000000E+00 0. -1.
         11    1    3    3    0    0 -0.17218181465E+02 -0.73163148041E+01  0.21986666502E+02  0.28868802182E+02  0.51100000000E-03 0. -1.
        -11    1    3    3    0    0 -0.56637156859E+01  0.52124478409E+01  0.31315956154E+01  0.83098844290E+01  0.51100000000E-03 0.  1.
         12    1    3    3    0    0 -0.18738725180E+01 -0.83026798211E+00  0.10408713585E+02  0.10608584337E+02  0.00000000000E+00 0. -1.
</event>
<event>
 7    1  0.2476315E-009  0.4778728E+02  0.7816164E-02  0.1312668E+00
        -11   -1    0    0    0    0  0.00000000000E+00  0.00000000000E+00  0.45593999997E+02  0.45594000000E+02  0.51100000000E-03 0.  1.
         11   -1    0    0    0    0 -0.00000000000E+00 -0.00000000000E+00 -0.45593999997E+02  0.45594000000E+02  0.51100000000E-03 0. -1.
    9900012    2    1    2    0    0  0.13852843990E+02 -0.29642425123E+02  0.28514000346E+02  0.47787275703E+02  0.20000021240E+02 0.  0.
         12    1    1    2    0    0 -0.13852843990E+02  0.29642425123E+02 -0.28514000346E+02  0.43400724297E+02  0.00000000000E+00 0. -1.
         11    1    3    3    0    0  0.25846279349E+01 -0.17854630856E+01  0.10991113246E+02  0.11431218248E+02  0.51100000000E-03 0. -1.
        -11    1    3    3    0    0  0.56681111856E+01 -0.22351208560E+02  0.89630138746E+01  0.24739434643E+02  0.51100000000E-03 0.  1.
        -12    1    3    3    0    0  0.56001048696E+01 -0.55057534773E+01  0.85598732262E+01  0.11616622812E+02  0.00000000000E+00 0.  1.
</event>
<event>
 7    1  0.2476315E-009  0.4778728E+02  0.7816164E-02  0.1312668E+00
        -11   -1    0    0    0    0  0.00000000000E+00  0.00000000000E+00  0.45593999997E+02  0.45594000000E+02  0.51100000000E-03 0. -1.
         11   -1    0    0    0    0 -0.00000000000E+00 -0.00000000000E+00 -0.45593999997E+02  0.45594000000E+02  0.51100000000E-03 0.  1.
    9900012    2    1    2    0    0  0.18948384786E+02  0.21249490619E+02 -0.32757298791E+02  0.47787276945E+02  0.20000026903E+02 0.  0.
         12    1    1    2    0    0 -0.18948384786E+02 -0.21249490619E+02  0.32757298791E+02  0.43400723055E+02  0.00000000000E+00 0. -1.
         11    1    3    3    0    0  0.17098046916E+02  0.11758467609E+02 -0.22036722553E+02  0.30269157735E+02  0.51100000000E-03 0.  1.
        -11    1    3    3    0    0 -0.37795272917E+01  0.22463442323E+01 -0.18959982690E+01  0.47880788064E+01  0.51100000000E-03 0. -1.
         12    1    3    3    0    0  0.56298651619E+01  0.72446787780E+01 -0.88245779692E+01  0.12730040403E+02  0.00000000000E+00 0. -1.
</event>
<event>
 7    1  0.2476315E-009  0.4778727E+02  0.7816164E-02  0.1312668E+00
        -11   -1    0    0    0    0  0.00000000000E+00  0.00000000000E+00  0.45593999997E+02  0.45594000000E+02  0.51100000000E-03 0. -1.
         11   -1    0    0    0    0 -0.00000000000E+00 -0.00000000000E+00 -0.45593999997E+02  0.45594000000E+02  0.51100000000E-03 0.  1.
    9900012    2    1    2    0    0 -0.25263906659E+01 -0.41348102542E+02 -0.12945073799E+02  0.47787272249E+02  0.20000005491E+02 0.  0.
         12    1    1    2    0    0  0.25263906659E+01  0.41348102542E+02  0.12945073799E+02  0.43400727751E+02  0.00000000000E+00 0. -1.
         11    1    3    3    0    0 -0.35597196670E+01 -0.68584140864E+01  0.15686746356E+01  0.78848074334E+01  0.51100000000E-03 0. -1.
        -11    1    3    3    0    0  0.14818381006E+01 -0.14770956446E+02  0.89684211953E+00  0.14872166101E+02  0.51100000000E-03 0.  1.
         12    1    3    3    0    0 -0.44850909956E+00 -0.19718732010E+02 -0.15410590555E+02  0.25030298715E+02  0.00000000000E+00 0. -1.
</event>
<event>
 7    1  0.2476315E-009  0.4778727E+02  0.7816164E-02  0.1312668E+00
        -11   -1    0    0    0    0  0.00000000000E+00  0.00000000000E+00  0.45593999997E+02  0.45594000000E+02  0.51100000000E-03 0.  1.
         11   -1    0    0    0    0 -0.00000000000E+00 -0.00000000000E+00 -0.45593999997E+02  0.45594000000E+02  0.51100000000E-03 0. -1.
    9900012    2    1    2    0    0 -0.22110757519E+02  0.34167865455E+02  0.15076288707E+02  0.47787272944E+02  0.20000008660E+02 0.  0.
         12    1    1    2    0    0  0.22110757519E+02 -0.34167865455E+02 -0.15076288707E+02  0.43400727056E+02  0.00000000000E+00 0. -1.
         11    1    3    3    0    0 -0.89537481441E+01  0.17932268506E+01  0.29046317848E+01  0.95823877208E+01  0.51100000000E-03 0. -1.
        -11    1    3    3    0    0 -0.97634394068E+01  0.27351962085E+02  0.62018162729E+01  0.29697089155E+02  0.51100000000E-03 0.  1.
        -12    1    3    3    0    0 -0.33935699680E+01  0.50226765194E+01  0.59698406495E+01  0.85077960676E+01  0.00000000000E+00 0.  1.
</event>
<event>
 7    1  0.2476315E-009  0.4778729E+02  0.7816164E-02  0.1312668E+00
        -11   -1    0    0    0    0  0.00000000000E+00  0.00000000000E+00  0.45593999997E+02  0.45594000000E+02  0.51100000000E-03 0.  1.
         11   -1    0    0    0    0 -0.00000000000E+00 -0.00000000000E+00 -0.45593999997E+02  0.45594000000E+02  0.51100000000E-03 0. -1.
    9900012    2    1    2    0    0  0.42494950615E+02  0.79860570707E+01  0.37448279849E+01  0.47787289500E+02  0.20000084145E+02 0.  0.
         12    1    1    2    0    0 -0.42494950615E+02 -0.79860570707E+01 -0.37448279849E+01  0.43400710500E+02  0.00000000000E+00 0. -1.
         11    1    3    3    0    0 -0.18109396782E+01 -0.11560312945E+00  0.96578616924E+00  0.20556288059E+01  0.51100000000E-03 0. -1.
        -11    1    3    3    0    0  0.12669699528E+02  0.32450361818E+01 -0.24336417092E+01  0.13303163465E+02  0.51100000000E-03 0.  1.
         12    1    3    3    0    0  0.31636190765E+02  0.48566240183E+01  0.52126835249E+01  0.32428497229E+02  0.00000000000E+00 0. -1.
</event>
<event>
 7    1  0.2476315E-009  0.4778727E+02  0.7816164E-02  0.1312668E+00
        -11   -1    0    0    0    0  0.00000000000E+00  0.00000000000E+00  0.45593999997E+02  0.45594000000E+02  0.51100000000E-03 0. -1.
         11   -1    0    0    0    0 -0.00000000000E+00 -0.00000000000E+00 -0.45593999997E+02  0.45594000000E+02  0.51100000000E-03 0.  1.
    9900012    2    1    2    0    0 -0.19738623851E+02 -0.27288136375E+02 -0.27374578968E+02  0.47787271526E+02  0.20000002198E+02 0.  0.
         12    1    1    2    0    0  0.19738623851E+02  0.27288136375E+02  0.27374578968E+02  0.43400728474E+02  0.00000000000E+00 0. -1.
         11    1    3    3    0    0 -0.57061087355E+01  0.22574906145E+01 -0.42909237029E+01  0.74878546501E+01  0.51100000000E-03 0. -1.
        -11    1    3    3    0    0 -0.86426809324E+01 -0.13426437657E+02 -0.98813457250E+01  0.18777810188E+02  0.51100000000E-03 0.  1.
         12    1    3    3    0    0 -0.53898341832E+01 -0.16119189332E+02 -0.13202309541E+02  0.21521606688E+02  0.00000000000E+00 0. -1.
</event>
<event>
 7    1  0.2476315E-009  0.4778727E+02  0.7816164E-02  0.1312668E+00
        -11   -1    0    0    0    0  0.00000000000E+00  0.00000000000E+00  0.45593999997E+02  0.45594000000E+02  0.51100000000E-03 0.  1.
         11   -1    0    0    0    0 -0.00000000000E+00 -0.00000000000E+00 -0.45593999997E+02  0.45594000000E+02  0.51100000000E-03 0. -1.
    9900012    2    1    2    0    0 -0.19722777362E+02 -0.16356081486E+02  0.35030183222E+02  0.47787273220E+02  0.20000009921E+02 0.  0.
         12    1    1    2    0    0  0.19722777362E+02  0.16356081486E+02 -0.35030183222E+02  0.43400726780E+02  0.00000000000E+00 0. -1.
         11    1    3    3    0    0 -0.11482230367E+02 -0.18343037548E+01  0.19196300328E+02  0.22443356055E+02  0.51100000000E-03 0. -1.
        -11    1    3    3    0    0 -0.29373098951E+00 -0.10052510097E+02  0.11411646215E+02  0.15210683967E+02  0.51100000000E-03 0.  1.
        -12    1    3    3    0    0 -0.79468160058E+01 -0.44692676334E+01  0.44222366788E+01  0.10133233198E+02  0.00000000000E+00 0.  1.
</event>
<event>
 7    1  0.2476315E-009  0.4778727E+02  0.7816164E-02  0.1312668E+00
        -11   -1    0    0    0    0  0.00000000000E+00  0.00000000000E+00  0.45593999997E+02  0.45594000000E+02  0.51100000000E-03 0. -1.
         11   -1    0    0    0    0 -0.00000000000E+00 -0.00000000000E+00 -0.45593999997E+02  0.45594000000E+02  0.51100000000E-03 0.  1.
    9900012    2    1    2    0    0  0.28811690596E+02  0.83813550857E+01 -0.31357017357E+02  0.47787272292E+02  0.20000005688E+02 0.  0.
         12    1    1    2    0    0 -0.28811690596E+02 -0.83813550857E+01  0.31357017357E+02  0.43400727708E+02  0.00000000000E+00 0. -1.
         11    1    3    3    0    0  0.56893816343E+01 -0.17140351549E+01 -0.19400172265E+01  0.62506517255E+01  0.51100000000E-03 0. -1.
        -11    1    3    3    0    0 -0.20227521468E+01  0.16440806425E+01 -0.14208904259E+01  0.29687467507E+01  0.51100000000E-03 0.  1.
        -12    1    3    3    0    0  0.25145061108E+02  0.84513095981E+01 -0.27996109705E+02  0.38567873816E+02  0.00000000000E+00 0.  1.
</event>
<event>
 7    1  0.2476315E-009  0.4778728E+02  0.7816164E-02  0.1312668E+00
        -11   -1    0    0    0    0  0.00000000000E+00  0.00000000000E+00  0.45593999997E+02  0.45594000000E+02  0.51100000000E-03 0.  1.
         11   -1    0    0    0    0 -0.00000000000E+00 -0.00000000000E+00 -0.45593999997E+02  0.45594000000E+02  0.51100000000E-03 0. -1.
    9900012    2    1    2    0    0 -0.10371082473E+02 -0.33178614330E+02  0.25985439239E+02  0.47787275893E+02  0.20000022106E+02 0.  0.
         12    1    1    2    0    0  0.10371082473E+02  0.33178614330E+02 -0.25985439239E+02  0.43400724107E+02  0.00000000000E+00 0. -1.
         11    1    3    3    0    0  0.46721030601E+00 -0.19667928888E+02  0.70359775127E+01  0.20893795539E+02  0.51100000000E-03 0. -1.
        -11    1    3    3    0    0 -0.37847014253E+01 -0.76620527773E+00  0.72355864620E+01  0.82015088317E+01  0.51100000000E-03 0.  1.
        -12    1    3    3    0    0 -0.70535913540E+01 -0.12744480165E+02  0.11713875265E+02  0.18691971522E+02  0.00000000000E+00 0.  1.
</event>
<event>
 7    1  0.2476315E-009  0.4778727E+02  0.7816164E-02  0.1312668E+00
        -11   -1    0    0    0    0  0.00000000000E+00  0.00000000000E+00  0.45593999997E+02  0.45594000000E+02  0.51100000000E-03 0.  1.
         11   -1    0    0    0    0 -0.00000000000E+00 -0.00000000000E+00 -0.45593999997E+02  0.45594000000E+02  0.51100000000E-03 0. -1.
    9900012    2    1    2    0    0 -0.17384252324E+02  0.21297549260E+02  0.33583114456E+02  0.47787269477E+02  0.19999992853E+02 0.  0.
         12    1    1    2    0    0  0.17384252324E+02 -0.21297549260E+02 -0.33583114456E+02  0.43400730523E+02  0.00000000000E+00 0. -1.
         11    1    3    3    0    0 -0.75357788717E+01  0.23569453789E+01  0.20126117544E+01  0.81482366840E+01  0.51100000000E-03 0. -1.
        -11    1    3    3    0    0 -0.10358289265E+02  0.11723983637E+02  0.26606845248E+02  0.30865355386E+02  0.51100000000E-03 0.  1.
        -12    1    3    3    0    0  0.50981581264E+00  0.72166202445E+01  0.49636574541E+01  0.87736774067E+01  0.00000000000E+00 0.  1.
</event>
<event>
 7    1  0.2476315E-009  0.4778727E+02  0.7816164E-02  0.1312668E+00
        -11   -1    0    0    0    0  0.00000000000E+00  0.00000000000E+00  0.45593999997E+02  0.45594000000E+02  0.51100000000E-03 0.  1.
         11   -1    0    0    0    0 -0.00000000000E+00 -0.00000000000E+00 -0.45593999997E+02  0.45594000000E+02  0.51100000000E-03 0. -1.
    9900012    2    1    2    0    0 -0.24934703382E+02  0.52593127466E+01  0.35131515909E+02  0.47787271742E+02  0.20000003180E+02 0.  0.
         12    1    1    2    0    0  0.24934703382E+02 -0.52593127466E+01 -0.35131515909E+02  0.43400728258E+02  0.00000000000E+00 0. -1.
         11    1    3    3    0    0 -0.90140562545E+00  0.29011945268E+01  0.12364058859E+02  0.12731826794E+02  0.51100000000E-03 0. -1.
        -11    1    3    3    0    0 -0.15299937837E+02 -0.32598448406E+01  0.17284947200E+02  0.23312745145E+02  0.51100000000E-03 0.  1.
        -12    1    3    3    0    0 -0.87333599194E+01  0.56179630604E+01  0.54825098496E+01  0.11742699804E+02  0.00000000000E+00 0.  1.
</event>
<event>
 7    1  0.2476315E-009  0.4778729E+02  0.7816164E-02  0.1312668E+00
        -11   -1    0    0    0    0  0.00000000000E+00  0.00000000000E+00  0.45593999997E+02  0.45594000000E+02  0.51100000000E-03 0.  1.
         11   -1    0    0    0    0 -0.00000000000E+00 -0.00000000000E+00 -0.45593999997E+02  0.45594000000E+02  0.51100000000E-03 0. -1.
    9900012    2    1    2    0    0  0.63122778723E+01  0.34240581763E+01  0.42802483585E+02  0.47787290013E+02  0.20000086483E+02 0.  0.
         12    1    1    2    0    0 -0.63122778723E+01 -0.34240581763E+01 -0.42802483585E+02  0.43400709987E+02  0.00000000000E+00 0. -1.
         11    1    3    3    0    0  0.42257700352E+01  0.35500863323E+01  0.18083684690E+01  0.58077915026E+01  0.51100000000E-03 0. -1.
        -11    1    3    3    0    0  0.17335828040E+01 -0.42679288795E+01  0.26649508675E+02  0.27044719247E+02  0.51100000000E-03 0.  1.
        -12    1    3    3    0    0  0.35292503308E+00  0.41419007235E+01  0.14344606441E+02  0.14934779263E+02  0.00000000000E+00 0.  1.
</event>
<event>
 7    1  0.2476315E-009  0.4778727E+02  0.7816164E-02  0.1312668E+00
        -11   -1    0    0    0    0  0.00000000000E+00  0.00000000000E+00  0.45593999997E+02  0.45594000000E+02  0.51100000000E-03 0.  1.
         11   -1    0    0    0    0 -0.00000000000E+00 -0.00000000000E+00 -0.45593999997E+02  0.45594000000E+02  0.51100000000E-03 0. -1.
    9900012    2    1    2    0    0  0.37390000619E+02 -0.21946152843E+02 -0.19943550731E+01  0.47787271630E+02  0.20000002668E+02 0.  0.
         12    1    1    2    0    0 -0.37390000619E+02  0.21946152843E+02  0.19943550731E+01  0.43400728370E+02  0.00000000000E+00 0. -1.
         11    1    3    3    0    0  0.68648873254E+01 -0.10938695593E+02  0.14695664508E+01  0.12997744615E+02  0.51100000000E-03 0. -1.
        -11    1    3    3    0    0  0.25683768252E+02 -0.53453962204E+01  0.72263011177E+00  0.26244073749E+02  0.51100000000E-03 0.  1.
        -12    1    3    3    0    0  0.48413450417E+01 -0.56620610304E+01 -0.41865516357E+01  0.85454532661E+01  0.00000000000E+00 0.  1.
</event>
<event>
 7    1  0.2476315E-009  0.4778727E+02  0.7816164E-02  0.1312668E+00
        -11   -1    0    0    0    0  0.00000000000E+00  0.00000000000E+00  0.45593999997E+02  0.45594000000E+02  0.51100000000E-03 0.  1.
         11   -1    0    0    0    0 -0.00000000000E+00 -0.00000000000E+00 -0.45593999997E+02  0.45594000000E+02  0.51100000000E-03 0. -1.
    9900012    2    1    2    0    0  0.25513743966E+02  0.78550480205E+01  0.34219442250E+02  0.47787272605E+02  0.20000007114E+02 0.  0.
         12    1    1    2    0    0 -0.25513743966E+02 -0.78550480205E+01 -0.34219442250E+02  0.43400727395E+02  0.00000000000E+00 0. -1.
         11    1    3    3    0    0  0.76214808992E+01  0.19353143630E+01  0.32647224993E+01  0.85141544524E+01  0.51100000000E-03 0. -1.
        -11    1    3    3    0    0  0.16229268757E+01 -0.35386645291E+01  0.12130790863E+01  0.40776953570E+01  0.51100000000E-03 0.  1.
        -12    1    3    3    0    0  0.16269336191E+02  0.94583981866E+01  0.29741640664E+02  0.35195422795E+02  0.00000000000E+00 0.  1.
</event>
<event>
 7    1  0.2476315E-009  0.4778728E+02  0.7816164E-02  0.1312668E+00
        -11   -1    0    0    0    0  0.00000000000E+00  0.00000000000E+00  0.45593999997E+02  0.45594000000E+02  0.51100000000E-03 0.  1.
         11   -1    0    0    0    0 -0.00000000000E+00 -0.00000000000E+00 -0.45593999997E+02  0.45594000000E+02  0.51100000000E-03 0. -1.
    9900012    2    1    2    0    0  0.12014668801E+02  0.24620237939E+02  0.33661765025E+02  0.47787276421E+02  0.20000024514E+02 0.  0.
         12    1    1    2    0    0 -0.12014668801E+02 -0.24620237939E+02 -0.33661765025E+02  0.43400723579E+02  0.00000000000E+00 0. -1.
         11    1    3    3    0    0  0.13005669272E+02  0.12590078594E+02  0.20337167794E+02  0.27226051979E+02  0.51100000000E-03 0. -1.
        -11    1    3    3    0    0 -0.17737915084E+01  0.13687408403E+02  0.11373625509E+02  0.17884374257E+02  0.51100000000E-03 0.  1.
        -12    1    3    3    0    0  0.78279103790E+00 -0.16572490582E+01  0.19509717222E+01  0.26768501846E+01  0.00000000000E+00 0.  1.
</event>
<event>
 7    1  0.2476315E-009  0.4778727E+02  0.7816164E-02  0.1312668E+00
        -11   -1    0    0    0    0  0.00000000000E+00  0.00000000000E+00  0.45593999997E+02  0.45594000000E+02  0.51100000000E-03 0. -1.
         11   -1    0    0    0    0 -0.00000000000E+00 -0.00000000000E+00 -0.45593999997E+02  0.45594000000E+02  0.51100000000E-03 0.  1.
    9900012    2    1    2    0    0 -0.41844187808E+02  0.43976162041E+00  0.11510592851E+02  0.47787271995E+02  0.20000004333E+02 0.  0.
         12    1    1    2    0    0  0.41844187808E+02 -0.43976162041E+00 -0.11510592851E+02  0.43400728005E+02  0.00000000000E+00 0. -1.
         11    1    3    3    0    0 -0.86479982138E+01 -0.39673070346E+01  0.27878339634E+00  0.95186721057E+01  0.51100000000E-03 0. -1.
        -11    1    3    3    0    0 -0.56124055938E+01 -0.47989278875E+01  0.10526642760E+01  0.74590152003E+01  0.51100000000E-03 0.  1.
        -12    1    3    3    0    0 -0.27583784001E+02  0.92059965425E+01  0.10179145178E+02  0.30809584689E+02  0.00000000000E+00 0.  1.
</event>
<event>
 7    1  0.2476315E-009  0.4778727E+02  0.7816164E-02  0.1312668E+00
        -11   -1    0    0    0    0  0.00000000000E+00  0.00000000000E+00  0.45593999997E+02  0.45594000000E+02  0.51100000000E-03 0.  1.
         11   -1    0    0    0    0 -0.00000000000E+00 -0.00000000000E+00 -0.45593999997E+02  0.45594000000E+02  0.51100000000E-03 0. -1.
    9900012    2    1    2    0    0 -0.19318294412E+02  0.27403331774E+02  0.27558738382E+02  0.47787272443E+02  0.20000006375E+02 0.  0.
         12    1    1    2    0    0  0.19318294412E+02 -0.27403331774E+02 -0.27558738382E+02  0.43400727557E+02  0.00000000000E+00 0. -1.
         11    1    3    3    0    0 -0.85411709870E+01 -0.12902780893E+00  0.39009931486E+01  0.93907400034E+01  0.51100000000E-03 0. -1.
        -11    1    3    3    0    0 -0.24638185617E+01  0.10744847600E+02  0.12175047532E+02  0.16424187484E+02  0.51100000000E-03 0.  1.
         12    1    3    3    0    0 -0.83133048634E+01  0.16787511983E+02  0.11482697701E+02  0.21972344955E+02  0.00000000000E+00 0. -1.
</event>
<event>
 7    1  0.2476315E-009  0.4778727E+02  0.7816164E-02  0.1312668E+00
        -11   -1    0    0    0    0  0.00000000000E+00  0.00000000000E+00  0.45593999997E+02  0.45594000000E+02  0.51100000000E-03 0. -1.
         11   -1    0    0    0    0 -0.00000000000E+00 -0.00000000000E+00 -0.45593999997E+02  0.45594000000E+02  0.51100000000E-03 0.  1.
    9900012    2    1    2    0    0 -0.31992165725E+02  0.87793134797E+01 -0.27982996107E+02  0.47787273231E+02  0.20000009970E+02 0.  0.
         12    1    1    2    0    0  0.31992165725E+02 -0.87793134797E+01  0.27982996107E+02  0.43400726769E+02  0.00000000000E+00 0. -1.
         11    1    3    3    0    0 -0.22752807344E+02  0.75530894036E+01 -0.20095438547E+02  0.31282040410E+02  0.51100000000E-03 0.  1.
        -11    1    3    3    0    0 -0.51333724512E+01 -0.49082630697E+01 -0.34989865704E+01  0.79174153842E+01  0.51100000000E-03 0. -1.
        -12    1    3    3    0    0 -0.41059859298E+01  0.61344871458E+01 -0.43885709891E+01  0.85878174366E+01  0.00000000000E+00 0.  1.
</event>
<event>
 7    1  0.2476315E-009  0.4778726E+02  0.7816164E-02  0.1312668E+00
        -11   -1    0    0    0    0  0.00000000000E+00  0.00000000000E+00  0.45593999997E+02  0.45594000000E+02  0.51100000000E-03 0. -1.
         11   -1    0    0    0    0 -0.00000000000E+00 -0.00000000000E+00 -0.45593999997E+02  0.45594000000E+02  0.51100000000E-03 0.  1.
    9900012    2    1    2    0    0  0.42217579464E+02 -0.14658760958E+01 -0.99574806896E+01  0.47787260027E+02  0.19999949768E+02 0.  0.
         12    1    1    2    0    0 -0.42217579464E+02  0.14658760958E+01  0.99574806896E+01  0.43400739973E+02  0.00000000000E+00 0. -1.
         11    1    3    3    0    0  0.50671742922E+01 -0.54275408582E+01 -0.44592296075E+01  0.86613615575E+01  0.51100000000E-03 0. -1.
        -11    1    3    3    0    0  0.10752606267E+02  0.41857247108E+01 -0.53696845164E+01  0.12726835622E+02  0.51100000000E-03 0.  1.
         12    1    3    3    0    0  0.26397798904E+02 -0.22405994838E+00 -0.12856656568E+00  0.26399062847E+02  0.00000000000E+00 0. -1.
</event>
<event>
 7    1  0.2476315E-009  0.4778727E+02  0.7816164E-02  0.1312668E+00
        -11   -1    0    0    0    0  0.00000000000E+00  0.00000000000E+00  0.45593999997E+02  0.45594000000E+02  0.51100000000E-03 0.  1.
         11   -1    0    0    0    0 -0.00000000000E+00 -0.00000000000E+00 -0.45593999997E+02  0.45594000000E+02  0.51100000000E-03 0. -1.
    9900012    2    1    2    0    0 -0.75834729786E+01 -0.24596131551E+02  0.34944877168E+02  0.47787272010E+02  0.20000004404E+02 0.  0.
         12    1    1    2    0    0  0.75834729786E+01  0.24596131551E+02 -0.34944877168E+02  0.43400727990E+02  0.00000000000E+00 0. -1.
         11    1    3    3    0    0 -0.31167674397E+01 -0.55757837525E+00  0.30986809979E+00  0.31813757115E+01  0.51100000000E-03 0. -1.
        -11    1    3    3    0    0 -0.90600924675E+01 -0.12136395714E+02  0.21461667083E+02  0.26267480479E+02  0.51100000000E-03 0.  1.
        -12    1    3    3    0    0  0.45933869285E+01 -0.11902157462E+02  0.13173341986E+02  0.18338415820E+02  0.00000000000E+00 0.  1.
</event>
<event>
 7    1  0.2476315E-009  0.4778728E+02  0.7816164E-02  0.1312668E+00
        -11   -1    0    0    0    0  0.00000000000E+00  0.00000000000E+00  0.45593999997E+02  0.45594000000E+02  0.51100000000E-03 0. -1.
         11   -1    0    0    0    0 -0.00000000000E+00 -0.00000000000E+00 -0.45593999997E+02  0.45594000000E+02  0.51100000000E-03 0.  1.
    9900012    2    1    2    0    0  0.15696225080E+02  0.36024180139E+01 -0.40302278313E+02  0.47787279562E+02  0.20000038835E+02 0.  0.
         12    1    1    2    0    0 -0.15696225080E+02 -0.36024180139E+01  0.40302278313E+02  0.43400720438E+02  0.00000000000E+00 0. -1.
         11    1    3    3    0    0  0.59632605957E+00  0.34150316936E+01 -0.19600018008E+01  0.39824180542E+01  0.51100000000E-03 0. -1.
        -11    1    3    3    0    0  0.14157912222E+02  0.30998532522E+01 -0.17424309937E+02  0.22664115816E+02  0.51100000000E-03 0.  1.
        -12    1    3    3    0    0  0.94198679825E+00 -0.29124669320E+01 -0.20917966575E+02  0.21140745691E+02  0.00000000000E+00 0.  1.
</event>
<event>
 7    1  0.2476315E-009  0.4778727E+02  0.7816164E-02  0.1312668E+00
        -11   -1    0    0    0    0  0.00000000000E+00  0.00000000000E+00  0.45593999997E+02  0.45594000000E+02  0.51100000000E-03 0.  1.
         11   -1    0    0    0    0 -0.00000000000E+00 -0.00000000000E+00 -0.45593999997E+02  0.45594000000E+02  0.51100000000E-03 0. -1.
    9900012    2    1    2    0    0  0.27430491850E+02  0.52967954165E+01  0.33213477950E+02  0.47787273712E+02  0.20000012161E+02 0.  0.
         12    1    1    2    0    0 -0.27430491850E+02 -0.52967954165E+01 -0.33213477950E+02  0.43400726288E+02  0.00000000000E+00 0. -1.
         11    1    3    3    0    0  0.11681033655E+02 -0.49245649442E+01  0.59201896494E+01  0.13990944674E+02  0.51100000000E-03 0. -1.
        -11    1    3    3    0    0  0.81019891252E+01  0.71903811449E+01  0.20256388446E+02  0.22970961711E+02  0.51100000000E-03 0.  1.
         12    1    3    3    0    0  0.76474690700E+01  0.30309792158E+01  0.70368998548E+01  0.10825367326E+02  0.00000000000E+00 0. -1.
</event>
<event>
 7    1  0.2476315E-009  0.4778727E+02  0.7816164E-02  0.1312668E+00
        -11   -1    0    0    0    0  0.00000000000E+00  0.00000000000E+00  0.45593999997E+02  0.45594000000E+02  0.51100000000E-03 0.  1.
         11   -1    0    0    0    0 -0.00000000000E+00 -0.00000000000E+00 -0.45593999997E+02  0.45594000000E+02  0.51100000000E-03 0. -1.
    9900012    2    1    2    0    0  0.30318906427E+02 -0.85670797035E+01  0.29849503196E+02  0.47787265183E+02  0.19999973277E+02 0.  0.
         12    1    1    2    0    0 -0.30318906427E+02  0.85670797035E+01 -0.29849503196E+02  0.43400734817E+02  0.00000000000E+00 0. -1.
         11    1    3    3    0    0 -0.71080272726E+00  0.16716178403E+01  0.46097566733E+01  0.49547354691E+01  0.51100000000E-03 0. -1.
        -11    1    3    3    0    0  0.17706703361E+02 -0.11294514733E+02  0.12934699190E+02  0.24665762716E+02  0.51100000000E-03 0.  1.
        -12    1    3    3    0    0  0.13323005794E+02  0.10558171891E+01  0.12305047333E+02  0.18166766999E+02  0.00000000000E+00 0.  1.
</event>
<event>
 7    1  0.2476315E-009  0.4778726E+02  0.7816164E-02  0.1312668E+00
        -11   -1    0    0    0    0  0.00000000000E+00  0.00000000000E+00  0.45593999997E+02  0.45594000000E+02  0.51100000000E-03 0. -1.
         11   -1    0    0    0    0 -0.00000000000E+00 -0.00000000000E+00 -0.45593999997E+02  0.45594000000E+02  0.51100000000E-03 0.  1.
    9900012    2    1    2    0    0 -0.15974851521E+02  0.35633701962E+01 -0.40196156715E+02  0.47787256885E+02  0.19999935442E+02 0.  0.
         12    1    1    2    0    0  0.15974851521E+02 -0.35633701962E+01  0.40196156715E+02  0.43400743115E+02  0.00000000000E+00 0. -1.
         11    1    3    3    0    0 -0.80950287148E+01  0.60995635379E+01 -0.63214916152E+01  0.11945518898E+02  0.51100000000E-03 0. -1.
        -11    1    3    3    0    0 -0.56721061504E+00  0.15794094257E+01 -0.10919984379E+01  0.20021795288E+01  0.51100000000E-03 0.  1.
         12    1    3    3    0    0 -0.73126121916E+01 -0.41156027674E+01 -0.32782666662E+02  0.33839558458E+02  0.00000000000E+00 0. -1.
</event>
<event>
 7    1  0.2476315E-009  0.4778727E+02  0.7816164E-02  0.1312668E+00
        -11   -1    0    0    0    0  0.00000000000E+00  0.00000000000E+00  0.45593999997E+02  0.45594000000E+02  0.51100000000E-03 0. -1.
         11   -1    0    0    0    0 -0.00000000000E+00 -0.00000000000E+00 -0.45593999997E+02  0.45594000000E+02  0.51100000000E-03 0.  1.
    9900012    2    1    2    0    0  0.99361113505E+01 -0.42230380607E+02  0.12215897686E+01  0.47787266866E+02  0.19999980949E+02 0.  0.
         12    1    1    2    0    0 -0.99361113505E+01  0.42230380607E+02 -0.12215897686E+01  0.43400733134E+02  0.00000000000E+00 0. -1.
         11    1    3    3    0    0  0.32283933178E+01 -0.35298936804E+01 -0.43871363110E+01  0.64907347875E+01  0.51100000000E-03 0. -1.
        -11    1    3    3    0    0  0.26795909708E+01 -0.13048522571E+02  0.74543554739E+01  0.15264716337E+02  0.51100000000E-03 0.  1.
        -12    1    3    3    0    0  0.40281270620E+01 -0.25651964355E+02 -0.18456293943E+01  0.26031815741E+02  0.00000000000E+00 0.  1.
</event>
<event>
 7    1  0.2476315E-009  0.4778727E+02  0.7816164E-02  0.1312668E+00
        -11   -1    0    0    0    0  0.00000000000E+00  0.00000000000E+00  0.45593999997E+02  0.45594000000E+02  0.51100000000E-03 0.  1.
         11   -1    0    0    0    0 -0.00000000000E+00 -0.00000000000E+00 -0.45593999997E+02  0.45594000000E+02  0.51100000000E-03 0. -1.
    9900012    2    1    2    0    0  0.30146839117E+01 -0.43278438067E+02  0.12294918361E+01  0.47787272232E+02  0.20000005413E+02 0.  0.
         12    1    1    2    0    0 -0.30146839117E+01  0.43278438067E+02 -0.12294918361E+01  0.43400727768E+02  0.00000000000E+00 0. -1.
         11    1    3    3    0    0 -0.49141363618E+01 -0.35457989379E+01  0.80473741381E+00  0.61130212544E+01  0.51100000000E-03 0. -1.
        -11    1    3    3    0    0  0.74735806545E+01 -0.39588402232E+02 -0.86706098345E+00  0.40296994851E+02  0.51100000000E-03 0.  1.
         12    1    3    3    0    0  0.45523961903E+00 -0.14423689809E+00  0.12918154058E+01  0.13772561258E+01  0.00000000000E+00 0. -1.
</event>
<event>
 7    1  0.2476315E-009  0.4778727E+02  0.7816164E-02  0.1312668E+00
        -11   -1    0    0    0    0  0.00000000000E+00  0.00000000000E+00  0.45593999997E+02  0.45594000000E+02  0.51100000000E-03 0.  1.
         11   -1    0    0    0    0 -0.00000000000E+00 -0.00000000000E+00 -0.45593999997E+02  0.45594000000E+02  0.51100000000E-03 0. -1.
    9900012    2    1    2    0    0 -0.62074106171E+01 -0.36438919270E+02  0.22744157454E+02  0.47787268642E+02  0.19999989047E+02 0.  0.
         12    1    1    2    0    0  0.62074106171E+01  0.36438919270E+02 -0.22744157454E+02  0.43400731358E+02  0.00000000000E+00 0. -1.
         11    1    3    3    0    0  0.10790243031E+01 -0.17136789432E+02  0.21279730518E+01  0.17302084125E+02  0.51100000000E-03 0. -1.
        -11    1    3    3    0    0 -0.60857570934E+01 -0.48681484217E+01  0.90998879170E+01  0.11980954420E+02  0.51100000000E-03 0.  1.
        -12    1    3    3    0    0 -0.12006778267E+01 -0.14433981416E+02  0.11516296485E+02  0.18504230097E+02  0.00000000000E+00 0.  1.
</event>
<event>
 7    1  0.2476315E-009  0.4778727E+02  0.7816164E-02  0.1312668E+00
        -11   -1    0    0    0    0  0.00000000000E+00  0.00000000000E+00  0.45593999997E+02  0.45594000000E+02  0.51100000000E-03 0.  1.
         11   -1    0    0    0    0 -0.00000000000E+00 -0.00000000000E+00 -0.45593999997E+02  0.45594000000E+02  0.51100000000E-03 0. -1.
    9900012    2    1    2    0    0  0.16226774387E+02  0.40249285073E+02 -0.55689431140E+00  0.47787270891E+02  0.19999999302E+02 0.  0.
         12    1    1    2    0    0 -0.16226774387E+02 -0.40249285073E+02  0.55689431140E+00  0.43400729109E+02  0.00000000000E+00 0. -1.
         11    1    3    3    0    0  0.61549030347E+01  0.94582227867E+01 -0.35719557652E+01  0.11836370977E+02  0.51100000000E-03 0. -1.
        -11    1    3    3    0    0 -0.12780385769E+01  0.11807315993E+02 -0.43364618597E+01  0.12643219340E+02  0.51100000000E-03 0.  1.
        -12    1    3    3    0    0  0.11349909929E+02  0.18983746294E+02  0.73515233135E+01  0.23307680575E+02  0.00000000000E+00 0.  1.
</event>
<event>
 7    1  0.2476315E-009  0.4778727E+02  0.7816164E-02  0.1312668E+00
        -11   -1    0    0    0    0  0.00000000000E+00  0.00000000000E+00  0.45593999997E+02  0.45594000000E+02  0.51100000000E-03 0.  1.
         11   -1    0    0    0    0 -0.00000000000E+00 -0.00000000000E+00 -0.45593999997E+02  0.45594000000E+02  0.51100000000E-03 0. -1.
    9900012    2    1    2    0    0  0.25743194875E+02 -0.20304374259E+02  0.28436661173E+02  0.47787269649E+02  0.19999993636E+02 0.  0.
         12    1    1    2    0    0 -0.25743194875E+02  0.20304374259E+02 -0.28436661173E+02  0.43400730351E+02  0.00000000000E+00 0. -1.
         11    1    3    3    0    0  0.20351624324E+02 -0.98602011724E+01  0.17571219246E+02  0.28638434417E+02  0.51100000000E-03 0. -1.
        -11    1    3    3    0    0  0.74026697920E+01 -0.29812151328E+01  0.46980164065E+01  0.92605897293E+01  0.51100000000E-03 0.  1.
         12    1    3    3    0    0 -0.20110992412E+01 -0.74629579536E+01  0.61674255199E+01  0.98882455025E+01  0.00000000000E+00 0. -1.
</event>
<event>
 7    1  0.2476315E-009  0.4778727E+02  0.7816164E-02  0.1312668E+00
        -11   -1    0    0    0    0  0.00000000000E+00  0.00000000000E+00  0.45593999997E+02  0.45594000000E+02  0.51100000000E-03 0. -1.
         11   -1    0    0    0    0 -0.00000000000E+00 -0.00000000000E+00 -0.45593999997E+02  0.45594000000E+02  0.51100000000E-03 0.  1.
    9900012    2    1    2    0    0 -0.33108793757E+02  0.47292495617E+01 -0.27659810607E+02  0.47787272492E+02  0.20000006599E+02 0.  0.
         12    1    1    2    0    0  0.33108793757E+02 -0.47292495617E+01  0.27659810607E+02  0.43400727508E+02  0.00000000000E+00 0. -1.
         11    1    3    3    0    0 -0.12402313722E+02  0.42466620471E+01 -0.20296052516E+01  0.13265399426E+02  0.51100000000E-03 0. -1.
        -11    1    3    3    0    0 -0.18074258157E+02 -0.33412692577E+01 -0.19077374931E+02  0.26491302774E+02  0.51100000000E-03 0.  1.
        -12    1    3    3    0    0 -0.26322218784E+01  0.38238567723E+01 -0.65528304244E+01  0.80305702913E+01  0.00000000000E+00 0.  1.
</event>
<event>
 7    1  0.2476315E-009  0.4778727E+02  0.7816164E-02  0.1312668E+00
        -11   -1    0    0    0    0  0.00000000000E+00  0.00000000000E+00  0.45593999997E+02  0.45594000000E+02  0.51100000000E-03 0.  1.
         11   -1    0    0    0    0 -0.00000000000E+00 -0.00000000000E+00 -0.45593999997E+02  0.45594000000E+02  0.51100000000E-03 0. -1.
    9900012    2    1    2    0    0  0.14179633634E+02  0.38854373077E+02  0.13149100070E+02  0.47787272473E+02  0.20000006515E+02 0.  0.
         12    1    1    2    0    0 -0.14179633634E+02 -0.38854373077E+02 -0.13149100070E+02  0.43400727527E+02  0.00000000000E+00 0. -1.
         11    1    3    3    0    0  0.81281043389E+01  0.92385426546E+01 -0.26126036260E+01  0.12579445476E+02  0.51100000000E-03 0. -1.
        -11    1    3    3    0    0  0.32727509608E+01  0.12136807516E+02  0.11423060783E+02  0.16985267541E+02  0.51100000000E-03 0.  1.
        -12    1    3    3    0    0  0.27787783343E+01  0.17479022906E+02  0.43386429129E+01  0.18222559456E+02  0.00000000000E+00 0.  1.
</event>
<event>
 7    1  0.2476315E-009  0.4778727E+02  0.7816164E-02  0.1312668E+00
        -11   -1    0    0    0    0  0.00000000000E+00  0.00000000000E+00  0.45593999997E+02  0.45594000000E+02  0.51100000000E-03 0. -1.
         11   -1    0    0    0    0 -0.00000000000E+00 -0.00000000000E+00 -0.45593999997E+02  0.45594000000E+02  0.51100000000E-03 0.  1.
    9900012    2    1    2    0    0  0.19779849153E+02  0.35287756859E+02  0.15721181527E+02  0.47787265384E+02  0.19999974190E+02 0.  0.
         12    1    1    2    0    0 -0.19779849153E+02 -0.35287756859E+02 -0.15721181527E+02  0.43400734616E+02  0.00000000000E+00 0. -1.
         11    1    3    3    0    0  0.52066903143E+01  0.13431870712E+02 -0.31132846764E+01  0.14738294223E+02  0.51100000000E-03 0. -1.
        -11    1    3    3    0    0  0.11020759326E+02  0.19302568097E+02  0.12976946356E+02  0.25738053699E+02  0.51100000000E-03 0.  1.
         12    1    3    3    0    0  0.35523995126E+01  0.25533180495E+01  0.58575198479E+01  0.73109174614E+01  0.00000000000E+00 0. -1.
</event>
<event>
 7    1  0.2476315E-009  0.4778727E+02  0.7816164E-02  0.1312668E+00
        -11   -1    0    0    0    0  0.00000000000E+00  0.00000000000E+00  0.45593999997E+02  0.45594000000E+02  0.51100000000E-03 0.  1.
         11   -1    0    0    0    0 -0.00000000000E+00 -0.00000000000E+00 -0.45593999997E+02  0.45594000000E+02  0.51100000000E-03 0. -1.
    9900012    2    1    2    0    0 -0.16814134280E+02 -0.13511265258E+02  0.37661039660E+02  0.47787270642E+02  0.19999998167E+02 0.  0.
         12    1    1    2    0    0  0.16814134280E+02  0.13511265258E+02 -0.37661039660E+02  0.43400729358E+02  0.00000000000E+00 0. -1.
         11    1    3    3    0    0 -0.30284495416E+01 -0.47956489818E+01 -0.31596630217E+00  0.56806329531E+01  0.51100000000E-03 0. -1.
        -11    1    3    3    0    0 -0.12506635572E+02 -0.84518873619E+01  0.26042306381E+02  0.30100698584E+02  0.51100000000E-03 0.  1.
         12    1    3    3    0    0 -0.12790491671E+01 -0.26372891428E+00  0.11934699581E+02  0.12005939106E+02  0.00000000000E+00 0. -1.
</event>
<event>
 7    1  0.2476315E-009  0.4778726E+02  0.7816164E-02  0.1312668E+00
        -11   -1    0    0    0    0  0.00000000000E+00  0.00000000000E+00  0.45593999997E+02  0.45594000000E+02  0.51100000000E-03 0. -1.
         11   -1    0    0    0    0 -0.00000000000E+00 -0.00000000000E+00 -0.45593999997E+02  0.45594000000E+02  0.51100000000E-03 0.  1.
    9900012    2    1    2    0    0 -0.86273943430E+01  0.17788004312E+02 -0.38636499158E+02  0.47787261553E+02  0.19999956726E+02 0.  0.
         12    1    1    2    0    0  0.86273943430E+01 -0.17788004312E+02  0.38636499158E+02  0.43400738447E+02  0.00000000000E+00 0. -1.
         11    1    3    3    0    0  0.90386835721E+00 -0.19970961854E+00  0.13697664276E+01  0.16532157350E+01  0.51100000000E-03 0. -1.
        -11    1    3    3    0    0 -0.32727262121E+01  0.16087500722E+02 -0.27787491870E+02  0.32274806290E+02  0.51100000000E-03 0.  1.
         12    1    3    3    0    0 -0.62585364881E+01  0.19002132087E+01 -0.12218773715E+02  0.13859239529E+02  0.00000000000E+00 0. -1.
</event>
<event>
 7    1  0.2476315E-009  0.4778727E+02  0.7816164E-02  0.1312668E+00
        -11   -1    0    0    0    0  0.00000000000E+00  0.00000000000E+00  0.45593999997E+02  0.45594000000E+02  0.51100000000E-03 0.  1.
         11   -1    0    0    0    0 -0.00000000000E+00 -0.00000000000E+00 -0.45593999997E+02  0.45594000000E+02  0.51100000000E-03 0. -1.
    9900012    2    1    2    0    0 -0.28200818639E+02 -0.28330258872E+02 -0.16903651152E+02  0.47787272334E+02  0.20000005880E+02 0.  0.
         12    1    1    2    0    0  0.28200818639E+02  0.28330258872E+02  0.16903651152E+02  0.43400727666E+02  0.00000000000E+00 0. -1.
         11    1    3    3    0    0 -0.87521592854E+01 -0.19969004308E+02 -0.12808946959E+02  0.25286963987E+02  0.51100000000E-03 0.  1.
        -11    1    3    3    0    0 -0.14562775525E+02 -0.63914430004E+01 -0.58532153601E+01  0.16946536665E+02  0.51100000000E-03 0. -1.
         12    1    3    3    0    0 -0.48858838286E+01 -0.19698115636E+01  0.17585111665E+01  0.55537716829E+01  0.00000000000E+00 0. -1.
</event>
<event>
 7    1  0.2476315E-009  0.4778728E+02  0.7816164E-02  0.1312668E+00
        -11   -1    0    0    0    0  0.00000000000E+00  0.00000000000E+00  0.45593999997E+02  0.45594000000E+02  0.51100000000E-03 0. -1.
         11   -1    0    0    0    0 -0.00000000000E+00 -0.00000000000E+00 -0.45593999997E+02  0.45594000000E+02  0.51100000000E-03 0.  1.
    9900012    2    1    2    0    0  0.20495186025E+02 -0.38210138365E+02  0.18855128449E+01  0.47787280158E+02  0.20000041554E+02 0.  0.
         12    1    1    2    0    0 -0.20495186025E+02  0.38210138365E+02 -0.18855128449E+01  0.43400719842E+02  0.00000000000E+00 0. -1.
         11    1    3    3    0    0 -0.25323811487E+00 -0.64851432731E+01  0.17417508841E+01  0.67197402643E+01  0.51100000000E-03 0. -1.
        -11    1    3    3    0    0  0.11210081084E+02 -0.28539663735E+02  0.24176796179E+01  0.30757495005E+02  0.51100000000E-03 0.  1.
        -12    1    3    3    0    0  0.95383430556E+01 -0.31853313574E+01 -0.22739176571E+01  0.10310044889E+02  0.00000000000E+00 0.  1.
</event>
<event>
 7    1  0.2476315E-009  0.4778727E+02  0.7816164E-02  0.1312668E+00
        -11   -1    0    0    0    0  0.00000000000E+00  0.00000000000E+00  0.45593999997E+02  0.45594000000E+02  0.51100000000E-03 0.  1.
         11   -1    0    0    0    0 -0.00000000000E+00 -0.00000000000E+00 -0.45593999997E+02  0.45594000000E+02  0.51100000000E-03 0. -1.
    9900012    2    1    2    0    0 -0.41057230214E+02  0.53228136569E+01 -0.13022858010E+02  0.47787270412E+02  0.19999997114E+02 0.  0.
         12    1    1    2    0    0  0.41057230214E+02 -0.53228136569E+01  0.13022858010E+02  0.43400729588E+02  0.00000000000E+00 0. -1.
         11    1    3    3    0    0  0.12465110487E+01  0.15894850094E+01 -0.24555021593E+01  0.31795822847E+01  0.51100000000E-03 0. -1.
        -11    1    3    3    0    0 -0.27507448157E+02  0.64405655843E+01 -0.59286510209E+01  0.28866754101E+02  0.51100000000E-03 0.  1.
        -12    1    3    3    0    0 -0.14796293106E+02 -0.27072369369E+01 -0.46387048298E+01  0.15740934026E+02  0.00000000000E+00 0.  1.
</event>
<event>
 7    1  0.2476315E-009  0.4778727E+02  0.7816164E-02  0.1312668E+00
        -11   -1    0    0    0    0  0.00000000000E+00  0.00000000000E+00  0.45593999997E+02  0.45594000000E+02  0.51100000000E-03 0.  1.
         11   -1    0    0    0    0 -0.00000000000E+00 -0.00000000000E+00 -0.45593999997E+02  0.45594000000E+02  0.51100000000E-03 0. -1.
    9900012    2    1    2    0    0 -0.13195167932E+02  0.13802044673E+02  0.38974533280E+02  0.47787272607E+02  0.20000007123E+02 0.  0.
         12    1    1    2    0    0  0.13195167932E+02 -0.13802044673E+02 -0.38974533280E+02  0.43400727393E+02  0.00000000000E+00 0. -1.
         11    1    3    3    0    0 -0.86540165026E+00 -0.20425529550E+01 -0.11774119313E+01  0.25114222479E+01  0.51100000000E-03 0. -1.
        -11    1    3    3    0    0 -0.15940147544E+00  0.85375538035E+00  0.58369703315E+01  0.59012312268E+01  0.51100000000E-03 0.  1.
         12    1    3    3    0    0 -0.12170364806E+02  0.14990842248E+02  0.34314974879E+02  0.39374619132E+02  0.00000000000E+00 0. -1.
</event>
<event>
 7    1  0.2476315E-009  0.4778727E+02  0.7816164E-02  0.1312668E+00
        -11   -1    0    0    0    0  0.00000000000E+00  0.00000000000E+00  0.45593999997E+02  0.45594000000E+02  0.51100000000E-03 0.  1.
         11   -1    0    0    0    0 -0.00000000000E+00 -0.00000000000E+00 -0.45593999997E+02  0.45594000000E+02  0.51100000000E-03 0. -1.
    9900012    2    1    2    0    0 -0.93252900976E+01 -0.38647214425E+02 -0.17408470488E+02  0.47787273475E+02  0.20000011080E+02 0.  0.
         12    1    1    2    0    0  0.93252900976E+01  0.38647214425E+02  0.17408470488E+02  0.43400726525E+02  0.00000000000E+00 0. -1.
         11    1    3    3    0    0  0.12026806894E+01 -0.59845569180E+01 -0.84503844805E+01  0.10424507685E+02  0.51100000000E-03 0. -1.
        -11    1    3    3    0    0 -0.96816546000E+01 -0.24368826632E+02 -0.16454739645E+01  0.26273213203E+02  0.51100000000E-03 0.  1.
        -12    1    3    3    0    0 -0.84631618695E+00 -0.82938308751E+01 -0.73126120430E+01  0.11089552586E+02  0.00000000000E+00 0.  1.
</event>
<event>
 7    1  0.2476315E-009  0.4778727E+02  0.7816164E-02  0.1312668E+00
        -11   -1    0    0    0    0  0.00000000000E+00  0.00000000000E+00  0.45593999997E+02  0.45594000000E+02  0.51100000000E-03 0. -1.
         11   -1    0    0    0    0 -0.00000000000E+00 -0.00000000000E+00 -0.45593999997E+02  0.45594000000E+02  0.51100000000E-03 0.  1.
    9900012    2    1    2    0    0 -0.31440719055E+02  0.10339898303E+02 -0.28074747643E+02  0.47787265365E+02  0.19999974106E+02 0.  0.
         12    1    1    2    0    0  0.31440719055E+02 -0.10339898303E+02  0.28074747643E+02  0.43400734635E+02  0.00000000000E+00 0. -1.
         11    1    3    3    0    0 -0.13002483139E+02  0.30478264544E+01 -0.19275576533E+02  0.23449982192E+02  0.51100000000E-03 0.  1.
        -11    1    3    3    0    0 -0.62196759018E+01  0.43755900012E+01  0.18980457457E+01  0.78379036800E+01  0.51100000000E-03 0. -1.
         12    1    3    3    0    0 -0.12218560014E+02  0.29164818472E+01 -0.10697216856E+02  0.16499379493E+02  0.00000000000E+00 0. -1.
</event>
<event>
 7    1  0.2476315E-009  0.4778728E+02  0.7816164E-02  0.1312668E+00
        -11   -1    0    0    0    0  0.00000000000E+00  0.00000000000E+00  0.45593999997E+02  0.45594000000E+02  0.51100000000E-03 0.  1.
         11   -1    0    0    0    0 -0.00000000000E+00 -0.00000000000E+00 -0.45593999997E+02  0.45594000000E+02  0.51100000000E-03 0. -1.
    9900012    2    1    2    0    0 -0.81819013453E+01  0.27428985116E+01  0.42534167870E+02  0.47787280671E+02  0.20000043891E+02 0.  0.
         12    1    1    2    0    0  0.81819013453E+01 -0.27428985116E+01 -0.42534167870E+02  0.43400719329E+02  0.00000000000E+00 0. -1.
         11    1    3    3    0    0  0.17388928946E+00  0.12996599929E+01  0.67919202244E+00  0.14767043193E+01  0.51100000000E-03 0. -1.
        -11    1    3    3    0    0 -0.12898009633E+01  0.80629734186E+01  0.94455494485E+01  0.12485733119E+02  0.51100000000E-03 0.  1.
        -12    1    3    3    0    0 -0.70659896715E+01 -0.66197348999E+01  0.32409426399E+02  0.33824843233E+02  0.00000000000E+00 0.  1.
</event>
<event>
 7    1  0.2476315E-009  0.4778728E+02  0.7816164E-02  0.1312668E+00
        -11   -1    0    0    0    0  0.00000000000E+00  0.00000000000E+00  0.45593999997E+02  0.45594000000E+02  0.51100000000E-03 0.  1.
         11   -1    0    0    0    0 -0.00000000000E+00 -0.00000000000E+00 -0.45593999997E+02  0.45594000000E+02  0.51100000000E-03 0. -1.
    9900012    2    1    2    0    0 -0.38684185561E+02 -0.18988350110E+02  0.51574292438E+01  0.47787277324E+02  0.20000028631E+02 0.  0.
         12    1    1    2    0    0  0.38684185561E+02  0.18988350110E+02 -0.51574292438E+01  0.43400722676E+02  0.00000000000E+00 0. -1.
         11    1    3    3    0    0 -0.21839040732E+01  0.10134792048E+01  0.47540547289E+01  0.53289411450E+01  0.51100000000E-03 0. -1.
        -11    1    3    3    0    0 -0.11815940053E+02 -0.96735105816E+01  0.30414434074E+01  0.15570601291E+02  0.51100000000E-03 0.  1.
         12    1    3    3    0    0 -0.24684341435E+02 -0.10328318734E+02 -0.26380688926E+01  0.26887734888E+02  0.00000000000E+00 0. -1.
</event>
<event>
 7    1  0.2476315E-009  0.4778727E+02  0.7816164E-02  0.1312668E+00
        -11   -1    0    0    0    0  0.00000000000E+00  0.00000000000E+00  0.45593999997E+02  0.45594000000E+02  0.51100000000E-03 0.  1.
         11   -1    0    0    0    0 -0.00000000000E+00 -0.00000000000E+00 -0.45593999997E+02  0.45594000000E+02  0.51100000000E-03 0. -1.
    9900012    2    1    2    0    0 -0.17690659532E+01  0.42955862298E+02  0.59403620313E+01  0.47787267274E+02  0.19999982808E+02 0.  0.
         12    1    1    2    0    0  0.17690659532E+01 -0.42955862298E+02 -0.59403620313E+01  0.43400732726E+02  0.00000000000E+00 0. -1.
         11    1    3    3    0    0  0.52125172059E+00  0.32904371615E+02  0.71816061881E+01  0.33683005246E+02  0.51100000000E-03 0. -1.
        -11    1    3    3    0    0  0.19013711928E+01  0.88495207369E+01  0.11611642527E+01  0.91256524352E+01  0.51100000000E-03 0.  1.
         12    1    3    3    0    0 -0.41916888666E+01  0.12019699463E+01 -0.24024084095E+01  0.49786095923E+01  0.00000000000E+00 0. -1.
</event>
<event>
 7    1  0.2476315E-009  0.4778727E+02  0.7816164E-02  0.1312668E+00
        -11   -1    0    0    0    0  0.00000000000E+00  0.00000000000E+00  0.45593999997E+02  0.45594000000E+02  0.51100000000E-03 0. -1.
         11   -1    0    0    0    0 -0.00000000000E+00 -0.00000000000E+00 -0.45593999997E+02  0.45594000000E+02  0.51100000000E-03 0.  1.
    9900012    2    1    2    0    0  0.12035660474E+02 -0.36933551975E+02 -0.19356627929E+02  0.47787269254E+02  0.19999991835E+02 0.  0.
         12    1    1    2    0    0 -0.12035660474E+02  0.36933551975E+02  0.19356627929E+02  0.43400730746E+02  0.00000000000E+00 0. -1.
         11    1    3    3    0    0  0.12336113676E+02 -0.21041734340E+02 -0.12479011515E+02  0.27398175365E+02  0.51100000000E-03 0. -1.
        -11    1    3    3    0    0 -0.41626833501E+01 -0.86416018746E+01  0.12793626519E+00  0.95927881026E+01  0.51100000000E-03 0.  1.
         12    1    3    3    0    0  0.38622301485E+01 -0.72502157607E+01 -0.70055526788E+01  0.10796305786E+02  0.00000000000E+00 0. -1.
</event>
<event>
 7    1  0.2476315E-009  0.4778728E+02  0.7816164E-02  0.1312668E+00
        -11   -1    0    0    0    0  0.00000000000E+00  0.00000000000E+00  0.45593999997E+02  0.45594000000E+02  0.51100000000E-03 0.  1.
         11   -1    0    0    0    0 -0.00000000000E+00 -0.00000000000E+00 -0.45593999997E+02  0.45594000000E+02  0.51100000000E-03 0. -1.
    9900012    2    1    2    0    0  0.28924399887E+02 -0.20628723558E+02  0.24929049202E+02  0.47787278363E+02  0.20000033370E+02 0.  0.
         12    1    1    2    0    0 -0.28924399887E+02  0.20628723558E+02 -0.24929049202E+02  0.43400721637E+02  0.00000000000E+00 0. -1.
         11    1    3    3    0    0  0.52467569074E+00 -0.71386323055E+01  0.85914479919E+01  0.11182501269E+02  0.51100000000E-03 0. -1.
        -11    1    3    3    0    0  0.10345526812E+02 -0.15215097099E+01  0.20494833961E+01  0.10655763664E+02  0.51100000000E-03 0.  1.
        -12    1    3    3    0    0  0.18054197384E+02 -0.11968581543E+02  0.14288117814E+02  0.25949013430E+02  0.00000000000E+00 0.  1.
</event>
<event>
 7    1  0.2476315E-009  0.4778727E+02  0.7816164E-02  0.1312668E+00
        -11   -1    0    0    0    0  0.00000000000E+00  0.00000000000E+00  0.45593999997E+02  0.45594000000E+02  0.51100000000E-03 0.  1.
         11   -1    0    0    0    0 -0.00000000000E+00 -0.00000000000E+00 -0.45593999997E+02  0.45594000000E+02  0.51100000000E-03 0. -1.
    9900012    2    1    2    0    0 -0.41040468847E+02  0.13065769194E+02 -0.53468857800E+01  0.47787267341E+02  0.19999983115E+02 0.  0.
         12    1    1    2    0    0  0.41040468847E+02 -0.13065769194E+02  0.53468857800E+01  0.43400732659E+02  0.00000000000E+00 0. -1.
         11    1    3    3    0    0 -0.16769425655E+02 -0.40152456354E+00  0.24247472905E+01  0.16948576886E+02  0.51100000000E-03 0. -1.
        -11    1    3    3    0    0 -0.11893202614E+00  0.46026193487E+00  0.17406408879E+01  0.18043882169E+01  0.51100000000E-03 0.  1.
         12    1    3    3    0    0 -0.24152111165E+02  0.13007031822E+02 -0.95122739585E+01  0.29034302238E+02  0.00000000000E+00 0. -1.
</event>
<event>
 7    1  0.2476315E-009  0.4778727E+02  0.7816164E-02  0.1312668E+00
        -11   -1    0    0    0    0  0.00000000000E+00  0.00000000000E+00  0.45593999997E+02  0.45594000000E+02  0.51100000000E-03 0.  1.
         11   -1    0    0    0    0 -0.00000000000E+00 -0.00000000000E+00 -0.45593999997E+02  0.45594000000E+02  0.51100000000E-03 0. -1.
    9900012    2    1    2    0    0 -0.36359604136E+02  0.23032210862E+02  0.55785070541E+01  0.47787270847E+02  0.19999999099E+02 0.  0.
         12    1    1    2    0    0  0.36359604136E+02 -0.23032210862E+02 -0.55785070541E+01  0.43400729153E+02  0.00000000000E+00 0. -1.
         11    1    3    3    0    0 -0.67495009351E+01 -0.89623314868E+00  0.55104806296E+01  0.87592461867E+01  0.51100000000E-03 0. -1.
        -11    1    3    3    0    0 -0.15265131473E+02  0.79987859426E+01  0.26500299259E+01  0.17436383636E+02  0.51100000000E-03 0.  1.
         12    1    3    3    0    0 -0.14344971727E+02  0.15929658068E+02 -0.25820035014E+01  0.21591641024E+02  0.00000000000E+00 0. -1.
</event>
<event>
 7    1  0.2476315E-009  0.4778727E+02  0.7816164E-02  0.1312668E+00
        -11   -1    0    0    0    0  0.00000000000E+00  0.00000000000E+00  0.45593999997E+02  0.45594000000E+02  0.51100000000E-03 0.  1.
         11   -1    0    0    0    0 -0.00000000000E+00 -0.00000000000E+00 -0.45593999997E+02  0.45594000000E+02  0.51100000000E-03 0. -1.
    9900012    2    1    2    0    0 -0.15365482808E+02  0.12010437463E+02  0.38772087025E+02  0.47787269565E+02  0.19999993256E+02 0.  0.
         12    1    1    2    0    0  0.15365482808E+02 -0.12010437463E+02 -0.38772087025E+02  0.43400730435E+02  0.00000000000E+00 0. -1.
         11    1    3    3    0    0  0.34417921430E+00  0.22826816491E+01  0.20279718186E+02  0.20410685065E+02  0.51100000000E-03 0. -1.
        -11    1    3    3    0    0 -0.90762405253E+01  0.96850001608E+01  0.14391148746E+02  0.19577602833E+02  0.51100000000E-03 0.  1.
         12    1    3    3    0    0 -0.66334214970E+01  0.42755653252E-01  0.41012200929E+01  0.77989816677E+01  0.00000000000E+00 0. -1.
</event>
<event>
 7    1  0.2476315E-009  0.4778727E+02  0.7816164E-02  0.1312668E+00
        -11   -1    0    0    0    0  0.00000000000E+00  0.00000000000E+00  0.45593999997E+02  0.45594000000E+02  0.51100000000E-03 0.  1.
         11   -1    0    0    0    0 -0.00000000000E+00 -0.00000000000E+00 -0.45593999997E+02  0.45594000000E+02  0.51100000000E-03 0. -1.
    9900012    2    1    2    0    0 -0.13918107390E+02  0.32115838784E+02  0.25660913367E+02  0.47787270871E+02  0.19999999210E+02 0.  0.
         12    1    1    2    0    0  0.13918107390E+02 -0.32115838784E+02 -0.25660913367E+02  0.43400729129E+02  0.00000000000E+00 0. -1.
         11    1    3    3    0    0  0.19801555941E+01  0.31499411478E+01  0.10930262749E+02  0.11546159077E+02  0.51100000000E-03 0. -1.
        -11    1    3    3    0    0 -0.95924403049E+01  0.15401189794E+02  0.85027523490E+01  0.20037673414E+02  0.51100000000E-03 0.  1.
         12    1    3    3    0    0 -0.63058226794E+01  0.13564707842E+02  0.62278982690E+01  0.16203438380E+02  0.00000000000E+00 0. -1.
</event>
<event>
 7    1  0.2476315E-009  0.4778727E+02  0.7816164E-02  0.1312668E+00
        -11   -1    0    0    0    0  0.00000000000E+00  0.00000000000E+00  0.45593999997E+02  0.45594000000E+02  0.51100000000E-03 0.  1.
         11   -1    0    0    0    0 -0.00000000000E+00 -0.00000000000E+00 -0.45593999997E+02  0.45594000000E+02  0.51100000000E-03 0. -1.
    9900012    2    1    2    0    0  0.43351877295E+02 -0.32207459555E+00 -0.20332924918E+01  0.47787271027E+02  0.19999999918E+02 0.  0.
         12    1    1    2    0    0 -0.43351877295E+02  0.32207459555E+00  0.20332924918E+01  0.43400728973E+02  0.00000000000E+00 0. -1.
         11    1    3    3    0    0  0.24762770098E+02 -0.44808125598E+01 -0.84100433435E+01  0.26533022697E+02  0.51100000000E-03 0. -1.
        -11    1    3    3    0    0  0.10702152530E+02  0.53319784169E+01  0.18913296730E+01  0.12105502501E+02  0.51100000000E-03 0.  1.
         12    1    3    3    0    0  0.78869546669E+01 -0.11732404527E+01  0.44854211788E+01  0.91487458282E+01  0.00000000000E+00 0. -1.
</event>
<event>
 7    1  0.2476315E-009  0.4778728E+02  0.7816164E-02  0.1312668E+00
        -11   -1    0    0    0    0  0.00000000000E+00  0.00000000000E+00  0.45593999997E+02  0.45594000000E+02  0.51100000000E-03 0.  1.
         11   -1    0    0    0    0 -0.00000000000E+00 -0.00000000000E+00 -0.45593999997E+02  0.45594000000E+02  0.51100000000E-03 0. -1.
    9900012    2    1    2    0    0 -0.34409874719E+01 -0.30577775133E+02  0.30606895395E+02  0.47787276819E+02  0.20000026330E+02 0.  0.
         12    1    1    2    0    0  0.34409874719E+01  0.30577775133E+02 -0.30606895395E+02  0.43400723181E+02  0.00000000000E+00 0. -1.
         11    1    3    3    0    0 -0.29944240939E+01 -0.36622537168E+01  0.10391633583E+02  0.11417737374E+02  0.51100000000E-03 0. -1.
        -11    1    3    3    0    0 -0.32874361068E+01 -0.10853146693E+02  0.15840768271E+02  0.19481477587E+02  0.51100000000E-03 0.  1.
         12    1    3    3    0    0  0.28408727288E+01 -0.16062374723E+02  0.43744935413E+01  0.16888061859E+02  0.00000000000E+00 0. -1.
</event>
<event>
 7    1  0.2476315E-009  0.4778728E+02  0.7816164E-02  0.1312668E+00
        -11   -1    0    0    0    0  0.00000000000E+00  0.00000000000E+00  0.45593999997E+02  0.45594000000E+02  0.51100000000E-03 0.  1.
         11   -1    0    0    0    0 -0.00000000000E+00 -0.00000000000E+00 -0.45593999997E+02  0.45594000000E+02  0.51100000000E-03 0. -1.
    9900012    2    1    2    0    0  0.38079983553E+02 -0.15260557631E+02 -0.14165187225E+02  0.47787282314E+02  0.20000051381E+02 0.  0.
         12    1    1    2    0    0 -0.38079983553E+02  0.15260557631E+02  0.14165187225E+02  0.43400717686E+02  0.00000000000E+00 0. -1.
         11    1    3    3    0    0  0.52832070566E+01 -0.10951596529E+02 -0.44262845340E+01  0.12939928067E+02  0.51100000000E-03 0. -1.
        -11    1    3    3    0    0  0.54068786722E+01 -0.23932024859E+01 -0.27148937763E+01  0.65063356501E+01  0.51100000000E-03 0.  1.
         12    1    3    3    0    0  0.27389897824E+02 -0.19157586158E+01 -0.70240089147E+01  0.28341018597E+02  0.00000000000E+00 0. -1.
</event>
<event>
 7    1  0.2476315E-009  0.4778727E+02  0.7816164E-02  0.1312668E+00
        -11   -1    0    0    0    0  0.00000000000E+00  0.00000000000E+00  0.45593999997E+02  0.45594000000E+02  0.51100000000E-03 0. -1.
         11   -1    0    0    0    0 -0.00000000000E+00 -0.00000000000E+00 -0.45593999997E+02  0.45594000000E+02  0.51100000000E-03 0.  1.
    9900012    2    1    2    0    0  0.19106141711E+02  0.38552801694E+02 -0.56797860011E+01  0.47787272603E+02  0.20000007108E+02 0.  0.
         12    1    1    2    0    0 -0.19106141711E+02 -0.38552801694E+02  0.56797860011E+01  0.43400727397E+02  0.00000000000E+00 0. -1.
         11    1    3    3    0    0  0.15725730088E+02  0.30529770028E+02  0.15187774936E+01  0.34375458253E+02  0.51100000000E-03 0. -1.
        -11    1    3    3    0    0  0.36518745346E+01  0.88290147855E+01 -0.78296454767E+01  0.12352774516E+02  0.51100000000E-03 0.  1.
        -12    1    3    3    0    0 -0.27146291227E+00 -0.80598311957E+00  0.63108198192E+00  0.10590398338E+01  0.00000000000E+00 0.  1.
</event>
<event>
 7    1  0.2476315E-009  0.4778728E+02  0.7816164E-02  0.1312668E+00
        -11   -1    0    0    0    0  0.00000000000E+00  0.00000000000E+00  0.45593999997E+02  0.45594000000E+02  0.51100000000E-03 0.  1.
         11   -1    0    0    0    0 -0.00000000000E+00 -0.00000000000E+00 -0.45593999997E+02  0.45594000000E+02  0.51100000000E-03 0. -1.
    9900012    2    1    2    0    0  0.29879522617E+02 -0.89497852540E+01  0.30178440243E+02  0.47787276695E+02  0.20000025764E+02 0.  0.
         12    1    1    2    0    0 -0.29879522617E+02  0.89497852540E+01 -0.30178440243E+02  0.43400723305E+02  0.00000000000E+00 0. -1.
         11    1    3    3    0    0  0.27157588990E+02 -0.95585359603E+01  0.24992094595E+02  0.38124861205E+02  0.51100000000E-03 0. -1.
        -11    1    3    3    0    0  0.18955102167E+01 -0.34240343469E+01  0.33629238167E+01  0.51600607601E+01  0.51100000000E-03 0.  1.
         12    1    3    3    0    0  0.82642341036E+00  0.40327850531E+01  0.18234218310E+01  0.45023547296E+01  0.00000000000E+00 0. -1.
</event>
<event>
 7    1  0.2476315E-009  0.4778727E+02  0.7816164E-02  0.1312668E+00
        -11   -1    0    0    0    0  0.00000000000E+00  0.00000000000E+00  0.45593999997E+02  0.45594000000E+02  0.51100000000E-03 0. -1.
         11   -1    0    0    0    0 -0.00000000000E+00 -0.00000000000E+00 -0.45593999997E+02  0.45594000000E+02  0.51100000000E-03 0.  1.
    9900012    2    1    2    0    0  0.11109036974E+02 -0.20519571306E+02 -0.36594529357E+02  0.47787273187E+02  0.20000009768E+02 0.  0.
         12    1    1    2    0    0 -0.11109036974E+02  0.20519571306E+02  0.36594529357E+02  0.43400726813E+02  0.00000000000E+00 0. -1.
         11    1    3    3    0    0  0.79562692105E+00 -0.13510760713E+02 -0.24437625532E+02  0.27935125186E+02  0.51100000000E-03 0. -1.
        -11    1    3    3    0    0  0.10777023109E+02 -0.73224397429E+01 -0.72443619303E+01  0.14907821133E+02  0.51100000000E-03 0.  1.
        -12    1    3    3    0    0 -0.46361305658E+00  0.31362915057E+00 -0.49125418951E+01  0.49443268684E+01  0.00000000000E+00 0.  1.
</event>
<event>
 7    1  0.2476315E-009  0.4778728E+02  0.7816164E-02  0.1312668E+00
        -11   -1    0    0    0    0  0.00000000000E+00  0.00000000000E+00  0.45593999997E+02  0.45594000000E+02  0.51100000000E-03 0. -1.
         11   -1    0    0    0    0 -0.00000000000E+00 -0.00000000000E+00 -0.45593999997E+02  0.45594000000E+02  0.51100000000E-03 0.  1.
    9900012    2    1    2    0    0  0.29744037389E+02 -0.11099781790E+02 -0.29592393556E+02  0.47787277974E+02  0.20000031596E+02 0.  0.
         12    1    1    2    0    0 -0.29744037389E+02  0.11099781790E+02  0.29592393556E+02  0.43400722026E+02  0.00000000000E+00 0. -1.
         11    1    3    3    0    0 -0.46945597555E+00 -0.80500235157E+00  0.55860365757E+00  0.10864879228E+01  0.51100000000E-03 0. -1.
        -11    1    3    3    0    0  0.11017481896E+02 -0.26235409164E+01 -0.15794992113E+01  0.11435151608E+02  0.51100000000E-03 0.  1.
        -12    1    3    3    0    0  0.19196011468E+02 -0.76712385223E+01 -0.28571498002E+02  0.35265638444E+02  0.00000000000E+00 0.  1.
</event>
<event>
 7    1  0.2476315E-009  0.4778728E+02  0.7816164E-02  0.1312668E+00
        -11   -1    0    0    0    0  0.00000000000E+00  0.00000000000E+00  0.45593999997E+02  0.45594000000E+02  0.51100000000E-03 0.  1.
         11   -1    0    0    0    0 -0.00000000000E+00 -0.00000000000E+00 -0.45593999997E+02  0.45594000000E+02  0.51100000000E-03 0. -1.
    9900012    2    1    2    0    0 -0.21200558787E+02  0.10320073535E+01  0.37856221511E+02  0.47787282965E+02  0.20000054349E+02 0.  0.
         12    1    1    2    0    0  0.21200558787E+02 -0.10320073535E+01 -0.37856221511E+02  0.43400717035E+02  0.00000000000E+00 0. -1.
         11    1    3    3    0    0 -0.13711186109E+02 -0.35257352974E+01  0.30902170942E+02  0.33990757613E+02  0.51100000000E-03 0. -1.
        -11    1    3    3    0    0 -0.72510735037E+01  0.64707859123E+01  0.68026434195E+01  0.11862760852E+02  0.51100000000E-03 0.  1.
         12    1    3    3    0    0 -0.23829917425E+00 -0.19130432614E+01  0.15140715023E+00  0.19337645001E+01  0.00000000000E+00 0. -1.
</event>
<event>
 7    1  0.2476315E-009  0.4778727E+02  0.7816164E-02  0.1312668E+00
        -11   -1    0    0    0    0  0.00000000000E+00  0.00000000000E+00  0.45593999997E+02  0.45594000000E+02  0.51100000000E-03 0. -1.
         11   -1    0    0    0    0 -0.00000000000E+00 -0.00000000000E+00 -0.45593999997E+02  0.45594000000E+02  0.51100000000E-03 0.  1.
    9900012    2    1    2    0    0  0.16974874683E+02  0.30090183666E+02 -0.26268950506E+02  0.47787270924E+02  0.19999999453E+02 0.  0.
         12    1    1    2    0    0 -0.16974874683E+02 -0.30090183666E+02  0.26268950506E+02  0.43400729076E+02  0.00000000000E+00 0. -1.
         11    1    3    3    0    0  0.10653785536E+02  0.20831265643E+01 -0.83109510407E+01  0.13671666686E+02  0.51100000000E-03 0. -1.
        -11    1    3    3    0    0  0.32705952743E+01  0.19636603994E+02 -0.14167296306E+02  0.24433691795E+02  0.51100000000E-03 0.  1.
        -12    1    3    3    0    0  0.30504938733E+01  0.83704531086E+01 -0.37907031598E+01  0.96819124434E+01  0.00000000000E+00 0.  1.
</event>
<event>
 7    1  0.2476315E-009  0.4778727E+02  0.7816164E-02  0.1312668E+00
        -11   -1    0    0    0    0  0.00000000000E+00  0.00000000000E+00  0.45593999997E+02  0.45594000000E+02  0.51100000000E-03 0.  1.
         11   -1    0    0    0    0 -0.00000000000E+00 -0.00000000000E+00 -0.45593999997E+02  0.45594000000E+02  0.51100000000E-03 0. -1.
    9900012    2    1    2    0    0 -0.21599415705E+02  0.28878712700E+02  0.24147637465E+02  0.47787271882E+02  0.20000003819E+02 0.  0.
         12    1    1    2    0    0  0.21599415705E+02 -0.28878712700E+02 -0.24147637465E+02  0.43400728118E+02  0.00000000000E+00 0. -1.
         11    1    3    3    0    0 -0.72508174437E+01  0.13463631391E+02  0.19635293659E+02  0.24887516573E+02  0.51100000000E-03 0. -1.
        -11    1    3    3    0    0 -0.12250475784E+02  0.12687269287E+02  0.66500778070E+01  0.18848461316E+02  0.51100000000E-03 0.  1.
         12    1    3    3    0    0 -0.20981224771E+01  0.27278120223E+01 -0.21377340005E+01  0.40512939926E+01  0.00000000000E+00 0. -1.
</event>
<event>
 7    1  0.2476315E-009  0.4778727E+02  0.7816164E-02  0.1312668E+00
        -11   -1    0    0    0    0  0.00000000000E+00  0.00000000000E+00  0.45593999997E+02  0.45594000000E+02  0.51100000000E-03 0. -1.
         11   -1    0    0    0    0 -0.00000000000E+00 -0.00000000000E+00 -0.45593999997E+02  0.45594000000E+02  0.51100000000E-03 0.  1.
    9900012    2    1    2    0    0  0.21648026398E+02  0.27919295513E+02  0.25209110146E+02  0.47787270246E+02  0.19999996358E+02 0.  0.
         12    1    1    2    0    0 -0.21648026398E+02 -0.27919295513E+02 -0.25209110146E+02  0.43400729754E+02  0.00000000000E+00 0. -1.
         11    1    3    3    0    0  0.13863290137E+02  0.11790514861E+02  0.19622972323E+02  0.26763185483E+02  0.51100000000E-03 0. -1.
        -11    1    3    3    0    0  0.75122506222E+01  0.97967744138E+01  0.74482967232E+01  0.14418315528E+02  0.51100000000E-03 0.  1.
         12    1    3    3    0    0  0.27248563859E+00  0.63320062376E+01 -0.18621589003E+01  0.66057692350E+01  0.00000000000E+00 0. -1.
</event>
<event>
 7    1  0.2476315E-009  0.4778726E+02  0.7816164E-02  0.1312668E+00
        -11   -1    0    0    0    0  0.00000000000E+00  0.00000000000E+00  0.45593999997E+02  0.45594000000E+02  0.51100000000E-03 0.  1.
         11   -1    0    0    0    0 -0.00000000000E+00 -0.00000000000E+00 -0.45593999997E+02  0.45594000000E+02  0.51100000000E-03 0. -1.
    9900012    2    1    2    0    0 -0.42091599410E+02  0.73257530574E+01  0.76324625885E+01  0.47787264017E+02  0.19999967958E+02 0.  0.
         12    1    1    2    0    0  0.42091599410E+02 -0.73257530574E+01 -0.76324625885E+01  0.43400735983E+02  0.00000000000E+00 0. -1.
         11    1    3    3    0    0 -0.18750323435E+01  0.25230776624E+01 -0.41493258318E+01  0.52056289052E+01  0.51100000000E-03 0. -1.
        -11    1    3    3    0    0 -0.28259207072E+02  0.58787342177E+01  0.73623318239E+01  0.29788357298E+02  0.51100000000E-03 0.  1.
         12    1    3    3    0    0 -0.11957359994E+02 -0.10760588227E+01  0.44194565964E+01  0.12793277814E+02  0.00000000000E+00 0. -1.
</event>
<event>
 7    1  0.2476315E-009  0.4778728E+02  0.7816164E-02  0.1312668E+00
        -11   -1    0    0    0    0  0.00000000000E+00  0.00000000000E+00  0.45593999997E+02  0.45594000000E+02  0.51100000000E-03 0. -1.
         11   -1    0    0    0    0 -0.00000000000E+00 -0.00000000000E+00 -0.45593999997E+02  0.45594000000E+02  0.51100000000E-03 0.  1.
    9900012    2    1    2    0    0 -0.20328711629E+02  0.24779296591E+02 -0.29263499686E+02  0.47787280307E+02  0.20000042230E+02 0.  0.
         12    1    1    2    0    0  0.20328711629E+02 -0.24779296591E+02  0.29263499686E+02  0.43400719693E+02  0.00000000000E+00 0. -1.
         11    1    3    3    0    0 -0.37440573980E+00  0.55599792136E+01 -0.10107585820E+02  0.11541959967E+02  0.51100000000E-03 0. -1.
        -11    1    3    3    0    0 -0.13962091117E+02  0.41703565673E+01 -0.90794032278E+01  0.17168792197E+02  0.51100000000E-03 0.  1.
        -12    1    3    3    0    0 -0.59922147715E+01  0.15048960810E+02 -0.10076510639E+02  0.19076528143E+02  0.00000000000E+00 0.  1.
</event>
<event>
 7    1  0.2476315E-009  0.4778727E+02  0.7816164E-02  0.1312668E+00
        -11   -1    0    0    0    0  0.00000000000E+00  0.00000000000E+00  0.45593999997E+02  0.45594000000E+02  0.51100000000E-03 0. -1.
         11   -1    0    0    0    0 -0.00000000000E+00 -0.00000000000E+00 -0.45593999997E+02  0.45594000000E+02  0.51100000000E-03 0.  1.
    9900012    2    1    2    0    0  0.12570112111E+02  0.35317397317E+02 -0.21870003903E+02  0.47787270255E+02  0.19999996399E+02 0.  0.
         12    1    1    2    0    0 -0.12570112111E+02 -0.35317397317E+02  0.21870003903E+02  0.43400729745E+02  0.00000000000E+00 0. -1.
         11    1    3    3    0    0  0.13997440688E+02  0.27784204764E+02 -0.21011337942E+02  0.37541533035E+02  0.51100000000E-03 0.  1.
        -11    1    3    3    0    0 -0.27098765604E+01  0.81299446590E+01  0.40115174579E-01  0.85697748290E+01  0.51100000000E-03 0. -1.
         12    1    3    3    0    0  0.12825479834E+01 -0.59675210665E+00 -0.89878113564E+00  0.16759623910E+01  0.00000000000E+00 0. -1.
</event>
<event>
 7    1  0.2476315E-009  0.4778728E+02  0.7816164E-02  0.1312668E+00
        -11   -1    0    0    0    0  0.00000000000E+00  0.00000000000E+00  0.45593999997E+02  0.45594000000E+02  0.51100000000E-03 0.  1.
         11   -1    0    0    0    0 -0.00000000000E+00 -0.00000000000E+00 -0.45593999997E+02  0.45594000000E+02  0.51100000000E-03 0. -1.
    9900012    2    1    2    0    0 -0.34669921934E+02  0.69541439178E+01  0.25164634422E+02  0.47787280765E+02  0.20000044318E+02 0.  0.
         12    1    1    2    0    0  0.34669921934E+02 -0.69541439178E+01 -0.25164634422E+02  0.43400719235E+02  0.00000000000E+00 0. -1.
         11    1    3    3    0    0 -0.41000289229E+01  0.75566716369E+01  0.71107693765E+00  0.86266537005E+01  0.51100000000E-03 0. -1.
        -11    1    3    3    0    0 -0.41821582766E+01 -0.27870976695E+00  0.36233966133E+01  0.55404990988E+01  0.51100000000E-03 0.  1.
         12    1    3    3    0    0 -0.26387734735E+02 -0.32381795210E+00  0.20830160871E+02  0.33620127965E+02  0.00000000000E+00 0. -1.
</event>
<event>
 7    1  0.2476315E-009  0.4778727E+02  0.7816164E-02  0.1312668E+00
        -11   -1    0    0    0    0  0.00000000000E+00  0.00000000000E+00  0.45593999997E+02  0.45594000000E+02  0.51100000000E-03 0.  1.
         11   -1    0    0    0    0 -0.00000000000E+00 -0.00000000000E+00 -0.45593999997E+02  0.45594000000E+02  0.51100000000E-03 0. -1.
    9900012    2    1    2    0    0  0.42078446868E+02 -0.10094359064E+02  0.33363861428E+01  0.47787271340E+02  0.20000001348E+02 0.  0.
         12    1    1    2    0    0 -0.42078446868E+02  0.10094359064E+02 -0.33363861428E+01  0.43400728660E+02  0.00000000000E+00 0. -1.
         11    1    3    3    0    0  0.10698255516E+02  0.21802545250E+01 -0.39801068191E+01  0.11620990984E+02  0.51100000000E-03 0. -1.
        -11    1    3    3    0    0  0.19106081401E+02 -0.12421404514E+02  0.22959406234E+01  0.22904256814E+02  0.51100000000E-03 0.  1.
        -12    1    3    3    0    0  0.12274109950E+02  0.14679092531E+00  0.50205523386E+01  0.13262023542E+02  0.00000000000E+00 0.  1.
</event>
<event>
 7    1  0.2476315E-009  0.4778726E+02  0.7816164E-02  0.1312668E+00
        -11   -1    0    0    0    0  0.00000000000E+00  0.00000000000E+00  0.45593999997E+02  0.45594000000E+02  0.51100000000E-03 0.  1.
         11   -1    0    0    0    0 -0.00000000000E+00 -0.00000000000E+00 -0.45593999997E+02  0.45594000000E+02  0.51100000000E-03 0. -1.
    9900012    2    1    2    0    0 -0.16900708771E+02 -0.10306390531E+02  0.38623420774E+02  0.47787259510E+02  0.19999947412E+02 0.  0.
         12    1    1    2    0    0  0.16900708771E+02  0.10306390531E+02 -0.38623420774E+02  0.43400740490E+02  0.00000000000E+00 0. -1.
         11    1    3    3    0    0  0.18784610954E+00  0.34667048075E+01  0.20553595437E+01  0.40345794698E+01  0.51100000000E-03 0. -1.
        -11    1    3    3    0    0 -0.57046576925E+01 -0.17709118773E+00  0.13497988714E+02  0.14655039415E+02  0.51100000000E-03 0.  1.
         12    1    3    3    0    0 -0.11383897188E+02 -0.13596004150E+02  0.23070072516E+02  0.29097640625E+02  0.00000000000E+00 0. -1.
</event>
<event>
 7    1  0.2476315E-009  0.4778727E+02  0.7816164E-02  0.1312668E+00
        -11   -1    0    0    0    0  0.00000000000E+00  0.00000000000E+00  0.45593999997E+02  0.45594000000E+02  0.51100000000E-03 0. -1.
         11   -1    0    0    0    0 -0.00000000000E+00 -0.00000000000E+00 -0.45593999997E+02  0.45594000000E+02  0.51100000000E-03 0.  1.
    9900012    2    1    2    0    0  0.19613152319E+02  0.38096794822E+02 -0.68979549560E+01  0.47787270718E+02  0.19999998514E+02 0.  0.
         12    1    1    2    0    0 -0.19613152319E+02 -0.38096794822E+02  0.68979549560E+01  0.43400729282E+02  0.00000000000E+00 0. -1.
         11    1    3    3    0    0  0.17909959820E+02  0.29356086911E+02 -0.98793516196E+01  0.35779157175E+02  0.51100000000E-03 0.  1.
        -11    1    3    3    0    0 -0.25332093901E+00 -0.11660160553E+01  0.13111881591E+01  0.17728450550E+01  0.51100000000E-03 0. -1.
        -12    1    3    3    0    0  0.19565134374E+01  0.99067239667E+01  0.16702085045E+01  0.10235268488E+02  0.00000000000E+00 0.  1.
</event>
<event>
 7    1  0.2476315E-009  0.4778727E+02  0.7816164E-02  0.1312668E+00
        -11   -1    0    0    0    0  0.00000000000E+00  0.00000000000E+00  0.45593999997E+02  0.45594000000E+02  0.51100000000E-03 0. -1.
         11   -1    0    0    0    0 -0.00000000000E+00 -0.00000000000E+00 -0.45593999997E+02  0.45594000000E+02  0.51100000000E-03 0.  1.
    9900012    2    1    2    0    0 -0.14781174298E+02 -0.28275544192E+02 -0.29421661288E+02  0.47787266528E+02  0.19999979408E+02 0.  0.
         12    1    1    2    0    0  0.14781174298E+02  0.28275544192E+02  0.29421661288E+02  0.43400733472E+02  0.00000000000E+00 0. -1.
         11    1    3    3    0    0 -0.88590142407E+01 -0.24403741745E+02 -0.27334294379E+02  0.37698652415E+02  0.51100000000E-03 0. -1.
        -11    1    3    3    0    0 -0.14100712473E+01  0.11267468092E+01  0.15993690312E+01  0.24116054514E+01  0.51100000000E-03 0.  1.
         12    1    3    3    0    0 -0.45120888102E+01 -0.49985492560E+01 -0.36867359400E+01  0.76770086614E+01  0.00000000000E+00 0. -1.
</event>
<event>
 7    1  0.2476315E-009  0.4778728E+02  0.7816164E-02  0.1312668E+00
        -11   -1    0    0    0    0  0.00000000000E+00  0.00000000000E+00  0.45593999997E+02  0.45594000000E+02  0.51100000000E-03 0.  1.
         11   -1    0    0    0    0 -0.00000000000E+00 -0.00000000000E+00 -0.45593999997E+02  0.45594000000E+02  0.51100000000E-03 0. -1.
    9900012    2    1    2    0    0 -0.19492999487E+01 -0.20838067320E+02  0.38021014182E+02  0.47787281811E+02  0.20000049087E+02 0.  0.
         12    1    1    2    0    0  0.19492999487E+01  0.20838067320E+02 -0.38021014182E+02  0.43400718189E+02  0.00000000000E+00 0. -1.
         11    1    3    3    0    0 -0.89299117078E+01 -0.98869988337E+01  0.13964074986E+02  0.19300037812E+02  0.51100000000E-03 0. -1.
        -11    1    3    3    0    0  0.39211752588E+01 -0.44929219757E+01  0.18492237039E+02  0.19429997279E+02  0.51100000000E-03 0.  1.
         12    1    3    3    0    0  0.30594365003E+01 -0.64581465111E+01  0.55647021565E+01  0.90572467201E+01  0.00000000000E+00 0. -1.
</event>
<event>
 7    1  0.2476315E-009  0.4778727E+02  0.7816164E-02  0.1312668E+00
        -11   -1    0    0    0    0  0.00000000000E+00  0.00000000000E+00  0.45593999997E+02  0.45594000000E+02  0.51100000000E-03 0.  1.
         11   -1    0    0    0    0 -0.00000000000E+00 -0.00000000000E+00 -0.45593999997E+02  0.45594000000E+02  0.51100000000E-03 0. -1.
    9900012    2    1    2    0    0  0.29449409693E+02 -0.31768562205E+02  0.26671520303E+01  0.47787274479E+02  0.20000015657E+02 0.  0.
         12    1    1    2    0    0 -0.29449409693E+02  0.31768562205E+02 -0.26671520303E+01  0.43400725521E+02  0.00000000000E+00 0. -1.
         11    1    3    3    0    0 -0.21527930113E+01 -0.46015917237E+01 -0.21554704965E+00  0.50848426655E+01  0.51100000000E-03 0. -1.
        -11    1    3    3    0    0  0.28877850821E+02 -0.26123176798E+02  0.51282838367E+00  0.38943723850E+02  0.51100000000E-03 0.  1.
        -12    1    3    3    0    0  0.27243518832E+01 -0.10437936831E+01  0.23698706963E+01  0.37587079633E+01  0.00000000000E+00 0.  1.
</event>
<event>
 7    1  0.2476315E-009  0.4778727E+02  0.7816164E-02  0.1312668E+00
        -11   -1    0    0    0    0  0.00000000000E+00  0.00000000000E+00  0.45593999997E+02  0.45594000000E+02  0.51100000000E-03 0. -1.
         11   -1    0    0    0    0 -0.00000000000E+00 -0.00000000000E+00 -0.45593999997E+02  0.45594000000E+02  0.51100000000E-03 0.  1.
    9900012    2    1    2    0    0 -0.54835232409E+01 -0.42296879714E+02 -0.80329349142E+01  0.47787273002E+02  0.20000008925E+02 0.  0.
         12    1    1    2    0    0  0.54835232409E+01  0.42296879714E+02  0.80329349142E+01  0.43400726998E+02  0.00000000000E+00 0. -1.
         11    1    3    3    0    0 -0.75451705008E+01 -0.21480210107E+02  0.33989383339E+01  0.23019161718E+02  0.51100000000E-03 0. -1.
        -11    1    3    3    0    0 -0.65061977727E+00 -0.41137092814E+01  0.30257352493E+00  0.41758186198E+01  0.51100000000E-03 0.  1.
         12    1    3    3    0    0  0.27122670371E+01 -0.16702960325E+02 -0.11734446773E+02  0.20592292664E+02  0.00000000000E+00 0. -1.
</event>
<event>
 7    1  0.2476315E-009  0.4778727E+02  0.7816164E-02  0.1312668E+00
        -11   -1    0    0    0    0  0.00000000000E+00  0.00000000000E+00  0.45593999997E+02  0.45594000000E+02  0.51100000000E-03 0. -1.
         11   -1    0    0    0    0 -0.00000000000E+00 -0.00000000000E+00 -0.45593999997E+02  0.45594000000E+02  0.51100000000E-03 0.  1.
    9900012    2    1    2    0    0  0.41035294750E+02 -0.18478246205E+01 -0.14011183387E+02  0.47787272692E+02  0.20000007510E+02 0.  0.
         12    1    1    2    0    0 -0.41035294750E+02  0.18478246205E+01  0.14011183387E+02  0.43400727308E+02  0.00000000000E+00 0. -1.
         11    1    3    3    0    0  0.28128584940E+02  0.61271617979E+01 -0.95306397580E+01  0.30324783542E+02  0.51100000000E-03 0. -1.
        -11    1    3    3    0    0  0.82954854340E+01 -0.71020681118E+01  0.76914086145E-01  0.10920639454E+02  0.51100000000E-03 0.  1.
        -12    1    3    3    0    0  0.46112243754E+01 -0.87291830660E+00 -0.45574577148E+01  0.65418496950E+01  0.00000000000E+00 0.  1.
</event>
<event>
 7    1  0.2476315E-009  0.4778727E+02  0.7816164E-02  0.1312668E+00
        -11   -1    0    0    0    0  0.00000000000E+00  0.00000000000E+00  0.45593999997E+02  0.45594000000E+02  0.51100000000E-03 0.  1.
         11   -1    0    0    0    0 -0.00000000000E+00 -0.00000000000E+00 -0.45593999997E+02  0.45594000000E+02  0.51100000000E-03 0. -1.
    9900012    2    1    2    0    0 -0.19431439822E+02 -0.23213301458E+02  0.31099596730E+02  0.47787272646E+02  0.20000007300E+02 0.  0.
         12    1    1    2    0    0  0.19431439822E+02  0.23213301458E+02 -0.31099596730E+02  0.43400727354E+02  0.00000000000E+00 0. -1.
         11    1    3    3    0    0 -0.94326928864E+01 -0.16277326752E+02  0.77020592404E+01  0.20328521296E+02  0.51100000000E-03 0.  1.
        -11    1    3    3    0    0 -0.58238627491E+01 -0.16719772926E+00  0.61807019318E+01  0.84939042278E+01  0.51100000000E-03 0. -1.
         12    1    3    3    0    0 -0.41748841863E+01 -0.67687769775E+01  0.17216835558E+02  0.18964847122E+02  0.00000000000E+00 0. -1.
</event>
<event>
 7    1  0.2476315E-009  0.4778727E+02  0.7816164E-02  0.1312668E+00
        -11   -1    0    0    0    0  0.00000000000E+00  0.00000000000E+00  0.45593999997E+02  0.45594000000E+02  0.51100000000E-03 0.  1.
         11   -1    0    0    0    0 -0.00000000000E+00 -0.00000000000E+00 -0.45593999997E+02  0.45594000000E+02  0.51100000000E-03 0. -1.
    9900012    2    1    2    0    0  0.28176772786E+02 -0.19964043066E+02  0.26289349977E+02  0.47787268873E+02  0.19999990098E+02 0.  0.
         12    1    1    2    0    0 -0.28176772786E+02  0.19964043066E+02 -0.26289349977E+02  0.43400731127E+02  0.00000000000E+00 0. -1.
         11    1    3    3    0    0  0.85827566029E+00  0.25577243865E+00  0.95967654190E+01  0.96384627103E+01  0.51100000000E-03 0. -1.
        -11    1    3    3    0    0  0.12347895210E+02 -0.63188820293E+01  0.65094536871E+01  0.15322263990E+02  0.51100000000E-03 0.  1.
         12    1    3    3    0    0  0.14970601915E+02 -0.13900933475E+02  0.10183130871E+02  0.22826542172E+02  0.00000000000E+00 0. -1.
</event>
<event>
 7    1  0.2476315E-009  0.4778727E+02  0.7816164E-02  0.1312668E+00
        -11   -1    0    0    0    0  0.00000000000E+00  0.00000000000E+00  0.45593999997E+02  0.45594000000E+02  0.51100000000E-03 0.  1.
         11   -1    0    0    0    0 -0.00000000000E+00 -0.00000000000E+00 -0.45593999997E+02  0.45594000000E+02  0.51100000000E-03 0. -1.
    9900012    2    1    2    0    0 -0.24922003709E+02 -0.23470396108E+02  0.26676909000E+02  0.47787271479E+02  0.20000001981E+02 0.  0.
         12    1    1    2    0    0  0.24922003709E+02  0.23470396108E+02 -0.26676909000E+02  0.43400728521E+02  0.00000000000E+00 0. -1.
         11    1    3    3    0    0 -0.10558792009E+02 -0.28785765004E+01  0.15438602895E+02  0.18924184288E+02  0.51100000000E-03 0. -1.
        -11    1    3    3    0    0 -0.51816492918E+01 -0.23197796715E+01  0.47705776211E+01  0.74154755887E+01  0.51100000000E-03 0.  1.
         12    1    3    3    0    0 -0.91815624078E+01 -0.18272039937E+02  0.64677284846E+01  0.21447611602E+02  0.00000000000E+00 0. -1.
</event>
<event>
 7    1  0.2476315E-009  0.4778727E+02  0.7816164E-02  0.1312668E+00
        -11   -1    0    0    0    0  0.00000000000E+00  0.00000000000E+00  0.45593999997E+02  0.45594000000E+02  0.51100000000E-03 0.  1.
         11   -1    0    0    0    0 -0.00000000000E+00 -0.00000000000E+00 -0.45593999997E+02  0.45594000000E+02  0.51100000000E-03 0. -1.
    9900012    2    1    2    0    0  0.23976805721E+02  0.33371712917E+02  0.13966562055E+02  0.47787270845E+02  0.19999999089E+02 0.  0.
         12    1    1    2    0    0 -0.23976805721E+02 -0.33371712917E+02 -0.13966562055E+02  0.43400729155E+02  0.00000000000E+00 0. -1.
         11    1    3    3    0    0  0.14060346575E+02  0.10547826541E+02  0.85737955239E+01  0.19556583559E+02  0.51100000000E-03 0.  1.
        -11    1    3    3    0    0 -0.42791392254E+00  0.97861145801E+00 -0.25692298870E+01  0.27823970214E+01  0.51100000000E-03 0. -1.
        -12    1    3    3    0    0  0.10344373068E+02  0.21845274918E+02  0.79619964187E+01  0.25448290264E+02  0.00000000000E+00 0.  1.
</event>
<event>
 7    1  0.2476315E-009  0.4778727E+02  0.7816164E-02  0.1312668E+00
        -11   -1    0    0    0    0  0.00000000000E+00  0.00000000000E+00  0.45593999997E+02  0.45594000000E+02  0.51100000000E-03 0. -1.
         11   -1    0    0    0    0 -0.00000000000E+00 -0.00000000000E+00 -0.45593999997E+02  0.45594000000E+02  0.51100000000E-03 0.  1.
    9900012    2    1    2    0    0  0.38474513406E+02  0.73007516463E+01 -0.18709204201E+02  0.47787268689E+02  0.19999989262E+02 0.  0.
         12    1    1    2    0    0 -0.38474513406E+02 -0.73007516463E+01  0.18709204201E+02  0.43400731311E+02  0.00000000000E+00 0. -1.
         11    1    3    3    0    0  0.33415251999E+02  0.93348218801E+01 -0.85953611987E+01  0.35743505705E+02  0.51100000000E-03 0. -1.
        -11    1    3    3    0    0  0.34690723841E+01 -0.30766366022E+01 -0.72668510525E+01  0.86201670789E+01  0.51100000000E-03 0.  1.
         12    1    3    3    0    0  0.15901890237E+01  0.10425663684E+01 -0.28469919499E+01  0.34235959058E+01  0.00000000000E+00 0. -1.
</event>
<event>
 7    1  0.2476315E-009  0.4778727E+02  0.7816164E-02  0.1312668E+00
        -11   -1    0    0    0    0  0.00000000000E+00  0.00000000000E+00  0.45593999997E+02  0.45594000000E+02  0.51100000000E-03 0.  1.
         11   -1    0    0    0    0 -0.00000000000E+00 -0.00000000000E+00 -0.45593999997E+02  0.45594000000E+02  0.51100000000E-03 0. -1.
    9900012    2    1    2    0    0  0.22797665092E+02 -0.54970200689E+01  0.36519481751E+02  0.47787270621E+02  0.19999998068E+02 0.  0.
         12    1    1    2    0    0 -0.22797665092E+02  0.54970200689E+01 -0.36519481751E+02  0.43400729379E+02  0.00000000000E+00 0. -1.
         11    1    3    3    0    0  0.33743154315E+01 -0.34945230110E+01  0.25859793041E+01  0.55031795290E+01  0.51100000000E-03 0. -1.
        -11    1    3    3    0    0  0.12120098556E+02  0.87129705778E+00  0.65627520048E+01  0.13810346184E+02  0.51100000000E-03 0.  1.
        -12    1    3    3    0    0  0.73032511043E+01 -0.28737941156E+01  0.27370750442E+02  0.28473744908E+02  0.00000000000E+00 0.  1.
</event>
<event>
 7    1  0.2476315E-009  0.4778727E+02  0.7816164E-02  0.1312668E+00
        -11   -1    0    0    0    0  0.00000000000E+00  0.00000000000E+00  0.45593999997E+02  0.45594000000E+02  0.51100000000E-03 0. -1.
         11   -1    0    0    0    0 -0.00000000000E+00 -0.00000000000E+00 -0.45593999997E+02  0.45594000000E+02  0.51100000000E-03 0.  1.
    9900012    2    1    2    0    0  0.82559872378E+01  0.42024055372E+02 -0.70313890592E+01  0.47787274346E+02  0.20000015055E+02 0.  0.
         12    1    1    2    0    0 -0.82559872378E+01 -0.42024055372E+02  0.70313890592E+01  0.43400725654E+02  0.00000000000E+00 0. -1.
         11    1    3    3    0    0  0.68424506389E+00  0.73542197796E+00 -0.24055333010E+01  0.26068424418E+01  0.51100000000E-03 0. -1.
        -11    1    3    3    0    0 -0.32802907834E+00  0.70741706115E+01 -0.70364942928E+01  0.99831730983E+01  0.51100000000E-03 0.  1.
        -12    1    3    3    0    0  0.78997712523E+01  0.34214462782E+02  0.24106385346E+01  0.35197258806E+02  0.00000000000E+00 0.  1.
</event>
<event>
 7    1  0.2476315E-009  0.4778727E+02  0.7816164E-02  0.1312668E+00
        -11   -1    0    0    0    0  0.00000000000E+00  0.00000000000E+00  0.45593999997E+02  0.45594000000E+02  0.51100000000E-03 0.  1.
         11   -1    0    0    0    0 -0.00000000000E+00 -0.00000000000E+00 -0.45593999997E+02  0.45594000000E+02  0.51100000000E-03 0. -1.
    9900012    2    1    2    0    0  0.17943550201E+02 -0.29914295917E+02  0.25822221552E+02  0.47787271666E+02  0.20000002833E+02 0.  0.
         12    1    1    2    0    0 -0.17943550201E+02  0.29914295917E+02 -0.25822221552E+02  0.43400728334E+02  0.00000000000E+00 0. -1.
         11    1    3    3    0    0  0.10100206794E+02 -0.22174624974E+01  0.11475589378E+02  0.15447345049E+02  0.51100000000E-03 0. -1.
        -11    1    3    3    0    0  0.75664269252E+01 -0.21858842049E+02  0.11153111063E+02  0.25679791252E+02  0.51100000000E-03 0.  1.
         12    1    3    3    0    0  0.27691648119E+00 -0.58379913714E+01  0.31935211113E+01  0.66601353648E+01  0.00000000000E+00 0. -1.
</event>
<event>
 7    1  0.2476315E-009  0.4778727E+02  0.7816164E-02  0.1312668E+00
        -11   -1    0    0    0    0  0.00000000000E+00  0.00000000000E+00  0.45593999997E+02  0.45594000000E+02  0.51100000000E-03 0. -1.
         11   -1    0    0    0    0 -0.00000000000E+00 -0.00000000000E+00 -0.45593999997E+02  0.45594000000E+02  0.51100000000E-03 0.  1.
    9900012    2    1    2    0    0 -0.42115936050E+02  0.69483827441E+01  0.78480339649E+01  0.47787265798E+02  0.19999976079E+02 0.  0.
         12    1    1    2    0    0  0.42115936050E+02 -0.69483827441E+01 -0.78480339649E+01  0.43400734202E+02  0.00000000000E+00 0. -1.
         11    1    3    3    0    0 -0.17901058456E+02  0.13691117081E+01  0.35801598238E+00  0.17956907763E+02  0.51100000000E-03 0. -1.
        -11    1    3    3    0    0 -0.70910275274E+00  0.13506262677E+01 -0.32904815056E+01  0.36268839006E+01  0.51100000000E-03 0.  1.
        -12    1    3    3    0    0 -0.23505774841E+02  0.42286447683E+01  0.10780499488E+02  0.26203474134E+02  0.00000000000E+00 0.  1.
</event>
<event>
 7    1  0.2476315E-009  0.4778728E+02  0.7816164E-02  0.1312668E+00
        -11   -1    0    0    0    0  0.00000000000E+00  0.00000000000E+00  0.45593999997E+02  0.45594000000E+02  0.51100000000E-03 0.  1.
         11   -1    0    0    0    0 -0.00000000000E+00 -0.00000000000E+00 -0.45593999997E+02  0.45594000000E+02  0.51100000000E-03 0. -1.
    9900012    2    1    2    0    0 -0.19214982163E+02 -0.29584960579E+02  0.25281159561E+02  0.47787280413E+02  0.20000042714E+02 0.  0.
         12    1    1    2    0    0  0.19214982163E+02  0.29584960579E+02 -0.25281159561E+02  0.43400719587E+02  0.00000000000E+00 0. -1.
         11    1    3    3    0    0 -0.11370178818E+02 -0.18205195618E+02  0.20764268455E+02  0.29864108200E+02  0.51100000000E-03 0.  1.
        -11    1    3    3    0    0 -0.36970939154E+01 -0.11955338960E+02  0.11812816170E+01  0.12569568791E+02  0.51100000000E-03 0. -1.
         12    1    3    3    0    0 -0.41477094296E+01  0.57557399899E+00  0.33356094886E+01  0.53536034221E+01  0.00000000000E+00 0. -1.
</event>
<event>
 7    1  0.2476315E-009  0.4778727E+02  0.7816164E-02  0.1312668E+00
        -11   -1    0    0    0    0  0.00000000000E+00  0.00000000000E+00  0.45593999997E+02  0.45594000000E+02  0.51100000000E-03 0. -1.
         11   -1    0    0    0    0 -0.00000000000E+00 -0.00000000000E+00 -0.45593999997E+02  0.45594000000E+02  0.51100000000E-03 0.  1.
    9900012    2    1    2    0    0  0.11202483925E+02 -0.72900114829E+00 -0.41923694741E+02  0.47787271095E+02  0.20000000230E+02 0.  0.
         12    1    1    2    0    0 -0.11202483925E+02  0.72900114829E+00  0.41923694741E+02  0.43400728905E+02  0.00000000000E+00 0. -1.
         11    1    3    3    0    0 -0.27337169857E+01 -0.16070972595E+01 -0.56117270077E+01  0.64457311788E+01  0.51100000000E-03 0. -1.
        -11    1    3    3    0    0  0.16521266831E+02  0.10462357296E+01 -0.34212322541E+02  0.38006971476E+02  0.51100000000E-03 0.  1.
        -12    1    3    3    0    0 -0.25850659205E+01 -0.16813961841E+00 -0.20996451925E+01  0.33345684397E+01  0.00000000000E+00 0.  1.
</event>
<event>
 7    1  0.2476315E-009  0.4778727E+02  0.7816164E-02  0.1312668E+00
        -11   -1    0    0    0    0  0.00000000000E+00  0.00000000000E+00  0.45593999997E+02  0.45594000000E+02  0.51100000000E-03 0. -1.
         11   -1    0    0    0    0 -0.00000000000E+00 -0.00000000000E+00 -0.45593999997E+02  0.45594000000E+02  0.51100000000E-03 0.  1.
    9900012    2    1    2    0    0 -0.13359821500E+02 -0.75916995208E+01 -0.40589462864E+02  0.47787271576E+02  0.20000002423E+02 0.  0.
         12    1    1    2    0    0  0.13359821500E+02  0.75916995208E+01  0.40589462864E+02  0.43400728424E+02  0.00000000000E+00 0. -1.
         11    1    3    3    0    0  0.34626058971E+01  0.20227781542E+01 -0.37311726832E+01  0.54774922101E+01  0.51100000000E-03 0. -1.
        -11    1    3    3    0    0 -0.17379225748E+02 -0.99940021063E+01 -0.35027670966E+02  0.40359079515E+02  0.51100000000E-03 0.  1.
        -12    1    3    3    0    0  0.55679835124E+00  0.37952443128E+00 -0.18306192152E+01  0.19506998511E+01  0.00000000000E+00 0.  1.
</event>
<event>
 7    1  0.2476315E-009  0.4778727E+02  0.7816164E-02  0.1312668E+00
        -11   -1    0    0    0    0  0.00000000000E+00  0.00000000000E+00  0.45593999997E+02  0.45594000000E+02  0.51100000000E-03 0.  1.
         11   -1    0    0    0    0 -0.00000000000E+00 -0.00000000000E+00 -0.45593999997E+02  0.45594000000E+02  0.51100000000E-03 0. -1.
    9900012    2    1    2    0    0  0.14415941560E+02 -0.26554742868E+00  0.40935721147E+02  0.47787272445E+02  0.20000006384E+02 0.  0.
         12    1    1    2    0    0 -0.14415941560E+02  0.26554742868E+00 -0.40935721147E+02  0.43400727555E+02  0.00000000000E+00 0. -1.
         11    1    3    3    0    0  0.56466511627E+00 -0.55149031375E+01  0.22549849862E+01  0.59848108457E+01  0.51100000000E-03 0. -1.
        -11    1    3    3    0    0  0.51041080040E+01  0.49308781756E+01  0.17544609813E+02  0.18925612589E+02  0.51100000000E-03 0.  1.
         12    1    3    3    0    0  0.87471684399E+01  0.31847753318E+00  0.21136126347E+02  0.22876849010E+02  0.00000000000E+00 0. -1.
</event>
<event>
 7    1  0.2476315E-009  0.4778727E+02  0.7816164E-02  0.1312668E+00
        -11   -1    0    0    0    0  0.00000000000E+00  0.00000000000E+00  0.45593999997E+02  0.45594000000E+02  0.51100000000E-03 0.  1.
         11   -1    0    0    0    0 -0.00000000000E+00 -0.00000000000E+00 -0.45593999997E+02  0.45594000000E+02  0.51100000000E-03 0. -1.
    9900012    2    1    2    0    0  0.37726597504E+02 -0.30385000457E+01  0.21238992662E+02  0.47787269004E+02  0.19999990696E+02 0.  0.
         12    1    1    2    0    0 -0.37726597504E+02  0.30385000457E+01 -0.21238992662E+02  0.43400730996E+02  0.00000000000E+00 0. -1.
         11    1    3    3    0    0  0.33030924374E+02 -0.65982572762E+01  0.10150542475E+02  0.35179716839E+02  0.51100000000E-03 0. -1.
        -11    1    3    3    0    0  0.36219792235E+01  0.27112437993E+01  0.94160006783E+01  0.10446561418E+02  0.51100000000E-03 0.  1.
         12    1    3    3    0    0  0.10736939060E+01  0.84851343110E+00  0.16724495084E+01  0.21609907461E+01  0.00000000000E+00 0. -1.
</event>
<event>
 7    1  0.2476315E-009  0.4778729E+02  0.7816164E-02  0.1312668E+00
        -11   -1    0    0    0    0  0.00000000000E+00  0.00000000000E+00  0.45593999997E+02  0.45594000000E+02  0.51100000000E-03 0. -1.
         11   -1    0    0    0    0 -0.00000000000E+00 -0.00000000000E+00 -0.45593999997E+02  0.45594000000E+02  0.51100000000E-03 0.  1.
    9900012    2    1    2    0    0 -0.41309787729E+02  0.82988923017E+01  0.10404377592E+02  0.47787294375E+02  0.20000106375E+02 0.  0.
         12    1    1    2    0    0  0.41309787729E+02 -0.82988923017E+01 -0.10404377592E+02  0.43400705625E+02  0.00000000000E+00 0. -1.
         11    1    3    3    0    0 -0.28794170921E+01 -0.36513416079E+01  0.34294237222E+01  0.57779136075E+01  0.51100000000E-03 0. -1.
        -11    1    3    3    0    0 -0.25680362153E+02  0.10461266046E+02  0.86888286390E+01  0.29058816751E+02  0.51100000000E-03 0.  1.
        -12    1    3    3    0    0 -0.12750008483E+02  0.14889678640E+01 -0.17138747691E+01  0.12950564017E+02  0.00000000000E+00 0.  1.
</event>
<event>
 7    1  0.2476315E-009  0.4778727E+02  0.7816164E-02  0.1312668E+00
        -11   -1    0    0    0    0  0.00000000000E+00  0.00000000000E+00  0.45593999997E+02  0.45594000000E+02  0.51100000000E-03 0.  1.
         11   -1    0    0    0    0 -0.00000000000E+00 -0.00000000000E+00 -0.45593999997E+02  0.45594000000E+02  0.51100000000E-03 0. -1.
    9900012    2    1    2    0    0 -0.31604454259E+02  0.25070331600E+02  0.16008136452E+02  0.47787268576E+02  0.19999988744E+02 0.  0.
         12    1    1    2    0    0  0.31604454259E+02 -0.25070331600E+02 -0.16008136452E+02  0.43400731424E+02  0.00000000000E+00 0. -1.
         11    1    3    3    0    0  0.18942125534E+01  0.77653884073E+00  0.85266898573E+00  0.22176786126E+01  0.51100000000E-03 0. -1.
        -11    1    3    3    0    0 -0.22295665732E+02  0.14953765539E+02  0.15462469479E+02  0.30980635514E+02  0.51100000000E-03 0.  1.
        -12    1    3    3    0    0 -0.11203001080E+02  0.93400272197E+01 -0.30700201289E+00  0.14588954449E+02  0.00000000000E+00 0.  1.
</event>
<event>
 7    1  0.2476315E-009  0.4778728E+02  0.7816164E-02  0.1312668E+00
        -11   -1    0    0    0    0  0.00000000000E+00  0.00000000000E+00  0.45593999997E+02  0.45594000000E+02  0.51100000000E-03 0.  1.
         11   -1    0    0    0    0 -0.00000000000E+00 -0.00000000000E+00 -0.45593999997E+02  0.45594000000E+02  0.51100000000E-03 0. -1.
    9900012    2    1    2    0    0  0.57771701696E+01  0.31973047077E+02  0.28774492744E+02  0.47787275729E+02  0.20000021360E+02 0.  0.
         12    1    1    2    0    0 -0.57771701696E+01 -0.31973047077E+02 -0.28774492744E+02  0.43400724271E+02  0.00000000000E+00 0. -1.
         11    1    3    3    0    0 -0.17420874303E+01  0.25186672178E+01 -0.19458820392E+01  0.36283619363E+01  0.51100000000E-03 0. -1.
        -11    1    3    3    0    0  0.54355786431E+00  0.19089420416E+02  0.20504096839E+02  0.28019982412E+02  0.51100000000E-03 0.  1.
        -12    1    3    3    0    0  0.69756997356E+01  0.10364959444E+02  0.10216277944E+02  0.16138931381E+02  0.00000000000E+00 0.  1.
</event>
<event>
 7    1  0.2476315E-009  0.4778726E+02  0.7816164E-02  0.1312668E+00
        -11   -1    0    0    0    0  0.00000000000E+00  0.00000000000E+00  0.45593999997E+02  0.45594000000E+02  0.51100000000E-03 0.  1.
         11   -1    0    0    0    0 -0.00000000000E+00 -0.00000000000E+00 -0.45593999997E+02  0.45594000000E+02  0.51100000000E-03 0. -1.
    9900012    2    1    2    0    0 -0.12118711917E+02 -0.36299726068E+02  0.20471714929E+02  0.47787258033E+02  0.19999940678E+02 0.  0.
         12    1    1    2    0    0  0.12118711917E+02  0.36299726068E+02 -0.20471714929E+02  0.43400741967E+02  0.00000000000E+00 0. -1.
         11    1    3    3    0    0  0.26997474657E+01 -0.74141747480E+01  0.70984600901E+01  0.10613517771E+02  0.51100000000E-03 0.  1.
        -11    1    3    3    0    0 -0.10840908424E+02 -0.88359819618E+01  0.76787515640E+01  0.15955033642E+02  0.51100000000E-03 0. -1.
        -12    1    3    3    0    0 -0.39775509583E+01 -0.20049569358E+02  0.56945032753E+01  0.21218706620E+02  0.00000000000E+00 0.  1.
</event>
<event>
 7    1  0.2476315E-009  0.4778726E+02  0.7816164E-02  0.1312668E+00
        -11   -1    0    0    0    0  0.00000000000E+00  0.00000000000E+00  0.45593999997E+02  0.45594000000E+02  0.51100000000E-03 0. -1.
         11   -1    0    0    0    0 -0.00000000000E+00 -0.00000000000E+00 -0.45593999997E+02  0.45594000000E+02  0.51100000000E-03 0.  1.
    9900012    2    1    2    0    0  0.28164943980E+02 -0.20417057751E+02 -0.25951948699E+02  0.47787263164E+02  0.19999964071E+02 0.  0.
         12    1    1    2    0    0 -0.28164943980E+02  0.20417057751E+02  0.25951948699E+02  0.43400736836E+02  0.00000000000E+00 0. -1.
         11    1    3    3    0    0  0.48360567433E+01 -0.80852804989E+01 -0.12546370726E+02  0.15689825500E+02  0.51100000000E-03 0. -1.
        -11    1    3    3    0    0  0.18199072191E+02 -0.29020231642E+01 -0.84162964218E+01  0.20259862112E+02  0.51100000000E-03 0.  1.
        -12    1    3    3    0    0  0.51298150455E+01 -0.94297540877E+01 -0.49892815515E+01  0.11837575552E+02  0.00000000000E+00 0.  1.
</event>
<event>
 7    1  0.2476315E-009  0.4778727E+02  0.7816164E-02  0.1312668E+00
        -11   -1    0    0    0    0  0.00000000000E+00  0.00000000000E+00  0.45593999997E+02  0.45594000000E+02  0.51100000000E-03 0.  1.
         11   -1    0    0    0    0 -0.00000000000E+00 -0.00000000000E+00 -0.45593999997E+02  0.45594000000E+02  0.51100000000E-03 0. -1.
    9900012    2    1    2    0    0 -0.33388879507E+02 -0.19617459675E+02  0.19594935820E+02  0.47787268340E+02  0.19999987670E+02 0.  0.
         12    1    1    2    0    0  0.33388879507E+02  0.19617459675E+02 -0.19594935820E+02  0.43400731660E+02  0.00000000000E+00 0. -1.
         11    1    3    3    0    0 -0.70640489813E+01 -0.31108760076E+01 -0.33512699460E+01  0.84148290570E+01  0.51100000000E-03 0. -1.
        -11    1    3    3    0    0 -0.18211032440E+02 -0.12543136303E+02  0.20157576130E+02  0.29921561566E+02  0.51100000000E-03 0.  1.
        -12    1    3    3    0    0 -0.81137980856E+01 -0.39634473645E+01  0.27886296359E+01  0.94508777175E+01  0.00000000000E+00 0.  1.
</event>
<event>
 7    1  0.2476315E-009  0.4778727E+02  0.7816164E-02  0.1312668E+00
        -11   -1    0    0    0    0  0.00000000000E+00  0.00000000000E+00  0.45593999997E+02  0.45594000000E+02  0.51100000000E-03 0.  1.
         11   -1    0    0    0    0 -0.00000000000E+00 -0.00000000000E+00 -0.45593999997E+02  0.45594000000E+02  0.51100000000E-03 0. -1.
    9900012    2    1    2    0    0  0.21806369157E+02  0.20759086259E+02  0.31259650976E+02  0.47787272158E+02  0.20000005076E+02 0.  0.
         12    1    1    2    0    0 -0.21806369157E+02 -0.20759086259E+02 -0.31259650976E+02  0.43400727842E+02  0.00000000000E+00 0. -1.
         11    1    3    3    0    0  0.11243944099E+02  0.62966337246E+01  0.13184234989E+02  0.18436320882E+02  0.51100000000E-03 0. -1.
        -11    1    3    3    0    0  0.63407392004E+01  0.59417315840E+01 -0.26311096197E+00  0.86935824298E+01  0.51100000000E-03 0.  1.
        -12    1    3    3    0    0  0.42216858576E+01  0.85207209500E+01  0.18338526949E+02  0.20657368846E+02  0.00000000000E+00 0.  1.
</event>
<event>
 7    1  0.2476315E-009  0.4778727E+02  0.7816164E-02  0.1312668E+00
        -11   -1    0    0    0    0  0.00000000000E+00  0.00000000000E+00  0.45593999997E+02  0.45594000000E+02  0.51100000000E-03 0. -1.
         11   -1    0    0    0    0 -0.00000000000E+00 -0.00000000000E+00 -0.45593999997E+02  0.45594000000E+02  0.51100000000E-03 0.  1.
    9900012    2    1    2    0    0 -0.88673734119E+00 -0.39650693316E+02 -0.17625534136E+02  0.47787271468E+02  0.20000001929E+02 0.  0.
         12    1    1    2    0    0  0.88673734119E+00  0.39650693316E+02  0.17625534136E+02  0.43400728532E+02  0.00000000000E+00 0. -1.
         11    1    3    3    0    0  0.75912094880E+01 -0.25800108497E+02 -0.13195356129E+02  0.29956459797E+02  0.51100000000E-03 0. -1.
        -11    1    3    3    0    0 -0.47939621204E+01 -0.28708433596E+01 -0.23608761971E+01  0.60660985061E+01  0.51100000000E-03 0.  1.
         12    1    3    3    0    0 -0.36839847089E+01 -0.10979741460E+02 -0.20693018100E+01  0.11764713165E+02  0.00000000000E+00 0. -1.
</event>
<event>
 7    1  0.2476315E-009  0.4778727E+02  0.7816164E-02  0.1312668E+00
        -11   -1    0    0    0    0  0.00000000000E+00  0.00000000000E+00  0.45593999997E+02  0.45594000000E+02  0.51100000000E-03 0.  1.
         11   -1    0    0    0    0 -0.00000000000E+00 -0.00000000000E+00 -0.45593999997E+02  0.45594000000E+02  0.51100000000E-03 0. -1.
    9900012    2    1    2    0    0 -0.37708224221E+01 -0.41852363182E+01  0.43033569566E+02  0.47787269426E+02  0.19999992621E+02 0.  0.
         12    1    1    2    0    0  0.37708224221E+01  0.41852363182E+01 -0.43033569566E+02  0.43400730574E+02  0.00000000000E+00 0. -1.
         11    1    3    3    0    0 -0.61056340522E+01  0.56039357279E+01  0.19391721655E+02  0.21088426490E+02  0.51100000000E-03 0. -1.
        -11    1    3    3    0    0  0.50351791517E+00 -0.51434241020E+01  0.19613406024E+02  0.20282850833E+02  0.51100000000E-03 0.  1.
         12    1    3    3    0    0  0.18312937149E+01 -0.46457479441E+01  0.40284418863E+01  0.64159921027E+01  0.00000000000E+00 0. -1.
</event>
<event>
 7    1  0.2476315E-009  0.4778728E+02  0.7816164E-02  0.1312668E+00
        -11   -1    0    0    0    0  0.00000000000E+00  0.00000000000E+00  0.45593999997E+02  0.45594000000E+02  0.51100000000E-03 0.  1.
         11   -1    0    0    0    0 -0.00000000000E+00 -0.00000000000E+00 -0.45593999997E+02  0.45594000000E+02  0.51100000000E-03 0. -1.
    9900012    2    1    2    0    0  0.24455401220E+02 -0.34324196749E+02 -0.10363674042E+02  0.47787275687E+02  0.20000021167E+02 0.  0.
         12    1    1    2    0    0 -0.24455401220E+02  0.34324196749E+02  0.10363674042E+02  0.43400724313E+02  0.00000000000E+00 0. -1.
         11    1    3    3    0    0  0.35485974489E+01 -0.19156332433E+01 -0.47430055156E+01  0.62256161269E+01  0.51100000000E-03 0. -1.
        -11    1    3    3    0    0  0.91420193575E+01 -0.26405805929E+02 -0.30924820479E+01  0.28114169918E+02  0.51100000000E-03 0.  1.
        -12    1    3    3    0    0  0.11764784413E+02 -0.60027575760E+01 -0.25281864788E+01  0.13447489642E+02  0.00000000000E+00 0.  1.
</event>
<event>
 7    1  0.2476315E-009  0.4778727E+02  0.7816164E-02  0.1312668E+00
        -11   -1    0    0    0    0  0.00000000000E+00  0.00000000000E+00  0.45593999997E+02  0.45594000000E+02  0.51100000000E-03 0. -1.
         11   -1    0    0    0    0 -0.00000000000E+00 -0.00000000000E+00 -0.45593999997E+02  0.45594000000E+02  0.51100000000E-03 0.  1.
    9900012    2    1    2    0    0 -0.36780143773E+02 -0.10407236701E+02 -0.20555619768E+02  0.47787273557E+02  0.20000011455E+02 0.  0.
         12    1    1    2    0    0  0.36780143773E+02  0.10407236701E+02  0.20555619768E+02  0.43400726443E+02  0.00000000000E+00 0. -1.
         11    1    3    3    0    0 -0.18764850636E+02  0.28801166423E+01 -0.15150668657E+02  0.24289039756E+02  0.51100000000E-03 0. -1.
        -11    1    3    3    0    0 -0.11553214106E+02 -0.94197860863E+01 -0.57053473307E+01  0.15961206550E+02  0.51100000000E-03 0.  1.
         12    1    3    3    0    0 -0.64620790311E+01 -0.38675672571E+01  0.30039621955E+00  0.75370272509E+01  0.00000000000E+00 0. -1.
</event>
<event>
 7    1  0.2476315E-009  0.4778728E+02  0.7816164E-02  0.1312668E+00
        -11   -1    0    0    0    0  0.00000000000E+00  0.00000000000E+00  0.45593999997E+02  0.45594000000E+02  0.51100000000E-03 0.  1.
         11   -1    0    0    0    0 -0.00000000000E+00 -0.00000000000E+00 -0.45593999997E+02  0.45594000000E+02  0.51100000000E-03 0. -1.
    9900012    2    1    2    0    0  0.21035348608E+02 -0.16549715948E+01  0.37926218978E+02  0.47787275260E+02  0.20000019220E+02 0.  0.
         12    1    1    2    0    0 -0.21035348608E+02  0.16549715948E+01 -0.37926218978E+02  0.43400724740E+02  0.00000000000E+00 0. -1.
         11    1    3    3    0    0  0.12155425376E+02  0.14585010734E+01  0.78005083354E+01  0.14516525824E+02  0.51100000000E-03 0. -1.
        -11    1    3    3    0    0  0.62376690089E+01 -0.21755242683E+01  0.58210120671E+01  0.88048624210E+01  0.51100000000E-03 0.  1.
         12    1    3    3    0    0  0.26422542227E+01 -0.93794839987E+00  0.24304698575E+02  0.24465887015E+02  0.00000000000E+00 0. -1.
</event>
<event>
 7    1  0.2476315E-009  0.4778727E+02  0.7816164E-02  0.1312668E+00
        -11   -1    0    0    0    0  0.00000000000E+00  0.00000000000E+00  0.45593999997E+02  0.45594000000E+02  0.51100000000E-03 0.  1.
         11   -1    0    0    0    0 -0.00000000000E+00 -0.00000000000E+00 -0.45593999997E+02  0.45594000000E+02  0.51100000000E-03 0. -1.
    9900012    2    1    2    0    0 -0.17138872645E+02 -0.25527489975E+02  0.30630531469E+02  0.47787272379E+02  0.20000006085E+02 0.  0.
         12    1    1    2    0    0  0.17138872645E+02  0.25527489975E+02 -0.30630531469E+02  0.43400727621E+02  0.00000000000E+00 0. -1.
         11    1    3    3    0    0 -0.60887142334E+01 -0.77617840897E+00  0.11595410955E+02  0.13119773223E+02  0.51100000000E-03 0. -1.
        -11    1    3    3    0    0 -0.12880522122E+02 -0.23012352273E+02  0.18049711283E+02  0.31957288447E+02  0.51100000000E-03 0.  1.
        -12    1    3    3    0    0  0.18303637103E+01 -0.17389592931E+01  0.98540923155E+00  0.27102107093E+01  0.00000000000E+00 0.  1.
</event>
<event>
 7    1  0.2476315E-009  0.4778727E+02  0.7816164E-02  0.1312668E+00
        -11   -1    0    0    0    0  0.00000000000E+00  0.00000000000E+00  0.45593999997E+02  0.45594000000E+02  0.51100000000E-03 0.  1.
         11   -1    0    0    0    0 -0.00000000000E+00 -0.00000000000E+00 -0.45593999997E+02  0.45594000000E+02  0.51100000000E-03 0. -1.
    9900012    2    1    2    0    0  0.37463830024E+02 -0.32483217422E+01  0.21668715570E+02  0.47787269722E+02  0.19999993971E+02 0.  0.
         12    1    1    2    0    0 -0.37463830024E+02  0.32483217422E+01 -0.21668715570E+02  0.43400730278E+02  0.00000000000E+00 0. -1.
         11    1    3    3    0    0  0.46360878456E+01  0.33028993716E+01  0.40856276477E+01  0.70067687494E+01  0.51100000000E-03 0. -1.
        -11    1    3    3    0    0  0.34286037208E+02 -0.74172117831E+01  0.16481071850E+02  0.38757878008E+02  0.51100000000E-03 0.  1.
        -12    1    3    3    0    0 -0.14582950300E+01  0.86599066938E+00  0.11020160722E+01  0.20226229647E+01  0.00000000000E+00 0.  1.
</event>
<event>
 7    1  0.2476315E-009  0.4778725E+02  0.7816164E-02  0.1312668E+00
        -11   -1    0    0    0    0  0.00000000000E+00  0.00000000000E+00  0.45593999997E+02  0.45594000000E+02  0.51100000000E-03 0.  1.
         11   -1    0    0    0    0 -0.00000000000E+00 -0.00000000000E+00 -0.45593999997E+02  0.45594000000E+02  0.51100000000E-03 0. -1.
    9900012    2    1    2    0    0 -0.20021925200E+02 -0.12401631022E+02  0.36454729490E+02  0.47787248360E+02  0.19999896574E+02 0.  0.
         12    1    1    2    0    0  0.20021925200E+02  0.12401631022E+02 -0.36454729490E+02  0.43400751640E+02  0.00000000000E+00 0. -1.
         11    1    3    3    0    0  0.29529404988E+01 -0.26667077302E+01  0.11743080669E+01  0.41485162896E+01  0.51100000000E-03 0. -1.
        -11    1    3    3    0    0 -0.16166041542E+01 -0.27818398390E+01  0.46887088467E+01  0.56864780657E+01  0.51100000000E-03 0.  1.
         12    1    3    3    0    0 -0.21358261545E+02 -0.69530834524E+01  0.30591712576E+02  0.37952254005E+02  0.00000000000E+00 0. -1.
</event>
<event>
 7    1  0.2476315E-009  0.4778726E+02  0.7816164E-02  0.1312668E+00
        -11   -1    0    0    0    0  0.00000000000E+00  0.00000000000E+00  0.45593999997E+02  0.45594000000E+02  0.51100000000E-03 0.  1.
         11   -1    0    0    0    0 -0.00000000000E+00 -0.00000000000E+00 -0.45593999997E+02  0.45594000000E+02  0.51100000000E-03 0. -1.
    9900012    2    1    2    0    0 -0.78819870189E+01  0.32418612823E+02  0.27758451909E+02  0.47787264648E+02  0.19999970837E+02 0.  0.
         12    1    1    2    0    0  0.78819870189E+01 -0.32418612823E+02 -0.27758451909E+02  0.43400735352E+02  0.00000000000E+00 0. -1.
         11    1    3    3    0    0  0.28692701110E+01  0.42529364158E+01  0.23489102129E+01  0.56424780528E+01  0.51100000000E-03 0. -1.
        -11    1    3    3    0    0 -0.14227166240E+02  0.19321140685E+02  0.16513162758E+02  0.29127363100E+02  0.51100000000E-03 0.  1.
        -12    1    3    3    0    0  0.34759091099E+01  0.88445357214E+01  0.88963789373E+01  0.13017423496E+02  0.00000000000E+00 0.  1.
</event>
<event>
 7    1  0.2476315E-009  0.4778723E+02  0.7816164E-02  0.1312668E+00
        -11   -1    0    0    0    0  0.00000000000E+00  0.00000000000E+00  0.45593999997E+02  0.45594000000E+02  0.51100000000E-03 0.  1.
         11   -1    0    0    0    0 -0.00000000000E+00 -0.00000000000E+00 -0.45593999997E+02  0.45594000000E+02  0.51100000000E-03 0. -1.
    9900012    2    1    2    0    0 -0.36617988244E+01  0.46022210683E+01  0.43000437453E+02  0.47787230070E+02  0.19999813180E+02 0.  0.
         12    1    1    2    0    0  0.36617988244E+01 -0.46022210683E+01 -0.43000437453E+02  0.43400769930E+02  0.00000000000E+00 0. -1.
         11    1    3    3    0    0 -0.96922928601E+01  0.19479797158E+01  0.32639709855E+02  0.34104044123E+02  0.51100000000E-03 0. -1.
        -11    1    3    3    0    0  0.71945168307E+01  0.27976251471E+01  0.94257463746E+01  0.12183286661E+02  0.51100000000E-03 0.  1.
        -12    1    3    3    0    0 -0.11640227950E+01 -0.14338379452E+00  0.93498122313E+00  0.14998992858E+01  0.00000000000E+00 0.  1.
</event>
<event>
 7    1  0.2476315E-009  0.4778727E+02  0.7816164E-02  0.1312668E+00
        -11   -1    0    0    0    0  0.00000000000E+00  0.00000000000E+00  0.45593999997E+02  0.45594000000E+02  0.51100000000E-03 0.  1.
         11   -1    0    0    0    0 -0.00000000000E+00 -0.00000000000E+00 -0.45593999997E+02  0.45594000000E+02  0.51100000000E-03 0. -1.
    9900012    2    1    2    0    0  0.30907198113E+02 -0.22012059027E+02  0.21067452739E+02  0.47787271865E+02  0.20000003740E+02 0.  0.
         12    1    1    2    0    0 -0.30907198113E+02  0.22012059027E+02 -0.21067452739E+02  0.43400728135E+02  0.00000000000E+00 0. -1.
         11    1    3    3    0    0  0.10321924726E+02 -0.11096777938E+01  0.10246136807E+02  0.14586186431E+02  0.51100000000E-03 0. -1.
        -11    1    3    3    0    0  0.13662314545E+02 -0.10808176109E+02  0.11611209776E+02  0.20935512944E+02  0.51100000000E-03 0.  1.
         12    1    3    3    0    0  0.69229588426E+01 -0.10094205124E+02 -0.78989384487E+00  0.12265572490E+02  0.00000000000E+00 0. -1.
</event>
<event>
 7    1  0.2476315E-009  0.4778727E+02  0.7816164E-02  0.1312668E+00
        -11   -1    0    0    0    0  0.00000000000E+00  0.00000000000E+00  0.45593999997E+02  0.45594000000E+02  0.51100000000E-03 0.  1.
         11   -1    0    0    0    0 -0.00000000000E+00 -0.00000000000E+00 -0.45593999997E+02  0.45594000000E+02  0.51100000000E-03 0. -1.
    9900012    2    1    2    0    0 -0.42312464179E+02  0.78882332479E+00 -0.96258065208E+01  0.47787273988E+02  0.20000013423E+02 0.  0.
         12    1    1    2    0    0  0.42312464179E+02 -0.78882332479E+00  0.96258065208E+01  0.43400726012E+02  0.00000000000E+00 0. -1.
         11    1    3    3    0    0 -0.29048224423E+02 -0.45637055915E+01 -0.43887710089E+01  0.29730254995E+02  0.51100000000E-03 0. -1.
        -11    1    3    3    0    0 -0.94665402870E+01 -0.10102305720E+01 -0.47278444932E+01  0.10629603221E+02  0.51100000000E-03 0.  1.
         12    1    3    3    0    0 -0.37976994693E+01  0.63627594883E+01 -0.50919101870E+00  0.74274157726E+01  0.00000000000E+00 0. -1.
</event>
<event>
 7    1  0.2476315E-009  0.4778727E+02  0.7816164E-02  0.1312668E+00
        -11   -1    0    0    0    0  0.00000000000E+00  0.00000000000E+00  0.45593999997E+02  0.45594000000E+02  0.51100000000E-03 0. -1.
         11   -1    0    0    0    0 -0.00000000000E+00 -0.00000000000E+00 -0.45593999997E+02  0.45594000000E+02  0.51100000000E-03 0.  1.
    9900012    2    1    2    0    0  0.13822633897E+02 -0.25554782199E+02 -0.32241445929E+02  0.47787274929E+02  0.20000017712E+02 0.  0.
         12    1    1    2    0    0 -0.13822633897E+02  0.25554782199E+02  0.32241445929E+02  0.43400725071E+02  0.00000000000E+00 0. -1.
         11    1    3    3    0    0  0.72775557697E+01 -0.86575199443E+01 -0.19170367792E+01  0.11471290243E+02  0.51100000000E-03 0. -1.
        -11    1    3    3    0    0  0.50944200638E+01 -0.72491499460E+01 -0.79385579856E+01  0.11896385749E+02  0.51100000000E-03 0.  1.
         12    1    3    3    0    0  0.14506580637E+01 -0.96481123090E+01 -0.22385851164E+02  0.24419598937E+02  0.00000000000E+00 0. -1.
</event>
<event>
 7    1  0.2476315E-009  0.4778727E+02  0.7816164E-02  0.1312668E+00
        -11   -1    0    0    0    0  0.00000000000E+00  0.00000000000E+00  0.45593999997E+02  0.45594000000E+02  0.51100000000E-03 0.  1.
         11   -1    0    0    0    0 -0.00000000000E+00 -0.00000000000E+00 -0.45593999997E+02  0.45594000000E+02  0.51100000000E-03 0. -1.
    9900012    2    1    2    0    0 -0.33914239870E+02 -0.14747726791E+00  0.27081836381E+02  0.47787271006E+02  0.19999999823E+02 0.  0.
         12    1    1    2    0    0  0.33914239870E+02  0.14747726791E+00 -0.27081836381E+02  0.43400728994E+02  0.00000000000E+00 0. -1.
         11    1    3    3    0    0 -0.11524235700E+02  0.91050613922E+01  0.78467371323E+01  0.16651769735E+02  0.51100000000E-03 0. -1.
        -11    1    3    3    0    0 -0.17538926884E+02 -0.75919334182E+01  0.16856618074E+02  0.25483268676E+02  0.51100000000E-03 0.  1.
         12    1    3    3    0    0 -0.48510772863E+01 -0.16606052419E+01  0.23784811740E+01  0.56522325944E+01  0.00000000000E+00 0. -1.
</event>
<event>
 7    1  0.2476315E-009  0.4778728E+02  0.7816164E-02  0.1312668E+00
        -11   -1    0    0    0    0  0.00000000000E+00  0.00000000000E+00  0.45593999997E+02  0.45594000000E+02  0.51100000000E-03 0.  1.
         11   -1    0    0    0    0 -0.00000000000E+00 -0.00000000000E+00 -0.45593999997E+02  0.45594000000E+02  0.51100000000E-03 0. -1.
    9900012    2    1    2    0    0 -0.25059273336E+02 -0.24608076515E+02 -0.25497013427E+02  0.47787282223E+02  0.20000050966E+02 0.  0.
         12    1    1    2    0    0  0.25059273336E+02  0.24608076515E+02  0.25497013427E+02  0.43400717777E+02  0.00000000000E+00 0. -1.
         11    1    3    3    0    0 -0.64230207394E+01 -0.12509091821E+02 -0.17806856531E+02  0.22689572790E+02  0.51100000000E-03 0. -1.
        -11    1    3    3    0    0 -0.18459175273E+02 -0.12862780615E+02 -0.60783736552E+01  0.23305340664E+02  0.51100000000E-03 0.  1.
        -12    1    3    3    0    0 -0.17707732372E+00  0.76379592165E+00 -0.16117832407E+01  0.17923687689E+01  0.00000000000E+00 0.  1.
</event>
<event>
 7    1  0.2476315E-009  0.4778727E+02  0.7816164E-02  0.1312668E+00
        -11   -1    0    0    0    0  0.00000000000E+00  0.00000000000E+00  0.45593999997E+02  0.45594000000E+02  0.51100000000E-03 0.  1.
         11   -1    0    0    0    0 -0.00000000000E+00 -0.00000000000E+00 -0.45593999997E+02  0.45594000000E+02  0.51100000000E-03 0. -1.
    9900012    2    1    2    0    0 -0.23445766398E+02  0.54493396582E+01  0.36114037567E+02  0.47787274498E+02  0.20000015745E+02 0.  0.
         12    1    1    2    0    0  0.23445766398E+02 -0.54493396582E+01 -0.36114037567E+02  0.43400725502E+02  0.00000000000E+00 0. -1.
         11    1    3    3    0    0 -0.58241837867E+01  0.14005453910E+01  0.53327643107E+01  0.80200386301E+01  0.51100000000E-03 0. -1.
        -11    1    3    3    0    0 -0.18728323702E+02  0.65266095615E+01  0.31251002713E+02  0.37013131614E+02  0.51100000000E-03 0.  1.
        -12    1    3    3    0    0  0.11067410913E+01 -0.24778152943E+01 -0.46972945646E+00  0.27541042533E+01  0.00000000000E+00 0.  1.
</event>
<event>
 7    1  0.2476315E-009  0.4778727E+02  0.7816164E-02  0.1312668E+00
        -11   -1    0    0    0    0  0.00000000000E+00  0.00000000000E+00  0.45593999997E+02  0.45594000000E+02  0.51100000000E-03 0. -1.
         11   -1    0    0    0    0 -0.00000000000E+00 -0.00000000000E+00 -0.45593999997E+02  0.45594000000E+02  0.51100000000E-03 0.  1.
    9900012    2    1    2    0    0 -0.40001476719E+02  0.22798994708E+00 -0.16836069756E+02  0.47787270007E+02  0.19999995270E+02 0.  0.
         12    1    1    2    0    0  0.40001476719E+02 -0.22798994708E+00  0.16836069756E+02  0.43400729993E+02  0.00000000000E+00 0. -1.
         11    1    3    3    0    0 -0.24432267416E+02  0.28810043064E+01 -0.29491731472E+00  0.24603309805E+02  0.51100000000E-03 0. -1.
        -11    1    3    3    0    0 -0.50809926417E+01 -0.22868932203E+00 -0.78260138047E+01  0.93335565228E+01  0.51100000000E-03 0.  1.
         12    1    3    3    0    0 -0.10488216661E+02 -0.24243250373E+01 -0.87151386362E+01  0.13850403679E+02  0.00000000000E+00 0. -1.
</event>
<event>
 7    1  0.2476315E-009  0.4778727E+02  0.7816164E-02  0.1312668E+00
        -11   -1    0    0    0    0  0.00000000000E+00  0.00000000000E+00  0.45593999997E+02  0.45594000000E+02  0.51100000000E-03 0.  1.
         11   -1    0    0    0    0 -0.00000000000E+00 -0.00000000000E+00 -0.45593999997E+02  0.45594000000E+02  0.51100000000E-03 0. -1.
    9900012    2    1    2    0    0 -0.62014904173E+01  0.17719943121E+02  0.39130146372E+02  0.47787271634E+02  0.20000002687E+02 0.  0.
         12    1    1    2    0    0  0.62014904173E+01 -0.17719943121E+02 -0.39130146372E+02  0.43400728366E+02  0.00000000000E+00 0. -1.
         11    1    3    3    0    0  0.18355257256E+01  0.95905134687E+01  0.13692414857E+02  0.16817530383E+02  0.51100000000E-03 0. -1.
        -11    1    3    3    0    0 -0.11277356819E+02  0.41226019179E+01  0.14126677895E+02  0.18540163214E+02  0.51100000000E-03 0.  1.
        -12    1    3    3    0    0  0.32403406761E+01  0.40068277345E+01  0.11311053620E+02  0.12429578037E+02  0.00000000000E+00 0.  1.
</event>
<event>
 7    1  0.2476315E-009  0.4778727E+02  0.7816164E-02  0.1312668E+00
        -11   -1    0    0    0    0  0.00000000000E+00  0.00000000000E+00  0.45593999997E+02  0.45594000000E+02  0.51100000000E-03 0.  1.
         11   -1    0    0    0    0 -0.00000000000E+00 -0.00000000000E+00 -0.45593999997E+02  0.45594000000E+02  0.51100000000E-03 0. -1.
    9900012    2    1    2    0    0  0.28626430586E+02  0.85187665612E+01  0.31489380110E+02  0.47787274528E+02  0.20000015881E+02 0.  0.
         12    1    1    2    0    0 -0.28626430586E+02 -0.85187665612E+01 -0.31489380110E+02  0.43400725472E+02  0.00000000000E+00 0. -1.
         11    1    3    3    0    0  0.42360649022E+01  0.32523737514E+01  0.16493676494E+02  0.17336768599E+02  0.51100000000E-03 0. -1.
        -11    1    3    3    0    0  0.23882144471E+02  0.55477885204E+01  0.16009505152E+02  0.29282059994E+02  0.51100000000E-03 0.  1.
        -12    1    3    3    0    0  0.50822121259E+00 -0.28139571065E+00 -0.10138015369E+01  0.11684459350E+01  0.00000000000E+00 0.  1.
</event>
<event>
 7    1  0.2476315E-009  0.4778727E+02  0.7816164E-02  0.1312668E+00
        -11   -1    0    0    0    0  0.00000000000E+00  0.00000000000E+00  0.45593999997E+02  0.45594000000E+02  0.51100000000E-03 0.  1.
         11   -1    0    0    0    0 -0.00000000000E+00 -0.00000000000E+00 -0.45593999997E+02  0.45594000000E+02  0.51100000000E-03 0. -1.
    9900012    2    1    2    0    0  0.94524321403E+01  0.16603827934E+02  0.38969058024E+02  0.47787273523E+02  0.20000011301E+02 0.  0.
         12    1    1    2    0    0 -0.94524321403E+01 -0.16603827934E+02 -0.38969058024E+02  0.43400726477E+02  0.00000000000E+00 0. -1.
         11    1    3    3    0    0  0.19734082170E+01 -0.62135715802E+00 -0.10889471169E+00  0.20717825726E+01  0.51100000000E-03 0. -1.
        -11    1    3    3    0    0  0.10443452247E+02  0.14638684941E+02  0.37279286459E+02  0.41389636273E+02  0.51100000000E-03 0.  1.
        -12    1    3    3    0    0 -0.29644283233E+01  0.25865001519E+01  0.17986662765E+01  0.43258546779E+01  0.00000000000E+00 0.  1.
</event>
<event>
 7    1  0.2476315E-009  0.4778727E+02  0.7816164E-02  0.1312668E+00
        -11   -1    0    0    0    0  0.00000000000E+00  0.00000000000E+00  0.45593999997E+02  0.45594000000E+02  0.51100000000E-03 0. -1.
         11   -1    0    0    0    0 -0.00000000000E+00 -0.00000000000E+00 -0.45593999997E+02  0.45594000000E+02  0.51100000000E-03 0.  1.
    9900012    2    1    2    0    0 -0.52479719393E+01 -0.78912499638E+01 -0.42353396554E+02  0.47787271491E+02  0.20000002037E+02 0.  0.
         12    1    1    2    0    0  0.52479719393E+01  0.78912499638E+01  0.42353396554E+02  0.43400728509E+02  0.00000000000E+00 0. -1.
         11    1    3    3    0    0 -0.50049718931E+01 -0.12201580969E+01 -0.13407341152E+01  0.53231661313E+01  0.51100000000E-03 0. -1.
        -11    1    3    3    0    0 -0.65665233538E+00 -0.53205456024E+01 -0.40655161036E+02  0.41007091056E+02  0.51100000000E-03 0.  1.
        -12    1    3    3    0    0  0.41365228916E+00 -0.13505462644E+01 -0.35750140292E+00  0.14570143039E+01  0.00000000000E+00 0.  1.
</event>
<event>
 7    1  0.2476315E-009  0.4778727E+02  0.7816164E-02  0.1312668E+00
        -11   -1    0    0    0    0  0.00000000000E+00  0.00000000000E+00  0.45593999997E+02  0.45594000000E+02  0.51100000000E-03 0. -1.
         11   -1    0    0    0    0 -0.00000000000E+00 -0.00000000000E+00 -0.45593999997E+02  0.45594000000E+02  0.51100000000E-03 0.  1.
    9900012    2    1    2    0    0 -0.28778238370E+02  0.16634278836E+02 -0.27905861579E+02  0.47787270207E+02  0.19999996182E+02 0.  0.
         12    1    1    2    0    0  0.28778238370E+02 -0.16634278836E+02  0.27905861579E+02  0.43400729793E+02  0.00000000000E+00 0. -1.
         11    1    3    3    0    0 -0.21074244437E+02  0.33801038871E+01 -0.16860717544E+02  0.27199865390E+02  0.51100000000E-03 0. -1.
        -11    1    3    3    0    0 -0.79603722526E+01  0.11365833027E+02 -0.12098605670E+02  0.18409941505E+02  0.51100000000E-03 0.  1.
         12    1    3    3    0    0  0.25637831901E+00  0.18883419219E+01  0.10534616355E+01  0.21774633118E+01  0.00000000000E+00 0. -1.
</event>
<event>
 7    1  0.2476315E-009  0.4778727E+02  0.7816164E-02  0.1312668E+00
        -11   -1    0    0    0    0  0.00000000000E+00  0.00000000000E+00  0.45593999997E+02  0.45594000000E+02  0.51100000000E-03 0.  1.
         11   -1    0    0    0    0 -0.00000000000E+00 -0.00000000000E+00 -0.45593999997E+02  0.45594000000E+02  0.51100000000E-03 0. -1.
    9900012    2    1    2    0    0 -0.97744423989E+01  0.19494329729E+02  0.37524053906E+02  0.47787271465E+02  0.20000001917E+02 0.  0.
         12    1    1    2    0    0  0.97744423989E+01 -0.19494329729E+02 -0.37524053906E+02  0.43400728535E+02  0.00000000000E+00 0. -1.
         11    1    3    3    0    0 -0.17349247802E+01 -0.43749728670E+00 -0.11297246571E+01  0.21160448792E+01  0.51100000000E-03 0. -1.
        -11    1    3    3    0    0 -0.10512486250E+02  0.18850136925E+02  0.33444946394E+02  0.39804578491E+02  0.51100000000E-03 0.  1.
        -12    1    3    3    0    0  0.24729686313E+01  0.10816900911E+01  0.52088321691E+01  0.58666480950E+01  0.00000000000E+00 0.  1.
</event>
<event>
 7    1  0.2476315E-009  0.4778727E+02  0.7816164E-02  0.1312668E+00
        -11   -1    0    0    0    0  0.00000000000E+00  0.00000000000E+00  0.45593999997E+02  0.45594000000E+02  0.51100000000E-03 0.  1.
         11   -1    0    0    0    0 -0.00000000000E+00 -0.00000000000E+00 -0.45593999997E+02  0.45594000000E+02  0.51100000000E-03 0. -1.
    9900012    2    1    2    0    0 -0.39926653100E+02 -0.38168284315E+01  0.16580640563E+02  0.47787269033E+02  0.19999990827E+02 0.  0.
         12    1    1    2    0    0  0.39926653100E+02  0.38168284315E+01 -0.16580640563E+02  0.43400730967E+02  0.00000000000E+00 0. -1.
         11    1    3    3    0    0 -0.16252032005E+02 -0.79423095449E+01  0.20756406375E+01  0.18207611308E+02  0.51100000000E-03 0. -1.
        -11    1    3    3    0    0 -0.78074282591E+01  0.20681678388E+01  0.10200197656E+02  0.13010660502E+02  0.51100000000E-03 0.  1.
        -12    1    3    3    0    0 -0.15867192835E+02  0.20573132746E+01  0.43048022702E+01  0.16568997223E+02  0.00000000000E+00 0.  1.
</event>
<event>
 7    1  0.2476315E-009  0.4778727E+02  0.7816164E-02  0.1312668E+00
        -11   -1    0    0    0    0  0.00000000000E+00  0.00000000000E+00  0.45593999997E+02  0.45594000000E+02  0.51100000000E-03 0. -1.
         11   -1    0    0    0    0 -0.00000000000E+00 -0.00000000000E+00 -0.45593999997E+02  0.45594000000E+02  0.51100000000E-03 0.  1.
    9900012    2    1    2    0    0  0.27180758708E+02  0.18831817507E+01  0.33782880374E+02  0.47787273925E+02  0.20000013135E+02 0.  0.
         12    1    1    2    0    0 -0.27180758708E+02 -0.18831817507E+01 -0.33782880374E+02  0.43400726075E+02  0.00000000000E+00 0. -1.
         11    1    3    3    0    0  0.15791814016E+02  0.78179229714E+01  0.11606090028E+02  0.21099825485E+02  0.51100000000E-03 0.  1.
        -11    1    3    3    0    0  0.86495938422E+01 -0.33266362067E+01  0.20601979258E+02  0.22590341558E+02  0.51100000000E-03 0. -1.
        -12    1    3    3    0    0  0.27393508498E+01 -0.26081050141E+01  0.15748110876E+01  0.40971068822E+01  0.00000000000E+00 0.  1.
</event>
<event>
 7    1  0.2476315E-009  0.4778727E+02  0.7816164E-02  0.1312668E+00
        -11   -1    0    0    0    0  0.00000000000E+00  0.00000000000E+00  0.45593999997E+02  0.45594000000E+02  0.51100000000E-03 0.  1.
         11   -1    0    0    0    0 -0.00000000000E+00 -0.00000000000E+00 -0.45593999997E+02  0.45594000000E+02  0.51100000000E-03 0. -1.
    9900012    2    1    2    0    0 -0.12104480726E+01  0.13914466190E+02  0.41091921850E+02  0.47787267342E+02  0.19999983119E+02 0.  0.
         12    1    1    2    0    0  0.12104480726E+01 -0.13914466190E+02 -0.41091921850E+02  0.43400732658E+02  0.00000000000E+00 0. -1.
         11    1    3    3    0    0  0.37626579086E+01 -0.27109703083E+01  0.46940409813E+01  0.65985585961E+01  0.51100000000E-03 0. -1.
        -11    1    3    3    0    0 -0.65312554510E+01  0.16334410785E+02  0.32044181606E+02  0.36555435280E+02  0.51100000000E-03 0.  1.
        -12    1    3    3    0    0  0.15581494698E+01  0.29102571334E+00  0.43536992633E+01  0.46332734660E+01  0.00000000000E+00 0.  1.
</event>
<event>
 7    1  0.2476315E-009  0.4778727E+02  0.7816164E-02  0.1312668E+00
        -11   -1    0    0    0    0  0.00000000000E+00  0.00000000000E+00  0.45593999997E+02  0.45594000000E+02  0.51100000000E-03 0.  1.
         11   -1    0    0    0    0 -0.00000000000E+00 -0.00000000000E+00 -0.45593999997E+02  0.45594000000E+02  0.51100000000E-03 0. -1.
    9900012    2    1    2    0    0 -0.28104391723E+02  0.16392772647E+02  0.28723573348E+02  0.47787268496E+02  0.19999988382E+02 0.  0.
         12    1    1    2    0    0  0.28104391723E+02 -0.16392772647E+02 -0.28723573348E+02  0.43400731504E+02  0.00000000000E+00 0. -1.
         11    1    3    3    0    0 -0.13968572783E+01  0.98028313544E+00  0.10190401815E+02  0.10332301520E+02  0.51100000000E-03 0.  1.
        -11    1    3    3    0    0 -0.17978247693E+02  0.12674290591E+02  0.77693756638E+01  0.23328485389E+02  0.51100000000E-03 0. -1.
         12    1    3    3    0    0 -0.87292867514E+01  0.27381989209E+01  0.10763795869E+02  0.14126481587E+02  0.00000000000E+00 0. -1.
</event>
<event>
 7    1  0.2476315E-009  0.4778727E+02  0.7816164E-02  0.1312668E+00
        -11   -1    0    0    0    0  0.00000000000E+00  0.00000000000E+00  0.45593999997E+02  0.45594000000E+02  0.51100000000E-03 0. -1.
         11   -1    0    0    0    0 -0.00000000000E+00 -0.00000000000E+00 -0.45593999997E+02  0.45594000000E+02  0.51100000000E-03 0.  1.
    9900012    2    1    2    0    0  0.31824480904E+02  0.19195204947E+02 -0.22413607944E+02  0.47787270757E+02  0.19999998690E+02 0.  0.
         12    1    1    2    0    0 -0.31824480904E+02 -0.19195204947E+02  0.22413607944E+02  0.43400729243E+02  0.00000000000E+00 0. -1.
         11    1    3    3    0    0  0.52628113967E+01  0.92639623706E+01 -0.87785307829E-02  0.10654494823E+02  0.51100000000E-03 0. -1.
        -11    1    3    3    0    0  0.15988926697E+02  0.21327456731E+01 -0.15127525386E+02  0.22114167531E+02  0.51100000000E-03 0.  1.
         12    1    3    3    0    0  0.10572742811E+02  0.77984969030E+01 -0.72773040272E+01  0.15018608404E+02  0.00000000000E+00 0. -1.
</event>
<event>
 7    1  0.2476315E-009  0.4778728E+02  0.7816164E-02  0.1312668E+00
        -11   -1    0    0    0    0  0.00000000000E+00  0.00000000000E+00  0.45593999997E+02  0.45594000000E+02  0.51100000000E-03 0.  1.
         11   -1    0    0    0    0 -0.00000000000E+00 -0.00000000000E+00 -0.45593999997E+02  0.45594000000E+02  0.51100000000E-03 0. -1.
    9900012    2    1    2    0    0  0.35120604416E+02 -0.71470872469E+01  0.24476208237E+02  0.47787280187E+02  0.20000041684E+02 0.  0.
         12    1    1    2    0    0 -0.35120604416E+02  0.71470872469E+01 -0.24476208237E+02  0.43400719813E+02  0.00000000000E+00 0. -1.
         11    1    3    3    0    0  0.92723012048E+00  0.21518999409E+01  0.39353587102E+01  0.45801176285E+01  0.51100000000E-03 0. -1.
        -11    1    3    3    0    0  0.27839185760E+02 -0.65589686478E+01  0.22062637256E+02  0.36122019551E+02  0.51100000000E-03 0.  1.
        -12    1    3    3    0    0  0.63541885350E+01 -0.27400185400E+01 -0.15217877294E+01  0.70851430071E+01  0.00000000000E+00 0.  1.
</event>
<event>
 7    1  0.2476315E-009  0.4778726E+02  0.7816164E-02  0.1312668E+00
        -11   -1    0    0    0    0  0.00000000000E+00  0.00000000000E+00  0.45593999997E+02  0.45594000000E+02  0.51100000000E-03 0.  1.
         11   -1    0    0    0    0 -0.00000000000E+00 -0.00000000000E+00 -0.45593999997E+02  0.45594000000E+02  0.51100000000E-03 0. -1.
    9900012    2    1    2    0    0 -0.10900004877E+02 -0.22554474667E+02  0.35441635613E+02  0.47787263039E+02  0.19999963501E+02 0.  0.
         12    1    1    2    0    0  0.10900004877E+02  0.22554474667E+02 -0.35441635613E+02  0.43400736961E+02  0.00000000000E+00 0. -1.
         11    1    3    3    0    0 -0.38708885620E+01 -0.10975426340E+01  0.29415553882E+01  0.49840873243E+01  0.51100000000E-03 0. -1.
        -11    1    3    3    0    0 -0.10444046202E+02 -0.15135633896E+02  0.14487425724E+02  0.23410489505E+02  0.51100000000E-03 0.  1.
        -12    1    3    3    0    0  0.34149298872E+01 -0.63212981369E+01  0.18012654501E+02  0.19392686210E+02  0.00000000000E+00 0.  1.
</event>
<event>
 7    1  0.2476315E-009  0.4778727E+02  0.7816164E-02  0.1312668E+00
        -11   -1    0    0    0    0  0.00000000000E+00  0.00000000000E+00  0.45593999997E+02  0.45594000000E+02  0.51100000000E-03 0. -1.
         11   -1    0    0    0    0 -0.00000000000E+00 -0.00000000000E+00 -0.45593999997E+02  0.45594000000E+02  0.51100000000E-03 0.  1.
    9900012    2    1    2    0    0  0.20115823159E+01  0.18458655962E+02 -0.39228241001E+02  0.47787270336E+02  0.19999996771E+02 0.  0.
         12    1    1    2    0    0 -0.20115823159E+01 -0.18458655962E+02  0.39228241001E+02  0.43400729664E+02  0.00000000000E+00 0. -1.
         11    1    3    3    0    0  0.50677046387E+01  0.38721909645E+01 -0.26061335204E+02  0.26830368728E+02  0.51100000000E-03 0.  1.
        -11    1    3    3    0    0  0.16562669592E+00  0.11752715339E+02 -0.78932888244E+01  0.14158310590E+02  0.51100000000E-03 0. -1.
        -12    1    3    3    0    0 -0.32217490187E+01  0.28337496584E+01 -0.52736169720E+01  0.67985910182E+01  0.00000000000E+00 0.  1.
</event>
<event>
 7    1  0.2476315E-009  0.4778727E+02  0.7816164E-02  0.1312668E+00
        -11   -1    0    0    0    0  0.00000000000E+00  0.00000000000E+00  0.45593999997E+02  0.45594000000E+02  0.51100000000E-03 0.  1.
         11   -1    0    0    0    0 -0.00000000000E+00 -0.00000000000E+00 -0.45593999997E+02  0.45594000000E+02  0.51100000000E-03 0. -1.
    9900012    2    1    2    0    0  0.21581415323E+02  0.37424854741E+02  0.41528286407E+01  0.47787271602E+02  0.20000002544E+02 0.  0.
         12    1    1    2    0    0 -0.21581415323E+02 -0.37424854741E+02 -0.41528286407E+01  0.43400728398E+02  0.00000000000E+00 0. -1.
         11    1    3    3    0    0  0.14935070819E+02  0.93976269491E+01  0.36494544285E+01  0.18019163425E+02  0.51100000000E-03 0. -1.
        -11    1    3    3    0    0  0.82765698016E+01  0.21719848124E+02  0.14906731785E+00  0.23243829967E+02  0.51100000000E-03 0.  1.
         12    1    3    3    0    0 -0.16302252974E+01  0.63073796679E+01  0.35430689434E+00  0.65242782107E+01  0.00000000000E+00 0. -1.
</event>
<event>
 7    1  0.2476315E-009  0.4778727E+02  0.7816164E-02  0.1312668E+00
        -11   -1    0    0    0    0  0.00000000000E+00  0.00000000000E+00  0.45593999997E+02  0.45594000000E+02  0.51100000000E-03 0.  1.
         11   -1    0    0    0    0 -0.00000000000E+00 -0.00000000000E+00 -0.45593999997E+02  0.45594000000E+02  0.51100000000E-03 0. -1.
    9900012    2    1    2    0    0 -0.23491591558E+02  0.36278230813E+02 -0.39570385866E+01  0.47787273517E+02  0.20000011274E+02 0.  0.
         12    1    1    2    0    0  0.23491591558E+02 -0.36278230813E+02  0.39570385866E+01  0.43400726483E+02  0.00000000000E+00 0. -1.
         11    1    3    3    0    0  0.43568743281E+00  0.28906338333E+01  0.42104499186E+01  0.51257659208E+01  0.51100000000E-03 0. -1.
        -11    1    3    3    0    0 -0.58388164482E+01  0.33633768754E+01 -0.34429730091E+00  0.67470454582E+01  0.51100000000E-03 0.  1.
         12    1    3    3    0    0 -0.18088462543E+02  0.30024220105E+02 -0.78231912043E+01  0.35914462138E+02  0.00000000000E+00 0. -1.
</event>
<event>
 7    1  0.2476315E-009  0.4778727E+02  0.7816164E-02  0.1312668E+00
        -11   -1    0    0    0    0  0.00000000000E+00  0.00000000000E+00  0.45593999997E+02  0.45594000000E+02  0.51100000000E-03 0.  1.
         11   -1    0    0    0    0 -0.00000000000E+00 -0.00000000000E+00 -0.45593999997E+02  0.45594000000E+02  0.51100000000E-03 0. -1.
    9900012    2    1    2    0    0 -0.22617165883E+02  0.80006338473E+01  0.36167345346E+02  0.47787271850E+02  0.20000003674E+02 0.  0.
         12    1    1    2    0    0  0.22617165883E+02 -0.80006338473E+01 -0.36167345346E+02  0.43400728150E+02  0.00000000000E+00 0. -1.
         11    1    3    3    0    0 -0.15219302744E+01  0.60303786036E+01  0.81427809959E+01  0.10246297891E+02  0.51100000000E-03 0. -1.
        -11    1    3    3    0    0 -0.17475008549E+02 -0.13921800655E+01  0.13285685974E+02  0.21995989206E+02  0.51100000000E-03 0.  1.
        -12    1    3    3    0    0 -0.36202270601E+01  0.33624353092E+01  0.14738878376E+02  0.15544984753E+02  0.00000000000E+00 0.  1.
</event>
<event>
 7    1  0.2476315E-009  0.4778728E+02  0.7816164E-02  0.1312668E+00
        -11   -1    0    0    0    0  0.00000000000E+00  0.00000000000E+00  0.45593999997E+02  0.45594000000E+02  0.51100000000E-03 0. -1.
         11   -1    0    0    0    0 -0.00000000000E+00 -0.00000000000E+00 -0.45593999997E+02  0.45594000000E+02  0.51100000000E-03 0.  1.
    9900012    2    1    2    0    0 -0.30990556796E+02 -0.76464876356E+01  0.29406441506E+02  0.47787283581E+02  0.20000057159E+02 0.  0.
         12    1    1    2    0    0  0.30990556796E+02  0.76464876356E+01 -0.29406441506E+02  0.43400716419E+02  0.00000000000E+00 0. -1.
         11    1    3    3    0    0 -0.10159955283E+01 -0.43240882122E+01  0.30670397918E+01  0.53978439331E+01  0.51100000000E-03 0.  1.
        -11    1    3    3    0    0 -0.22910423379E+02 -0.73950941434E+01  0.23790756786E+02  0.33846344345E+02  0.51100000000E-03 0. -1.
        -12    1    3    3    0    0 -0.70641378880E+01  0.40726947200E+01  0.25486449278E+01  0.85430953027E+01  0.00000000000E+00 0.  1.
</event>
<event>
 7    1  0.2476315E-009  0.4778727E+02  0.7816164E-02  0.1312668E+00
        -11   -1    0    0    0    0  0.00000000000E+00  0.00000000000E+00  0.45593999997E+02  0.45594000000E+02  0.51100000000E-03 0.  1.
         11   -1    0    0    0    0 -0.00000000000E+00 -0.00000000000E+00 -0.45593999997E+02  0.45594000000E+02  0.51100000000E-03 0. -1.
    9900012    2    1    2    0    0 -0.17008140795E+02 -0.17816397253E+02  0.35734050589E+02  0.47787271482E+02  0.20000001993E+02 0.  0.
         12    1    1    2    0    0  0.17008140795E+02  0.17816397253E+02 -0.35734050589E+02  0.43400728518E+02  0.00000000000E+00 0. -1.
         11    1    3    3    0    0 -0.99621934476E+00 -0.53405965019E+01 -0.11592576419E+00  0.54339546394E+01  0.51100000000E-03 0. -1.
        -11    1    3    3    0    0 -0.14303085274E+02 -0.54415279382E+01  0.24911989610E+02  0.29236889390E+02  0.51100000000E-03 0.  1.
        -12    1    3    3    0    0 -0.17088361768E+01 -0.70342728132E+01  0.10937986744E+02  0.13116427452E+02  0.00000000000E+00 0.  1.
</event>
<event>
 7    1  0.2476315E-009  0.4778729E+02  0.7816164E-02  0.1312668E+00
        -11   -1    0    0    0    0  0.00000000000E+00  0.00000000000E+00  0.45593999997E+02  0.45594000000E+02  0.51100000000E-03 0.  1.
         11   -1    0    0    0    0 -0.00000000000E+00 -0.00000000000E+00 -0.45593999997E+02  0.45594000000E+02  0.51100000000E-03 0. -1.
    9900012    2    1    2    0    0 -0.51694504457E+01  0.40793456129E+02 -0.13884978263E+02  0.47787286847E+02  0.20000072048E+02 0.  0.
         12    1    1    2    0    0  0.51694504457E+01 -0.40793456129E+02  0.13884978263E+02  0.43400713153E+02  0.00000000000E+00 0. -1.
         11    1    3    3    0    0 -0.99536605972E+01  0.19173247707E+02 -0.13614661375E+02  0.25535226483E+02  0.51100000000E-03 0. -1.
        -11    1    3    3    0    0  0.38206405688E+01  0.12724781653E+02  0.26465192576E+00  0.13288619318E+02  0.51100000000E-03 0.  1.
         12    1    3    3    0    0  0.96356958271E+00  0.88954267696E+01 -0.53496881327E+00  0.89634410461E+01  0.00000000000E+00 0. -1.
</event>
<event>
 7    1  0.2476315E-009  0.4778728E+02  0.7816164E-02  0.1312668E+00
        -11   -1    0    0    0    0  0.00000000000E+00  0.00000000000E+00  0.45593999997E+02  0.45594000000E+02  0.51100000000E-03 0.  1.
         11   -1    0    0    0    0 -0.00000000000E+00 -0.00000000000E+00 -0.45593999997E+02  0.45594000000E+02  0.51100000000E-03 0. -1.
    9900012    2    1    2    0    0  0.23873239297E+02 -0.26187616566E+02  0.25057933083E+02  0.47787276201E+02  0.20000023509E+02 0.  0.
         12    1    1    2    0    0 -0.23873239297E+02  0.26187616566E+02 -0.25057933083E+02  0.43400723799E+02  0.00000000000E+00 0. -1.
         11    1    3    3    0    0  0.31205417713E+01  0.74040364042E+00 -0.18974546250E+01  0.37264343295E+01  0.51100000000E-03 0. -1.
        -11    1    3    3    0    0  0.79466747082E+01 -0.12903065800E+02  0.16413771557E+02  0.22339441420E+02  0.51100000000E-03 0.  1.
         12    1    3    3    0    0  0.12806022818E+02 -0.14024954406E+02  0.10541616151E+02  0.21721400451E+02  0.00000000000E+00 0. -1.
</event>
<event>
 7    1  0.2476315E-009  0.4778727E+02  0.7816164E-02  0.1312668E+00
        -11   -1    0    0    0    0  0.00000000000E+00  0.00000000000E+00  0.45593999997E+02  0.45594000000E+02  0.51100000000E-03 0.  1.
         11   -1    0    0    0    0 -0.00000000000E+00 -0.00000000000E+00 -0.45593999997E+02  0.45594000000E+02  0.51100000000E-03 0. -1.
    9900012    2    1    2    0    0 -0.14149531052E+02  0.40669002898E+02  0.54264716177E+01  0.47787267058E+02  0.19999981824E+02 0.  0.
         12    1    1    2    0    0  0.14149531052E+02 -0.40669002898E+02 -0.54264716177E+01  0.43400732942E+02  0.00000000000E+00 0. -1.
         11    1    3    3    0    0 -0.67681580257E+01  0.42050862750E+01 -0.10344412289E+01  0.80349724678E+01  0.51100000000E-03 0.  1.
        -11    1    3    3    0    0 -0.20617226879E+01  0.25598361427E+02  0.93217955543E+01  0.27320737194E+02  0.51100000000E-03 0. -1.
        -12    1    3    3    0    0 -0.53196503382E+01  0.10865555195E+02 -0.28608827078E+01  0.12431557396E+02  0.00000000000E+00 0.  1.
</event>
<event>
 7    1  0.2476315E-009  0.4778727E+02  0.7816164E-02  0.1312668E+00
        -11   -1    0    0    0    0  0.00000000000E+00  0.00000000000E+00  0.45593999997E+02  0.45594000000E+02  0.51100000000E-03 0.  1.
         11   -1    0    0    0    0 -0.00000000000E+00 -0.00000000000E+00 -0.45593999997E+02  0.45594000000E+02  0.51100000000E-03 0. -1.
    9900012    2    1    2    0    0  0.22906452610E+02 -0.32612207300E+02  0.17186088584E+02  0.47787271009E+02  0.19999999838E+02 0.  0.
         12    1    1    2    0    0 -0.22906452610E+02  0.32612207300E+02 -0.17186088584E+02  0.43400728991E+02  0.00000000000E+00 0. -1.
         11    1    3    3    0    0  0.81258707027E+00 -0.51451881475E+01 -0.48868573800E+00  0.52318326456E+01  0.51100000000E-03 0. -1.
        -11    1    3    3    0    0  0.16663304586E+02 -0.26140002851E+02  0.90788433502E+01  0.32301561349E+02  0.51100000000E-03 0.  1.
        -12    1    3    3    0    0  0.54305609536E+01 -0.13270163013E+01  0.85959309722E+01  0.10253877014E+02  0.00000000000E+00 0.  1.
</event>
<event>
 7    1  0.2476315E-009  0.4778726E+02  0.7816164E-02  0.1312668E+00
        -11   -1    0    0    0    0  0.00000000000E+00  0.00000000000E+00  0.45593999997E+02  0.45594000000E+02  0.51100000000E-03 0.  1.
         11   -1    0    0    0    0 -0.00000000000E+00 -0.00000000000E+00 -0.45593999997E+02  0.45594000000E+02  0.51100000000E-03 0. -1.
    9900012    2    1    2    0    0  0.29516099934E+01  0.41182032207E+02  0.13377295628E+02  0.47787264792E+02  0.19999971492E+02 0.  0.
         12    1    1    2    0    0 -0.29516099934E+01 -0.41182032207E+02 -0.13377295628E+02  0.43400735208E+02  0.00000000000E+00 0. -1.
         11    1    3    3    0    0  0.56469691342E+01  0.35115479916E+02  0.11924279201E+02  0.37512312977E+02  0.51100000000E-03 0.  1.
        -11    1    3    3    0    0 -0.19997648284E+01 -0.45178179730E+00 -0.20014264732E+01  0.28651133224E+01  0.51100000000E-03 0. -1.
         12    1    3    3    0    0 -0.69559431246E+00  0.65183340884E+01  0.34544429002E+01  0.74098384925E+01  0.00000000000E+00 0. -1.
</event>
<event>
 7    1  0.2476315E-009  0.4778727E+02  0.7816164E-02  0.1312668E+00
        -11   -1    0    0    0    0  0.00000000000E+00  0.00000000000E+00  0.45593999997E+02  0.45594000000E+02  0.51100000000E-03 0. -1.
         11   -1    0    0    0    0 -0.00000000000E+00 -0.00000000000E+00 -0.45593999997E+02  0.45594000000E+02  0.51100000000E-03 0.  1.
    9900012    2    1    2    0    0 -0.27640622153E+01 -0.33169773901E+02 -0.27852278000E+02  0.47787270394E+02  0.19999997033E+02 0.  0.
         12    1    1    2    0    0  0.27640622153E+01  0.33169773901E+02  0.27852278000E+02  0.43400729606E+02  0.00000000000E+00 0. -1.
         11    1    3    3    0    0  0.17832811889E+00 -0.23360344031E+02 -0.23072093705E+02  0.32833808527E+02  0.51100000000E-03 0. -1.
        -11    1    3    3    0    0 -0.26327070048E+01  0.11404656974E+01 -0.24070209896E+01  0.37450712257E+01  0.51100000000E-03 0.  1.
         12    1    3    3    0    0 -0.30968332943E+00 -0.10949895567E+02 -0.23731633058E+01  0.11208390641E+02  0.00000000000E+00 0. -1.
</event>
<event>
 7    1  0.2476315E-009  0.4778727E+02  0.7816164E-02  0.1312668E+00
        -11   -1    0    0    0    0  0.00000000000E+00  0.00000000000E+00  0.45593999997E+02  0.45594000000E+02  0.51100000000E-03 0. -1.
         11   -1    0    0    0    0 -0.00000000000E+00 -0.00000000000E+00 -0.45593999997E+02  0.45594000000E+02  0.51100000000E-03 0.  1.
    9900012    2    1    2    0    0 -0.30373293450E+02 -0.30866837880E+02 -0.28852629854E+01  0.47787269843E+02  0.19999994522E+02 0.  0.
         12    1    1    2    0    0  0.30373293450E+02  0.30866837880E+02  0.28852629854E+01  0.43400730157E+02  0.00000000000E+00 0. -1.
         11    1    3    3    0    0 -0.13874226094E+01  0.74440897158E+00  0.25265656570E+01  0.29770153668E+01  0.51100000000E-03 0. -1.
        -11    1    3    3    0    0 -0.12803665181E+02 -0.20695423403E+02 -0.67203643339E+01  0.25246736204E+02  0.51100000000E-03 0.  1.
        -12    1    3    3    0    0 -0.16182205659E+02 -0.10915823448E+02  0.13085356916E+01  0.19563518273E+02  0.00000000000E+00 0.  1.
</event>
<event>
 7    1  0.2476315E-009  0.4778727E+02  0.7816164E-02  0.1312668E+00
        -11   -1    0    0    0    0  0.00000000000E+00  0.00000000000E+00  0.45593999997E+02  0.45594000000E+02  0.51100000000E-03 0.  1.
         11   -1    0    0    0    0 -0.00000000000E+00 -0.00000000000E+00 -0.45593999997E+02  0.45594000000E+02  0.51100000000E-03 0. -1.
    9900012    2    1    2    0    0 -0.89954134980E+01 -0.35115275081E+02  0.23866787676E+02  0.47787267725E+02  0.19999984866E+02 0.  0.
         12    1    1    2    0    0  0.89954134980E+01  0.35115275081E+02 -0.23866787676E+02  0.43400732275E+02  0.00000000000E+00 0. -1.
         11    1    3    3    0    0 -0.34001249097E+01  0.92166154319E+00  0.43622671339E+00  0.35497328644E+01  0.51100000000E-03 0. -1.
        -11    1    3    3    0    0 -0.59277069372E+01 -0.17928312168E+02  0.15650720695E+02  0.24525642606E+02  0.51100000000E-03 0.  1.
         12    1    3    3    0    0  0.33241834888E+00 -0.18108624456E+02  0.77798402678E+01  0.19711892254E+02  0.00000000000E+00 0. -1.
</event>
<event>
 7    1  0.2476315E-009  0.4778727E+02  0.7816164E-02  0.1312668E+00
        -11   -1    0    0    0    0  0.00000000000E+00  0.00000000000E+00  0.45593999997E+02  0.45594000000E+02  0.51100000000E-03 0.  1.
         11   -1    0    0    0    0 -0.00000000000E+00 -0.00000000000E+00 -0.45593999997E+02  0.45594000000E+02  0.51100000000E-03 0. -1.
    9900012    2    1    2    0    0 -0.15673382003E+02  0.25481850654E+02  0.31442699739E+02  0.47787274395E+02  0.20000015277E+02 0.  0.
         12    1    1    2    0    0  0.15673382003E+02 -0.25481850654E+02 -0.31442699739E+02  0.43400725605E+02  0.00000000000E+00 0. -1.
         11    1    3    3    0    0 -0.70600359495E+00 -0.71119526629E+00  0.23188047118E+01  0.25260830025E+01  0.51100000000E-03 0. -1.
        -11    1    3    3    0    0 -0.83843577267E+01  0.88635510933E+01  0.19339738087E+01  0.12353147268E+02  0.51100000000E-03 0.  1.
        -12    1    3    3    0    0 -0.65830206815E+01  0.17329494826E+02  0.27189921219E+02  0.32908044125E+02  0.00000000000E+00 0.  1.
</event>
<event>
 7    1  0.2476315E-009  0.4778727E+02  0.7816164E-02  0.1312668E+00
        -11   -1    0    0    0    0  0.00000000000E+00  0.00000000000E+00  0.45593999997E+02  0.45594000000E+02  0.51100000000E-03 0.  1.
         11   -1    0    0    0    0 -0.00000000000E+00 -0.00000000000E+00 -0.45593999997E+02  0.45594000000E+02  0.51100000000E-03 0. -1.
    9900012    2    1    2    0    0 -0.33528844754E+02 -0.13774418209E+02  0.23868501375E+02  0.47787269759E+02  0.19999994140E+02 0.  0.
         12    1    1    2    0    0  0.33528844754E+02  0.13774418209E+02 -0.23868501375E+02  0.43400730241E+02  0.00000000000E+00 0. -1.
         11    1    3    3    0    0 -0.59811625363E+00 -0.17633667204E-03  0.40788261708E+01  0.41224466373E+01  0.51100000000E-03 0. -1.
        -11    1    3    3    0    0 -0.32720147100E+02 -0.15860422667E+02  0.16906326528E+02  0.40099687161E+02  0.51100000000E-03 0.  1.
        -12    1    3    3    0    0 -0.21058140006E+00  0.20861807946E+01  0.28833486760E+01  0.35651359611E+01  0.00000000000E+00 0.  1.
</event>
<event>
 7    1  0.2476315E-009  0.4778727E+02  0.7816164E-02  0.1312668E+00
        -11   -1    0    0    0    0  0.00000000000E+00  0.00000000000E+00  0.45593999997E+02  0.45594000000E+02  0.51100000000E-03 0. -1.
         11   -1    0    0    0    0 -0.00000000000E+00 -0.00000000000E+00 -0.45593999997E+02  0.45594000000E+02  0.51100000000E-03 0.  1.
    9900012    2    1    2    0    0 -0.14300389105E+02  0.24948013696E+02 -0.32507209024E+02  0.47787272420E+02  0.20000006273E+02 0.  0.
         12    1    1    2    0    0  0.14300389105E+02 -0.24948013696E+02  0.32507209024E+02  0.43400727580E+02  0.00000000000E+00 0. -1.
         11    1    3    3    0    0 -0.23224898373E+00  0.34621031297E+01 -0.10857994906E+02  0.11398953957E+02  0.51100000000E-03 0. -1.
        -11    1    3    3    0    0 -0.11219559203E+02  0.14986203982E+02 -0.67767571248E+01  0.19909526762E+02  0.51100000000E-03 0.  1.
        -12    1    3    3    0    0 -0.28485809182E+01  0.64997065850E+01 -0.14872456992E+02  0.16478791701E+02  0.00000000000E+00 0.  1.
</event>
<event>
 7    1  0.2476315E-009  0.4778727E+02  0.7816164E-02  0.1312668E+00
        -11   -1    0    0    0    0  0.00000000000E+00  0.00000000000E+00  0.45593999997E+02  0.45594000000E+02  0.51100000000E-03 0. -1.
         11   -1    0    0    0    0 -0.00000000000E+00 -0.00000000000E+00 -0.45593999997E+02  0.45594000000E+02  0.51100000000E-03 0.  1.
    9900012    2    1    2    0    0 -0.11609088708E+02 -0.40811774516E+02  0.91242247619E+01  0.47787270084E+02  0.19999995621E+02 0.  0.
         12    1    1    2    0    0  0.11609088708E+02  0.40811774516E+02 -0.91242247619E+01  0.43400729916E+02  0.00000000000E+00 0. -1.
         11    1    3    3    0    0  0.23046664092E+01 -0.46232872587E+01 -0.20108506796E+01  0.55434459546E+01  0.51100000000E-03 0. -1.
        -11    1    3    3    0    0 -0.13013798276E+02 -0.21334357359E+02  0.26937836028E+01  0.25135039683E+02  0.51100000000E-03 0.  1.
        -12    1    3    3    0    0 -0.89995684119E+00 -0.14854129898E+02  0.84412918388E+01  0.17108784447E+02  0.00000000000E+00 0.  1.
</event>
<event>
 7    1  0.2476315E-009  0.4778727E+02  0.7816164E-02  0.1312668E+00
        -11   -1    0    0    0    0  0.00000000000E+00  0.00000000000E+00  0.45593999997E+02  0.45594000000E+02  0.51100000000E-03 0. -1.
         11   -1    0    0    0    0 -0.00000000000E+00 -0.00000000000E+00 -0.45593999997E+02  0.45594000000E+02  0.51100000000E-03 0.  1.
    9900012    2    1    2    0    0 -0.23116090006E+02  0.19878465635E+02 -0.30888771437E+02  0.47787271734E+02  0.20000003143E+02 0.  0.
         12    1    1    2    0    0  0.23116090006E+02 -0.19878465635E+02  0.30888771437E+02  0.43400728266E+02  0.00000000000E+00 0. -1.
         11    1    3    3    0    0  0.50325994045E+00  0.99681018023E+00  0.26134063375E+00  0.11468218218E+01  0.51100000000E-03 0. -1.
        -11    1    3    3    0    0 -0.76762761638E+01  0.15375510862E+02 -0.98616556309E+01  0.19813727616E+02  0.51100000000E-03 0.  1.
        -12    1    3    3    0    0 -0.15943073783E+02  0.35061445930E+01 -0.21288456440E+02  0.26826722296E+02  0.00000000000E+00 0.  1.
</event>
<event>
 7    1  0.2476315E-009  0.4778728E+02  0.7816164E-02  0.1312668E+00
        -11   -1    0    0    0    0  0.00000000000E+00  0.00000000000E+00  0.45593999997E+02  0.45594000000E+02  0.51100000000E-03 0.  1.
         11   -1    0    0    0    0 -0.00000000000E+00 -0.00000000000E+00 -0.45593999997E+02  0.45594000000E+02  0.51100000000E-03 0. -1.
    9900012    2    1    2    0    0 -0.21611277049E+02  0.76308891388E+01  0.36855728757E+02  0.47787279880E+02  0.20000040286E+02 0.  0.
         12    1    1    2    0    0  0.21611277049E+02 -0.76308891388E+01 -0.36855728757E+02  0.43400720120E+02  0.00000000000E+00 0. -1.
         11    1    3    3    0    0 -0.12896466097E+02  0.74678299225E+01  0.30910124999E+02  0.34315057180E+02  0.51100000000E-03 0. -1.
        -11    1    3    3    0    0 -0.36892375493E+01  0.41392957545E+01  0.37684913854E+01  0.67041606948E+01  0.51100000000E-03 0.  1.
         12    1    3    3    0    0 -0.50255734026E+01 -0.39762365381E+01  0.21771123724E+01  0.67680620058E+01  0.00000000000E+00 0. -1.
</event>
<event>
 7    1  0.2476315E-009  0.4778727E+02  0.7816164E-02  0.1312668E+00
        -11   -1    0    0    0    0  0.00000000000E+00  0.00000000000E+00  0.45593999997E+02  0.45594000000E+02  0.51100000000E-03 0.  1.
         11   -1    0    0    0    0 -0.00000000000E+00 -0.00000000000E+00 -0.45593999997E+02  0.45594000000E+02  0.51100000000E-03 0. -1.
    9900012    2    1    2    0    0  0.43021120434E+02 -0.36640548606E+01  0.44023846848E+01  0.47787273136E+02  0.20000009535E+02 0.  0.
         12    1    1    2    0    0 -0.43021120434E+02  0.36640548606E+01 -0.44023846848E+01  0.43400726864E+02  0.00000000000E+00 0. -1.
         11    1    3    3    0    0  0.31545916772E+01 -0.34197356986E+01  0.91354160686E-01  0.46534274188E+01  0.51100000000E-03 0. -1.
        -11    1    3    3    0    0  0.91126707368E+01  0.18682797135E+01 -0.54720800360E+01  0.10792353646E+02  0.51100000000E-03 0.  1.
        -12    1    3    3    0    0  0.30753858020E+02 -0.21125988754E+01  0.97831105601E+01  0.32341492071E+02  0.00000000000E+00 0.  1.
</event>
<event>
 7    1  0.2476315E-009  0.4778727E+02  0.7816164E-02  0.1312668E+00
        -11   -1    0    0    0    0  0.00000000000E+00  0.00000000000E+00  0.45593999997E+02  0.45594000000E+02  0.51100000000E-03 0.  1.
         11   -1    0    0    0    0 -0.00000000000E+00 -0.00000000000E+00 -0.45593999997E+02  0.45594000000E+02  0.51100000000E-03 0. -1.
    9900012    2    1    2    0    0  0.21976432940E+02 -0.14250049582E+02  0.34606298320E+02  0.47787269577E+02  0.19999993307E+02 0.  0.
         12    1    1    2    0    0 -0.21976432940E+02  0.14250049582E+02 -0.34606298320E+02  0.43400730423E+02  0.00000000000E+00 0. -1.
         11    1    3    3    0    0  0.56604351078E+01 -0.11118896329E+02  0.11576210417E+02  0.17019959726E+02  0.51100000000E-03 0. -1.
        -11    1    3    3    0    0  0.88262201708E+01  0.43290257319E+01  0.11052688623E+02  0.14792043549E+02  0.51100000000E-03 0.  1.
         12    1    3    3    0    0  0.74897776618E+01 -0.74601789848E+01  0.11977399280E+02  0.15975266302E+02  0.00000000000E+00 0. -1.
</event>
<event>
 7    1  0.2476315E-009  0.4778727E+02  0.7816164E-02  0.1312668E+00
        -11   -1    0    0    0    0  0.00000000000E+00  0.00000000000E+00  0.45593999997E+02  0.45594000000E+02  0.51100000000E-03 0. -1.
         11   -1    0    0    0    0 -0.00000000000E+00 -0.00000000000E+00 -0.45593999997E+02  0.45594000000E+02  0.51100000000E-03 0.  1.
    9900012    2    1    2    0    0  0.41939927386E+02  0.83544972472E+01  0.74072925292E+01  0.47787272863E+02  0.20000008291E+02 0.  0.
         12    1    1    2    0    0 -0.41939927386E+02 -0.83544972472E+01 -0.74072925292E+01  0.43400727137E+02  0.00000000000E+00 0. -1.
         11    1    3    3    0    0  0.75200113768E+01  0.13502704637E+01 -0.52016731093E+01  0.92429002390E+01  0.51100000000E-03 0. -1.
        -11    1    3    3    0    0  0.19972041781E+02  0.18669490726E+01  0.11612560913E+02  0.23177996526E+02  0.51100000000E-03 0.  1.
        -12    1    3    3    0    0  0.14447874229E+02  0.51372777109E+01  0.99640472545E+00  0.15366376098E+02  0.00000000000E+00 0.  1.
</event>
<event>
 7    1  0.2476315E-009  0.4778728E+02  0.7816164E-02  0.1312668E+00
        -11   -1    0    0    0    0  0.00000000000E+00  0.00000000000E+00  0.45593999997E+02  0.45594000000E+02  0.51100000000E-03 0.  1.
         11   -1    0    0    0    0 -0.00000000000E+00 -0.00000000000E+00 -0.45593999997E+02  0.45594000000E+02  0.51100000000E-03 0. -1.
    9900012    2    1    2    0    0  0.95335238986E+01  0.19581177390E+02  0.37540808834E+02  0.47787275193E+02  0.20000018913E+02 0.  0.
         12    1    1    2    0    0 -0.95335238986E+01 -0.19581177390E+02 -0.37540808834E+02  0.43400724807E+02  0.00000000000E+00 0. -1.
         11    1    3    3    0    0  0.59435806653E+01  0.14939980768E+02  0.21795643904E+02  0.27084668541E+02  0.51100000000E-03 0. -1.
        -11    1    3    3    0    0 -0.26815375036E+00  0.81280215667E+01  0.82903058863E+01  0.11613174113E+02  0.51100000000E-03 0.  1.
         12    1    3    3    0    0  0.38580969837E+01 -0.34868249450E+01  0.74548590433E+01  0.90894325394E+01  0.00000000000E+00 0. -1.
</event>
<event>
 7    1  0.2476315E-009  0.4778727E+02  0.7816164E-02  0.1312668E+00
        -11   -1    0    0    0    0  0.00000000000E+00  0.00000000000E+00  0.45593999997E+02  0.45594000000E+02  0.51100000000E-03 0.  1.
         11   -1    0    0    0    0 -0.00000000000E+00 -0.00000000000E+00 -0.45593999997E+02  0.45594000000E+02  0.51100000000E-03 0. -1.
    9900012    2    1    2    0    0  0.42542892757E+02 -0.23175863057E+01 -0.82676607082E+01  0.47787272541E+02  0.20000006822E+02 0.  0.
         12    1    1    2    0    0 -0.42542892757E+02  0.23175863057E+01  0.82676607082E+01  0.43400727459E+02  0.00000000000E+00 0. -1.
         11    1    3    3    0    0  0.12639188934E+02 -0.78421043639E+01 -0.72220310542E+01  0.16534975978E+02  0.51100000000E-03 0. -1.
        -11    1    3    3    0    0  0.12804830673E+02  0.30586197885E+01  0.30146328791E+01  0.13505808204E+02  0.51100000000E-03 0.  1.
         12    1    3    3    0    0  0.17098873150E+02  0.24658982697E+01 -0.40602625330E+01  0.17746488360E+02  0.00000000000E+00 0. -1.
</event>
<event>
 7    1  0.2476315E-009  0.4778727E+02  0.7816164E-02  0.1312668E+00
        -11   -1    0    0    0    0  0.00000000000E+00  0.00000000000E+00  0.45593999997E+02  0.45594000000E+02  0.51100000000E-03 0.  1.
         11   -1    0    0    0    0 -0.00000000000E+00 -0.00000000000E+00 -0.45593999997E+02  0.45594000000E+02  0.51100000000E-03 0. -1.
    9900012    2    1    2    0    0 -0.34116384155E+02 -0.17389422874E+02  0.20428011050E+02  0.47787270384E+02  0.19999996991E+02 0.  0.
         12    1    1    2    0    0  0.34116384155E+02  0.17389422874E+02 -0.20428011050E+02  0.43400729616E+02  0.00000000000E+00 0. -1.
         11    1    3    3    0    0 -0.83275656723E+00 -0.26890933229E+01  0.23252520648E-01  0.28151815822E+01  0.51100000000E-03 0. -1.
        -11    1    3    3    0    0 -0.23625061847E+02 -0.14789426296E+02  0.75202550602E+01  0.28869099637E+02  0.51100000000E-03 0.  1.
        -12    1    3    3    0    0 -0.96585657404E+01  0.89096744834E-01  0.12884503469E+02  0.16102989165E+02  0.00000000000E+00 0.  1.
</event>
<event>
 7    1  0.2476315E-009  0.4778727E+02  0.7816164E-02  0.1312668E+00
        -11   -1    0    0    0    0  0.00000000000E+00  0.00000000000E+00  0.45593999997E+02  0.45594000000E+02  0.51100000000E-03 0.  1.
         11   -1    0    0    0    0 -0.00000000000E+00 -0.00000000000E+00 -0.45593999997E+02  0.45594000000E+02  0.51100000000E-03 0. -1.
    9900012    2    1    2    0    0  0.74945731994E+01 -0.39046511913E+02  0.17401856567E+02  0.47787270375E+02  0.19999996947E+02 0.  0.
         12    1    1    2    0    0 -0.74945731994E+01  0.39046511913E+02 -0.17401856567E+02  0.43400729625E+02  0.00000000000E+00 0. -1.
         11    1    3    3    0    0 -0.16858915086E+01 -0.57044618346E+00  0.48899726849E+01  0.52037940147E+01  0.51100000000E-03 0. -1.
        -11    1    3    3    0    0  0.10448635844E+02 -0.31563616583E+02  0.12598840369E+02  0.35555121455E+02  0.51100000000E-03 0.  1.
         12    1    3    3    0    0 -0.12681711356E+01 -0.69124491472E+01 -0.86956487585E-01  0.70283549051E+01  0.00000000000E+00 0. -1.
</event>
<event>
 7    1  0.2476315E-009  0.4778727E+02  0.7816164E-02  0.1312668E+00
        -11   -1    0    0    0    0  0.00000000000E+00  0.00000000000E+00  0.45593999997E+02  0.45594000000E+02  0.51100000000E-03 0.  1.
         11   -1    0    0    0    0 -0.00000000000E+00 -0.00000000000E+00 -0.45593999997E+02  0.45594000000E+02  0.51100000000E-03 0. -1.
    9900012    2    1    2    0    0  0.16558629038E+02 -0.31986913769E+02  0.24213063129E+02  0.47787271041E+02  0.19999999985E+02 0.  0.
         12    1    1    2    0    0 -0.16558629038E+02  0.31986913769E+02 -0.24213063129E+02  0.43400728959E+02  0.00000000000E+00 0. -1.
         11    1    3    3    0    0  0.10385031135E+02 -0.10453204842E+02  0.17779749172E+02  0.23091943271E+02  0.51100000000E-03 0. -1.
        -11    1    3    3    0    0  0.44144869776E+01 -0.32737059887E+01  0.16249926502E+01  0.57310947951E+01  0.51100000000E-03 0.  1.
         12    1    3    3    0    0  0.17591109251E+01 -0.18260002938E+02  0.48083213065E+01  0.18964232975E+02  0.00000000000E+00 0. -1.
</event>
<event>
 7    1  0.2476315E-009  0.4778727E+02  0.7816164E-02  0.1312668E+00
        -11   -1    0    0    0    0  0.00000000000E+00  0.00000000000E+00  0.45593999997E+02  0.45594000000E+02  0.51100000000E-03 0.  1.
         11   -1    0    0    0    0 -0.00000000000E+00 -0.00000000000E+00 -0.45593999997E+02  0.45594000000E+02  0.51100000000E-03 0. -1.
    9900012    2    1    2    0    0  0.36131646583E+02 -0.17908904901E+02 -0.16043646356E+02  0.47787270191E+02  0.19999996107E+02 0.  0.
         12    1    1    2    0    0 -0.36131646583E+02  0.17908904901E+02  0.16043646356E+02  0.43400729809E+02  0.00000000000E+00 0. -1.
         11    1    3    3    0    0  0.20263197534E+02 -0.15996871646E+02 -0.46915903847E+01  0.26239437825E+02  0.51100000000E-03 0.  1.
        -11    1    3    3    0    0  0.81332404916E+01  0.34599998452E+01 -0.46353539307E+01  0.99803660327E+01  0.51100000000E-03 0. -1.
         12    1    3    3    0    0  0.77352085581E+01 -0.53720331003E+01 -0.67167020407E+01  0.11567466333E+02  0.00000000000E+00 0. -1.
</event>
