<event>
 7    1  0.2710146E-013  0.7246156E+02  0.7816164E-02  0.1226708E+00
        -11   -1    0    0    0    0  0.00000000000E+00  0.00000000000E+00  0.45593999997E+02  0.45594000000E+02  0.51100000000E-03 0. -1.
         11   -1    0    0    0    0 -0.00000000000E+00 -0.00000000000E+00 -0.45593999997E+02  0.45594000000E+02  0.51100000000E-03 0.  1.
    9900012    2    1    2    0    0 -0.14745722707E+02  0.31352121875E+01  0.11109177739E+02  0.72461555499E+02  0.69999980726E+02 0.  0.
        -12    1    1    2    0    0  0.14745722707E+02 -0.31352121875E+01 -0.11109177739E+02  0.18726444501E+02  0.00000000000E+00 0.  1.
         11    1    3    3    0    0 -0.23849553724E+01  0.34195794092E+02 -0.21591197359E+01  0.34346792339E+02  0.51100000000E-03 0.  1.
        -11    1    3    3    0    0  0.97935536368E-01 -0.13759937850E+02  0.87947102432E+01  0.16330719811E+02  0.51100000000E-03 0. -1.
        -12    1    3    3    0    0 -0.12458702871E+02 -0.17300644054E+02  0.44735872314E+01  0.21784043349E+02  0.00000000000E+00 0.  1.
</event>
<event>
 7    1  0.2710146E-013  0.7246156E+02  0.7816164E-02  0.1226708E+00
        -11   -1    0    0    0    0  0.00000000000E+00  0.00000000000E+00  0.45593999997E+02  0.45594000000E+02  0.51100000000E-03 0.  1.
         11   -1    0    0    0    0 -0.00000000000E+00 -0.00000000000E+00 -0.45593999997E+02  0.45594000000E+02  0.51100000000E-03 0. -1.
    9900012    2    1    2    0    0 -0.12336581942E+02 -0.34365023365E+00 -0.14084392150E+02  0.72461562759E+02  0.69999990184E+02 0.  0.
        -12    1    1    2    0    0  0.12336581942E+02  0.34365023365E+00  0.14084392150E+02  0.18726437241E+02  0.00000000000E+00 0.  1.
         11    1    3    3    0    0 -0.36448928372E+01 -0.12785721090E+02  0.10622306634E+02  0.17017441231E+02  0.51100000000E-03 0. -1.
        -11    1    3    3    0    0  0.11229934607E+02  0.23943315342E+02 -0.15596720026E+02  0.30702629475E+02  0.51100000000E-03 0.  1.
         12    1    3    3    0    0 -0.19921623712E+02 -0.11501244486E+02 -0.91099787576E+01  0.24741492053E+02  0.00000000000E+00 0. -1.
</event>
<event>
 7    1  0.2710146E-013  0.7246151E+02  0.7816164E-02  0.1226708E+00
        -11   -1    0    0    0    0  0.00000000000E+00  0.00000000000E+00  0.45593999997E+02  0.45594000000E+02  0.51100000000E-03 0. -1.
         11   -1    0    0    0    0 -0.00000000000E+00 -0.00000000000E+00 -0.45593999997E+02  0.45594000000E+02  0.51100000000E-03 0.  1.
    9900012    2    1    2    0    0 -0.14597025588E+02  0.11714083914E+02  0.62336347049E+00  0.72461508071E+02  0.69999918943E+02 0.  0.
        -12    1    1    2    0    0  0.14597025588E+02 -0.11714083914E+02 -0.62336347049E+00  0.18726491929E+02  0.00000000000E+00 0.  1.
         11    1    3    3    0    0  0.13445389079E+02  0.16166875261E+02  0.88779143483E+01  0.22824629387E+02  0.51100000000E-03 0. -1.
        -11    1    3    3    0    0 -0.41557271484E+01 -0.90454244934E+01 -0.20213647676E+02  0.22531784772E+02  0.51100000000E-03 0.  1.
         12    1    3    3    0    0 -0.23886687518E+02  0.45926331459E+01  0.11959096798E+02  0.27105093913E+02  0.00000000000E+00 0. -1.
</event>
<event>
 7    1  0.2710146E-013  0.7246158E+02  0.7816164E-02  0.1226708E+00
        -11   -1    0    0    0    0  0.00000000000E+00  0.00000000000E+00  0.45593999997E+02  0.45594000000E+02  0.51100000000E-03 0.  1.
         11   -1    0    0    0    0 -0.00000000000E+00 -0.00000000000E+00 -0.45593999997E+02  0.45594000000E+02  0.51100000000E-03 0. -1.
    9900012    2    1    2    0    0 -0.13281165994E+02 -0.16884913315E+01 -0.13093443093E+02  0.72461584829E+02  0.70000018934E+02 0.  0.
        -12    1    1    2    0    0  0.13281165994E+02  0.16884913315E+01  0.13093443093E+02  0.18726415171E+02  0.00000000000E+00 0.  1.
         11    1    3    3    0    0 -0.43575130518E+01  0.18542738699E+02 -0.22841819858E+01  0.19184331265E+02  0.51100000000E-03 0. -1.
        -11    1    3    3    0    0 -0.23460931562E+02  0.40810797197E+01 -0.40536526792E+01  0.24155798925E+02  0.51100000000E-03 0.  1.
        -12    1    3    3    0    0  0.14537278619E+02 -0.24312309750E+02 -0.67556084279E+01  0.29121454639E+02  0.00000000000E+00 0.  1.
</event>
<event>
 7    1  0.2710146E-013  0.7246156E+02  0.7816164E-02  0.1226708E+00
        -11   -1    0    0    0    0  0.00000000000E+00  0.00000000000E+00  0.45593999997E+02  0.45594000000E+02  0.51100000000E-03 0. -1.
         11   -1    0    0    0    0 -0.00000000000E+00 -0.00000000000E+00 -0.45593999997E+02  0.45594000000E+02  0.51100000000E-03 0.  1.
    9900012    2    1    2    0    0 -0.12973177842E+02 -0.28396812551E+01  0.13202737936E+02  0.72461563554E+02  0.69999991219E+02 0.  0.
        -12    1    1    2    0    0  0.12973177842E+02  0.28396812551E+01 -0.13202737936E+02  0.18726436446E+02  0.00000000000E+00 0.  1.
         11    1    3    3    0    0  0.23781777909E+00  0.54793534323E+01  0.11005304604E+01  0.55938393691E+01  0.51100000000E-03 0. -1.
        -11    1    3    3    0    0  0.13344904499E+02  0.18911085408E+02 -0.71669674857E+01  0.24229755480E+02  0.51100000000E-03 0.  1.
        -12    1    3    3    0    0 -0.26555900121E+02 -0.27230120095E+02  0.19269174961E+02  0.42637968705E+02  0.00000000000E+00 0.  1.
</event>
<event>
 7    1  0.2710146E-013  0.7246155E+02  0.7816164E-02  0.1226708E+00
        -11   -1    0    0    0    0  0.00000000000E+00  0.00000000000E+00  0.45593999997E+02  0.45594000000E+02  0.51100000000E-03 0.  1.
         11   -1    0    0    0    0 -0.00000000000E+00 -0.00000000000E+00 -0.45593999997E+02  0.45594000000E+02  0.51100000000E-03 0. -1.
    9900012    2    1    2    0    0  0.68897575590E+01  0.16754491251E+02  0.47432274107E+01  0.72461549654E+02  0.69999973111E+02 0.  0.
        -12    1    1    2    0    0 -0.68897575590E+01 -0.16754491251E+02 -0.47432274107E+01  0.18726450346E+02  0.00000000000E+00 0.  1.
         11    1    3    3    0    0  0.18565192698E+01 -0.17395355528E+02  0.25337109773E+01  0.17676672461E+02  0.51100000000E-03 0. -1.
        -11    1    3    3    0    0  0.34978504372E+01  0.82230064966E+01  0.20937455661E+02  0.22764662162E+02  0.51100000000E-03 0.  1.
         12    1    3    3    0    0  0.15353878520E+01  0.25926840282E+02 -0.18727939227E+02  0.32020215030E+02  0.00000000000E+00 0. -1.
</event>
<event>
 7    1  0.2710146E-013  0.7246155E+02  0.7816164E-02  0.1226708E+00
        -11   -1    0    0    0    0  0.00000000000E+00  0.00000000000E+00  0.45593999997E+02  0.45594000000E+02  0.51100000000E-03 0.  1.
         11   -1    0    0    0    0 -0.00000000000E+00 -0.00000000000E+00 -0.45593999997E+02  0.45594000000E+02  0.51100000000E-03 0. -1.
    9900012    2    1    2    0    0 -0.83519425773E-01 -0.18684224692E+02 -0.12541388523E+01  0.72461545662E+02  0.69999967911E+02 0.  0.
        -12    1    1    2    0    0  0.83519425773E-01  0.18684224692E+02  0.12541388523E+01  0.18726454338E+02  0.00000000000E+00 0.  1.
         11    1    3    3    0    0 -0.62939398527E+00  0.20102659140E+01 -0.19541496837E+02  0.19654704391E+02  0.51100000000E-03 0. -1.
        -11    1    3    3    0    0  0.18423829263E+02  0.33994846232E+01  0.11705528156E+02  0.22091024651E+02  0.51100000000E-03 0.  1.
        -12    1    3    3    0    0 -0.17877954704E+02 -0.24093975229E+02  0.65818298280E+01  0.30715816620E+02  0.00000000000E+00 0.  1.
</event>
<event>
 7    1  0.2710146E-013  0.7246165E+02  0.7816164E-02  0.1226708E+00
        -11   -1    0    0    0    0  0.00000000000E+00  0.00000000000E+00  0.45593999997E+02  0.45594000000E+02  0.51100000000E-03 0. -1.
         11   -1    0    0    0    0 -0.00000000000E+00 -0.00000000000E+00 -0.45593999997E+02  0.45594000000E+02  0.51100000000E-03 0.  1.
    9900012    2    1    2    0    0  0.17143987574E+02  0.44097335481E+01 -0.61085286691E+01  0.72461650051E+02  0.70000103898E+02 0.  0.
        -12    1    1    2    0    0 -0.17143987574E+02 -0.44097335481E+01  0.61085286691E+01  0.18726349949E+02  0.00000000000E+00 0.  1.
         11    1    3    3    0    0 -0.13905183457E+01 -0.44220400088E+01 -0.87919644780E+01  0.99391457758E+01  0.51100000000E-03 0. -1.
        -11    1    3    3    0    0 -0.88484027656E+01 -0.14138711434E+02 -0.15191236974E+02  0.22560387266E+02  0.51100000000E-03 0.  1.
         12    1    3    3    0    0  0.27382908685E+02  0.22970484991E+02  0.17874672783E+02  0.39962117010E+02  0.00000000000E+00 0. -1.
</event>
<event>
 7    1  0.2710146E-013  0.7246200E+02  0.7816164E-02  0.1226707E+00
        -11   -1    0    0    0    0  0.00000000000E+00  0.00000000000E+00  0.45593999997E+02  0.45594000000E+02  0.51100000000E-03 0.  1.
         11   -1    0    0    0    0 -0.00000000000E+00 -0.00000000000E+00 -0.45593999997E+02  0.45594000000E+02  0.51100000000E-03 0. -1.
    9900012    2    1    2    0    0 -0.64346880921E+01  0.16242716908E+02 -0.67403153710E+01  0.72462004307E+02  0.70000565379E+02 0.  0.
        -12    1    1    2    0    0  0.64346880921E+01 -0.16242716908E+02  0.67403153710E+01  0.18725995693E+02  0.00000000000E+00 0.  1.
         11    1    3    3    0    0 -0.29761945458E+02  0.54808049825E+01 -0.54912981853E+01  0.30756576154E+02  0.51100000000E-03 0. -1.
        -11    1    3    3    0    0  0.10753592556E+02  0.21557404661E+02 -0.52520664054E+01  0.24656553903E+02  0.51100000000E-03 0.  1.
        -12    1    3    3    0    0  0.12573664810E+02 -0.10795492735E+02  0.40030492197E+01  0.17048874250E+02  0.00000000000E+00 0.  1.
</event>
<event>
 7    1  0.2710146E-013  0.7246186E+02  0.7816164E-02  0.1226707E+00
        -11   -1    0    0    0    0  0.00000000000E+00  0.00000000000E+00  0.45593999997E+02  0.45594000000E+02  0.51100000000E-03 0. -1.
         11   -1    0    0    0    0 -0.00000000000E+00 -0.00000000000E+00 -0.45593999997E+02  0.45594000000E+02  0.51100000000E-03 0.  1.
    9900012    2    1    2    0    0 -0.83260510099E+01 -0.16631802172E+02 -0.21745139934E+01  0.72461855709E+02  0.70000371805E+02 0.  0.
        -12    1    1    2    0    0  0.83260510099E+01  0.16631802172E+02  0.21745139934E+01  0.18726144291E+02  0.00000000000E+00 0.  1.
         11    1    3    3    0    0 -0.91079564098E+00  0.19551153498E+01  0.19276134838E+01  0.28927009412E+01  0.51100000000E-03 0.  1.
        -11    1    3    3    0    0 -0.28132741546E+02 -0.15948300854E+02  0.19728845205E+02  0.37881747325E+02  0.51100000000E-03 0. -1.
         12    1    3    3    0    0  0.20717486177E+02 -0.26386166678E+01 -0.23830972683E+02  0.31687407442E+02  0.00000000000E+00 0. -1.
</event>
<event>
 7    1  0.2710146E-013  0.7246158E+02  0.7816164E-02  0.1226708E+00
        -11   -1    0    0    0    0  0.00000000000E+00  0.00000000000E+00  0.45593999997E+02  0.45594000000E+02  0.51100000000E-03 0. -1.
         11   -1    0    0    0    0 -0.00000000000E+00 -0.00000000000E+00 -0.45593999997E+02  0.45594000000E+02  0.51100000000E-03 0.  1.
    9900012    2    1    2    0    0 -0.29080709640E+01  0.43246634941E+01  0.17986640108E+02  0.72461579802E+02  0.70000012385E+02 0.  0.
        -12    1    1    2    0    0  0.29080709640E+01 -0.43246634941E+01 -0.17986640108E+02  0.18726420198E+02  0.00000000000E+00 0.  1.
         11    1    3    3    0    0 -0.15386809082E+02  0.58548402359E+01  0.12555387639E+02  0.20704366857E+02  0.51100000000E-03 0. -1.
        -11    1    3    3    0    0  0.52691762175E+01  0.19138632477E+02 -0.12501659736E+02  0.23459389752E+02  0.51100000000E-03 0.  1.
         12    1    3    3    0    0  0.72095619008E+01 -0.20668809219E+02  0.17932912204E+02  0.28297823193E+02  0.00000000000E+00 0. -1.
</event>
<event>
 7    1  0.2710146E-013  0.7246154E+02  0.7816164E-02  0.1226708E+00
        -11   -1    0    0    0    0  0.00000000000E+00  0.00000000000E+00  0.45593999997E+02  0.45594000000E+02  0.51100000000E-03 0.  1.
         11   -1    0    0    0    0 -0.00000000000E+00 -0.00000000000E+00 -0.45593999997E+02  0.45594000000E+02  0.51100000000E-03 0. -1.
    9900012    2    1    2    0    0  0.99134749862E+00 -0.11841118011E+02 -0.14473618709E+02  0.72461535193E+02  0.69999954275E+02 0.  0.
        -12    1    1    2    0    0 -0.99134749862E+00  0.11841118011E+02  0.14473618709E+02  0.18726464807E+02  0.00000000000E+00 0.  1.
         11    1    3    3    0    0  0.65601131338E+01  0.39425292665E+01  0.60876104003E+01  0.97794489616E+01  0.51100000000E-03 0.  1.
        -11    1    3    3    0    0  0.22215674397E+02 -0.19986990024E+02 -0.16935339243E+02  0.34348532351E+02  0.51100000000E-03 0. -1.
         12    1    3    3    0    0 -0.27784440033E+02  0.42033427466E+01 -0.36258898664E+01  0.28333553880E+02  0.00000000000E+00 0. -1.
</event>
<event>
 7    1  0.2710146E-013  0.7246158E+02  0.7816164E-02  0.1226708E+00
        -11   -1    0    0    0    0  0.00000000000E+00  0.00000000000E+00  0.45593999997E+02  0.45594000000E+02  0.51100000000E-03 0.  1.
         11   -1    0    0    0    0 -0.00000000000E+00 -0.00000000000E+00 -0.45593999997E+02  0.45594000000E+02  0.51100000000E-03 0. -1.
    9900012    2    1    2    0    0  0.16001400708E+02  0.46819033359E+01 -0.85272337242E+01  0.72461581270E+02  0.70000014298E+02 0.  0.
        -12    1    1    2    0    0 -0.16001400708E+02 -0.46819033359E+01  0.85272337242E+01  0.18726418730E+02  0.00000000000E+00 0.  1.
         11    1    3    3    0    0  0.17736839114E+02  0.20108278131E+02 -0.22920338027E+02  0.35274356220E+02  0.51100000000E-03 0. -1.
        -11    1    3    3    0    0  0.40801499489E+01 -0.17089705371E+02 -0.38333083248E+01  0.17983323004E+02  0.51100000000E-03 0.  1.
         12    1    3    3    0    0 -0.58155883544E+01  0.16633305759E+01  0.18226412628E+02  0.19203902046E+02  0.00000000000E+00 0. -1.
</event>
<event>
 7    1  0.2710146E-013  0.7246150E+02  0.7816164E-02  0.1226708E+00
        -11   -1    0    0    0    0  0.00000000000E+00  0.00000000000E+00  0.45593999997E+02  0.45594000000E+02  0.51100000000E-03 0. -1.
         11   -1    0    0    0    0 -0.00000000000E+00 -0.00000000000E+00 -0.45593999997E+02  0.45594000000E+02  0.51100000000E-03 0.  1.
    9900012    2    1    2    0    0 -0.13632807738E+02 -0.10605495840E+02  0.72354500748E+01  0.72461502019E+02  0.69999911059E+02 0.  0.
        -12    1    1    2    0    0  0.13632807738E+02  0.10605495840E+02 -0.72354500748E+01  0.18726497981E+02  0.00000000000E+00 0.  1.
         11    1    3    3    0    0 -0.12885102363E+02 -0.24654790527E+02  0.10944389667E+02  0.29894217238E+02  0.51100000000E-03 0. -1.
        -11    1    3    3    0    0 -0.19648823209E+02  0.35817423946E+01  0.23946542002E+01  0.20115653135E+02  0.51100000000E-03 0.  1.
         12    1    3    3    0    0  0.18901117834E+02  0.10467552292E+02 -0.61035937927E+01  0.22451631646E+02  0.00000000000E+00 0. -1.
</event>
<event>
 7    1  0.2710146E-013  0.7246176E+02  0.7816164E-02  0.1226708E+00
        -11   -1    0    0    0    0  0.00000000000E+00  0.00000000000E+00  0.45593999997E+02  0.45594000000E+02  0.51100000000E-03 0.  1.
         11   -1    0    0    0    0 -0.00000000000E+00 -0.00000000000E+00 -0.45593999997E+02  0.45594000000E+02  0.51100000000E-03 0. -1.
    9900012    2    1    2    0    0 -0.69995309422E+01 -0.16815393098E+02  0.43498471015E+01  0.72461760434E+02  0.70000247692E+02 0.  0.
        -12    1    1    2    0    0  0.69995309422E+01  0.16815393098E+02 -0.43498471015E+01  0.18726239566E+02  0.00000000000E+00 0.  1.
         11    1    3    3    0    0  0.80020172698E+01 -0.12099497845E+02  0.60431596519E+01  0.15714639904E+02  0.51100000000E-03 0. -1.
        -11    1    3    3    0    0  0.16706820873E+02 -0.12194891364E+02  0.88602230939E+01  0.22501928642E+02  0.51100000000E-03 0.  1.
         12    1    3    3    0    0 -0.31708369085E+02  0.74789961103E+01 -0.10553535644E+02  0.34245191888E+02  0.00000000000E+00 0. -1.
</event>
<event>
 7    1  0.2710146E-013  0.7246158E+02  0.7816164E-02  0.1226708E+00
        -11   -1    0    0    0    0  0.00000000000E+00  0.00000000000E+00  0.45593999997E+02  0.45594000000E+02  0.51100000000E-03 0.  1.
         11   -1    0    0    0    0 -0.00000000000E+00 -0.00000000000E+00 -0.45593999997E+02  0.45594000000E+02  0.51100000000E-03 0. -1.
    9900012    2    1    2    0    0 -0.93322910291E+01 -0.25949244624E+01 -0.16026647440E+02  0.72461582377E+02  0.70000015740E+02 0.  0.
        -12    1    1    2    0    0  0.93322910291E+01  0.25949244624E+01  0.16026647440E+02  0.18726417623E+02  0.00000000000E+00 0.  1.
         11    1    3    3    0    0  0.15857267705E+02  0.99211055115E+01 -0.22722800808E+02  0.29431393960E+02  0.51100000000E-03 0. -1.
        -11    1    3    3    0    0 -0.12097861803E+02  0.53981849077E+01 -0.88553914447E+01  0.15934761322E+02  0.51100000000E-03 0.  1.
        -12    1    3    3    0    0 -0.13091696931E+02 -0.17914214882E+02  0.15551544812E+02  0.27095427094E+02  0.00000000000E+00 0.  1.
</event>
<event>
 7    1  0.2710146E-013  0.7246157E+02  0.7816164E-02  0.1226708E+00
        -11   -1    0    0    0    0  0.00000000000E+00  0.00000000000E+00  0.45593999997E+02  0.45594000000E+02  0.51100000000E-03 0.  1.
         11   -1    0    0    0    0 -0.00000000000E+00 -0.00000000000E+00 -0.45593999997E+02  0.45594000000E+02  0.51100000000E-03 0. -1.
    9900012    2    1    2    0    0 -0.83803100672E+01  0.16356589468E+02 -0.35932815597E+01  0.72461567125E+02  0.69999995872E+02 0.  0.
        -12    1    1    2    0    0  0.83803100672E+01 -0.16356589468E+02  0.35932815597E+01  0.18726432875E+02  0.00000000000E+00 0.  1.
         11    1    3    3    0    0 -0.10151421507E+02 -0.92809932013E+01 -0.26296746649E+01  0.14003691746E+02  0.51100000000E-03 0. -1.
        -11    1    3    3    0    0  0.25875805138E+01 -0.16029799559E+02  0.32857427150E+01  0.16566416398E+02  0.51100000000E-03 0.  1.
         12    1    3    3    0    0 -0.81646907373E+00  0.41667382228E+02 -0.42493496098E+01  0.41891458981E+02  0.00000000000E+00 0. -1.
</event>
<event>
 7    1  0.2710146E-013  0.7246169E+02  0.7816164E-02  0.1226708E+00
        -11   -1    0    0    0    0  0.00000000000E+00  0.00000000000E+00  0.45593999997E+02  0.45594000000E+02  0.51100000000E-03 0.  1.
         11   -1    0    0    0    0 -0.00000000000E+00 -0.00000000000E+00 -0.45593999997E+02  0.45594000000E+02  0.51100000000E-03 0. -1.
    9900012    2    1    2    0    0 -0.41722589953E+01 -0.10646482021E+02 -0.14829673231E+02  0.72461694100E+02  0.70000161279E+02 0.  0.
        -12    1    1    2    0    0  0.41722589953E+01  0.10646482021E+02  0.14829673231E+02  0.18726305900E+02  0.00000000000E+00 0.  1.
         11    1    3    3    0    0 -0.14315113740E+02  0.13824800025E+02 -0.11447910456E+02  0.22958707089E+02  0.51100000000E-03 0. -1.
        -11    1    3    3    0    0 -0.15195663056E+02 -0.17352582380E+02 -0.18162742861E+01  0.23136964872E+02  0.51100000000E-03 0.  1.
        -12    1    3    3    0    0  0.25338517800E+02 -0.71186996651E+01 -0.15654884884E+01  0.26366022139E+02  0.00000000000E+00 0.  1.
</event>
<event>
 7    1  0.2710146E-013  0.7246153E+02  0.7816164E-02  0.1226708E+00
        -11   -1    0    0    0    0  0.00000000000E+00  0.00000000000E+00  0.45593999997E+02  0.45594000000E+02  0.51100000000E-03 0.  1.
         11   -1    0    0    0    0 -0.00000000000E+00 -0.00000000000E+00 -0.45593999997E+02  0.45594000000E+02  0.51100000000E-03 0. -1.
    9900012    2    1    2    0    0 -0.15197604543E+02 -0.52006206874E+01  0.96263682399E+01  0.72461531971E+02  0.69999950076E+02 0.  0.
        -12    1    1    2    0    0  0.15197604543E+02  0.52006206874E+01 -0.96263682399E+01  0.18726468029E+02  0.00000000000E+00 0.  1.
         11    1    3    3    0    0  0.78997982263E+01 -0.49144977886E+01 -0.14199526910E+02  0.16976032082E+02  0.51100000000E-03 0. -1.
        -11    1    3    3    0    0 -0.24869071236E+01 -0.15676528660E+02 -0.51993958168E+01  0.16702454161E+02  0.51100000000E-03 0.  1.
        -12    1    3    3    0    0 -0.20610495645E+02  0.15390405761E+02  0.29025290966E+02  0.38783045728E+02  0.00000000000E+00 0.  1.
</event>
<event>
 7    1  0.2710146E-013  0.7246150E+02  0.7816164E-02  0.1226708E+00
        -11   -1    0    0    0    0  0.00000000000E+00  0.00000000000E+00  0.45593999997E+02  0.45594000000E+02  0.51100000000E-03 0.  1.
         11   -1    0    0    0    0 -0.00000000000E+00 -0.00000000000E+00 -0.45593999997E+02  0.45594000000E+02  0.51100000000E-03 0. -1.
    9900012    2    1    2    0    0  0.38006474186E+01 -0.17631629880E+02 -0.50361195163E+01  0.72461500252E+02  0.69999908757E+02 0.  0.
        -12    1    1    2    0    0 -0.38006474186E+01  0.17631629880E+02  0.50361195163E+01  0.18726499748E+02  0.00000000000E+00 0.  1.
         11    1    3    3    0    0  0.89547006016E+01  0.83366490941E+01  0.72503007732E+01  0.14221576655E+02  0.51100000000E-03 0. -1.
        -11    1    3    3    0    0  0.16406415564E+02  0.75681125457E+00  0.80933829981E+01  0.18309726474E+02  0.51100000000E-03 0.  1.
         12    1    3    3    0    0 -0.21560468747E+02 -0.26725090228E+02 -0.20379803288E+02  0.39930197124E+02  0.00000000000E+00 0. -1.
</event>
<event>
 7    1  0.2710146E-013  0.7246157E+02  0.7816164E-02  0.1226708E+00
        -11   -1    0    0    0    0  0.00000000000E+00  0.00000000000E+00  0.45593999997E+02  0.45594000000E+02  0.51100000000E-03 0. -1.
         11   -1    0    0    0    0 -0.00000000000E+00 -0.00000000000E+00 -0.45593999997E+02  0.45594000000E+02  0.51100000000E-03 0.  1.
    9900012    2    1    2    0    0 -0.15135643634E+02 -0.88839568484E+01  0.65319746491E+01  0.72461572410E+02  0.70000002755E+02 0.  0.
        -12    1    1    2    0    0  0.15135643634E+02  0.88839568484E+01 -0.65319746491E+01  0.18726427590E+02  0.00000000000E+00 0.  1.
         11    1    3    3    0    0  0.95503231087E+01  0.20154374610E+01 -0.77694296398E+00  0.97915422825E+01  0.51100000000E-03 0. -1.
        -11    1    3    3    0    0 -0.92321367627E+01  0.22970261170E+02  0.57151873314E+01  0.25407255143E+02  0.51100000000E-03 0.  1.
         12    1    3    3    0    0 -0.15453829979E+02 -0.33869655479E+02  0.15937302816E+01  0.37262774984E+02  0.00000000000E+00 0. -1.
</event>
<event>
 7    1  0.2710146E-013  0.7246155E+02  0.7816164E-02  0.1226708E+00
        -11   -1    0    0    0    0  0.00000000000E+00  0.00000000000E+00  0.45593999997E+02  0.45594000000E+02  0.51100000000E-03 0.  1.
         11   -1    0    0    0    0 -0.00000000000E+00 -0.00000000000E+00 -0.45593999997E+02  0.45594000000E+02  0.51100000000E-03 0. -1.
    9900012    2    1    2    0    0 -0.14268680395E+02  0.53000729700E+01 -0.10908431838E+02  0.72461550821E+02  0.69999974632E+02 0.  0.
        -12    1    1    2    0    0  0.14268680395E+02 -0.53000729700E+01  0.10908431838E+02  0.18726449179E+02  0.00000000000E+00 0.  1.
         11    1    3    3    0    0 -0.17236521212E+02  0.32715802156E+01  0.18831223580E+02  0.25737441256E+02  0.51100000000E-03 0. -1.
        -11    1    3    3    0    0 -0.40167610762E+01  0.36651248819E+01  0.72402727183E+01  0.90547810156E+01  0.51100000000E-03 0.  1.
        -12    1    3    3    0    0  0.69846018935E+01 -0.16366321275E+01 -0.36979928137E+02  0.37669328549E+02  0.00000000000E+00 0.  1.
</event>
<event>
 7    1  0.2710146E-013  0.7246160E+02  0.7816164E-02  0.1226708E+00
        -11   -1    0    0    0    0  0.00000000000E+00  0.00000000000E+00  0.45593999997E+02  0.45594000000E+02  0.51100000000E-03 0.  1.
         11   -1    0    0    0    0 -0.00000000000E+00 -0.00000000000E+00 -0.45593999997E+02  0.45594000000E+02  0.51100000000E-03 0. -1.
    9900012    2    1    2    0    0 -0.14969783994E+02 -0.33923125161E+01 -0.10727344413E+02  0.72461597912E+02  0.70000035977E+02 0.  0.
        -12    1    1    2    0    0  0.14969783994E+02  0.33923125161E+01  0.10727344413E+02  0.18726402088E+02  0.00000000000E+00 0.  1.
         11    1    3    3    0    0 -0.18150796959E+02 -0.27011494512E+02  0.10238363120E+02  0.34115925104E+02  0.51100000000E-03 0. -1.
        -11    1    3    3    0    0 -0.16561109931E+01  0.47023854027E+01 -0.17899638745E+02  0.18580963365E+02  0.51100000000E-03 0.  1.
        -12    1    3    3    0    0  0.48371239586E+01  0.18916796594E+02 -0.30660687870E+01  0.19764709443E+02  0.00000000000E+00 0.  1.
</event>
<event>
 7    1  0.2710146E-013  0.7246131E+02  0.7816164E-02  0.1226709E+00
        -11   -1    0    0    0    0  0.00000000000E+00  0.00000000000E+00  0.45593999997E+02  0.45594000000E+02  0.51100000000E-03 0. -1.
         11   -1    0    0    0    0 -0.00000000000E+00 -0.00000000000E+00 -0.45593999997E+02  0.45594000000E+02  0.51100000000E-03 0.  1.
    9900012    2    1    2    0    0 -0.11404715546E+02  0.64341697721E+01  0.13387414541E+02  0.72461309277E+02  0.69999659976E+02 0.  0.
        -12    1    1    2    0    0  0.11404715546E+02 -0.64341697721E+01 -0.13387414541E+02  0.18726690723E+02  0.00000000000E+00 0.  1.
         11    1    3    3    0    0 -0.21303010252E+01 -0.10463943096E+01 -0.65387910856E+01  0.69562139581E+01  0.51100000000E-03 0. -1.
        -11    1    3    3    0    0 -0.32889794011E+02  0.35465082221E+01 -0.18636052514E+01  0.33132903516E+02  0.51100000000E-03 0.  1.
         12    1    3    3    0    0  0.23615379490E+02  0.39340558596E+01  0.21789810878E+02  0.32372191802E+02  0.00000000000E+00 0. -1.
</event>
<event>
 7    1  0.2710146E-013  0.7246156E+02  0.7816164E-02  0.1226708E+00
        -11   -1    0    0    0    0  0.00000000000E+00  0.00000000000E+00  0.45593999997E+02  0.45594000000E+02  0.51100000000E-03 0. -1.
         11   -1    0    0    0    0 -0.00000000000E+00 -0.00000000000E+00 -0.45593999997E+02  0.45594000000E+02  0.51100000000E-03 0.  1.
    9900012    2    1    2    0    0 -0.15387930383E+02  0.10623059575E+02  0.10206978113E+01  0.72461558261E+02  0.69999984324E+02 0.  0.
        -12    1    1    2    0    0  0.15387930383E+02 -0.10623059575E+02 -0.10206978113E+01  0.18726441739E+02  0.00000000000E+00 0.  1.
         11    1    3    3    0    0  0.15833103836E+02  0.19761409846E+02  0.56888167602E+01  0.25953094856E+02  0.51100000000E-03 0. -1.
        -11    1    3    3    0    0  0.12254394475E+01 -0.58968539884E+01 -0.11692434009E+02  0.13152475133E+02  0.51100000000E-03 0.  1.
         12    1    3    3    0    0 -0.32446473667E+02 -0.32414962824E+01  0.70243150602E+01  0.33355988272E+02  0.00000000000E+00 0. -1.
</event>
<event>
 7    1  0.2710146E-013  0.7246153E+02  0.7816164E-02  0.1226708E+00
        -11   -1    0    0    0    0  0.00000000000E+00  0.00000000000E+00  0.45593999997E+02  0.45594000000E+02  0.51100000000E-03 0.  1.
         11   -1    0    0    0    0 -0.00000000000E+00 -0.00000000000E+00 -0.45593999997E+02  0.45594000000E+02  0.51100000000E-03 0. -1.
    9900012    2    1    2    0    0  0.65203923294E+01 -0.22520448514E+01 -0.17409581655E+02  0.72461527947E+02  0.69999944835E+02 0.  0.
        -12    1    1    2    0    0 -0.65203923294E+01  0.22520448514E+01  0.17409581655E+02  0.18726472053E+02  0.00000000000E+00 0.  1.
         11    1    3    3    0    0 -0.50411814582E+01  0.11851348890E+01 -0.21153345387E+02  0.21778018195E+02  0.51100000000E-03 0.  1.
        -11    1    3    3    0    0 -0.33156042537E+01 -0.14845957180E+02 -0.16939935101E+02  0.22767456547E+02  0.51100000000E-03 0. -1.
        -12    1    3    3    0    0  0.14877178041E+02  0.11408777439E+02  0.20683698833E+02  0.27916053205E+02  0.00000000000E+00 0.  1.
</event>
<event>
 7    1  0.2710146E-013  0.7246154E+02  0.7816164E-02  0.1226708E+00
        -11   -1    0    0    0    0  0.00000000000E+00  0.00000000000E+00  0.45593999997E+02  0.45594000000E+02  0.51100000000E-03 0. -1.
         11   -1    0    0    0    0 -0.00000000000E+00 -0.00000000000E+00 -0.45593999997E+02  0.45594000000E+02  0.51100000000E-03 0.  1.
    9900012    2    1    2    0    0  0.15015658582E+02  0.10062695780E+00  0.11189282564E+02  0.72461543508E+02  0.69999965106E+02 0.  0.
        -12    1    1    2    0    0 -0.15015658582E+02 -0.10062695780E+00 -0.11189282564E+02  0.18726456492E+02  0.00000000000E+00 0.  1.
         11    1    3    3    0    0  0.35715390221E+02 -0.10392454235E+02  0.17704864704E+02  0.41195320585E+02  0.51100000000E-03 0. -1.
        -11    1    3    3    0    0 -0.44662585550E+01 -0.22034972833E+01  0.54924328190E+01  0.74141543206E+01  0.51100000000E-03 0.  1.
        -12    1    3    3    0    0 -0.16233473084E+02  0.12696578476E+02 -0.12008014959E+02  0.23852068602E+02  0.00000000000E+00 0.  1.
</event>
<event>
 7    1  0.2710146E-013  0.7246155E+02  0.7816164E-02  0.1226708E+00
        -11   -1    0    0    0    0  0.00000000000E+00  0.00000000000E+00  0.45593999997E+02  0.45594000000E+02  0.51100000000E-03 0.  1.
         11   -1    0    0    0    0 -0.00000000000E+00 -0.00000000000E+00 -0.45593999997E+02  0.45594000000E+02  0.51100000000E-03 0. -1.
    9900012    2    1    2    0    0 -0.45095388976E+01 -0.42632022323E+01 -0.17668305178E+02  0.72461552334E+02  0.69999976603E+02 0.  0.
        -12    1    1    2    0    0  0.45095388976E+01  0.42632022323E+01  0.17668305178E+02  0.18726447666E+02  0.00000000000E+00 0.  1.
         11    1    3    3    0    0  0.12249866578E+02 -0.95288735483E+01  0.13573912829E+01  0.15578869459E+02  0.51100000000E-03 0. -1.
        -11    1    3    3    0    0  0.73677915049E+01  0.10949753442E+02  0.11538444729E+02  0.17530463745E+02  0.51100000000E-03 0.  1.
        -12    1    3    3    0    0 -0.24127196980E+02 -0.56840821260E+01 -0.30564141189E+02  0.39352219129E+02  0.00000000000E+00 0.  1.
</event>
<event>
 7    1  0.2710146E-013  0.7246161E+02  0.7816164E-02  0.1226708E+00
        -11   -1    0    0    0    0  0.00000000000E+00  0.00000000000E+00  0.45593999997E+02  0.45594000000E+02  0.51100000000E-03 0. -1.
         11   -1    0    0    0    0 -0.00000000000E+00 -0.00000000000E+00 -0.45593999997E+02  0.45594000000E+02  0.51100000000E-03 0.  1.
    9900012    2    1    2    0    0  0.17615654437E+02  0.56032207327E+01  0.29950744033E+01  0.72461605939E+02  0.70000046434E+02 0.  0.
        -12    1    1    2    0    0 -0.17615654437E+02 -0.56032207327E+01 -0.29950744033E+01  0.18726394061E+02  0.00000000000E+00 0.  1.
         11    1    3    3    0    0  0.53409493436E+01  0.12161498245E+02  0.15567398272E+02  0.20463911373E+02  0.51100000000E-03 0. -1.
        -11    1    3    3    0    0  0.28559324677E+01  0.10577034345E+02  0.14765942350E+02  0.18386491224E+02  0.51100000000E-03 0.  1.
        -12    1    3    3    0    0  0.94187726259E+01 -0.17135311857E+02 -0.27338266219E+02  0.33611203342E+02  0.00000000000E+00 0.  1.
</event>
<event>
 7    1  0.2710146E-013  0.7246153E+02  0.7816164E-02  0.1226708E+00
        -11   -1    0    0    0    0  0.00000000000E+00  0.00000000000E+00  0.45593999997E+02  0.45594000000E+02  0.51100000000E-03 0.  1.
         11   -1    0    0    0    0 -0.00000000000E+00 -0.00000000000E+00 -0.45593999997E+02  0.45594000000E+02  0.51100000000E-03 0. -1.
    9900012    2    1    2    0    0 -0.18285463517E+02 -0.40334096266E+01  0.23246253064E+00  0.72461531884E+02  0.69999949964E+02 0.  0.
        -12    1    1    2    0    0  0.18285463517E+02  0.40334096266E+01 -0.23246253064E+00  0.18726468116E+02  0.00000000000E+00 0.  1.
         11    1    3    3    0    0  0.58191296375E+01 -0.15983277947E+02 -0.22243863353E+00  0.17011082355E+02  0.51100000000E-03 0. -1.
        -11    1    3    3    0    0 -0.27294006369E+02 -0.85781827337E+01  0.12736574074E+02  0.31317220856E+02  0.51100000000E-03 0.  1.
        -12    1    3    3    0    0  0.31894132145E+01  0.20528051054E+02 -0.12281672910E+02  0.24133228674E+02  0.00000000000E+00 0.  1.
</event>
<event>
 7    1  0.2710146E-013  0.7246172E+02  0.7816164E-02  0.1226708E+00
        -11   -1    0    0    0    0  0.00000000000E+00  0.00000000000E+00  0.45593999997E+02  0.45594000000E+02  0.51100000000E-03 0.  1.
         11   -1    0    0    0    0 -0.00000000000E+00 -0.00000000000E+00 -0.45593999997E+02  0.45594000000E+02  0.51100000000E-03 0. -1.
    9900012    2    1    2    0    0  0.15055603060E+02  0.10551094677E+02 -0.35604577815E+01  0.72461717881E+02  0.70000192258E+02 0.  0.
        -12    1    1    2    0    0 -0.15055603060E+02 -0.10551094677E+02  0.35604577815E+01  0.18726282119E+02  0.00000000000E+00 0.  1.
         11    1    3    3    0    0  0.72879457622E+01  0.13181883586E+02 -0.13016078994E+02  0.19907147484E+02  0.51100000000E-03 0. -1.
        -11    1    3    3    0    0  0.68477547043E+01  0.21605178238E+02 -0.64335570128E+01  0.23559841410E+02  0.51100000000E-03 0.  1.
        -12    1    3    3    0    0  0.91990259382E+00 -0.24235967147E+02  0.15889178225E+02  0.28994728986E+02  0.00000000000E+00 0.  1.
</event>
<event>
 7    1  0.2710146E-013  0.7246155E+02  0.7816164E-02  0.1226708E+00
        -11   -1    0    0    0    0  0.00000000000E+00  0.00000000000E+00  0.45593999997E+02  0.45594000000E+02  0.51100000000E-03 0. -1.
         11   -1    0    0    0    0 -0.00000000000E+00 -0.00000000000E+00 -0.45593999997E+02  0.45594000000E+02  0.51100000000E-03 0.  1.
    9900012    2    1    2    0    0 -0.55615405145E+01 -0.24347964839E+01  0.17714996130E+02  0.72461546660E+02  0.69999969212E+02 0.  0.
        -12    1    1    2    0    0  0.55615405145E+01  0.24347964839E+01 -0.17714996130E+02  0.18726453340E+02  0.00000000000E+00 0.  1.
         11    1    3    3    0    0 -0.26356445622E+02 -0.24967498451E+02  0.15201062022E+02  0.39358740981E+02  0.51100000000E-03 0. -1.
        -11    1    3    3    0    0 -0.91348143930E+00  0.50230965493E+01  0.71168221015E+00  0.51548461774E+01  0.51100000000E-03 0.  1.
        -12    1    3    3    0    0  0.21708386547E+02  0.17509605418E+02  0.18022518977E+01  0.27947959501E+02  0.00000000000E+00 0.  1.
</event>
<event>
 7    1  0.2710146E-013  0.7246154E+02  0.7816164E-02  0.1226708E+00
        -11   -1    0    0    0    0  0.00000000000E+00  0.00000000000E+00  0.45593999997E+02  0.45594000000E+02  0.51100000000E-03 0.  1.
         11   -1    0    0    0    0 -0.00000000000E+00 -0.00000000000E+00 -0.45593999997E+02  0.45594000000E+02  0.51100000000E-03 0. -1.
    9900012    2    1    2    0    0  0.24188726793E+01 -0.18115357178E+02  0.40820645775E+01  0.72461538456E+02  0.69999958525E+02 0.  0.
        -12    1    1    2    0    0 -0.24188726793E+01  0.18115357178E+02 -0.40820645775E+01  0.18726461544E+02  0.00000000000E+00 0.  1.
         11    1    3    3    0    0 -0.98512290367E+01  0.10953687651E+02  0.38608689898E+01  0.15229454892E+02  0.51100000000E-03 0. -1.
        -11    1    3    3    0    0 -0.10730249642E+02 -0.35957293155E+01  0.15886700032E+02  0.19505249674E+02  0.51100000000E-03 0.  1.
        -12    1    3    3    0    0  0.23000351358E+02 -0.25473315514E+02 -0.15665504445E+02  0.37726833890E+02  0.00000000000E+00 0.  1.
</event>
<event>
 7    1  0.2710146E-013  0.7246164E+02  0.7816164E-02  0.1226708E+00
        -11   -1    0    0    0    0  0.00000000000E+00  0.00000000000E+00  0.45593999997E+02  0.45594000000E+02  0.51100000000E-03 0.  1.
         11   -1    0    0    0    0 -0.00000000000E+00 -0.00000000000E+00 -0.45593999997E+02  0.45594000000E+02  0.51100000000E-03 0. -1.
    9900012    2    1    2    0    0  0.10608784924E+02 -0.44317357177E+01 -0.14781400884E+02  0.72461643944E+02  0.70000095943E+02 0.  0.
        -12    1    1    2    0    0 -0.10608784924E+02  0.44317357177E+01  0.14781400884E+02  0.18726356056E+02  0.00000000000E+00 0.  1.
         11    1    3    3    0    0  0.12967628201E+02 -0.41435684864E+01 -0.35237188390E+02  0.37775494529E+02  0.51100000000E-03 0. -1.
        -11    1    3    3    0    0 -0.14033497625E+02  0.42311893093E+01  0.67924602826E+01  0.16154861049E+02  0.51100000000E-03 0.  1.
        -12    1    3    3    0    0  0.11674654348E+02 -0.45193565406E+01  0.13663327224E+02  0.18531288366E+02  0.00000000000E+00 0.  1.
</event>
<event>
 7    1  0.2710146E-013  0.7246135E+02  0.7816164E-02  0.1226709E+00
        -11   -1    0    0    0    0  0.00000000000E+00  0.00000000000E+00  0.45593999997E+02  0.45594000000E+02  0.51100000000E-03 0.  1.
         11   -1    0    0    0    0 -0.00000000000E+00 -0.00000000000E+00 -0.45593999997E+02  0.45594000000E+02  0.51100000000E-03 0. -1.
    9900012    2    1    2    0    0  0.62644923855E+01  0.52425996091E+01 -0.16851074741E+02  0.72461349594E+02  0.69999712496E+02 0.  0.
        -12    1    1    2    0    0 -0.62644923855E+01 -0.52425996091E+01  0.16851074741E+02  0.18726650406E+02  0.00000000000E+00 0.  1.
         11    1    3    3    0    0  0.72394845703E+01 -0.36805108054E+01 -0.22449151982E+01  0.84259089207E+01  0.51100000000E-03 0. -1.
        -11    1    3    3    0    0  0.24426606347E+02  0.20926130710E+02  0.43539666839E+00  0.32167555311E+02  0.51100000000E-03 0.  1.
         12    1    3    3    0    0 -0.25401598532E+02 -0.12003020296E+02 -0.15041556211E+02  0.31867885362E+02  0.00000000000E+00 0. -1.
</event>
<event>
 7    1  0.2710146E-013  0.7246157E+02  0.7816164E-02  0.1226708E+00
        -11   -1    0    0    0    0  0.00000000000E+00  0.00000000000E+00  0.45593999997E+02  0.45594000000E+02  0.51100000000E-03 0. -1.
         11   -1    0    0    0    0 -0.00000000000E+00 -0.00000000000E+00 -0.45593999997E+02  0.45594000000E+02  0.51100000000E-03 0.  1.
    9900012    2    1    2    0    0  0.12140715695E+02  0.12715212717E+02  0.64502338893E+01  0.72461571369E+02  0.70000001401E+02 0.  0.
        -12    1    1    2    0    0 -0.12140715695E+02 -0.12715212717E+02 -0.64502338893E+01  0.18726428631E+02  0.00000000000E+00 0.  1.
         11    1    3    3    0    0  0.27428693674E+02  0.14700749162E+01  0.26482242465E+02  0.38154993423E+02  0.51100000000E-03 0. -1.
        -11    1    3    3    0    0  0.50913822015E+01  0.25406469118E+01 -0.40527628433E+01  0.69858389888E+01  0.51100000000E-03 0.  1.
        -12    1    3    3    0    0 -0.20379360181E+02  0.87044908892E+01 -0.15979245732E+02  0.27320738957E+02  0.00000000000E+00 0.  1.
</event>
<event>
 7    1  0.2710146E-013  0.7246154E+02  0.7816164E-02  0.1226708E+00
        -11   -1    0    0    0    0  0.00000000000E+00  0.00000000000E+00  0.45593999997E+02  0.45594000000E+02  0.51100000000E-03 0. -1.
         11   -1    0    0    0    0 -0.00000000000E+00 -0.00000000000E+00 -0.45593999997E+02  0.45594000000E+02  0.51100000000E-03 0.  1.
    9900012    2    1    2    0    0  0.14506196646E+02  0.55571133800E+01 -0.10457966252E+02  0.72461539887E+02  0.69999960389E+02 0.  0.
        -12    1    1    2    0    0 -0.14506196646E+02 -0.55571133800E+01  0.10457966252E+02  0.18726460113E+02  0.00000000000E+00 0.  1.
         11    1    3    3    0    0  0.80377020585E+00 -0.53843174658E+01 -0.35189134761E+01  0.64822583588E+01  0.51100000000E-03 0. -1.
        -11    1    3    3    0    0  0.31704793656E+02  0.11427080318E+02 -0.23840705288E+02  0.41281367883E+02  0.51100000000E-03 0.  1.
         12    1    3    3    0    0 -0.18002367216E+02 -0.48564947261E+00  0.16901652512E+02  0.24697913645E+02  0.00000000000E+00 0. -1.
</event>
<event>
 7    1  0.2710146E-013  0.7246160E+02  0.7816164E-02  0.1226708E+00
        -11   -1    0    0    0    0  0.00000000000E+00  0.00000000000E+00  0.45593999997E+02  0.45594000000E+02  0.51100000000E-03 0.  1.
         11   -1    0    0    0    0 -0.00000000000E+00 -0.00000000000E+00 -0.45593999997E+02  0.45594000000E+02  0.51100000000E-03 0. -1.
    9900012    2    1    2    0    0  0.84974590800E+01 -0.14112417392E+01 -0.16627679117E+02  0.72461598133E+02  0.70000036265E+02 0.  0.
        -12    1    1    2    0    0 -0.84974590800E+01  0.14112417392E+01  0.16627679117E+02  0.18726401867E+02  0.00000000000E+00 0.  1.
         11    1    3    3    0    0  0.23032730163E+02  0.14482326701E+02 -0.80358176686E+01  0.28369328707E+02  0.51100000000E-03 0. -1.
        -11    1    3    3    0    0  0.55117055291E+01 -0.21410835962E+02 -0.72068507331E+01  0.23253848975E+02  0.51100000000E-03 0.  1.
        -12    1    3    3    0    0 -0.20046976612E+02  0.55172675216E+01 -0.13850107151E+01  0.20838420451E+02  0.00000000000E+00 0.  1.
</event>
<event>
 7    1  0.2710146E-013  0.7246159E+02  0.7816164E-02  0.1226708E+00
        -11   -1    0    0    0    0  0.00000000000E+00  0.00000000000E+00  0.45593999997E+02  0.45594000000E+02  0.51100000000E-03 0.  1.
         11   -1    0    0    0    0 -0.00000000000E+00 -0.00000000000E+00 -0.45593999997E+02  0.45594000000E+02  0.51100000000E-03 0. -1.
    9900012    2    1    2    0    0  0.42074046885E+01  0.22234692534E+01 -0.18111665064E+02  0.72461588675E+02  0.70000023944E+02 0.  0.
        -12    1    1    2    0    0 -0.42074046885E+01 -0.22234692534E+01  0.18111665064E+02  0.18726411325E+02  0.00000000000E+00 0.  1.
         11    1    3    3    0    0 -0.13678707954E+02  0.12497987908E+02  0.73080332948E+00  0.18542945473E+02  0.51100000000E-03 0. -1.
        -11    1    3    3    0    0  0.26935417008E+02 -0.83280094455E+01  0.47358804152E+01  0.28588476600E+02  0.51100000000E-03 0.  1.
         12    1    3    3    0    0 -0.90493043659E+01 -0.19465092090E+01 -0.23578348808E+02  0.25330166603E+02  0.00000000000E+00 0. -1.
</event>
<event>
 7    1  0.2710146E-013  0.7246165E+02  0.7816164E-02  0.1226708E+00
        -11   -1    0    0    0    0  0.00000000000E+00  0.00000000000E+00  0.45593999997E+02  0.45594000000E+02  0.51100000000E-03 0.  1.
         11   -1    0    0    0    0 -0.00000000000E+00 -0.00000000000E+00 -0.45593999997E+02  0.45594000000E+02  0.51100000000E-03 0. -1.
    9900012    2    1    2    0    0 -0.81857340857E+01 -0.28751028865E+01 -0.16595296331E+02  0.72461646392E+02  0.70000099131E+02 0.  0.
        -12    1    1    2    0    0  0.81857340857E+01  0.28751028865E+01  0.16595296331E+02  0.18726353608E+02  0.00000000000E+00 0.  1.
         11    1    3    3    0    0 -0.38177383331E+01 -0.10573004388E+02  0.11395351032E+01  0.11298764900E+02  0.51100000000E-03 0. -1.
        -11    1    3    3    0    0 -0.19476319648E+02 -0.17610022068E+02  0.93326412651E+00  0.26273768029E+02  0.51100000000E-03 0.  1.
        -12    1    3    3    0    0  0.15108323896E+02  0.25307923569E+02 -0.18668095561E+02  0.34889113462E+02  0.00000000000E+00 0.  1.
</event>
<event>
 7    1  0.2710146E-013  0.7246178E+02  0.7816164E-02  0.1226707E+00
        -11   -1    0    0    0    0  0.00000000000E+00  0.00000000000E+00  0.45593999997E+02  0.45594000000E+02  0.51100000000E-03 0. -1.
         11   -1    0    0    0    0 -0.00000000000E+00 -0.00000000000E+00 -0.45593999997E+02  0.45594000000E+02  0.51100000000E-03 0.  1.
    9900012    2    1    2    0    0  0.10571645408E+02 -0.10140597286E+02  0.11665327477E+02  0.72461781345E+02  0.70000274932E+02 0.  0.
        -12    1    1    2    0    0 -0.10571645408E+02  0.10140597286E+02 -0.11665327477E+02  0.18726218655E+02  0.00000000000E+00 0.  1.
         11    1    3    3    0    0  0.30639533529E+02  0.32611677158E+01 -0.87772502986E+01  0.32038357524E+02  0.51100000000E-03 0. -1.
        -11    1    3    3    0    0 -0.11692518671E+02  0.28151571984E+01 -0.12296391789E+01  0.12089338927E+02  0.51100000000E-03 0.  1.
        -12    1    3    3    0    0 -0.83753694505E+01 -0.16216922200E+02  0.21672216955E+02  0.28334084894E+02  0.00000000000E+00 0.  1.
</event>
<event>
 7    1  0.2710146E-013  0.7246161E+02  0.7816164E-02  0.1226708E+00
        -11   -1    0    0    0    0  0.00000000000E+00  0.00000000000E+00  0.45593999997E+02  0.45594000000E+02  0.51100000000E-03 0. -1.
         11   -1    0    0    0    0 -0.00000000000E+00 -0.00000000000E+00 -0.45593999997E+02  0.45594000000E+02  0.51100000000E-03 0.  1.
    9900012    2    1    2    0    0  0.45461835353E+01 -0.58585723378E+01  0.17195547471E+02  0.72461614673E+02  0.70000057812E+02 0.  0.
        -12    1    1    2    0    0 -0.45461835353E+01  0.58585723378E+01 -0.17195547471E+02  0.18726385327E+02  0.00000000000E+00 0.  1.
         11    1    3    3    0    0  0.35852611312E+01  0.12455869095E+02 -0.12029456486E+02  0.17683625078E+02  0.51100000000E-03 0. -1.
        -11    1    3    3    0    0 -0.20291923025E+02 -0.81093631227E+01  0.87040283486E+01  0.23521990138E+02  0.51100000000E-03 0.  1.
        -12    1    3    3    0    0  0.21252845429E+02 -0.10205078310E+02  0.20520975608E+02  0.31255999457E+02  0.00000000000E+00 0.  1.
</event>
<event>
 7    1  0.2710146E-013  0.7246165E+02  0.7816164E-02  0.1226708E+00
        -11   -1    0    0    0    0  0.00000000000E+00  0.00000000000E+00  0.45593999997E+02  0.45594000000E+02  0.51100000000E-03 0.  1.
         11   -1    0    0    0    0 -0.00000000000E+00 -0.00000000000E+00 -0.45593999997E+02  0.45594000000E+02  0.51100000000E-03 0. -1.
    9900012    2    1    2    0    0  0.11303558612E+02 -0.10136134703E+02 -0.10961964036E+02  0.72461646390E+02  0.70000099128E+02 0.  0.
        -12    1    1    2    0    0 -0.11303558612E+02  0.10136134703E+02  0.10961964036E+02  0.18726353610E+02  0.00000000000E+00 0.  1.
         11    1    3    3    0    0  0.11740152156E+02 -0.41587636451E+00 -0.16358064770E+02  0.20139275287E+02  0.51100000000E-03 0. -1.
        -11    1    3    3    0    0  0.21274881180E+02 -0.18628772395E+02  0.16608257973E+00  0.28278601695E+02  0.51100000000E-03 0.  1.
         12    1    3    3    0    0 -0.21711474725E+02  0.89085140561E+01  0.52300181546E+01  0.24043769407E+02  0.00000000000E+00 0. -1.
</event>
<event>
 7    1  0.2710146E-013  0.7246159E+02  0.7816164E-02  0.1226708E+00
        -11   -1    0    0    0    0  0.00000000000E+00  0.00000000000E+00  0.45593999997E+02  0.45594000000E+02  0.51100000000E-03 0. -1.
         11   -1    0    0    0    0 -0.00000000000E+00 -0.00000000000E+00 -0.45593999997E+02  0.45594000000E+02  0.51100000000E-03 0.  1.
    9900012    2    1    2    0    0  0.12136339477E+02 -0.22350740805E+01  0.14085173761E+02  0.72461590523E+02  0.70000026351E+02 0.  0.
        -12    1    1    2    0    0 -0.12136339477E+02  0.22350740805E+01 -0.14085173761E+02  0.18726409477E+02  0.00000000000E+00 0.  1.
         11    1    3    3    0    0 -0.14012832518E+02  0.18712592514E+02 -0.56379458952E+00  0.23384577361E+02  0.51100000000E-03 0. -1.
        -11    1    3    3    0    0 -0.74635140097E+01 -0.18208915441E+01  0.51658122415E+01  0.92577159043E+01  0.51100000000E-03 0.  1.
        -12    1    3    3    0    0  0.33612686004E+02 -0.19126775050E+02  0.94831561090E+01  0.39819297257E+02  0.00000000000E+00 0.  1.
</event>
<event>
 7    1  0.2710146E-013  0.7246156E+02  0.7816164E-02  0.1226708E+00
        -11   -1    0    0    0    0  0.00000000000E+00  0.00000000000E+00  0.45593999997E+02  0.45594000000E+02  0.51100000000E-03 0. -1.
         11   -1    0    0    0    0 -0.00000000000E+00 -0.00000000000E+00 -0.45593999997E+02  0.45594000000E+02  0.51100000000E-03 0.  1.
    9900012    2    1    2    0    0  0.11096747888E+02  0.18167651345E+01  0.14974682877E+02  0.72461559427E+02  0.69999985844E+02 0.  0.
        -12    1    1    2    0    0 -0.11096747888E+02 -0.18167651345E+01 -0.14974682877E+02  0.18726440573E+02  0.00000000000E+00 0.  1.
         11    1    3    3    0    0 -0.69582682965E+01 -0.16468840647E+02  0.18738362238E+02  0.25899158858E+02  0.51100000000E-03 0. -1.
        -11    1    3    3    0    0  0.13503216933E+02  0.33054862467E+01  0.16099299109E+02  0.21270884771E+02  0.51100000000E-03 0.  1.
        -12    1    3    3    0    0  0.45517992513E+01  0.14980119535E+02 -0.19862978469E+02  0.25291515798E+02  0.00000000000E+00 0.  1.
</event>
<event>
 7    1  0.2710146E-013  0.7246154E+02  0.7816164E-02  0.1226708E+00
        -11   -1    0    0    0    0  0.00000000000E+00  0.00000000000E+00  0.45593999997E+02  0.45594000000E+02  0.51100000000E-03 0.  1.
         11   -1    0    0    0    0 -0.00000000000E+00 -0.00000000000E+00 -0.45593999997E+02  0.45594000000E+02  0.51100000000E-03 0. -1.
    9900012    2    1    2    0    0  0.68853377002E+01  0.96837411644E+00 -0.17387772606E+02  0.72461541181E+02  0.69999962075E+02 0.  0.
        -12    1    1    2    0    0 -0.68853377002E+01 -0.96837411644E+00  0.17387772606E+02  0.18726458819E+02  0.00000000000E+00 0.  1.
         11    1    3    3    0    0  0.30721514179E+01  0.29299032582E+01 -0.21396262943E+01  0.47539928879E+01  0.51100000000E-03 0. -1.
        -11    1    3    3    0    0 -0.41179162339E+01 -0.12233274455E+02 -0.38759605617E+02  0.40852383845E+02  0.51100000000E-03 0.  1.
        -12    1    3    3    0    0  0.79311025162E+01  0.10271745314E+02  0.23511459305E+02  0.26855164448E+02  0.00000000000E+00 0.  1.
</event>
<event>
 7    1  0.2710146E-013  0.7246156E+02  0.7816164E-02  0.1226708E+00
        -11   -1    0    0    0    0  0.00000000000E+00  0.00000000000E+00  0.45593999997E+02  0.45594000000E+02  0.51100000000E-03 0.  1.
         11   -1    0    0    0    0 -0.00000000000E+00 -0.00000000000E+00 -0.45593999997E+02  0.45594000000E+02  0.51100000000E-03 0. -1.
    9900012    2    1    2    0    0  0.14637328942E+02 -0.10336028062E+02 -0.54400954703E+01  0.72461561113E+02  0.69999988039E+02 0.  0.
        -12    1    1    2    0    0 -0.14637328942E+02  0.10336028062E+02  0.54400954703E+01  0.18726438887E+02  0.00000000000E+00 0.  1.
         11    1    3    3    0    0  0.90366473321E+01 -0.23871755317E+02 -0.20084960218E+02  0.32479644767E+02  0.51100000000E-03 0. -1.
        -11    1    3    3    0    0  0.10482439916E+02 -0.91034210563E+01  0.72990413790E+01  0.15685337957E+02  0.51100000000E-03 0.  1.
        -12    1    3    3    0    0 -0.48817583060E+01  0.22639148312E+02  0.73458233690E+01  0.24296578389E+02  0.00000000000E+00 0.  1.
</event>
<event>
 7    1  0.2710146E-013  0.7246158E+02  0.7816164E-02  0.1226708E+00
        -11   -1    0    0    0    0  0.00000000000E+00  0.00000000000E+00  0.45593999997E+02  0.45594000000E+02  0.51100000000E-03 0. -1.
         11   -1    0    0    0    0 -0.00000000000E+00 -0.00000000000E+00 -0.45593999997E+02  0.45594000000E+02  0.51100000000E-03 0.  1.
    9900012    2    1    2    0    0  0.12039921775E+02  0.95102834380E+01  0.10736552563E+02  0.72461581006E+02  0.70000013953E+02 0.  0.
        -12    1    1    2    0    0 -0.12039921775E+02 -0.95102834380E+01 -0.10736552563E+02  0.18726418994E+02  0.00000000000E+00 0.  1.
         11    1    3    3    0    0 -0.54192707401E+01  0.24043846419E+01  0.45568378643E+01  0.74775886784E+01  0.51100000000E-03 0. -1.
        -11    1    3    3    0    0 -0.48002567416E+01 -0.23509323475E+02  0.11762641009E+02  0.26722471420E+02  0.51100000000E-03 0.  1.
         12    1    3    3    0    0  0.22259449256E+02  0.30615222271E+02 -0.55829263095E+01  0.38261520907E+02  0.00000000000E+00 0. -1.
</event>
<event>
 7    1  0.2710146E-013  0.7246156E+02  0.7816164E-02  0.1226708E+00
        -11   -1    0    0    0    0  0.00000000000E+00  0.00000000000E+00  0.45593999997E+02  0.45594000000E+02  0.51100000000E-03 0. -1.
         11   -1    0    0    0    0 -0.00000000000E+00 -0.00000000000E+00 -0.45593999997E+02  0.45594000000E+02  0.51100000000E-03 0.  1.
    9900012    2    1    2    0    0  0.29679734672E+01  0.43414734439E+01  0.17972825066E+02  0.72461556157E+02  0.69999981583E+02 0.  0.
        -12    1    1    2    0    0 -0.29679734672E+01 -0.43414734439E+01 -0.17972825066E+02  0.18726443843E+02  0.00000000000E+00 0.  1.
         11    1    3    3    0    0  0.20080481993E+01 -0.70593349076E+00  0.65327869475E+01  0.68708009160E+01  0.51100000000E-03 0. -1.
        -11    1    3    3    0    0 -0.19692296854E+02 -0.94854305758E+01  0.27903359163E+02  0.35445132267E+02  0.51100000000E-03 0.  1.
         12    1    3    3    0    0  0.20652222122E+02  0.14532837510E+02 -0.16463321044E+02  0.30145622974E+02  0.00000000000E+00 0. -1.
</event>
<event>
 7    1  0.2710146E-013  0.7246158E+02  0.7816164E-02  0.1226708E+00
        -11   -1    0    0    0    0  0.00000000000E+00  0.00000000000E+00  0.45593999997E+02  0.45594000000E+02  0.51100000000E-03 0. -1.
         11   -1    0    0    0    0 -0.00000000000E+00 -0.00000000000E+00 -0.45593999997E+02  0.45594000000E+02  0.51100000000E-03 0.  1.
    9900012    2    1    2    0    0  0.11218907823E+02 -0.14912392868E+02 -0.15606321016E+01  0.72461576788E+02  0.70000008459E+02 0.  0.
        -12    1    1    2    0    0 -0.11218907823E+02  0.14912392868E+02  0.15606321016E+01  0.18726423212E+02  0.00000000000E+00 0.  1.
         11    1    3    3    0    0  0.82022633562E+01 -0.21227798590E+01 -0.50538691292E+01  0.98653389161E+01  0.51100000000E-03 0. -1.
        -11    1    3    3    0    0  0.15507870599E+02 -0.22198618922E+02  0.24425392554E+02  0.36467417433E+02  0.51100000000E-03 0.  1.
         12    1    3    3    0    0 -0.12491226132E+02  0.94090059129E+01 -0.20932155526E+02  0.26128820439E+02  0.00000000000E+00 0. -1.
</event>
<event>
 7    1  0.2710146E-013  0.7246159E+02  0.7816164E-02  0.1226708E+00
        -11   -1    0    0    0    0  0.00000000000E+00  0.00000000000E+00  0.45593999997E+02  0.45594000000E+02  0.51100000000E-03 0.  1.
         11   -1    0    0    0    0 -0.00000000000E+00 -0.00000000000E+00 -0.45593999997E+02  0.45594000000E+02  0.51100000000E-03 0. -1.
    9900012    2    1    2    0    0  0.94197738731E+01 -0.14100004837E+02 -0.79458322456E+01  0.72461587468E+02  0.70000022372E+02 0.  0.
        -12    1    1    2    0    0 -0.94197738731E+01  0.14100004837E+02  0.79458322456E+01  0.18726412532E+02  0.00000000000E+00 0.  1.
         11    1    3    3    0    0 -0.12314458836E+02 -0.10942750898E+02 -0.94661771630E+01  0.18999952737E+02  0.51100000000E-03 0. -1.
        -11    1    3    3    0    0  0.10750976524E+02 -0.22780905005E+02  0.12852365597E+02  0.28279611574E+02  0.51100000000E-03 0.  1.
        -12    1    3    3    0    0  0.10983256186E+02  0.19623651067E+02 -0.11332020680E+02  0.25182023157E+02  0.00000000000E+00 0.  1.
</event>
<event>
 7    1  0.2710146E-013  0.7246161E+02  0.7816164E-02  0.1226708E+00
        -11   -1    0    0    0    0  0.00000000000E+00  0.00000000000E+00  0.45593999997E+02  0.45594000000E+02  0.51100000000E-03 0. -1.
         11   -1    0    0    0    0 -0.00000000000E+00 -0.00000000000E+00 -0.45593999997E+02  0.45594000000E+02  0.51100000000E-03 0.  1.
    9900012    2    1    2    0    0  0.88494788184E+00 -0.15485638030E+02  0.10492362212E+02  0.72461607322E+02  0.70000048235E+02 0.  0.
        -12    1    1    2    0    0 -0.88494788184E+00  0.15485638030E+02 -0.10492362212E+02  0.18726392678E+02  0.00000000000E+00 0.  1.
         11    1    3    3    0    0  0.12517718087E+02 -0.12462276256E+02  0.20950614466E+02  0.27403099138E+02  0.51100000000E-03 0. -1.
        -11    1    3    3    0    0  0.34304251846E+01  0.58188536900E+01  0.13683964416E+02  0.15260332814E+02  0.51100000000E-03 0.  1.
        -12    1    3    3    0    0 -0.15063195390E+02 -0.88422154639E+01 -0.24142216669E+02  0.29798175370E+02  0.00000000000E+00 0.  1.
</event>
<event>
 7    1  0.2710146E-013  0.7246154E+02  0.7816164E-02  0.1226708E+00
        -11   -1    0    0    0    0  0.00000000000E+00  0.00000000000E+00  0.45593999997E+02  0.45594000000E+02  0.51100000000E-03 0.  1.
         11   -1    0    0    0    0 -0.00000000000E+00 -0.00000000000E+00 -0.45593999997E+02  0.45594000000E+02  0.51100000000E-03 0. -1.
    9900012    2    1    2    0    0 -0.28953513172E+01 -0.13166163848E+01 -0.18454365822E+02  0.72461543959E+02  0.69999965693E+02 0.  0.
        -12    1    1    2    0    0  0.28953513172E+01  0.13166163848E+01  0.18454365822E+02  0.18726456041E+02  0.00000000000E+00 0.  1.
         11    1    3    3    0    0 -0.79344089416E+01  0.69643204050E+01  0.83112547289E+01  0.13436277735E+02  0.51100000000E-03 0.  1.
        -11    1    3    3    0    0  0.85942411450E+01 -0.35051855081E+01 -0.41819338377E+02  0.42836950976E+02  0.51100000000E-03 0. -1.
         12    1    3    3    0    0 -0.35551835206E+01 -0.47757512817E+01  0.15053717826E+02  0.16188315248E+02  0.00000000000E+00 0. -1.
</event>
<event>
 7    1  0.2710146E-013  0.7246158E+02  0.7816164E-02  0.1226708E+00
        -11   -1    0    0    0    0  0.00000000000E+00  0.00000000000E+00  0.45593999997E+02  0.45594000000E+02  0.51100000000E-03 0.  1.
         11   -1    0    0    0    0 -0.00000000000E+00 -0.00000000000E+00 -0.45593999997E+02  0.45594000000E+02  0.51100000000E-03 0. -1.
    9900012    2    1    2    0    0 -0.16354460167E+02  0.27451925841E+01 -0.86991073585E+01  0.72461576997E+02  0.70000008731E+02 0.  0.
        -12    1    1    2    0    0  0.16354460167E+02 -0.27451925841E+01  0.86991073585E+01  0.18726423003E+02  0.00000000000E+00 0.  1.
         11    1    3    3    0    0 -0.15331518586E+02 -0.12077667629E+02 -0.63319528932E+01  0.20518751064E+02  0.51100000000E-03 0. -1.
        -11    1    3    3    0    0 -0.16029571949E+02 -0.44943499202E+01  0.14624567602E+02  0.22159068931E+02  0.51100000000E-03 0.  1.
         12    1    3    3    0    0  0.15006630369E+02  0.19317210134E+02 -0.16991722067E+02  0.29783757002E+02  0.00000000000E+00 0. -1.
</event>
<event>
 7    1  0.2710146E-013  0.7246160E+02  0.7816164E-02  0.1226708E+00
        -11   -1    0    0    0    0  0.00000000000E+00  0.00000000000E+00  0.45593999997E+02  0.45594000000E+02  0.51100000000E-03 0. -1.
         11   -1    0    0    0    0 -0.00000000000E+00 -0.00000000000E+00 -0.45593999997E+02  0.45594000000E+02  0.51100000000E-03 0.  1.
    9900012    2    1    2    0    0 -0.14831558749E+02  0.11387914988E+02 -0.10091831081E+01  0.72461596361E+02  0.70000033957E+02 0.  0.
        -12    1    1    2    0    0  0.14831558749E+02 -0.11387914988E+02  0.10091831081E+01  0.18726403639E+02  0.00000000000E+00 0.  1.
         11    1    3    3    0    0 -0.29277559033E+01 -0.14013168357E+02 -0.13529397720E+02  0.19697341063E+02  0.51100000000E-03 0. -1.
        -11    1    3    3    0    0  0.68676052029E+01 -0.91739698503E+01  0.58296580181E+01  0.12857318418E+02  0.51100000000E-03 0.  1.
         12    1    3    3    0    0 -0.18771408049E+02  0.34575053195E+02  0.66905565937E+01  0.39906936880E+02  0.00000000000E+00 0. -1.
</event>
<event>
 7    1  0.2710146E-013  0.7246152E+02  0.7816164E-02  0.1226708E+00
        -11   -1    0    0    0    0  0.00000000000E+00  0.00000000000E+00  0.45593999997E+02  0.45594000000E+02  0.51100000000E-03 0.  1.
         11   -1    0    0    0    0 -0.00000000000E+00 -0.00000000000E+00 -0.45593999997E+02  0.45594000000E+02  0.51100000000E-03 0. -1.
    9900012    2    1    2    0    0 -0.81557281398E+00 -0.18514614334E+02  0.26879548208E+01  0.72461515971E+02  0.69999929234E+02 0.  0.
        -12    1    1    2    0    0  0.81557281398E+00  0.18514614334E+02 -0.26879548208E+01  0.18726484029E+02  0.00000000000E+00 0.  1.
         11    1    3    3    0    0 -0.10321027393E+01 -0.19416173521E+02 -0.10338809666E+02  0.22021444453E+02  0.51100000000E-03 0. -1.
        -11    1    3    3    0    0 -0.22855622606E+01  0.14953577901E+02 -0.13527141161E+02  0.20293270686E+02  0.51100000000E-03 0.  1.
        -12    1    3    3    0    0  0.25020921860E+01 -0.14052018715E+02  0.26553905647E+02  0.30146800832E+02  0.00000000000E+00 0.  1.
</event>
<event>
 7    1  0.2710146E-013  0.7246156E+02  0.7816164E-02  0.1226708E+00
        -11   -1    0    0    0    0  0.00000000000E+00  0.00000000000E+00  0.45593999997E+02  0.45594000000E+02  0.51100000000E-03 0. -1.
         11   -1    0    0    0    0 -0.00000000000E+00 -0.00000000000E+00 -0.45593999997E+02  0.45594000000E+02  0.51100000000E-03 0.  1.
    9900012    2    1    2    0    0 -0.11334039944E+02 -0.32830068716E+01  0.14541006290E+02  0.72461562552E+02  0.69999989914E+02 0.  0.
        -12    1    1    2    0    0  0.11334039944E+02  0.32830068716E+01 -0.14541006290E+02  0.18726437448E+02  0.00000000000E+00 0.  1.
         11    1    3    3    0    0  0.79366044209E+01  0.95513367410E+01  0.67168964163E+01  0.14118584242E+02  0.51100000000E-03 0. -1.
        -11    1    3    3    0    0  0.10688213649E+02  0.46699691815E+01  0.18648732335E+02  0.21995948289E+02  0.51100000000E-03 0.  1.
         12    1    3    3    0    0 -0.29958858015E+02 -0.17504312794E+02 -0.10824622461E+02  0.36347030021E+02  0.00000000000E+00 0. -1.
</event>
<event>
 7    1  0.2710146E-013  0.7246147E+02  0.7816164E-02  0.1226708E+00
        -11   -1    0    0    0    0  0.00000000000E+00  0.00000000000E+00  0.45593999997E+02  0.45594000000E+02  0.51100000000E-03 0.  1.
         11   -1    0    0    0    0 -0.00000000000E+00 -0.00000000000E+00 -0.45593999997E+02  0.45594000000E+02  0.51100000000E-03 0. -1.
    9900012    2    1    2    0    0  0.11333463667E+02  0.11492317460E+02 -0.94953713954E+01  0.72461472366E+02  0.69999872430E+02 0.  0.
        -12    1    1    2    0    0 -0.11333463667E+02 -0.11492317460E+02  0.94953713954E+01  0.18726527634E+02  0.00000000000E+00 0.  1.
         11    1    3    3    0    0 -0.18456143682E+02  0.27978845561E+02 -0.64662125847E+01  0.34135860089E+02  0.51100000000E-03 0. -1.
        -11    1    3    3    0    0 -0.19582676199E+01  0.23875869225E+00 -0.13727479272E+01  0.24033840552E+01  0.51100000000E-03 0.  1.
        -12    1    3    3    0    0  0.31747874969E+02 -0.16725286793E+02 -0.16564108835E+01  0.35922228222E+02  0.00000000000E+00 0.  1.
</event>
<event>
 7    1  0.2710146E-013  0.7246160E+02  0.7816164E-02  0.1226708E+00
        -11   -1    0    0    0    0  0.00000000000E+00  0.00000000000E+00  0.45593999997E+02  0.45594000000E+02  0.51100000000E-03 0.  1.
         11   -1    0    0    0    0 -0.00000000000E+00 -0.00000000000E+00 -0.45593999997E+02  0.45594000000E+02  0.51100000000E-03 0. -1.
    9900012    2    1    2    0    0 -0.37980531406E+01 -0.15965548693E+02  0.90196574539E+01  0.72461596894E+02  0.70000034651E+02 0.  0.
        -12    1    1    2    0    0  0.37980531406E+01  0.15965548693E+02 -0.90196574539E+01  0.18726403106E+02  0.00000000000E+00 0.  1.
         11    1    3    3    0    0  0.18189225261E+02 -0.11339947907E+02 -0.20388897737E+02  0.29582925571E+02  0.51100000000E-03 0. -1.
        -11    1    3    3    0    0 -0.73427345320E+00  0.69226236877E+01  0.76634447083E+01  0.10353272974E+02  0.51100000000E-03 0.  1.
        -12    1    3    3    0    0 -0.21253004949E+02 -0.11548224474E+02  0.21745110483E+02  0.32525398349E+02  0.00000000000E+00 0.  1.
</event>
<event>
 7    1  0.2710146E-013  0.7246156E+02  0.7816164E-02  0.1226708E+00
        -11   -1    0    0    0    0  0.00000000000E+00  0.00000000000E+00  0.45593999997E+02  0.45594000000E+02  0.51100000000E-03 0. -1.
         11   -1    0    0    0    0 -0.00000000000E+00 -0.00000000000E+00 -0.45593999997E+02  0.45594000000E+02  0.51100000000E-03 0.  1.
    9900012    2    1    2    0    0 -0.50700785644E+01  0.17973888981E+02 -0.13831706795E+01  0.72461560326E+02  0.69999987014E+02 0.  0.
        -12    1    1    2    0    0  0.50700785644E+01 -0.17973888981E+02  0.13831706795E+01  0.18726439674E+02  0.00000000000E+00 0.  1.
         11    1    3    3    0    0  0.85547037160E+01  0.10617696245E+02  0.19047197627E+02  0.23424648704E+02  0.51100000000E-03 0. -1.
        -11    1    3    3    0    0 -0.68707383678E+01 -0.34357229080E+01  0.11971182475E+02  0.14223939248E+02  0.51100000000E-03 0.  1.
         12    1    3    3    0    0 -0.67540439127E+01  0.10791915644E+02 -0.32401550781E+02  0.34812972374E+02  0.00000000000E+00 0. -1.
</event>
<event>
 7    1  0.2710146E-013  0.7246157E+02  0.7816164E-02  0.1226708E+00
        -11   -1    0    0    0    0  0.00000000000E+00  0.00000000000E+00  0.45593999997E+02  0.45594000000E+02  0.51100000000E-03 0. -1.
         11   -1    0    0    0    0 -0.00000000000E+00 -0.00000000000E+00 -0.45593999997E+02  0.45594000000E+02  0.51100000000E-03 0.  1.
    9900012    2    1    2    0    0  0.13737672490E+02 -0.12539852020E+02  0.21697037823E+01  0.72461570852E+02  0.70000000726E+02 0.  0.
        -12    1    1    2    0    0 -0.13737672490E+02  0.12539852020E+02 -0.21697037823E+01  0.18726429148E+02  0.00000000000E+00 0.  1.
         11    1    3    3    0    0  0.51726625026E+01  0.14421551709E+01 -0.10633136461E+00  0.53709920427E+01  0.51100000000E-03 0. -1.
        -11    1    3    3    0    0  0.19847352494E+02 -0.31102882481E+02 -0.15436964063E+02  0.39995081690E+02  0.51100000000E-03 0.  1.
         12    1    3    3    0    0 -0.11282342506E+02  0.17120875289E+02  0.17712999210E+02  0.27095497119E+02  0.00000000000E+00 0. -1.
</event>
<event>
 7    1  0.2710146E-013  0.7246157E+02  0.7816164E-02  0.1226708E+00
        -11   -1    0    0    0    0  0.00000000000E+00  0.00000000000E+00  0.45593999997E+02  0.45594000000E+02  0.51100000000E-03 0.  1.
         11   -1    0    0    0    0 -0.00000000000E+00 -0.00000000000E+00 -0.45593999997E+02  0.45594000000E+02  0.51100000000E-03 0. -1.
    9900012    2    1    2    0    0  0.10836099634E+02  0.86977666079E+00 -0.15248008393E+02  0.72461566099E+02  0.69999994535E+02 0.  0.
        -12    1    1    2    0    0 -0.10836099634E+02 -0.86977666079E+00  0.15248008393E+02  0.18726433901E+02  0.00000000000E+00 0.  1.
         11    1    3    3    0    0 -0.84049535631E+01 -0.55527255991E+01  0.22862053090E+01  0.10329701881E+02  0.51100000000E-03 0. -1.
        -11    1    3    3    0    0 -0.11371944761E+02 -0.14580335379E+02  0.44057397117E+01  0.19008362636E+02  0.51100000000E-03 0.  1.
         12    1    3    3    0    0  0.30612997958E+02  0.21002837639E+02 -0.21939953413E+02  0.43123501582E+02  0.00000000000E+00 0. -1.
</event>
<event>
 7    1  0.2710146E-013  0.7246167E+02  0.7816164E-02  0.1226708E+00
        -11   -1    0    0    0    0  0.00000000000E+00  0.00000000000E+00  0.45593999997E+02  0.45594000000E+02  0.51100000000E-03 0.  1.
         11   -1    0    0    0    0 -0.00000000000E+00 -0.00000000000E+00 -0.45593999997E+02  0.45594000000E+02  0.51100000000E-03 0. -1.
    9900012    2    1    2    0    0  0.10170702626E+02  0.14334309862E+02 -0.64621941013E+01  0.72461666036E+02  0.70000124721E+02 0.  0.
        -12    1    1    2    0    0 -0.10170702626E+02 -0.14334309862E+02  0.64621941013E+01  0.18726333964E+02  0.00000000000E+00 0.  1.
         11    1    3    3    0    0  0.30358471026E+01  0.96645195428E+00  0.43485021131E+01  0.53907205362E+01  0.51100000000E-03 0. -1.
        -11    1    3    3    0    0 -0.79396597873E+00 -0.56037967877E+01  0.25078289434E+02  0.25709016348E+02  0.51100000000E-03 0.  1.
         12    1    3    3    0    0  0.79288215024E+01  0.18971654695E+02 -0.35888985648E+02  0.41361929152E+02  0.00000000000E+00 0. -1.
</event>
<event>
 7    1  0.2710146E-013  0.7246150E+02  0.7816164E-02  0.1226708E+00
        -11   -1    0    0    0    0  0.00000000000E+00  0.00000000000E+00  0.45593999997E+02  0.45594000000E+02  0.51100000000E-03 0.  1.
         11   -1    0    0    0    0 -0.00000000000E+00 -0.00000000000E+00 -0.45593999997E+02  0.45594000000E+02  0.51100000000E-03 0. -1.
    9900012    2    1    2    0    0  0.17385583077E+02 -0.57609398586E+01 -0.39031660617E+01  0.72461504538E+02  0.69999914340E+02 0.  0.
        -12    1    1    2    0    0 -0.17385583077E+02  0.57609398586E+01  0.39031660617E+01  0.18726495462E+02  0.00000000000E+00 0.  1.
         11    1    3    3    0    0  0.23162473754E+01  0.10037307935E+02 -0.28996643727E+02  0.30772031135E+02  0.51100000000E-03 0. -1.
        -11    1    3    3    0    0  0.12531639763E+02 -0.10492820709E+02  0.44650359352E+00  0.16350554954E+02  0.51100000000E-03 0.  1.
         12    1    3    3    0    0  0.25376959389E+01 -0.53054270846E+01  0.24646974072E+02  0.25338918448E+02  0.00000000000E+00 0. -1.
</event>
<event>
 7    1  0.2710146E-013  0.7246137E+02  0.7816164E-02  0.1226709E+00
        -11   -1    0    0    0    0  0.00000000000E+00  0.00000000000E+00  0.45593999997E+02  0.45594000000E+02  0.51100000000E-03 0. -1.
         11   -1    0    0    0    0 -0.00000000000E+00 -0.00000000000E+00 -0.45593999997E+02  0.45594000000E+02  0.51100000000E-03 0.  1.
    9900012    2    1    2    0    0  0.18523208468E+02 -0.25479118759E+01 -0.10418765756E+01  0.72461371534E+02  0.69999741078E+02 0.  0.
        -12    1    1    2    0    0 -0.18523208468E+02  0.25479118759E+01  0.10418765756E+01  0.18726628466E+02  0.00000000000E+00 0.  1.
         11    1    3    3    0    0  0.99358391697E+01 -0.71222466330E+01  0.11774317973E+02  0.16972974433E+02  0.51100000000E-03 0. -1.
        -11    1    3    3    0    0  0.11517783701E+02 -0.47035123261E+01  0.18724635675E+02  0.22480977537E+02  0.51100000000E-03 0.  1.
        -12    1    3    3    0    0 -0.29304144023E+01  0.92778470832E+01 -0.31540830224E+02  0.33007419564E+02  0.00000000000E+00 0.  1.
</event>
<event>
 7    1  0.2710146E-013  0.7246157E+02  0.7816164E-02  0.1226708E+00
        -11   -1    0    0    0    0  0.00000000000E+00  0.00000000000E+00  0.45593999997E+02  0.45594000000E+02  0.51100000000E-03 0.  1.
         11   -1    0    0    0    0 -0.00000000000E+00 -0.00000000000E+00 -0.45593999997E+02  0.45594000000E+02  0.51100000000E-03 0. -1.
    9900012    2    1    2    0    0 -0.16841352067E+02  0.61561816407E+01 -0.53990389668E+01  0.72461565914E+02  0.69999994293E+02 0.  0.
        -12    1    1    2    0    0  0.16841352067E+02 -0.61561816407E+01  0.53990389668E+01  0.18726434086E+02  0.00000000000E+00 0.  1.
         11    1    3    3    0    0  0.49510571382E+01 -0.11694158210E+02  0.65535844062E+01  0.14290408387E+02  0.51100000000E-03 0. -1.
        -11    1    3    3    0    0  0.11044716229E+02 -0.18877736101E+01 -0.16120732045E+02  0.19632306225E+02  0.51100000000E-03 0.  1.
        -12    1    3    3    0    0 -0.32837125434E+02  0.19738113461E+02  0.41681086716E+01  0.38538851302E+02  0.00000000000E+00 0.  1.
</event>
<event>
 7    1  0.2710146E-013  0.7246154E+02  0.7816164E-02  0.1226708E+00
        -11   -1    0    0    0    0  0.00000000000E+00  0.00000000000E+00  0.45593999997E+02  0.45594000000E+02  0.51100000000E-03 0. -1.
         11   -1    0    0    0    0 -0.00000000000E+00 -0.00000000000E+00 -0.45593999997E+02  0.45594000000E+02  0.51100000000E-03 0.  1.
    9900012    2    1    2    0    0 -0.13476535168E+01 -0.24953068283E+01  0.18510474025E+02  0.72461538113E+02  0.69999958078E+02 0.  0.
        -12    1    1    2    0    0  0.13476535168E+01  0.24953068283E+01 -0.18510474025E+02  0.18726461887E+02  0.00000000000E+00 0.  1.
         11    1    3    3    0    0 -0.30659640839E+02  0.39869295218E+01  0.86673572755E+01  0.32109691151E+02  0.51100000000E-03 0. -1.
        -11    1    3    3    0    0  0.44825001372E+01  0.82678195025E+01  0.61484678756E+01  0.11236249565E+02  0.51100000000E-03 0.  1.
        -12    1    3    3    0    0  0.24829487185E+02 -0.14750055853E+02  0.36946488736E+01  0.29115597398E+02  0.00000000000E+00 0.  1.
</event>
<event>
 7    1  0.2710146E-013  0.7246160E+02  0.7816164E-02  0.1226708E+00
        -11   -1    0    0    0    0  0.00000000000E+00  0.00000000000E+00  0.45593999997E+02  0.45594000000E+02  0.51100000000E-03 0.  1.
         11   -1    0    0    0    0 -0.00000000000E+00 -0.00000000000E+00 -0.45593999997E+02  0.45594000000E+02  0.51100000000E-03 0. -1.
    9900012    2    1    2    0    0  0.78955737515E+01 -0.26511545976E+01 -0.16772284693E+02  0.72461595129E+02  0.70000032352E+02 0.  0.
        -12    1    1    2    0    0 -0.78955737515E+01  0.26511545976E+01  0.16772284693E+02  0.18726404871E+02  0.00000000000E+00 0.  1.
         11    1    3    3    0    0  0.18462561954E+02 -0.12580364807E+02 -0.30095731092E+02  0.37481792951E+02  0.51100000000E-03 0. -1.
        -11    1    3    3    0    0 -0.91653391081E-02  0.51919282335E+01 -0.86826902799E+01  0.10116586062E+02  0.51100000000E-03 0.  1.
        -12    1    3    3    0    0 -0.10557822864E+02  0.47372819757E+01  0.22006136679E+02  0.24863216116E+02  0.00000000000E+00 0.  1.
</event>
<event>
 7    1  0.2710146E-013  0.7246158E+02  0.7816164E-02  0.1226708E+00
        -11   -1    0    0    0    0  0.00000000000E+00  0.00000000000E+00  0.45593999997E+02  0.45594000000E+02  0.51100000000E-03 0. -1.
         11   -1    0    0    0    0 -0.00000000000E+00 -0.00000000000E+00 -0.45593999997E+02  0.45594000000E+02  0.51100000000E-03 0.  1.
    9900012    2    1    2    0    0 -0.92855292258E+01  0.13783037158E+02  0.86305100769E+01  0.72461578278E+02  0.70000010401E+02 0.  0.
        -12    1    1    2    0    0  0.92855292258E+01 -0.13783037158E+02 -0.86305100769E+01  0.18726421722E+02  0.00000000000E+00 0.  1.
         11    1    3    3    0    0  0.38383807430E+01 -0.69420620391E-01 -0.65483750873E+01  0.75907313545E+01  0.51100000000E-03 0. -1.
        -11    1    3    3    0    0 -0.66503718268E+01 -0.13879414505E+02 -0.16303060558E+02  0.22419977169E+02  0.51100000000E-03 0.  1.
         12    1    3    3    0    0 -0.64735381420E+01  0.27731872284E+02  0.31481945722E+02  0.42450869755E+02  0.00000000000E+00 0. -1.
</event>
<event>
 7    1  0.2710146E-013  0.7246168E+02  0.7816164E-02  0.1226708E+00
        -11   -1    0    0    0    0  0.00000000000E+00  0.00000000000E+00  0.45593999997E+02  0.45594000000E+02  0.51100000000E-03 0. -1.
         11   -1    0    0    0    0 -0.00000000000E+00 -0.00000000000E+00 -0.45593999997E+02  0.45594000000E+02  0.51100000000E-03 0.  1.
    9900012    2    1    2    0    0 -0.37434554124E+01  0.38366975534E+01  0.17942724103E+02  0.72461680159E+02  0.70000143120E+02 0.  0.
        -12    1    1    2    0    0  0.37434554124E+01 -0.38366975534E+01 -0.17942724103E+02  0.18726319841E+02  0.00000000000E+00 0.  1.
         11    1    3    3    0    0  0.17482844578E+02 -0.34889350202E+01  0.25790756933E+02  0.31352602214E+02  0.51100000000E-03 0. -1.
        -11    1    3    3    0    0 -0.10202576372E+02 -0.13418713746E+02 -0.29720176860E+01  0.17116872746E+02  0.51100000000E-03 0.  1.
        -12    1    3    3    0    0 -0.11023723619E+02  0.20744346320E+02 -0.48760151445E+01  0.23992205200E+02  0.00000000000E+00 0.  1.
</event>
<event>
 7    1  0.2710146E-013  0.7246158E+02  0.7816164E-02  0.1226708E+00
        -11   -1    0    0    0    0  0.00000000000E+00  0.00000000000E+00  0.45593999997E+02  0.45594000000E+02  0.51100000000E-03 0. -1.
         11   -1    0    0    0    0 -0.00000000000E+00 -0.00000000000E+00 -0.45593999997E+02  0.45594000000E+02  0.51100000000E-03 0.  1.
    9900012    2    1    2    0    0  0.48948006890E+01  0.12451255371E+02  0.13102902481E+02  0.72461577824E+02  0.70000009809E+02 0.  0.
        -12    1    1    2    0    0 -0.48948006890E+01 -0.12451255371E+02 -0.13102902481E+02  0.18726422176E+02  0.00000000000E+00 0.  1.
         11    1    3    3    0    0  0.68709188368E+01 -0.10226567171E+02  0.13162718315E+01  0.12390511432E+02  0.51100000000E-03 0. -1.
        -11    1    3    3    0    0  0.68917353690E+00  0.27109142290E+01 -0.21219699421E+02  0.21403262833E+02  0.51100000000E-03 0.  1.
         12    1    3    3    0    0 -0.26652916848E+01  0.19966908313E+02  0.33006330070E+02  0.38667803559E+02  0.00000000000E+00 0. -1.
</event>
<event>
 7    1  0.2710146E-013  0.7246146E+02  0.7816164E-02  0.1226708E+00
        -11   -1    0    0    0    0  0.00000000000E+00  0.00000000000E+00  0.45593999997E+02  0.45594000000E+02  0.51100000000E-03 0.  1.
         11   -1    0    0    0    0 -0.00000000000E+00 -0.00000000000E+00 -0.45593999997E+02  0.45594000000E+02  0.51100000000E-03 0. -1.
    9900012    2    1    2    0    0  0.81775831406E+01 -0.49056031002E+01 -0.16116616929E+02  0.72461464041E+02  0.69999861585E+02 0.  0.
        -12    1    1    2    0    0 -0.81775831406E+01  0.49056031002E+01  0.16116616929E+02  0.18726535959E+02  0.00000000000E+00 0.  1.
         11    1    3    3    0    0  0.78137628887E+01  0.44353086090E+00 -0.19623380678E+01  0.80686046537E+01  0.51100000000E-03 0. -1.
        -11    1    3    3    0    0  0.10647864572E+02  0.23077606087E+02  0.82994455459E+01  0.26736374460E+02  0.51100000000E-03 0.  1.
         12    1    3    3    0    0 -0.10284044320E+02 -0.28426740048E+02 -0.22453724407E+02  0.37656484927E+02  0.00000000000E+00 0. -1.
</event>
<event>
 7    1  0.2710146E-013  0.7246151E+02  0.7816164E-02  0.1226708E+00
        -11   -1    0    0    0    0  0.00000000000E+00  0.00000000000E+00  0.45593999997E+02  0.45594000000E+02  0.51100000000E-03 0. -1.
         11   -1    0    0    0    0 -0.00000000000E+00 -0.00000000000E+00 -0.45593999997E+02  0.45594000000E+02  0.51100000000E-03 0.  1.
    9900012    2    1    2    0    0  0.10264118532E+02 -0.14245577301E+02 -0.65109647294E+01  0.72461514382E+02  0.69999927164E+02 0.  0.
        -12    1    1    2    0    0 -0.10264118532E+02  0.14245577301E+02  0.65109647294E+01  0.18726485618E+02  0.00000000000E+00 0.  1.
         11    1    3    3    0    0  0.10913912747E+01 -0.98184217799E+01  0.59867997073E+01  0.11551377068E+02  0.51100000000E-03 0. -1.
        -11    1    3    3    0    0 -0.13568463092E+02  0.21225127143E+02 -0.73710751648E+01  0.26247703943E+02  0.51100000000E-03 0.  1.
         12    1    3    3    0    0  0.22741190349E+02 -0.25652282665E+02 -0.51266892718E+01  0.34662433372E+02  0.00000000000E+00 0. -1.
</event>
<event>
 7    1  0.2710146E-013  0.7246158E+02  0.7816164E-02  0.1226708E+00
        -11   -1    0    0    0    0  0.00000000000E+00  0.00000000000E+00  0.45593999997E+02  0.45594000000E+02  0.51100000000E-03 0.  1.
         11   -1    0    0    0    0 -0.00000000000E+00 -0.00000000000E+00 -0.45593999997E+02  0.45594000000E+02  0.51100000000E-03 0. -1.
    9900012    2    1    2    0    0 -0.68816972991E+01 -0.11659653955E+02 -0.12937290067E+02  0.72461581166E+02  0.70000014163E+02 0.  0.
        -12    1    1    2    0    0  0.68816972991E+01  0.11659653955E+02  0.12937290067E+02  0.18726418834E+02  0.00000000000E+00 0.  1.
         11    1    3    3    0    0 -0.13009301639E+02  0.19143106691E+02 -0.98458380658E+01  0.25152355563E+02  0.51100000000E-03 0. -1.
        -11    1    3    3    0    0  0.40033264157E+01  0.15248843522E+01 -0.12792389099E+02  0.13490630593E+02  0.51100000000E-03 0.  1.
        -12    1    3    3    0    0  0.21242779238E+01 -0.32327644998E+02  0.97009370981E+01  0.33818595009E+02  0.00000000000E+00 0.  1.
</event>
<event>
 7    1  0.2710146E-013  0.7246154E+02  0.7816164E-02  0.1226708E+00
        -11   -1    0    0    0    0  0.00000000000E+00  0.00000000000E+00  0.45593999997E+02  0.45594000000E+02  0.51100000000E-03 0. -1.
         11   -1    0    0    0    0 -0.00000000000E+00 -0.00000000000E+00 -0.45593999997E+02  0.45594000000E+02  0.51100000000E-03 0.  1.
    9900012    2    1    2    0    0  0.18412697045E+02  0.26349611427E+01 -0.21701914332E+01  0.72461543754E+02  0.69999965426E+02 0.  0.
        -12    1    1    2    0    0 -0.18412697045E+02 -0.26349611427E+01  0.21701914332E+01  0.18726456246E+02  0.00000000000E+00 0.  1.
         11    1    3    3    0    0  0.44444610593E+01 -0.33277578776E+01 -0.47776428132E+01  0.73248261215E+01  0.51100000000E-03 0. -1.
        -11    1    3    3    0    0  0.35394286828E+02 -0.67697630368E+01  0.12754694355E+02  0.38226528223E+02  0.51100000000E-03 0.  1.
         12    1    3    3    0    0 -0.21426050843E+02  0.12732482057E+02 -0.10147242975E+02  0.26910189409E+02  0.00000000000E+00 0. -1.
</event>
<event>
 7    1  0.2710146E-013  0.7246124E+02  0.7816164E-02  0.1226709E+00
        -11   -1    0    0    0    0  0.00000000000E+00  0.00000000000E+00  0.45593999997E+02  0.45594000000E+02  0.51100000000E-03 0. -1.
         11   -1    0    0    0    0 -0.00000000000E+00 -0.00000000000E+00 -0.45593999997E+02  0.45594000000E+02  0.51100000000E-03 0.  1.
    9900012    2    1    2    0    0  0.14672985341E+01  0.60190657174E+00  0.18659484842E+02  0.72461237571E+02  0.69999566565E+02 0.  0.
        -12    1    1    2    0    0 -0.14672985341E+01 -0.60190657174E+00 -0.18659484842E+02  0.18726762429E+02  0.00000000000E+00 0.  1.
         11    1    3    3    0    0 -0.11255336596E+02  0.15195330745E+01  0.23186468755E+02  0.25818673789E+02  0.51100000000E-03 0. -1.
        -11    1    3    3    0    0  0.23413130470E+02  0.56209691793E+01  0.11181404780E+02  0.26547952577E+02  0.51100000000E-03 0.  1.
         12    1    3    3    0    0 -0.10690495340E+02 -0.65385956820E+01 -0.15708388693E+02  0.20094611204E+02  0.00000000000E+00 0. -1.
</event>
<event>
 7    1  0.2710146E-013  0.7246153E+02  0.7816164E-02  0.1226708E+00
        -11   -1    0    0    0    0  0.00000000000E+00  0.00000000000E+00  0.45593999997E+02  0.45594000000E+02  0.51100000000E-03 0. -1.
         11   -1    0    0    0    0 -0.00000000000E+00 -0.00000000000E+00 -0.45593999997E+02  0.45594000000E+02  0.51100000000E-03 0.  1.
    9900012    2    1    2    0    0 -0.11765847953E+01 -0.12375683167E+02  0.14004960582E+02  0.72461526586E+02  0.69999943061E+02 0.  0.
        -12    1    1    2    0    0  0.11765847953E+01  0.12375683167E+02 -0.14004960582E+02  0.18726473414E+02  0.00000000000E+00 0.  1.
         11    1    3    3    0    0 -0.50538424887E+01  0.13367967377E+02  0.48838828213E+01  0.15102853617E+02  0.51100000000E-03 0. -1.
        -11    1    3    3    0    0 -0.23128980196E+01  0.59199618578E+01 -0.15514176397E+02  0.16765593195E+02  0.51100000000E-03 0.  1.
         12    1    3    3    0    0  0.61901557130E+01 -0.31663612402E+02  0.24635254158E+02  0.40593079774E+02  0.00000000000E+00 0. -1.
</event>
<event>
 7    1  0.2710146E-013  0.7246157E+02  0.7816164E-02  0.1226708E+00
        -11   -1    0    0    0    0  0.00000000000E+00  0.00000000000E+00  0.45593999997E+02  0.45594000000E+02  0.51100000000E-03 0.  1.
         11   -1    0    0    0    0 -0.00000000000E+00 -0.00000000000E+00 -0.45593999997E+02  0.45594000000E+02  0.51100000000E-03 0. -1.
    9900012    2    1    2    0    0  0.88187449696E+01  0.96780938791E+01 -0.13388182985E+02  0.72461569277E+02  0.69999998675E+02 0.  0.
        -12    1    1    2    0    0 -0.88187449696E+01 -0.96780938791E+01  0.13388182985E+02  0.18726430723E+02  0.00000000000E+00 0.  1.
         11    1    3    3    0    0  0.29787892884E+01 -0.22134040650E+01  0.12075097255E+01  0.39026174778E+01  0.51100000000E-03 0. -1.
        -11    1    3    3    0    0  0.13724175929E+02  0.48949636726E+01  0.24259637365E+02  0.28299181606E+02  0.51100000000E-03 0.  1.
         12    1    3    3    0    0 -0.78842202474E+01  0.69965342715E+01 -0.38855330075E+02  0.40259770193E+02  0.00000000000E+00 0. -1.
</event>
<event>
 7    1  0.2710146E-013  0.7246159E+02  0.7816164E-02  0.1226708E+00
        -11   -1    0    0    0    0  0.00000000000E+00  0.00000000000E+00  0.45593999997E+02  0.45594000000E+02  0.51100000000E-03 0.  1.
         11   -1    0    0    0    0 -0.00000000000E+00 -0.00000000000E+00 -0.45593999997E+02  0.45594000000E+02  0.51100000000E-03 0. -1.
    9900012    2    1    2    0    0 -0.42712653259E+01 -0.15452969657E+02 -0.96767993903E+01  0.72461590170E+02  0.70000025891E+02 0.  0.
        -12    1    1    2    0    0  0.42712653259E+01  0.15452969657E+02  0.96767993903E+01  0.18726409830E+02  0.00000000000E+00 0.  1.
         11    1    3    3    0    0  0.85776874024E+01  0.12904320510E+01  0.85044511954E+01  0.12147741619E+02  0.51100000000E-03 0. -1.
        -11    1    3    3    0    0 -0.19580524817E+02 -0.54901379884E+00  0.13716206868E+02  0.23913023635E+02  0.51100000000E-03 0.  1.
         12    1    3    3    0    0  0.67315720888E+01 -0.16194387909E+02 -0.31897457453E+02  0.36400824915E+02  0.00000000000E+00 0. -1.
</event>
<event>
 7    1  0.2710146E-013  0.7246159E+02  0.7816164E-02  0.1226708E+00
        -11   -1    0    0    0    0  0.00000000000E+00  0.00000000000E+00  0.45593999997E+02  0.45594000000E+02  0.51100000000E-03 0.  1.
         11   -1    0    0    0    0 -0.00000000000E+00 -0.00000000000E+00 -0.45593999997E+02  0.45594000000E+02  0.51100000000E-03 0. -1.
    9900012    2    1    2    0    0  0.17036361765E+02 -0.90082476088E-01 -0.77738404716E+01  0.72461592638E+02  0.70000029106E+02 0.  0.
        -12    1    1    2    0    0 -0.17036361765E+02  0.90082476088E-01  0.77738404716E+01  0.18726407362E+02  0.00000000000E+00 0.  1.
         11    1    3    3    0    0 -0.96434802033E+01 -0.28412490370E+01  0.82424000525E+01  0.13000252513E+02  0.51100000000E-03 0. -1.
        -11    1    3    3    0    0  0.23636831856E+02 -0.44759216403E+01  0.14408890931E+02  0.28041929906E+02  0.51100000000E-03 0.  1.
         12    1    3    3    0    0  0.30430101117E+01  0.72270882012E+01 -0.30425131455E+02  0.31419410218E+02  0.00000000000E+00 0. -1.
</event>
<event>
 7    1  0.2710146E-013  0.7246155E+02  0.7816164E-02  0.1226708E+00
        -11   -1    0    0    0    0  0.00000000000E+00  0.00000000000E+00  0.45593999997E+02  0.45594000000E+02  0.51100000000E-03 0.  1.
         11   -1    0    0    0    0 -0.00000000000E+00 -0.00000000000E+00 -0.45593999997E+02  0.45594000000E+02  0.51100000000E-03 0. -1.
    9900012    2    1    2    0    0 -0.44847468269E+01  0.11310011704E+02 -0.14235536391E+02  0.72461553055E+02  0.69999977542E+02 0.  0.
        -12    1    1    2    0    0  0.44847468269E+01 -0.11310011704E+02  0.14235536391E+02  0.18726446945E+02  0.00000000000E+00 0.  1.
         11    1    3    3    0    0 -0.13994432710E+02  0.30055404032E+02 -0.17693915906E+02  0.37579863208E+02  0.51100000000E-03 0. -1.
        -11    1    3    3    0    0 -0.13334813397E+01 -0.79566571716E+00 -0.98978719182E+01  0.10018938326E+02  0.51100000000E-03 0.  1.
        -12    1    3    3    0    0  0.10843167223E+02 -0.17949726611E+02  0.13356251433E+02  0.24862751520E+02  0.00000000000E+00 0.  1.
</event>
<event>
 7    1  0.2710146E-013  0.7246188E+02  0.7816164E-02  0.1226707E+00
        -11   -1    0    0    0    0  0.00000000000E+00  0.00000000000E+00  0.45593999997E+02  0.45594000000E+02  0.51100000000E-03 0.  1.
         11   -1    0    0    0    0 -0.00000000000E+00 -0.00000000000E+00 -0.45593999997E+02  0.45594000000E+02  0.51100000000E-03 0. -1.
    9900012    2    1    2    0    0 -0.21292784878E+01 -0.18350509177E+02 -0.30647024934E+01  0.72461884137E+02  0.70000408837E+02 0.  0.
        -12    1    1    2    0    0  0.21292784878E+01  0.18350509177E+02  0.30647024934E+01  0.18726115863E+02  0.00000000000E+00 0.  1.
         11    1    3    3    0    0 -0.98735071141E+00 -0.70924707768E+01 -0.20267350075E+02  0.21495196730E+02  0.51100000000E-03 0. -1.
        -11    1    3    3    0    0  0.83827105528E+01 -0.27422259815E+02  0.14086154614E+02  0.31947925154E+02  0.51100000000E-03 0.  1.
         12    1    3    3    0    0 -0.95246383293E+01  0.16164221415E+02  0.31164929671E+01  0.19018762254E+02  0.00000000000E+00 0. -1.
</event>
<event>
 7    1  0.2710146E-013  0.7246159E+02  0.7816164E-02  0.1226708E+00
        -11   -1    0    0    0    0  0.00000000000E+00  0.00000000000E+00  0.45593999997E+02  0.45594000000E+02  0.51100000000E-03 0.  1.
         11   -1    0    0    0    0 -0.00000000000E+00 -0.00000000000E+00 -0.45593999997E+02  0.45594000000E+02  0.51100000000E-03 0. -1.
    9900012    2    1    2    0    0  0.50727104888E+01  0.11508057588E+02 -0.13874823717E+02  0.72461587788E+02  0.70000022788E+02 0.  0.
        -12    1    1    2    0    0 -0.50727104888E+01 -0.11508057588E+02  0.13874823717E+02  0.18726412212E+02  0.00000000000E+00 0.  1.
         11    1    3    3    0    0 -0.48685770824E+01  0.11548426505E+02 -0.65068265069E+01  0.14121189362E+02  0.51100000000E-03 0. -1.
        -11    1    3    3    0    0 -0.23394083391E+02  0.38795762382E+01 -0.71732411112E+01  0.24774778259E+02  0.51100000000E-03 0.  1.
         12    1    3    3    0    0  0.33335370962E+02 -0.39199451546E+01 -0.19475609914E+00  0.33565620166E+02  0.00000000000E+00 0. -1.
</event>
<event>
 7    1  0.2710146E-013  0.7246185E+02  0.7816164E-02  0.1226707E+00
        -11   -1    0    0    0    0  0.00000000000E+00  0.00000000000E+00  0.45593999997E+02  0.45594000000E+02  0.51100000000E-03 0. -1.
         11   -1    0    0    0    0 -0.00000000000E+00 -0.00000000000E+00 -0.45593999997E+02  0.45594000000E+02  0.51100000000E-03 0.  1.
    9900012    2    1    2    0    0 -0.16726694004E+02  0.84098764013E+01 -0.40027193041E+00  0.72461854347E+02  0.70000370031E+02 0.  0.
        -12    1    1    2    0    0  0.16726694004E+02 -0.84098764013E+01  0.40027193041E+00  0.18726145653E+02  0.00000000000E+00 0.  1.
         11    1    3    3    0    0  0.25528074279E+01  0.13004164844E+01 -0.38285150386E+01  0.47817817243E+01  0.51100000000E-03 0. -1.
        -11    1    3    3    0    0 -0.46958779798E+01  0.37510759708E+01 -0.30242207608E+02  0.30833633620E+02  0.51100000000E-03 0.  1.
         12    1    3    3    0    0 -0.14583623452E+02  0.33583839461E+01  0.33670450717E+02  0.36846439003E+02  0.00000000000E+00 0. -1.
</event>
<event>
 7    1  0.2710146E-013  0.7246170E+02  0.7816164E-02  0.1226708E+00
        -11   -1    0    0    0    0  0.00000000000E+00  0.00000000000E+00  0.45593999997E+02  0.45594000000E+02  0.51100000000E-03 0. -1.
         11   -1    0    0    0    0 -0.00000000000E+00 -0.00000000000E+00 -0.45593999997E+02  0.45594000000E+02  0.51100000000E-03 0.  1.
    9900012    2    1    2    0    0  0.88706809269E+01 -0.69219017149E+00  0.16477443083E+02  0.72461701970E+02  0.70000171532E+02 0.  0.
        -12    1    1    2    0    0 -0.88706809269E+01  0.69219017149E+00 -0.16477443083E+02  0.18726298030E+02  0.00000000000E+00 0.  1.
         11    1    3    3    0    0  0.27188879673E+02 -0.16436550119E+02  0.96639205229E+01  0.33208232681E+02  0.51100000000E-03 0. -1.
        -11    1    3    3    0    0  0.81079069847E+01  0.34557794888E+01  0.48108576809E+01  0.10041161259E+02  0.51100000000E-03 0.  1.
        -12    1    3    3    0    0 -0.26426105731E+02  0.12288580459E+02  0.20026648796E+01  0.29212308029E+02  0.00000000000E+00 0.  1.
</event>
<event>
 7    1  0.2710146E-013  0.7246156E+02  0.7816164E-02  0.1226708E+00
        -11   -1    0    0    0    0  0.00000000000E+00  0.00000000000E+00  0.45593999997E+02  0.45594000000E+02  0.51100000000E-03 0.  1.
         11   -1    0    0    0    0 -0.00000000000E+00 -0.00000000000E+00 -0.45593999997E+02  0.45594000000E+02  0.51100000000E-03 0. -1.
    9900012    2    1    2    0    0  0.94901910316E+01  0.18885317468E+01 -0.16032753829E+02  0.72461562183E+02  0.69999989434E+02 0.  0.
        -12    1    1    2    0    0 -0.94901910316E+01 -0.18885317468E+01  0.16032753829E+02  0.18726437817E+02  0.00000000000E+00 0.  1.
         11    1    3    3    0    0  0.19928649183E+02  0.23813288230E+02 -0.22397897303E+02  0.38286937177E+02  0.51100000000E-03 0. -1.
        -11    1    3    3    0    0  0.46126107403E+01 -0.89331027859E+01  0.97511547880E+01  0.14005767497E+02  0.51100000000E-03 0.  1.
        -12    1    3    3    0    0 -0.15051068892E+02 -0.12991653697E+02 -0.33860113141E+01  0.20168857508E+02  0.00000000000E+00 0.  1.
</event>
<event>
 7    1  0.2710146E-013  0.7246153E+02  0.7816164E-02  0.1226708E+00
        -11   -1    0    0    0    0  0.00000000000E+00  0.00000000000E+00  0.45593999997E+02  0.45594000000E+02  0.51100000000E-03 0.  1.
         11   -1    0    0    0    0 -0.00000000000E+00 -0.00000000000E+00 -0.45593999997E+02  0.45594000000E+02  0.51100000000E-03 0. -1.
    9900012    2    1    2    0    0 -0.79224233351E+01 -0.11114493901E+02 -0.12821223062E+02  0.72461534050E+02  0.69999952785E+02 0.  0.
        -12    1    1    2    0    0  0.79224233351E+01  0.11114493901E+02  0.12821223062E+02  0.18726465950E+02  0.00000000000E+00 0.  1.
         11    1    3    3    0    0  0.96282630636E+01 -0.18210062514E+02  0.65637249070E+01  0.21619257881E+02  0.51100000000E-03 0. -1.
        -11    1    3    3    0    0 -0.23100535910E+02 -0.12148092349E+02 -0.60834197574E+01  0.26799606401E+02  0.51100000000E-03 0.  1.
         12    1    3    3    0    0  0.55498495114E+01  0.19243660962E+02 -0.13301528211E+02  0.24042669768E+02  0.00000000000E+00 0. -1.
</event>
<event>
 7    1  0.2710146E-013  0.7246158E+02  0.7816164E-02  0.1226708E+00
        -11   -1    0    0    0    0  0.00000000000E+00  0.00000000000E+00  0.45593999997E+02  0.45594000000E+02  0.51100000000E-03 0. -1.
         11   -1    0    0    0    0 -0.00000000000E+00 -0.00000000000E+00 -0.45593999997E+02  0.45594000000E+02  0.51100000000E-03 0.  1.
    9900012    2    1    2    0    0  0.17251558805E+02  0.50942791491E+01  0.52067911902E+01  0.72461584547E+02  0.70000018566E+02 0.  0.
        -12    1    1    2    0    0 -0.17251558805E+02 -0.50942791491E+01 -0.52067911902E+01  0.18726415453E+02  0.00000000000E+00 0.  1.
         11    1    3    3    0    0  0.33138787223E+02 -0.13437432843E+02  0.13051315452E+00  0.35759765854E+02  0.51100000000E-03 0. -1.
        -11    1    3    3    0    0  0.43474301248E+01 -0.37998206689E+01 -0.12544839024E+01  0.59086814035E+01  0.51100000000E-03 0.  1.
        -12    1    3    3    0    0 -0.20234658543E+02  0.22331532661E+02  0.63307619380E+01  0.30793137289E+02  0.00000000000E+00 0.  1.
</event>
<event>
 7    1  0.2710146E-013  0.7246158E+02  0.7816164E-02  0.1226708E+00
        -11   -1    0    0    0    0  0.00000000000E+00  0.00000000000E+00  0.45593999997E+02  0.45594000000E+02  0.51100000000E-03 0.  1.
         11   -1    0    0    0    0 -0.00000000000E+00 -0.00000000000E+00 -0.45593999997E+02  0.45594000000E+02  0.51100000000E-03 0. -1.
    9900012    2    1    2    0    0  0.13251044343E+02  0.10925833173E+01 -0.13186923760E+02  0.72461578218E+02  0.70000010322E+02 0.  0.
        -12    1    1    2    0    0 -0.13251044343E+02 -0.10925833173E+01  0.13186923760E+02  0.18726421782E+02  0.00000000000E+00 0.  1.
         11    1    3    3    0    0 -0.47629980691E+01 -0.89287018105E+01  0.17863817061E+02  0.20531045441E+02  0.51100000000E-03 0. -1.
        -11    1    3    3    0    0  0.11727142210E+02  0.75599585850E+00  0.60214321006E+01  0.13204356817E+02  0.51100000000E-03 0.  1.
         12    1    3    3    0    0  0.62869002023E+01  0.92652892694E+01 -0.37072172922E+02  0.38726175961E+02  0.00000000000E+00 0. -1.
</event>
<event>
 7    1  0.2710146E-013  0.7246156E+02  0.7816164E-02  0.1226708E+00
        -11   -1    0    0    0    0  0.00000000000E+00  0.00000000000E+00  0.45593999997E+02  0.45594000000E+02  0.51100000000E-03 0. -1.
         11   -1    0    0    0    0 -0.00000000000E+00 -0.00000000000E+00 -0.45593999997E+02  0.45594000000E+02  0.51100000000E-03 0.  1.
    9900012    2    1    2    0    0 -0.17657023595E+02 -0.50298242687E+01 -0.36891597847E+01  0.72461561088E+02  0.69999988007E+02 0.  0.
        -12    1    1    2    0    0  0.17657023595E+02  0.50298242687E+01  0.36891597847E+01  0.18726438912E+02  0.00000000000E+00 0.  1.
         11    1    3    3    0    0 -0.10720417196E+02 -0.11990210655E+02 -0.84494142215E+01  0.18168244201E+02  0.51100000000E-03 0. -1.
        -11    1    3    3    0    0 -0.68516500798E+01  0.89948408212E+01 -0.23437327595E+02  0.26022309568E+02  0.51100000000E-03 0.  1.
        -12    1    3    3    0    0 -0.84956319690E-01 -0.20344544352E+01  0.28197582031E+02  0.28271007319E+02  0.00000000000E+00 0.  1.
</event>
<event>
 7    1  0.2710146E-013  0.7246175E+02  0.7816164E-02  0.1226708E+00
        -11   -1    0    0    0    0  0.00000000000E+00  0.00000000000E+00  0.45593999997E+02  0.45594000000E+02  0.51100000000E-03 0.  1.
         11   -1    0    0    0    0 -0.00000000000E+00 -0.00000000000E+00 -0.45593999997E+02  0.45594000000E+02  0.51100000000E-03 0. -1.
    9900012    2    1    2    0    0  0.69654001878E+01  0.15605167032E+02 -0.76573101383E+01  0.72461750071E+02  0.70000234191E+02 0.  0.
        -12    1    1    2    0    0 -0.69654001878E+01 -0.15605167032E+02  0.76573101383E+01  0.18726249929E+02  0.00000000000E+00 0.  1.
         11    1    3    3    0    0 -0.57197179221E+01  0.43655268288E+01  0.47073078759E+01  0.85983571280E+01  0.51100000000E-03 0. -1.
        -11    1    3    3    0    0  0.73322012662E-02  0.28599588647E+02 -0.25797118519E+02  0.38515293698E+02  0.51100000000E-03 0.  1.
         12    1    3    3    0    0  0.12677785909E+02 -0.17359948444E+02  0.13432500504E+02  0.25348099245E+02  0.00000000000E+00 0. -1.
</event>
<event>
 7    1  0.2710146E-013  0.7246130E+02  0.7816164E-02  0.1226709E+00
        -11   -1    0    0    0    0  0.00000000000E+00  0.00000000000E+00  0.45593999997E+02  0.45594000000E+02  0.51100000000E-03 0.  1.
         11   -1    0    0    0    0 -0.00000000000E+00 -0.00000000000E+00 -0.45593999997E+02  0.45594000000E+02  0.51100000000E-03 0. -1.
    9900012    2    1    2    0    0 -0.18619708000E+02  0.71123594129E+00  0.18681632889E+01  0.72461296696E+02  0.69999643587E+02 0.  0.
        -12    1    1    2    0    0  0.18619708000E+02 -0.71123594129E+00 -0.18681632889E+01  0.18726703304E+02  0.00000000000E+00 0.  1.
         11    1    3    3    0    0 -0.60894821146E+01  0.14836736100E+02  0.14627839502E+02  0.21706778188E+02  0.51100000000E-03 0. -1.
        -11    1    3    3    0    0  0.14565048613E+02 -0.10363146635E+02 -0.14961852005E+02  0.23310780017E+02  0.51100000000E-03 0.  1.
         12    1    3    3    0    0 -0.27095274499E+02 -0.37623535242E+01  0.22021757926E+01  0.27443738492E+02  0.00000000000E+00 0. -1.
</event>
<event>
 7    1  0.2710146E-013  0.7246173E+02  0.7816164E-02  0.1226708E+00
        -11   -1    0    0    0    0  0.00000000000E+00  0.00000000000E+00  0.45593999997E+02  0.45594000000E+02  0.51100000000E-03 0.  1.
         11   -1    0    0    0    0 -0.00000000000E+00 -0.00000000000E+00 -0.45593999997E+02  0.45594000000E+02  0.51100000000E-03 0. -1.
    9900012    2    1    2    0    0  0.18155104968E+02  0.20667560037E+01 -0.40980283121E+01  0.72461730943E+02  0.70000209274E+02 0.  0.
        -12    1    1    2    0    0 -0.18155104968E+02 -0.20667560037E+01  0.40980283121E+01  0.18726269057E+02  0.00000000000E+00 0.  1.
         11    1    3    3    0    0 -0.13904981982E+02  0.39186833111E+01  0.72815870304E+01  0.16177951439E+02  0.51100000000E-03 0.  1.
        -11    1    3    3    0    0 -0.68950873222E+01  0.49540303513E+01  0.85077457361E+01  0.12019416944E+02  0.51100000000E-03 0. -1.
         12    1    3    3    0    0  0.38955174272E+02 -0.68059576587E+01 -0.19887361079E+02  0.44264362560E+02  0.00000000000E+00 0. -1.
</event>
<event>
 7    1  0.2710146E-013  0.7246154E+02  0.7816164E-02  0.1226708E+00
        -11   -1    0    0    0    0  0.00000000000E+00  0.00000000000E+00  0.45593999997E+02  0.45594000000E+02  0.51100000000E-03 0.  1.
         11   -1    0    0    0    0 -0.00000000000E+00 -0.00000000000E+00 -0.45593999997E+02  0.45594000000E+02  0.51100000000E-03 0. -1.
    9900012    2    1    2    0    0 -0.68637499268E+00  0.18534842171E+02  0.25823834663E+01  0.72461543066E+02  0.69999964530E+02 0.  0.
        -12    1    1    2    0    0  0.68637499268E+00 -0.18534842171E+02 -0.25823834663E+01  0.18726456934E+02  0.00000000000E+00 0.  1.
         11    1    3    3    0    0 -0.16182569532E+02  0.21179351054E+02 -0.20500043276E+01  0.26732807292E+02  0.51100000000E-03 0. -1.
        -11    1    3    3    0    0  0.84699181234E+01  0.57937716695E+01  0.22515353870E+02  0.24743655011E+02  0.51100000000E-03 0.  1.
         12    1    3    3    0    0  0.70262764155E+01 -0.84382805530E+01 -0.17882966076E+02  0.20985080763E+02  0.00000000000E+00 0. -1.
</event>
<event>
 7    1  0.2710146E-013  0.7246154E+02  0.7816164E-02  0.1226708E+00
        -11   -1    0    0    0    0  0.00000000000E+00  0.00000000000E+00  0.45593999997E+02  0.45594000000E+02  0.51100000000E-03 0.  1.
         11   -1    0    0    0    0 -0.00000000000E+00 -0.00000000000E+00 -0.45593999997E+02  0.45594000000E+02  0.51100000000E-03 0. -1.
    9900012    2    1    2    0    0 -0.81505995049E+00 -0.16466454006E+02 -0.88809773114E+01  0.72461543094E+02  0.69999964566E+02 0.  0.
        -12    1    1    2    0    0  0.81505995049E+00  0.16466454006E+02  0.88809773114E+01  0.18726456906E+02  0.00000000000E+00 0.  1.
         11    1    3    3    0    0  0.31647149354E+00 -0.44770619043E+01  0.77249542821E+01  0.89341567270E+01  0.51100000000E-03 0. -1.
        -11    1    3    3    0    0  0.43735613503E+01  0.16358434837E+02  0.13615003997E+02  0.21727741790E+02  0.51100000000E-03 0.  1.
         12    1    3    3    0    0 -0.55050927943E+01 -0.28347826939E+02 -0.30220935590E+02  0.41799644577E+02  0.00000000000E+00 0. -1.
</event>
<event>
 7    1  0.2710146E-013  0.7246153E+02  0.7816164E-02  0.1226708E+00
        -11   -1    0    0    0    0  0.00000000000E+00  0.00000000000E+00  0.45593999997E+02  0.45594000000E+02  0.51100000000E-03 0.  1.
         11   -1    0    0    0    0 -0.00000000000E+00 -0.00000000000E+00 -0.45593999997E+02  0.45594000000E+02  0.51100000000E-03 0. -1.
    9900012    2    1    2    0    0 -0.50799018984E+01  0.13306804175E+02 -0.12157474291E+02  0.72461531518E+02  0.69999949487E+02 0.  0.
        -12    1    1    2    0    0  0.50799018984E+01 -0.13306804175E+02  0.12157474291E+02  0.18726468482E+02  0.00000000000E+00 0.  1.
         11    1    3    3    0    0 -0.12569057594E+02  0.12627641974E+02  0.12020802970E+02  0.21492748892E+02  0.51100000000E-03 0. -1.
        -11    1    3    3    0    0 -0.32390139652E+01  0.21325453968E+02 -0.12590309708E+02  0.24975630066E+02  0.51100000000E-03 0.  1.
        -12    1    3    3    0    0  0.10728169661E+02 -0.20646291767E+02 -0.11587967553E+02  0.25993152560E+02  0.00000000000E+00 0.  1.
</event>
<event>
 7    1  0.2710146E-013  0.7246158E+02  0.7816164E-02  0.1226708E+00
        -11   -1    0    0    0    0  0.00000000000E+00  0.00000000000E+00  0.45593999997E+02  0.45594000000E+02  0.51100000000E-03 0. -1.
         11   -1    0    0    0    0 -0.00000000000E+00 -0.00000000000E+00 -0.45593999997E+02  0.45594000000E+02  0.51100000000E-03 0.  1.
    9900012    2    1    2    0    0 -0.56229527597E+01 -0.47441175734E+01  0.17220762881E+02  0.72461576863E+02  0.70000008557E+02 0.  0.
        -12    1    1    2    0    0  0.56229527597E+01  0.47441175734E+01 -0.17220762881E+02  0.18726423137E+02  0.00000000000E+00 0.  1.
         11    1    3    3    0    0  0.13784421967E+02  0.19385219636E+02 -0.24090940836E+01  0.23908173579E+02  0.51100000000E-03 0.  1.
        -11    1    3    3    0    0 -0.13478642398E+02  0.49982805406E+01  0.37680027972E+01  0.14861172720E+02  0.51100000000E-03 0. -1.
         12    1    3    3    0    0 -0.59287323278E+01 -0.29127617750E+02  0.15861854167E+02  0.33692230565E+02  0.00000000000E+00 0. -1.
</event>
<event>
 7    1  0.2710146E-013  0.7246158E+02  0.7816164E-02  0.1226708E+00
        -11   -1    0    0    0    0  0.00000000000E+00  0.00000000000E+00  0.45593999997E+02  0.45594000000E+02  0.51100000000E-03 0.  1.
         11   -1    0    0    0    0 -0.00000000000E+00 -0.00000000000E+00 -0.45593999997E+02  0.45594000000E+02  0.51100000000E-03 0. -1.
    9900012    2    1    2    0    0 -0.17600860728E+02 -0.22309913552E+01  0.59925844518E+01  0.72461583119E+02  0.70000016706E+02 0.  0.
        -12    1    1    2    0    0  0.17600860728E+02  0.22309913552E+01 -0.59925844518E+01  0.18726416881E+02  0.00000000000E+00 0.  1.
         11    1    3    3    0    0 -0.38132438207E+01 -0.12353071260E+02  0.21204601753E+02  0.24834941791E+02  0.51100000000E-03 0. -1.
        -11    1    3    3    0    0  0.10273110622E+02 -0.71148190741E+01  0.30305745802E+01  0.12858531598E+02  0.51100000000E-03 0.  1.
         12    1    3    3    0    0 -0.24060727529E+02  0.17236898979E+02 -0.18242591881E+02  0.34768109730E+02  0.00000000000E+00 0. -1.
</event>
<event>
 7    1  0.2710146E-013  0.7246157E+02  0.7816164E-02  0.1226708E+00
        -11   -1    0    0    0    0  0.00000000000E+00  0.00000000000E+00  0.45593999997E+02  0.45594000000E+02  0.51100000000E-03 0.  1.
         11   -1    0    0    0    0 -0.00000000000E+00 -0.00000000000E+00 -0.45593999997E+02  0.45594000000E+02  0.51100000000E-03 0. -1.
    9900012    2    1    2    0    0  0.12664579686E+02  0.49700776741E+01  0.12868022554E+02  0.72461568007E+02  0.69999997021E+02 0.  0.
        -12    1    1    2    0    0 -0.12664579686E+02 -0.49700776741E+01 -0.12868022554E+02  0.18726431993E+02  0.00000000000E+00 0.  1.
         11    1    3    3    0    0  0.21098051771E+02 -0.10186521061E+02  0.16314896620E+02  0.28549410709E+02  0.51100000000E-03 0. -1.
        -11    1    3    3    0    0  0.12574800791E+01  0.13541312717E+01  0.17173940376E+02  0.17273076042E+02  0.51100000000E-03 0.  1.
        -12    1    3    3    0    0 -0.96909521635E+01  0.13802467463E+02 -0.20620814442E+02  0.26639081256E+02  0.00000000000E+00 0.  1.
</event>
<event>
 7    1  0.2710146E-013  0.7246156E+02  0.7816164E-02  0.1226708E+00
        -11   -1    0    0    0    0  0.00000000000E+00  0.00000000000E+00  0.45593999997E+02  0.45594000000E+02  0.51100000000E-03 0. -1.
         11   -1    0    0    0    0 -0.00000000000E+00 -0.00000000000E+00 -0.45593999997E+02  0.45594000000E+02  0.51100000000E-03 0.  1.
    9900012    2    1    2    0    0 -0.61328516063E+01 -0.13905494244E+02 -0.10940979296E+02  0.72461557013E+02  0.69999982699E+02 0.  0.
        -12    1    1    2    0    0  0.61328516063E+01  0.13905494244E+02  0.10940979296E+02  0.18726442987E+02  0.00000000000E+00 0.  1.
         11    1    3    3    0    0 -0.13755328379E+02 -0.18213596462E+02  0.18624599205E+02  0.29458782233E+02  0.51100000000E-03 0. -1.
        -11    1    3    3    0    0  0.13305426915E+02  0.51980303694E+01 -0.15108568569E+01  0.14364421110E+02  0.51100000000E-03 0.  1.
        -12    1    3    3    0    0 -0.56829501426E+01 -0.88992815157E+00 -0.28054721644E+02  0.28638353670E+02  0.00000000000E+00 0.  1.
</event>
<event>
 7    1  0.2710146E-013  0.7246159E+02  0.7816164E-02  0.1226708E+00
        -11   -1    0    0    0    0  0.00000000000E+00  0.00000000000E+00  0.45593999997E+02  0.45594000000E+02  0.51100000000E-03 0.  1.
         11   -1    0    0    0    0 -0.00000000000E+00 -0.00000000000E+00 -0.45593999997E+02  0.45594000000E+02  0.51100000000E-03 0. -1.
    9900012    2    1    2    0    0 -0.12336517678E+02  0.68223493360E+00 -0.14072073541E+02  0.72461591730E+02  0.70000027924E+02 0.  0.
        -12    1    1    2    0    0  0.12336517678E+02 -0.68223493360E+00  0.14072073541E+02  0.18726408270E+02  0.00000000000E+00 0.  1.
         11    1    3    3    0    0  0.72628345068E+00  0.51771574914E+01 -0.60232574189E+01  0.79755926135E+01  0.51100000000E-03 0. -1.
        -11    1    3    3    0    0  0.11997565732E+02  0.16534345899E+02  0.14238428477E+02  0.24900984390E+02  0.51100000000E-03 0.  1.
         12    1    3    3    0    0 -0.25060366861E+02 -0.21029268457E+02 -0.22287244600E+02  0.39585014727E+02  0.00000000000E+00 0. -1.
</event>
<event>
 7    1  0.2710146E-013  0.7246164E+02  0.7816164E-02  0.1226708E+00
        -11   -1    0    0    0    0  0.00000000000E+00  0.00000000000E+00  0.45593999997E+02  0.45594000000E+02  0.51100000000E-03 0.  1.
         11   -1    0    0    0    0 -0.00000000000E+00 -0.00000000000E+00 -0.45593999997E+02  0.45594000000E+02  0.51100000000E-03 0. -1.
    9900012    2    1    2    0    0  0.81763964317E+01 -0.16816511983E+02 -0.10138600423E+01  0.72461643011E+02  0.70000094727E+02 0.  0.
        -12    1    1    2    0    0 -0.81763964317E+01  0.16816511983E+02  0.10138600423E+01  0.18726356989E+02  0.00000000000E+00 0.  1.
         11    1    3    3    0    0 -0.29444786890E+01  0.15008150652E+02 -0.50840082990E+01  0.16117123856E+02  0.51100000000E-03 0. -1.
        -11    1    3    3    0    0 -0.16286137343E+02 -0.79024733952E+01 -0.51404526136E+01  0.18817853455E+02  0.51100000000E-03 0.  1.
         12    1    3    3    0    0  0.27407012464E+02 -0.23922189240E+02  0.92106008703E+01  0.37526665701E+02  0.00000000000E+00 0. -1.
</event>
<event>
 7    1  0.2710146E-013  0.7246143E+02  0.7816164E-02  0.1226708E+00
        -11   -1    0    0    0    0  0.00000000000E+00  0.00000000000E+00  0.45593999997E+02  0.45594000000E+02  0.51100000000E-03 0.  1.
         11   -1    0    0    0    0 -0.00000000000E+00 -0.00000000000E+00 -0.45593999997E+02  0.45594000000E+02  0.51100000000E-03 0. -1.
    9900012    2    1    2    0    0  0.13092164170E+01 -0.12787995449E+01 -0.18636929191E+02  0.72461427821E+02  0.69999814401E+02 0.  0.
        -12    1    1    2    0    0 -0.13092164170E+01  0.12787995449E+01  0.18636929191E+02  0.18726572179E+02  0.00000000000E+00 0.  1.
         11    1    3    3    0    0 -0.15541336943E+02 -0.66388125169E+01  0.41615712098E+01  0.17404759717E+02  0.51100000000E-03 0. -1.
        -11    1    3    3    0    0  0.11301010069E+02 -0.20619281410E+02 -0.11746340670E+02  0.26283913594E+02  0.51100000000E-03 0.  1.
         12    1    3    3    0    0  0.55495432916E+01  0.25979294382E+02 -0.11052159731E+02  0.28772754509E+02  0.00000000000E+00 0. -1.
</event>
<event>
 7    1  0.2710146E-013  0.7246170E+02  0.7816164E-02  0.1226708E+00
        -11   -1    0    0    0    0  0.00000000000E+00  0.00000000000E+00  0.45593999997E+02  0.45594000000E+02  0.51100000000E-03 0.  1.
         11   -1    0    0    0    0 -0.00000000000E+00 -0.00000000000E+00 -0.45593999997E+02  0.45594000000E+02  0.51100000000E-03 0. -1.
    9900012    2    1    2    0    0 -0.84996205272E+01 -0.26237465982E+00 -0.16684178231E+02  0.72461703174E+02  0.70000173100E+02 0.  0.
        -12    1    1    2    0    0  0.84996205272E+01  0.26237465982E+00  0.16684178231E+02  0.18726296826E+02  0.00000000000E+00 0.  1.
         11    1    3    3    0    0 -0.61753447484E+01 -0.23313761367E+02 -0.39561812508E+01  0.24440084333E+02  0.51100000000E-03 0. -1.
        -11    1    3    3    0    0  0.89099228968E+01 -0.26667317657E+01 -0.17247547449E+02  0.19595307541E+02  0.51100000000E-03 0.  1.
        -12    1    3    3    0    0 -0.11234198676E+02  0.25718118473E+02  0.45195504688E+01  0.28426311300E+02  0.00000000000E+00 0.  1.
</event>
<event>
 7    1  0.2710146E-013  0.7246157E+02  0.7816164E-02  0.1226708E+00
        -11   -1    0    0    0    0  0.00000000000E+00  0.00000000000E+00  0.45593999997E+02  0.45594000000E+02  0.51100000000E-03 0.  1.
         11   -1    0    0    0    0 -0.00000000000E+00 -0.00000000000E+00 -0.45593999997E+02  0.45594000000E+02  0.51100000000E-03 0. -1.
    9900012    2    1    2    0    0  0.11173573789E+02 -0.15026939616E+02 -0.14684655474E+00  0.72461568697E+02  0.69999997919E+02 0.  0.
        -12    1    1    2    0    0 -0.11173573789E+02  0.15026939616E+02  0.14684655474E+00  0.18726431303E+02  0.00000000000E+00 0.  1.
         11    1    3    3    0    0  0.21040593825E+02  0.19121138410E+02  0.34834314095E+01  0.28643652303E+02  0.51100000000E-03 0. -1.
        -11    1    3    3    0    0  0.45234977131E+01 -0.73029318598E+01  0.74853252140E+01  0.11394074738E+02  0.51100000000E-03 0.  1.
         12    1    3    3    0    0 -0.14390517749E+02 -0.26845146166E+02 -0.11115603178E+02  0.32423841656E+02  0.00000000000E+00 0. -1.
</event>
<event>
 7    1  0.2710146E-013  0.7246152E+02  0.7816164E-02  0.1226708E+00
        -11   -1    0    0    0    0  0.00000000000E+00  0.00000000000E+00  0.45593999997E+02  0.45594000000E+02  0.51100000000E-03 0.  1.
         11   -1    0    0    0    0 -0.00000000000E+00 -0.00000000000E+00 -0.45593999997E+02  0.45594000000E+02  0.51100000000E-03 0. -1.
    9900012    2    1    2    0    0  0.19317071021E+01 -0.38746017642E+01 -0.18219137103E+02  0.72461521742E+02  0.69999936752E+02 0.  0.
        -12    1    1    2    0    0 -0.19317071021E+01  0.38746017642E+01  0.18219137103E+02  0.18726478258E+02  0.00000000000E+00 0.  1.
         11    1    3    3    0    0  0.88434411491E+01 -0.67287581072E+01  0.47693280415E+00  0.11122504313E+02  0.51100000000E-03 0. -1.
        -11    1    3    3    0    0  0.28571036222E+01  0.16726245730E+02  0.15616469015E+02  0.23060885544E+02  0.51100000000E-03 0.  1.
         12    1    3    3    0    0 -0.97688376692E+01 -0.13872089387E+02 -0.34312538922E+02  0.38278131886E+02  0.00000000000E+00 0. -1.
</event>
<event>
 7    1  0.2710146E-013  0.7246155E+02  0.7816164E-02  0.1226708E+00
        -11   -1    0    0    0    0  0.00000000000E+00  0.00000000000E+00  0.45593999997E+02  0.45594000000E+02  0.51100000000E-03 0.  1.
         11   -1    0    0    0    0 -0.00000000000E+00 -0.00000000000E+00 -0.45593999997E+02  0.45594000000E+02  0.51100000000E-03 0. -1.
    9900012    2    1    2    0    0  0.27946120399E+01  0.68558369152E+01 -0.17200796599E+02  0.72461554531E+02  0.69999979466E+02 0.  0.
        -12    1    1    2    0    0 -0.27946120399E+01 -0.68558369152E+01  0.17200796599E+02  0.18726445469E+02  0.00000000000E+00 0.  1.
         11    1    3    3    0    0  0.13551311092E+02  0.29080894846E+01 -0.10641037132E+02  0.17473599752E+02  0.51100000000E-03 0. -1.
        -11    1    3    3    0    0  0.46846353970E+01  0.20244320516E+02 -0.19984677699E+02  0.28829943895E+02  0.51100000000E-03 0.  1.
         12    1    3    3    0    0 -0.15441334450E+02 -0.16296573086E+02  0.13424918232E+02  0.26158010885E+02  0.00000000000E+00 0. -1.
</event>
<event>
 7    1  0.2710146E-013  0.7246148E+02  0.7816164E-02  0.1226708E+00
        -11   -1    0    0    0    0  0.00000000000E+00  0.00000000000E+00  0.45593999997E+02  0.45594000000E+02  0.51100000000E-03 0. -1.
         11   -1    0    0    0    0 -0.00000000000E+00 -0.00000000000E+00 -0.45593999997E+02  0.45594000000E+02  0.51100000000E-03 0.  1.
    9900012    2    1    2    0    0 -0.13573469723E+02 -0.11416328675E+02  0.60092500918E+01  0.72461475298E+02  0.69999876250E+02 0.  0.
        -12    1    1    2    0    0  0.13573469723E+02  0.11416328675E+02 -0.60092500918E+01  0.18726524702E+02  0.00000000000E+00 0.  1.
         11    1    3    3    0    0 -0.18411553251E+02 -0.12509227854E+02 -0.37323308706E+01  0.22569811000E+02  0.51100000000E-03 0. -1.
        -11    1    3    3    0    0 -0.25633767375E+01 -0.18720048897E+02 -0.96331198720E+01  0.21208680528E+02  0.51100000000E-03 0.  1.
        -12    1    3    3    0    0  0.74014602655E+01  0.19812948076E+02  0.19374700834E+02  0.28682983770E+02  0.00000000000E+00 0.  1.
</event>
<event>
 7    1  0.2710146E-013  0.7246156E+02  0.7816164E-02  0.1226708E+00
        -11   -1    0    0    0    0  0.00000000000E+00  0.00000000000E+00  0.45593999997E+02  0.45594000000E+02  0.51100000000E-03 0. -1.
         11   -1    0    0    0    0 -0.00000000000E+00 -0.00000000000E+00 -0.45593999997E+02  0.45594000000E+02  0.51100000000E-03 0.  1.
    9900012    2    1    2    0    0  0.19449453809E+01 -0.13500381928E+02  0.12831067442E+02  0.72461563701E+02  0.69999991412E+02 0.  0.
        -12    1    1    2    0    0 -0.19449453809E+01  0.13500381928E+02 -0.12831067442E+02  0.18726436299E+02  0.00000000000E+00 0.  1.
         11    1    3    3    0    0  0.15066908330E+01 -0.27991027189E+02  0.33185259351E+01  0.28227297693E+02  0.51100000000E-03 0. -1.
        -11    1    3    3    0    0  0.23311947412E+01 -0.13990888160E+02  0.62648572312E+01  0.15505736255E+02  0.51100000000E-03 0.  1.
         12    1    3    3    0    0 -0.18929401933E+01  0.28481533422E+02  0.32476842761E+01  0.28728529753E+02  0.00000000000E+00 0. -1.
</event>
<event>
 7    1  0.2710146E-013  0.7246160E+02  0.7816164E-02  0.1226708E+00
        -11   -1    0    0    0    0  0.00000000000E+00  0.00000000000E+00  0.45593999997E+02  0.45594000000E+02  0.51100000000E-03 0. -1.
         11   -1    0    0    0    0 -0.00000000000E+00 -0.00000000000E+00 -0.45593999997E+02  0.45594000000E+02  0.51100000000E-03 0.  1.
    9900012    2    1    2    0    0  0.90581006597E+01 -0.13798769390E+02 -0.88443768783E+01  0.72461595470E+02  0.70000032796E+02 0.  0.
        -12    1    1    2    0    0 -0.90581006597E+01  0.13798769390E+02  0.88443768783E+01  0.18726404530E+02  0.00000000000E+00 0.  1.
         11    1    3    3    0    0  0.12529202340E+01  0.81973376686E+01  0.16261207591E+02  0.18253575720E+02  0.51100000000E-03 0. -1.
        -11    1    3    3    0    0 -0.99310627406E+01 -0.13736935325E+02 -0.29621513357E+02  0.34128630987E+02  0.51100000000E-03 0.  1.
         12    1    3    3    0    0  0.17736243166E+02 -0.82591717338E+01  0.45159288869E+01  0.20079388763E+02  0.00000000000E+00 0. -1.
</event>
<event>
 7    1  0.2710146E-013  0.7246147E+02  0.7816164E-02  0.1226708E+00
        -11   -1    0    0    0    0  0.00000000000E+00  0.00000000000E+00  0.45593999997E+02  0.45594000000E+02  0.51100000000E-03 0.  1.
         11   -1    0    0    0    0 -0.00000000000E+00 -0.00000000000E+00 -0.45593999997E+02  0.45594000000E+02  0.51100000000E-03 0. -1.
    9900012    2    1    2    0    0  0.11132842060E+02  0.34045227229E+01 -0.14668056687E+02  0.72461472445E+02  0.69999872533E+02 0.  0.
        -12    1    1    2    0    0 -0.11132842060E+02 -0.34045227229E+01  0.14668056687E+02  0.18726527555E+02  0.00000000000E+00 0.  1.
         11    1    3    3    0    0  0.11182499802E+02  0.47865457275E+01 -0.40087342162E+01  0.12807391308E+02  0.51100000000E-03 0. -1.
        -11    1    3    3    0    0  0.29070431722E+02 -0.35490995027E+01 -0.78410182680E+01  0.30317778209E+02  0.51100000000E-03 0.  1.
         12    1    3    3    0    0 -0.29120089464E+02  0.21670764981E+01 -0.28183042023E+01  0.29336302929E+02  0.00000000000E+00 0. -1.
</event>
<event>
 7    1  0.2710146E-013  0.7246215E+02  0.7816164E-02  0.1226706E+00
        -11   -1    0    0    0    0  0.00000000000E+00  0.00000000000E+00  0.45593999997E+02  0.45594000000E+02  0.51100000000E-03 0.  1.
         11   -1    0    0    0    0 -0.00000000000E+00 -0.00000000000E+00 -0.45593999997E+02  0.45594000000E+02  0.51100000000E-03 0. -1.
    9900012    2    1    2    0    0 -0.14052253456E+02 -0.82230270196E+01 -0.92505827958E+01  0.72462154689E+02  0.70000761278E+02 0.  0.
        -12    1    1    2    0    0  0.14052253456E+02  0.82230270196E+01  0.92505827958E+01  0.18725845311E+02  0.00000000000E+00 0.  1.
         11    1    3    3    0    0 -0.10812161813E+02  0.22908843618E+02 -0.15660109576E+02  0.29781823168E+02  0.51100000000E-03 0. -1.
        -11    1    3    3    0    0  0.11199152826E+01  0.46379247506E+01  0.45576539683E+01  0.65982396280E+01  0.51100000000E-03 0.  1.
         12    1    3    3    0    0 -0.43600069249E+01 -0.35769795388E+02  0.18518728120E+01  0.36082091893E+02  0.00000000000E+00 0. -1.
</event>
<event>
 7    1  0.2710146E-013  0.7246154E+02  0.7816164E-02  0.1226708E+00
        -11   -1    0    0    0    0  0.00000000000E+00  0.00000000000E+00  0.45593999997E+02  0.45594000000E+02  0.51100000000E-03 0. -1.
         11   -1    0    0    0    0 -0.00000000000E+00 -0.00000000000E+00 -0.45593999997E+02  0.45594000000E+02  0.51100000000E-03 0.  1.
    9900012    2    1    2    0    0 -0.62020634024E+00 -0.10095992446E+02  0.15759655414E+02  0.72461535888E+02  0.69999955179E+02 0.  0.
        -12    1    1    2    0    0  0.62020634024E+00  0.10095992446E+02 -0.15759655414E+02  0.18726464112E+02  0.00000000000E+00 0.  1.
         11    1    3    3    0    0  0.18558984639E+02 -0.22903768102E+02 -0.10040746614E+02  0.31142175533E+02  0.51100000000E-03 0. -1.
        -11    1    3    3    0    0  0.41751267034E+01  0.60123145877E+01  0.96939471976E+01  0.12147107566E+02  0.51100000000E-03 0.  1.
        -12    1    3    3    0    0 -0.23354317683E+02  0.67954610687E+01  0.16106454830E+02  0.29172252789E+02  0.00000000000E+00 0.  1.
</event>
<event>
 7    1  0.2710146E-013  0.7246155E+02  0.7816164E-02  0.1226708E+00
        -11   -1    0    0    0    0  0.00000000000E+00  0.00000000000E+00  0.45593999997E+02  0.45594000000E+02  0.51100000000E-03 0. -1.
         11   -1    0    0    0    0 -0.00000000000E+00 -0.00000000000E+00 -0.45593999997E+02  0.45594000000E+02  0.51100000000E-03 0.  1.
    9900012    2    1    2    0    0 -0.14131383642E+02  0.81489316663E+01  0.91966764782E+01  0.72461549477E+02  0.69999972882E+02 0.  0.
        -12    1    1    2    0    0  0.14131383642E+02 -0.81489316663E+01 -0.91966764782E+01  0.18726450523E+02  0.00000000000E+00 0.  1.
         11    1    3    3    0    0  0.39263424532E+01  0.60208055740E+01 -0.10994339024E+02  0.13135515051E+02  0.51100000000E-03 0. -1.
        -11    1    3    3    0    0  0.10507680189E+02 -0.80877041834E+01 -0.99372868921E+01  0.16570213425E+02  0.51100000000E-03 0.  1.
         12    1    3    3    0    0 -0.28565406283E+02  0.10215830276E+02  0.30128302394E+02  0.42755821002E+02  0.00000000000E+00 0. -1.
</event>
<event>
 7    1  0.2710146E-013  0.7246143E+02  0.7816164E-02  0.1226708E+00
        -11   -1    0    0    0    0  0.00000000000E+00  0.00000000000E+00  0.45593999997E+02  0.45594000000E+02  0.51100000000E-03 0. -1.
         11   -1    0    0    0    0 -0.00000000000E+00 -0.00000000000E+00 -0.45593999997E+02  0.45594000000E+02  0.51100000000E-03 0.  1.
    9900012    2    1    2    0    0  0.11226001569E+02  0.12686164843E+02  0.79826479149E+01  0.72461426438E+02  0.69999812600E+02 0.  0.
        -12    1    1    2    0    0 -0.11226001569E+02 -0.12686164843E+02 -0.79826479149E+01  0.18726573562E+02  0.00000000000E+00 0.  1.
         11    1    3    3    0    0  0.24082402970E+02  0.15174680766E+02 -0.22128060900E+01  0.28550474256E+02  0.51100000000E-03 0. -1.
        -11    1    3    3    0    0 -0.88316965769E+01  0.18216065927E+02 -0.52461527529E+00  0.20250904763E+02  0.51100000000E-03 0.  1.
         12    1    3    3    0    0 -0.40247048244E+01 -0.20704581850E+02  0.10720069280E+02  0.23660047419E+02  0.00000000000E+00 0. -1.
</event>
<event>
 7    1  0.2710146E-013  0.7246170E+02  0.7816164E-02  0.1226708E+00
        -11   -1    0    0    0    0  0.00000000000E+00  0.00000000000E+00  0.45593999997E+02  0.45594000000E+02  0.51100000000E-03 0.  1.
         11   -1    0    0    0    0 -0.00000000000E+00 -0.00000000000E+00 -0.45593999997E+02  0.45594000000E+02  0.51100000000E-03 0. -1.
    9900012    2    1    2    0    0 -0.14327624351E+01 -0.18482986157E+02 -0.26458857493E+01  0.72461700396E+02  0.70000169481E+02 0.  0.
        -12    1    1    2    0    0  0.14327624351E+01  0.18482986157E+02  0.26458857493E+01  0.18726299604E+02  0.00000000000E+00 0.  1.
         11    1    3    3    0    0  0.18051780044E+01  0.28649763786E+01  0.76467823816E+01  0.83630161024E+01  0.51100000000E-03 0. -1.
        -11    1    3    3    0    0 -0.90645497594E+01  0.54985382823E+01  0.20349105809E+02  0.22945284768E+02  0.51100000000E-03 0.  1.
         12    1    3    3    0    0  0.58266093199E+01 -0.26846500818E+02 -0.30641773940E+02  0.41153399526E+02  0.00000000000E+00 0. -1.
</event>
<event>
 7    1  0.2710146E-013  0.7246153E+02  0.7816164E-02  0.1226708E+00
        -11   -1    0    0    0    0  0.00000000000E+00  0.00000000000E+00  0.45593999997E+02  0.45594000000E+02  0.51100000000E-03 0. -1.
         11   -1    0    0    0    0 -0.00000000000E+00 -0.00000000000E+00 -0.45593999997E+02  0.45594000000E+02  0.51100000000E-03 0.  1.
    9900012    2    1    2    0    0 -0.28765653630E+01  0.16974807662E+02  0.73662616575E+01  0.72461533856E+02  0.69999952532E+02 0.  0.
        -12    1    1    2    0    0  0.28765653630E+01 -0.16974807662E+02 -0.73662616575E+01  0.18726466144E+02  0.00000000000E+00 0.  1.
         11    1    3    3    0    0  0.12710057722E+02  0.17795361539E+02  0.18369645134E+02  0.28559837574E+02  0.51100000000E-03 0. -1.
        -11    1    3    3    0    0 -0.51749053802E+01  0.18819866878E+02 -0.10528393904E+01  0.19546751802E+02  0.51100000000E-03 0.  1.
        -12    1    3    3    0    0 -0.10411717704E+02 -0.19640420755E+02 -0.99505440863E+01  0.24354944480E+02  0.00000000000E+00 0.  1.
</event>
<event>
 7    1  0.2710146E-013  0.7246209E+02  0.7816164E-02  0.1226707E+00
        -11   -1    0    0    0    0  0.00000000000E+00  0.00000000000E+00  0.45593999997E+02  0.45594000000E+02  0.51100000000E-03 0.  1.
         11   -1    0    0    0    0 -0.00000000000E+00 -0.00000000000E+00 -0.45593999997E+02  0.45594000000E+02  0.51100000000E-03 0. -1.
    9900012    2    1    2    0    0 -0.13624769961E+02 -0.12429176337E+02 -0.32466649208E+01  0.72462092438E+02  0.70000680186E+02 0.  0.
        -12    1    1    2    0    0  0.13624769961E+02  0.12429176337E+02  0.32466649208E+01  0.18725907562E+02  0.00000000000E+00 0.  1.
         11    1    3    3    0    0 -0.33103569032E+01 -0.96310150323E+01 -0.11870545721E+02  0.15640484946E+02  0.51100000000E-03 0. -1.
        -11    1    3    3    0    0 -0.23975036543E+02 -0.20886064472E+02 -0.18529577486E+01  0.31850643935E+02  0.51100000000E-03 0.  1.
        -12    1    3    3    0    0  0.13660623485E+02  0.18087903167E+02  0.10476838549E+02  0.24970963557E+02  0.00000000000E+00 0.  1.
</event>
<event>
 7    1  0.2710146E-013  0.7246156E+02  0.7816164E-02  0.1226708E+00
        -11   -1    0    0    0    0  0.00000000000E+00  0.00000000000E+00  0.45593999997E+02  0.45594000000E+02  0.51100000000E-03 0.  1.
         11   -1    0    0    0    0 -0.00000000000E+00 -0.00000000000E+00 -0.45593999997E+02  0.45594000000E+02  0.51100000000E-03 0. -1.
    9900012    2    1    2    0    0 -0.14677071115E+02 -0.27685748387E+01 -0.11295927443E+02  0.72461564142E+02  0.69999991985E+02 0.  0.
        -12    1    1    2    0    0  0.14677071115E+02  0.27685748387E+01  0.11295927443E+02  0.18726435858E+02  0.00000000000E+00 0.  1.
         11    1    3    3    0    0 -0.11434271711E+02 -0.11341142962E+02  0.11037534159E+02  0.19524119796E+02  0.51100000000E-03 0. -1.
        -11    1    3    3    0    0 -0.18163208339E+02  0.17015688736E+02 -0.13391160441E+00  0.24888827472E+02  0.51100000000E-03 0.  1.
         12    1    3    3    0    0  0.14920408935E+02 -0.84431206133E+01 -0.22199549997E+02  0.28048616874E+02  0.00000000000E+00 0. -1.
</event>
<event>
 7    1  0.2710146E-013  0.7246155E+02  0.7816164E-02  0.1226708E+00
        -11   -1    0    0    0    0  0.00000000000E+00  0.00000000000E+00  0.45593999997E+02  0.45594000000E+02  0.51100000000E-03 0. -1.
         11   -1    0    0    0    0 -0.00000000000E+00 -0.00000000000E+00 -0.45593999997E+02  0.45594000000E+02  0.51100000000E-03 0.  1.
    9900012    2    1    2    0    0  0.44881620665E+01 -0.10191857213E+02  0.15055309778E+02  0.72461550665E+02  0.69999974429E+02 0.  0.
        -12    1    1    2    0    0 -0.44881620665E+01  0.10191857213E+02 -0.15055309778E+02  0.18726449335E+02  0.00000000000E+00 0.  1.
         11    1    3    3    0    0  0.15665136551E+02 -0.21480185025E+02  0.46858813270E+01  0.26995413240E+02  0.51100000000E-03 0. -1.
        -11    1    3    3    0    0  0.94919982892E+01 -0.98066938957E+01 -0.13027748679E+01  0.13710087502E+02  0.51100000000E-03 0.  1.
         12    1    3    3    0    0 -0.20668972774E+02  0.21095021709E+02  0.11672203319E+02  0.31756049924E+02  0.00000000000E+00 0. -1.
</event>
<event>
 7    1  0.2710146E-013  0.7246124E+02  0.7816164E-02  0.1226709E+00
        -11   -1    0    0    0    0  0.00000000000E+00  0.00000000000E+00  0.45593999997E+02  0.45594000000E+02  0.51100000000E-03 0. -1.
         11   -1    0    0    0    0 -0.00000000000E+00 -0.00000000000E+00 -0.45593999997E+02  0.45594000000E+02  0.51100000000E-03 0.  1.
    9900012    2    1    2    0    0 -0.13468393076E+02 -0.89278895856E+01  0.94650191859E+01  0.72461243402E+02  0.69999574161E+02 0.  0.
        -12    1    1    2    0    0  0.13468393076E+02  0.89278895856E+01 -0.94650191859E+01  0.18726756598E+02  0.00000000000E+00 0.  1.
         11    1    3    3    0    0 -0.22576492190E+02 -0.11315398725E+02  0.29294351745E+01  0.25422781882E+02  0.51100000000E-03 0. -1.
        -11    1    3    3    0    0 -0.17925176145E+02 -0.48798371307E+01  0.20932500829E+01  0.18695091506E+02  0.51100000000E-03 0.  1.
         12    1    3    3    0    0  0.27033275259E+02  0.72673462699E+01  0.44423339285E+01  0.28343370014E+02  0.00000000000E+00 0. -1.
</event>
<event>
 7    1  0.2710146E-013  0.7246143E+02  0.7816164E-02  0.1226708E+00
        -11   -1    0    0    0    0  0.00000000000E+00  0.00000000000E+00  0.45593999997E+02  0.45594000000E+02  0.51100000000E-03 0.  1.
         11   -1    0    0    0    0 -0.00000000000E+00 -0.00000000000E+00 -0.45593999997E+02  0.45594000000E+02  0.51100000000E-03 0. -1.
    9900012    2    1    2    0    0 -0.51250760684E+00  0.10988153165E+02 -0.15155267527E+02  0.72461433100E+02  0.69999821279E+02 0.  0.
        -12    1    1    2    0    0  0.51250760684E+00 -0.10988153165E+02  0.15155267527E+02  0.18726566900E+02  0.00000000000E+00 0.  1.
         11    1    3    3    0    0 -0.41682920769E+00 -0.34341246598E+01  0.16113251312E+02  0.16480407364E+02  0.51100000000E-03 0. -1.
        -11    1    3    3    0    0 -0.18551115878E+02 -0.37805839760E+01 -0.62038902821E+01  0.19922975942E+02  0.51100000000E-03 0.  1.
         12    1    3    3    0    0  0.18455437478E+02  0.18202861801E+02 -0.25064628557E+02  0.36058049794E+02  0.00000000000E+00 0. -1.
</event>
<event>
 7    1  0.2710146E-013  0.7246147E+02  0.7816164E-02  0.1226708E+00
        -11   -1    0    0    0    0  0.00000000000E+00  0.00000000000E+00  0.45593999997E+02  0.45594000000E+02  0.51100000000E-03 0.  1.
         11   -1    0    0    0    0 -0.00000000000E+00 -0.00000000000E+00 -0.45593999997E+02  0.45594000000E+02  0.51100000000E-03 0. -1.
    9900012    2    1    2    0    0  0.39708917750E+01 -0.14066972068E+01 -0.18246538208E+02  0.72461469753E+02  0.69999869026E+02 0.  0.
        -12    1    1    2    0    0 -0.39708917750E+01  0.14066972068E+01  0.18246538208E+02  0.18726530247E+02  0.00000000000E+00 0.  1.
         11    1    3    3    0    0  0.12908288044E+02 -0.50000100659E+01 -0.40042379468E+02  0.42367630977E+02  0.51100000000E-03 0. -1.
        -11    1    3    3    0    0 -0.62932161097E+01 -0.46653478310E+00 -0.13441656457E+01  0.64520543435E+01  0.51100000000E-03 0.  1.
        -12    1    3    3    0    0 -0.26441801590E+01  0.40598476422E+01  0.23140006905E+02  0.23641784433E+02  0.00000000000E+00 0.  1.
</event>
<event>
 7    1  0.2710146E-013  0.7246157E+02  0.7816164E-02  0.1226708E+00
        -11   -1    0    0    0    0  0.00000000000E+00  0.00000000000E+00  0.45593999997E+02  0.45594000000E+02  0.51100000000E-03 0. -1.
         11   -1    0    0    0    0 -0.00000000000E+00 -0.00000000000E+00 -0.45593999997E+02  0.45594000000E+02  0.51100000000E-03 0.  1.
    9900012    2    1    2    0    0 -0.17303397279E+02  0.68067356925E+01  0.22226147580E+01  0.72461568825E+02  0.69999998086E+02 0.  0.
        -12    1    1    2    0    0  0.17303397279E+02 -0.68067356925E+01 -0.22226147580E+01  0.18726431175E+02  0.00000000000E+00 0.  1.
         11    1    3    3    0    0 -0.11200624752E+02 -0.19088317970E+02  0.23301890474E+02  0.32137143272E+02  0.51100000000E-03 0. -1.
        -11    1    3    3    0    0  0.45686296976E+01 -0.15344986477E+01 -0.42174925902E+01  0.64042413620E+01  0.51100000000E-03 0.  1.
        -12    1    3    3    0    0 -0.10671402225E+02  0.27429552310E+02 -0.16861783126E+02  0.33920184191E+02  0.00000000000E+00 0.  1.
</event>
<event>
 7    1  0.2710146E-013  0.7246153E+02  0.7816164E-02  0.1226708E+00
        -11   -1    0    0    0    0  0.00000000000E+00  0.00000000000E+00  0.45593999997E+02  0.45594000000E+02  0.51100000000E-03 0.  1.
         11   -1    0    0    0    0 -0.00000000000E+00 -0.00000000000E+00 -0.45593999997E+02  0.45594000000E+02  0.51100000000E-03 0. -1.
    9900012    2    1    2    0    0  0.88806683248E+01 -0.88088406645E+01 -0.13936237983E+02  0.72461530155E+02  0.69999947711E+02 0.  0.
        -12    1    1    2    0    0 -0.88806683248E+01  0.88088406645E+01  0.13936237983E+02  0.18726469845E+02  0.00000000000E+00 0.  1.
         11    1    3    3    0    0 -0.22136110648E+01 -0.29107728330E+02 -0.65885642780E+01  0.29926060582E+02  0.51100000000E-03 0. -1.
        -11    1    3    3    0    0 -0.12708258168E+02  0.86443600225E+01 -0.20069821984E+01  0.15500089151E+02  0.51100000000E-03 0.  1.
        -12    1    3    3    0    0  0.23802537558E+02  0.11654527643E+02 -0.53406915065E+01  0.27035380422E+02  0.00000000000E+00 0.  1.
</event>
<event>
 7    1  0.2710146E-013  0.7246159E+02  0.7816164E-02  0.1226708E+00
        -11   -1    0    0    0    0  0.00000000000E+00  0.00000000000E+00  0.45593999997E+02  0.45594000000E+02  0.51100000000E-03 0. -1.
         11   -1    0    0    0    0 -0.00000000000E+00 -0.00000000000E+00 -0.45593999997E+02  0.45594000000E+02  0.51100000000E-03 0.  1.
    9900012    2    1    2    0    0 -0.20051323352E+01 -0.18502417820E+02 -0.20780622651E+01  0.72461591811E+02  0.70000028029E+02 0.  0.
        -12    1    1    2    0    0  0.20051323352E+01  0.18502417820E+02  0.20780622651E+01  0.18726408189E+02  0.00000000000E+00 0.  1.
         11    1    3    3    0    0 -0.59794892453E+01 -0.13661767523E+02  0.77275178857E+00  0.14933028128E+02  0.51100000000E-03 0. -1.
        -11    1    3    3    0    0  0.13796927176E+02 -0.22718724269E+02 -0.18015939426E+02  0.32110274144E+02  0.51100000000E-03 0.  1.
        -12    1    3    3    0    0 -0.98225702658E+01  0.17878073971E+02  0.15165125373E+02  0.25418289540E+02  0.00000000000E+00 0.  1.
</event>
<event>
 7    1  0.2710146E-013  0.7246156E+02  0.7816164E-02  0.1226708E+00
        -11   -1    0    0    0    0  0.00000000000E+00  0.00000000000E+00  0.45593999997E+02  0.45594000000E+02  0.51100000000E-03 0.  1.
         11   -1    0    0    0    0 -0.00000000000E+00 -0.00000000000E+00 -0.45593999997E+02  0.45594000000E+02  0.51100000000E-03 0. -1.
    9900012    2    1    2    0    0  0.10065264929E+02 -0.77433174528E+01 -0.13762669663E+02  0.72461558813E+02  0.69999985044E+02 0.  0.
        -12    1    1    2    0    0 -0.10065264929E+02  0.77433174528E+01  0.13762669663E+02  0.18726441187E+02  0.00000000000E+00 0.  1.
         11    1    3    3    0    0  0.76681991230E+01 -0.17456575010E+02  0.62688995013E+01  0.20070684844E+02  0.51100000000E-03 0. -1.
        -11    1    3    3    0    0 -0.19268621708E+02 -0.73385493598E+01 -0.11053903463E+02  0.23394932598E+02  0.51100000000E-03 0.  1.
        -12    1    3    3    0    0  0.21665687514E+02  0.17051806917E+02 -0.89776657013E+01  0.28995941372E+02  0.00000000000E+00 0.  1.
</event>
<event>
 7    1  0.2710146E-013  0.7246152E+02  0.7816164E-02  0.1226708E+00
        -11   -1    0    0    0    0  0.00000000000E+00  0.00000000000E+00  0.45593999997E+02  0.45594000000E+02  0.51100000000E-03 0. -1.
         11   -1    0    0    0    0 -0.00000000000E+00 -0.00000000000E+00 -0.45593999997E+02  0.45594000000E+02  0.51100000000E-03 0.  1.
    9900012    2    1    2    0    0 -0.16295613959E+02  0.78264523567E+01  0.48867886043E+01  0.72461518919E+02  0.69999933074E+02 0.  0.
        -12    1    1    2    0    0  0.16295613959E+02 -0.78264523567E+01 -0.48867886043E+01  0.18726481081E+02  0.00000000000E+00 0.  1.
         11    1    3    3    0    0  0.75667006036E+01  0.17734657614E+02  0.31881820312E+01  0.19543222448E+02  0.51100000000E-03 0. -1.
        -11    1    3    3    0    0  0.21196266418E+01  0.12595007859E+02  0.11488657285E+02  0.17178948936E+02  0.51100000000E-03 0.  1.
        -12    1    3    3    0    0 -0.25981941205E+02 -0.22503213117E+02 -0.97900507114E+01  0.35739347536E+02  0.00000000000E+00 0.  1.
</event>
<event>
 7    1  0.2710146E-013  0.7246162E+02  0.7816164E-02  0.1226708E+00
        -11   -1    0    0    0    0  0.00000000000E+00  0.00000000000E+00  0.45593999997E+02  0.45594000000E+02  0.51100000000E-03 0.  1.
         11   -1    0    0    0    0 -0.00000000000E+00 -0.00000000000E+00 -0.45593999997E+02  0.45594000000E+02  0.51100000000E-03 0. -1.
    9900012    2    1    2    0    0  0.12948655996E+01  0.98339602384E+00 -0.18655652829E+02  0.72461624827E+02  0.70000071038E+02 0.  0.
        -12    1    1    2    0    0 -0.12948655996E+01 -0.98339602384E+00  0.18655652829E+02  0.18726375173E+02  0.00000000000E+00 0.  1.
         11    1    3    3    0    0 -0.10572161409E+02  0.10308765215E+02  0.18500521871E+01  0.14881664238E+02  0.51100000000E-03 0. -1.
        -11    1    3    3    0    0 -0.18945071781E+02 -0.37137557346E+01  0.14062796735E+01  0.19356790778E+02  0.51100000000E-03 0.  1.
         12    1    3    3    0    0  0.30812098790E+02 -0.56116134565E+01 -0.21911984690E+02  0.38223169811E+02  0.00000000000E+00 0. -1.
</event>
<event>
 7    1  0.2710146E-013  0.7246155E+02  0.7816164E-02  0.1226708E+00
        -11   -1    0    0    0    0  0.00000000000E+00  0.00000000000E+00  0.45593999997E+02  0.45594000000E+02  0.51100000000E-03 0. -1.
         11   -1    0    0    0    0 -0.00000000000E+00 -0.00000000000E+00 -0.45593999997E+02  0.45594000000E+02  0.51100000000E-03 0.  1.
    9900012    2    1    2    0    0 -0.18138357051E+02 -0.39459622929E+01  0.24717389715E+01  0.72461545224E+02  0.69999967341E+02 0.  0.
        -12    1    1    2    0    0  0.18138357051E+02  0.39459622929E+01 -0.24717389715E+01  0.18726454776E+02  0.00000000000E+00 0.  1.
         11    1    3    3    0    0  0.20820221079E-01  0.95234373178E+01 -0.14261048172E+01  0.96296452187E+01  0.51100000000E-03 0. -1.
        -11    1    3    3    0    0 -0.79916177585E+01  0.19839682831E+02 -0.12025928350E+02  0.24537765223E+02  0.51100000000E-03 0.  1.
         12    1    3    3    0    0 -0.10167559514E+02 -0.33309082442E+02  0.15923772138E+02  0.38294134782E+02  0.00000000000E+00 0. -1.
</event>
<event>
 7    1  0.2710146E-013  0.7246145E+02  0.7816164E-02  0.1226708E+00
        -11   -1    0    0    0    0  0.00000000000E+00  0.00000000000E+00  0.45593999997E+02  0.45594000000E+02  0.51100000000E-03 0. -1.
         11   -1    0    0    0    0 -0.00000000000E+00 -0.00000000000E+00 -0.45593999997E+02  0.45594000000E+02  0.51100000000E-03 0.  1.
    9900012    2    1    2    0    0 -0.13538456605E+02 -0.12765828357E+02 -0.21041311559E+01  0.72461453366E+02  0.69999847680E+02 0.  0.
        -12    1    1    2    0    0  0.13538456605E+02  0.12765828357E+02  0.21041311559E+01  0.18726546634E+02  0.00000000000E+00 0.  1.
         11    1    3    3    0    0  0.42479115514E+01  0.33617227139E+01  0.24005745914E+02  0.24609383766E+02  0.51100000000E-03 0. -1.
        -11    1    3    3    0    0 -0.65981225421E+01 -0.17278127642E+02  0.97906720448E+00  0.18521001289E+02  0.51100000000E-03 0.  1.
        -12    1    3    3    0    0 -0.11188245615E+02  0.11505765711E+01 -0.27088944275E+02  0.29331068312E+02  0.00000000000E+00 0.  1.
</event>
<event>
 7    1  0.2710146E-013  0.7246158E+02  0.7816164E-02  0.1226708E+00
        -11   -1    0    0    0    0  0.00000000000E+00  0.00000000000E+00  0.45593999997E+02  0.45594000000E+02  0.51100000000E-03 0. -1.
         11   -1    0    0    0    0 -0.00000000000E+00 -0.00000000000E+00 -0.45593999997E+02  0.45594000000E+02  0.51100000000E-03 0.  1.
    9900012    2    1    2    0    0  0.51119354328E+01 -0.14204874802E+02  0.11080091220E+02  0.72461580870E+02  0.70000013776E+02 0.  0.
        -12    1    1    2    0    0 -0.51119354328E+01  0.14204874802E+02 -0.11080091220E+02  0.18726419130E+02  0.00000000000E+00 0.  1.
         11    1    3    3    0    0  0.11960033285E+02 -0.46355273404E+01 -0.30084173627E+01  0.13175017465E+02  0.51100000000E-03 0. -1.
        -11    1    3    3    0    0  0.22759266371E+02 -0.75977289938E+01 -0.43022835513E+01  0.24376614523E+02  0.51100000000E-03 0.  1.
         12    1    3    3    0    0 -0.29607364223E+02 -0.19716184676E+01  0.18390792134E+02  0.34909948882E+02  0.00000000000E+00 0. -1.
</event>
<event>
 7    1  0.2710146E-013  0.7246160E+02  0.7816164E-02  0.1226708E+00
        -11   -1    0    0    0    0  0.00000000000E+00  0.00000000000E+00  0.45593999997E+02  0.45594000000E+02  0.51100000000E-03 0.  1.
         11   -1    0    0    0    0 -0.00000000000E+00 -0.00000000000E+00 -0.45593999997E+02  0.45594000000E+02  0.51100000000E-03 0. -1.
    9900012    2    1    2    0    0 -0.43905122767E+01 -0.12805254925E+02 -0.12939357608E+02  0.72461598128E+02  0.70000036259E+02 0.  0.
        -12    1    1    2    0    0  0.43905122767E+01  0.12805254925E+02  0.12939357608E+02  0.18726401872E+02  0.00000000000E+00 0.  1.
         11    1    3    3    0    0  0.14703690981E+02  0.70506906071E+01 -0.13101146948E+02  0.20917715414E+02  0.51100000000E-03 0. -1.
        -11    1    3    3    0    0 -0.47989674381E+01  0.13940549601E+02 -0.14391702151E+01  0.14813514871E+02  0.51100000000E-03 0.  1.
        -12    1    3    3    0    0 -0.14295235820E+02 -0.33796495133E+02  0.16009595552E+01  0.36730367844E+02  0.00000000000E+00 0.  1.
</event>
<event>
 7    1  0.2710146E-013  0.7246156E+02  0.7816164E-02  0.1226708E+00
        -11   -1    0    0    0    0  0.00000000000E+00  0.00000000000E+00  0.45593999997E+02  0.45594000000E+02  0.51100000000E-03 0.  1.
         11   -1    0    0    0    0 -0.00000000000E+00 -0.00000000000E+00 -0.45593999997E+02  0.45594000000E+02  0.51100000000E-03 0. -1.
    9900012    2    1    2    0    0 -0.13294155101E+02 -0.11033442581E+02  0.72255193295E+01  0.72461560279E+02  0.69999986953E+02 0.  0.
        -12    1    1    2    0    0  0.13294155101E+02  0.11033442581E+02 -0.72255193295E+01  0.18726439721E+02  0.00000000000E+00 0.  1.
         11    1    3    3    0    0 -0.13587618985E+02 -0.17008704367E+02  0.28243626398E+01  0.21952139725E+02  0.51100000000E-03 0. -1.
        -11    1    3    3    0    0 -0.16555722108E+02 -0.15208912428E+02 -0.23752596098E+01  0.22606300233E+02  0.51100000000E-03 0.  1.
        -12    1    3    3    0    0  0.16849185993E+02  0.21184174214E+02  0.67764162995E+01  0.27903120320E+02  0.00000000000E+00 0.  1.
</event>
<event>
 7    1  0.2710146E-013  0.7246163E+02  0.7816164E-02  0.1226708E+00
        -11   -1    0    0    0    0  0.00000000000E+00  0.00000000000E+00  0.45593999997E+02  0.45594000000E+02  0.51100000000E-03 0.  1.
         11   -1    0    0    0    0 -0.00000000000E+00 -0.00000000000E+00 -0.45593999997E+02  0.45594000000E+02  0.51100000000E-03 0. -1.
    9900012    2    1    2    0    0  0.15344690784E+01 -0.60491753052E+01 -0.17655875897E+02  0.72461626327E+02  0.70000072993E+02 0.  0.
        -12    1    1    2    0    0 -0.15344690784E+01  0.60491753052E+01  0.17655875897E+02  0.18726373673E+02  0.00000000000E+00 0.  1.
         11    1    3    3    0    0 -0.24724369377E+02  0.51925145755E+01  0.82479525831E+01  0.26576030004E+02  0.51100000000E-03 0. -1.
        -11    1    3    3    0    0 -0.40603930485E+01 -0.38508329660E+01 -0.84333289987E+01  0.10121103917E+02  0.51100000000E-03 0.  1.
        -12    1    3    3    0    0  0.30319231504E+02 -0.73908569147E+01 -0.17470499482E+02  0.35764492406E+02  0.00000000000E+00 0.  1.
</event>
<event>
 7    1  0.2710146E-013  0.7246150E+02  0.7816164E-02  0.1226708E+00
        -11   -1    0    0    0    0  0.00000000000E+00  0.00000000000E+00  0.45593999997E+02  0.45594000000E+02  0.51100000000E-03 0.  1.
         11   -1    0    0    0    0 -0.00000000000E+00 -0.00000000000E+00 -0.45593999997E+02  0.45594000000E+02  0.51100000000E-03 0. -1.
    9900012    2    1    2    0    0 -0.11277790613E+02 -0.12780264393E+02  0.77561550010E+01  0.72461503812E+02  0.69999913395E+02 0.  0.
        -12    1    1    2    0    0  0.11277790613E+02  0.12780264393E+02 -0.77561550010E+01  0.18726496188E+02  0.00000000000E+00 0.  1.
         11    1    3    3    0    0  0.28708096841E+01  0.35392165818E+01 -0.16635180153E+02  0.17248096163E+02  0.51100000000E-03 0. -1.
        -11    1    3    3    0    0 -0.84135949926E+01 -0.30447951453E+02  0.75184683844E+01  0.32471428911E+02  0.51100000000E-03 0.  1.
         12    1    3    3    0    0 -0.57350053046E+01  0.14128470478E+02  0.16872866770E+02  0.22741978738E+02  0.00000000000E+00 0. -1.
</event>
<event>
 7    1  0.2710146E-013  0.7246157E+02  0.7816164E-02  0.1226708E+00
        -11   -1    0    0    0    0  0.00000000000E+00  0.00000000000E+00  0.45593999997E+02  0.45594000000E+02  0.51100000000E-03 0. -1.
         11   -1    0    0    0    0 -0.00000000000E+00 -0.00000000000E+00 -0.45593999997E+02  0.45594000000E+02  0.51100000000E-03 0.  1.
    9900012    2    1    2    0    0  0.14587441947E+02 -0.77429262129E+01  0.88279518895E+01  0.72461572059E+02  0.70000002298E+02 0.  0.
        -12    1    1    2    0    0 -0.14587441947E+02  0.77429262129E+01 -0.88279518895E+01  0.18726427941E+02  0.00000000000E+00 0.  1.
         11    1    3    3    0    0 -0.10451494347E+02 -0.12926256533E+02  0.82429145686E+01  0.18554446446E+02  0.51100000000E-03 0. -1.
        -11    1    3    3    0    0 -0.53035619237E+01 -0.44888003097E+01  0.16792645974E+02  0.18173333661E+02  0.51100000000E-03 0.  1.
        -12    1    3    3    0    0  0.30342498218E+02  0.96721306303E+01 -0.16207608653E+02  0.35733791952E+02  0.00000000000E+00 0.  1.
</event>
<event>
 7    1  0.2710146E-013  0.7246157E+02  0.7816164E-02  0.1226708E+00
        -11   -1    0    0    0    0  0.00000000000E+00  0.00000000000E+00  0.45593999997E+02  0.45594000000E+02  0.51100000000E-03 0.  1.
         11   -1    0    0    0    0 -0.00000000000E+00 -0.00000000000E+00 -0.45593999997E+02  0.45594000000E+02  0.51100000000E-03 0. -1.
    9900012    2    1    2    0    0  0.10593846585E+02 -0.28458390638E+00 -0.15439192342E+02  0.72461568583E+02  0.69999997770E+02 0.  0.
        -12    1    1    2    0    0 -0.10593846585E+02  0.28458390638E+00  0.15439192342E+02  0.18726431417E+02  0.00000000000E+00 0.  1.
         11    1    3    3    0    0 -0.62764159230E+01 -0.11080066314E+02 -0.12848729449E+01  0.12798912653E+02  0.51100000000E-03 0. -1.
        -11    1    3    3    0    0 -0.13484402964E+02  0.21606568564E+02 -0.91015741987E+01  0.27046470778E+02  0.51100000000E-03 0.  1.
         12    1    3    3    0    0  0.30354665471E+02 -0.10811086157E+02 -0.50527451982E+01  0.32616185151E+02  0.00000000000E+00 0. -1.
</event>
<event>
 7    1  0.2710146E-013  0.7246152E+02  0.7816164E-02  0.1226708E+00
        -11   -1    0    0    0    0  0.00000000000E+00  0.00000000000E+00  0.45593999997E+02  0.45594000000E+02  0.51100000000E-03 0.  1.
         11   -1    0    0    0    0 -0.00000000000E+00 -0.00000000000E+00 -0.45593999997E+02  0.45594000000E+02  0.51100000000E-03 0. -1.
    9900012    2    1    2    0    0 -0.48414331538E+01 -0.13281316284E+02 -0.12282029401E+02  0.72461519192E+02  0.69999933430E+02 0.  0.
        -12    1    1    2    0    0  0.48414331538E+01  0.13281316284E+02  0.12282029401E+02  0.18726480808E+02  0.00000000000E+00 0.  1.
         11    1    3    3    0    0 -0.15959719775E+02  0.18010016461E+02 -0.24314826902E+02  0.34209416186E+02  0.51100000000E-03 0. -1.
        -11    1    3    3    0    0  0.35458748282E+01 -0.72024824550E+01 -0.33340111410E+01  0.86927908270E+01  0.51100000000E-03 0.  1.
        -12    1    3    3    0    0  0.75724117927E+01 -0.24088850291E+02  0.15366808642E+02  0.29559312180E+02  0.00000000000E+00 0.  1.
</event>
<event>
 7    1  0.3446219E-013  0.7246175E+02  0.7816164E-02  0.1226708E+00
        -11   -1    0    0    0    0  0.00000000000E+00  0.00000000000E+00  0.45593999997E+02  0.45594000000E+02  0.51100000000E-03 0. -1.
         11   -1    0    0    0    0 -0.00000000000E+00 -0.00000000000E+00 -0.45593999997E+02  0.45594000000E+02  0.51100000000E-03 0.  1.
    9900012    2    1    2    0    0  0.49386157979E+01 -0.10434413831E+02  0.14744675269E+02  0.72461751930E+02  0.70000236614E+02 0.  0.
        -12    1    1    2    0    0 -0.49386157979E+01  0.10434413831E+02 -0.14744675269E+02  0.18726248070E+02  0.00000000000E+00 0.  1.
         11    1    3    3    0    0 -0.72693063850E+01 -0.91463947448E+01  0.30081616861E+02  0.32270776647E+02  0.51100000000E-03 0. -1.
        -11    1    3    3    0    0 -0.83570336827E+01 -0.11118063370E+02 -0.28375784264E+01  0.14195182164E+02  0.51100000000E-03 0.  1.
        -12    1    3    3    0    0  0.20564955866E+02  0.98300442839E+01 -0.12499363166E+02  0.25995793120E+02  0.00000000000E+00 0.  1.
</event>
<event>
 7    1  0.2710146E-013  0.7246158E+02  0.7816164E-02  0.1226708E+00
        -11   -1    0    0    0    0  0.00000000000E+00  0.00000000000E+00  0.45593999997E+02  0.45594000000E+02  0.51100000000E-03 0.  1.
         11   -1    0    0    0    0 -0.00000000000E+00 -0.00000000000E+00 -0.45593999997E+02  0.45594000000E+02  0.51100000000E-03 0. -1.
    9900012    2    1    2    0    0 -0.44810739684E+01 -0.13624040741E+02 -0.12040946310E+02  0.72461577542E+02  0.70000009442E+02 0.  0.
        -12    1    1    2    0    0  0.44810739684E+01  0.13624040741E+02  0.12040946310E+02  0.18726422458E+02  0.00000000000E+00 0.  1.
         11    1    3    3    0    0  0.59967067786E+01  0.10580793624E+02 -0.10624630234E+02  0.16149193595E+02  0.51100000000E-03 0. -1.
        -11    1    3    3    0    0 -0.27737633431E+02 -0.86237866232E+01 -0.11138069631E+02  0.31109525863E+02  0.51100000000E-03 0.  1.
         12    1    3    3    0    0  0.17259852684E+02 -0.15581047742E+02  0.97217535559E+01  0.25202858084E+02  0.00000000000E+00 0. -1.
</event>
<event>
 7    1  0.2710146E-013  0.7246136E+02  0.7816164E-02  0.1226709E+00
        -11   -1    0    0    0    0  0.00000000000E+00  0.00000000000E+00  0.45593999997E+02  0.45594000000E+02  0.51100000000E-03 0.  1.
         11   -1    0    0    0    0 -0.00000000000E+00 -0.00000000000E+00 -0.45593999997E+02  0.45594000000E+02  0.51100000000E-03 0. -1.
    9900012    2    1    2    0    0 -0.11362969983E+02  0.14135202976E+02  0.46654159735E+01  0.72461357049E+02  0.69999722208E+02 0.  0.
        -12    1    1    2    0    0  0.11362969983E+02 -0.14135202976E+02 -0.46654159735E+01  0.18726642951E+02  0.00000000000E+00 0.  1.
         11    1    3    3    0    0 -0.97353461995E+01  0.11392009155E+02  0.51618415096E+01  0.15849272736E+02  0.51100000000E-03 0. -1.
        -11    1    3    3    0    0  0.13730969760E+02  0.68438702919E+01  0.23358142318E+02  0.27946035568E+02  0.51100000000E-03 0.  1.
         12    1    3    3    0    0 -0.15358593544E+02 -0.41006764708E+01 -0.23854567854E+02  0.28666048746E+02  0.00000000000E+00 0. -1.
</event>
<event>
 7    1  0.2710146E-013  0.7246158E+02  0.7816164E-02  0.1226708E+00
        -11   -1    0    0    0    0  0.00000000000E+00  0.00000000000E+00  0.45593999997E+02  0.45594000000E+02  0.51100000000E-03 0. -1.
         11   -1    0    0    0    0 -0.00000000000E+00 -0.00000000000E+00 -0.45593999997E+02  0.45594000000E+02  0.51100000000E-03 0.  1.
    9900012    2    1    2    0    0  0.17353558918E+01  0.10883265528E+02  0.15140073636E+02  0.72461581273E+02  0.70000014302E+02 0.  0.
        -12    1    1    2    0    0 -0.17353558918E+01 -0.10883265528E+02 -0.15140073636E+02  0.18726418727E+02  0.00000000000E+00 0.  1.
         11    1    3    3    0    0  0.42315868564E+01  0.49992358293E+01  0.20698465985E+01  0.68689847432E+01  0.51100000000E-03 0. -1.
        -11    1    3    3    0    0 -0.12305943264E+02  0.15752784824E+02  0.34598987562E+02  0.39958433527E+02  0.51100000000E-03 0.  1.
        -12    1    3    3    0    0  0.98097122999E+01 -0.98687551257E+01 -0.21528760524E+02  0.25634163003E+02  0.00000000000E+00 0.  1.
</event>
<event>
 7    1  0.2710146E-013  0.7246156E+02  0.7816164E-02  0.1226708E+00
        -11   -1    0    0    0    0  0.00000000000E+00  0.00000000000E+00  0.45593999997E+02  0.45594000000E+02  0.51100000000E-03 0. -1.
         11   -1    0    0    0    0 -0.00000000000E+00 -0.00000000000E+00 -0.45593999997E+02  0.45594000000E+02  0.51100000000E-03 0.  1.
    9900012    2    1    2    0    0 -0.45552383408E+01 -0.13511118946E+02 -0.12139971656E+02  0.72461562984E+02  0.69999990477E+02 0.  0.
        -12    1    1    2    0    0  0.45552383408E+01  0.13511118946E+02  0.12139971656E+02  0.18726437016E+02  0.00000000000E+00 0.  1.
         11    1    3    3    0    0 -0.68370002813E+01 -0.58048304246E+01  0.92009496676E+00  0.90159416654E+01  0.51100000000E-03 0. -1.
        -11    1    3    3    0    0 -0.28756433428E+02  0.24506362785E+01 -0.18596104046E+01  0.28920515777E+02  0.51100000000E-03 0.  1.
         12    1    3    3    0    0  0.31038195369E+02 -0.10156924800E+02 -0.11200456218E+02  0.34525105541E+02  0.00000000000E+00 0. -1.
</event>
<event>
 7    1  0.2710146E-013  0.7246180E+02  0.7816164E-02  0.1226707E+00
        -11   -1    0    0    0    0  0.00000000000E+00  0.00000000000E+00  0.45593999997E+02  0.45594000000E+02  0.51100000000E-03 0.  1.
         11   -1    0    0    0    0 -0.00000000000E+00 -0.00000000000E+00 -0.45593999997E+02  0.45594000000E+02  0.51100000000E-03 0. -1.
    9900012    2    1    2    0    0 -0.52493423035E+01 -0.11228248218E+02 -0.14037143835E+02  0.72461800180E+02  0.70000299468E+02 0.  0.
        -12    1    1    2    0    0  0.52493423035E+01  0.11228248218E+02  0.14037143835E+02  0.18726199820E+02  0.00000000000E+00 0.  1.
         11    1    3    3    0    0 -0.29018833000E+02  0.11126041680E+02 -0.15564263628E+02  0.34758132497E+02  0.51100000000E-03 0. -1.
        -11    1    3    3    0    0 -0.95728509689E+00 -0.55889991559E+01 -0.44855786165E+01  0.72300568537E+01  0.51100000000E-03 0.  1.
        -12    1    3    3    0    0  0.24726775794E+02 -0.16765290741E+02  0.60126984090E+01  0.30473610829E+02  0.00000000000E+00 0.  1.
</event>
<event>
 7    1  0.2710146E-013  0.7246156E+02  0.7816164E-02  0.1226708E+00
        -11   -1    0    0    0    0  0.00000000000E+00  0.00000000000E+00  0.45593999997E+02  0.45594000000E+02  0.51100000000E-03 0. -1.
         11   -1    0    0    0    0 -0.00000000000E+00 -0.00000000000E+00 -0.45593999997E+02  0.45594000000E+02  0.51100000000E-03 0.  1.
    9900012    2    1    2    0    0 -0.12589271941E+02 -0.11779682359E+02 -0.73094982712E+01  0.72461562820E+02  0.69999990263E+02 0.  0.
        -12    1    1    2    0    0  0.12589271941E+02  0.11779682359E+02  0.73094982712E+01  0.18726437180E+02  0.00000000000E+00 0.  1.
         11    1    3    3    0    0 -0.13414290221E+02  0.19244496353E+01  0.28648224405E+01  0.13851133398E+02  0.51100000000E-03 0. -1.
        -11    1    3    3    0    0  0.14304816376E+02  0.18153507478E+02 -0.47558316796E+01  0.23596515432E+02  0.51100000000E-03 0.  1.
        -12    1    3    3    0    0 -0.13479798096E+02 -0.31857639473E+02 -0.54184890321E+01  0.35013913990E+02  0.00000000000E+00 0.  1.
</event>
<event>
 7    1  0.2710146E-013  0.7246157E+02  0.7816164E-02  0.1226708E+00
        -11   -1    0    0    0    0  0.00000000000E+00  0.00000000000E+00  0.45593999997E+02  0.45594000000E+02  0.51100000000E-03 0.  1.
         11   -1    0    0    0    0 -0.00000000000E+00 -0.00000000000E+00 -0.45593999997E+02  0.45594000000E+02  0.51100000000E-03 0. -1.
    9900012    2    1    2    0    0  0.28410385500E+01 -0.15762672580E+02 -0.97028867228E+01  0.72461565271E+02  0.69999993457E+02 0.  0.
        -12    1    1    2    0    0 -0.28410385500E+01  0.15762672580E+02  0.97028867228E+01  0.18726434729E+02  0.00000000000E+00 0.  1.
         11    1    3    3    0    0  0.68596736997E+01 -0.18662297632E+01 -0.16814367048E+02  0.18255434158E+02  0.51100000000E-03 0. -1.
        -11    1    3    3    0    0  0.10589562149E+02 -0.74686565327E+00 -0.18855987270E+02  0.21638966957E+02  0.51100000000E-03 0.  1.
        -12    1    3    3    0    0 -0.14608197299E+02 -0.13149577163E+02  0.25967467595E+02  0.32567164156E+02  0.00000000000E+00 0.  1.
</event>
<event>
 7    1  0.2710146E-013  0.7246156E+02  0.7816164E-02  0.1226708E+00
        -11   -1    0    0    0    0  0.00000000000E+00  0.00000000000E+00  0.45593999997E+02  0.45594000000E+02  0.51100000000E-03 0. -1.
         11   -1    0    0    0    0 -0.00000000000E+00 -0.00000000000E+00 -0.45593999997E+02  0.45594000000E+02  0.51100000000E-03 0.  1.
    9900012    2    1    2    0    0 -0.23961807829E+00 -0.14738251147E+02  0.11550161015E+02  0.72461556580E+02  0.69999982134E+02 0.  0.
        -12    1    1    2    0    0  0.23961807829E+00  0.14738251147E+02 -0.11550161015E+02  0.18726443420E+02  0.00000000000E+00 0.  1.
         11    1    3    3    0    0 -0.17004307798E+00  0.10444195903E+02  0.71481767138E+01  0.12657273533E+02  0.51100000000E-03 0. -1.
        -11    1    3    3    0    0 -0.84182558552E+00  0.10600763923E+02  0.18498123560E+02  0.21336950146E+02  0.51100000000E-03 0.  1.
         12    1    3    3    0    0  0.77225058520E+00 -0.35783210972E+02 -0.14096139259E+02  0.38467332900E+02  0.00000000000E+00 0. -1.
</event>
<event>
 7    1  0.2710146E-013  0.7246153E+02  0.7816164E-02  0.1226708E+00
        -11   -1    0    0    0    0  0.00000000000E+00  0.00000000000E+00  0.45593999997E+02  0.45594000000E+02  0.51100000000E-03 0. -1.
         11   -1    0    0    0    0 -0.00000000000E+00 -0.00000000000E+00 -0.45593999997E+02  0.45594000000E+02  0.51100000000E-03 0.  1.
    9900012    2    1    2    0    0 -0.18386274240E+02 -0.27857996510E+01  0.22056436456E+01  0.72461531459E+02  0.69999949410E+02 0.  0.
        -12    1    1    2    0    0  0.18386274240E+02  0.27857996510E+01 -0.22056436456E+01  0.18726468541E+02  0.00000000000E+00 0.  1.
         11    1    3    3    0    0 -0.21992627983E+01  0.16536848972E+02  0.11395472455E+02  0.20202992934E+02  0.51100000000E-03 0. -1.
        -11    1    3    3    0    0 -0.19636316416E+02  0.52690958348E+01  0.82213526854E+01  0.21930319960E+02  0.51100000000E-03 0.  1.
        -12    1    3    3    0    0  0.34493049744E+01 -0.24591744458E+02 -0.17411181494E+02  0.30328218565E+02  0.00000000000E+00 0.  1.
</event>
<event>
 7    1  0.2710146E-013  0.7246171E+02  0.7816164E-02  0.1226708E+00
        -11   -1    0    0    0    0  0.00000000000E+00  0.00000000000E+00  0.45593999997E+02  0.45594000000E+02  0.51100000000E-03 0.  1.
         11   -1    0    0    0    0 -0.00000000000E+00 -0.00000000000E+00 -0.45593999997E+02  0.45594000000E+02  0.51100000000E-03 0. -1.
    9900012    2    1    2    0    0 -0.14484903791E+02  0.26870819258E+01 -0.11560315865E+02  0.72461714998E+02  0.70000188503E+02 0.  0.
        -12    1    1    2    0    0  0.14484903791E+02 -0.26870819258E+01  0.11560315865E+02  0.18726285002E+02  0.00000000000E+00 0.  1.
         11    1    3    3    0    0  0.69440214828E+00  0.36138975205E+01  0.65888463462E+01  0.75468765769E+01  0.51100000000E-03 0. -1.
        -11    1    3    3    0    0  0.10786350025E+02 -0.18337071117E+02  0.93883889114E+01  0.23253717351E+02  0.51100000000E-03 0.  1.
         12    1    3    3    0    0 -0.25965655964E+02  0.17410255523E+02 -0.27537551122E+02  0.41661121070E+02  0.00000000000E+00 0. -1.
</event>
<event>
 7    1  0.2710146E-013  0.7246142E+02  0.7816164E-02  0.1226708E+00
        -11   -1    0    0    0    0  0.00000000000E+00  0.00000000000E+00  0.45593999997E+02  0.45594000000E+02  0.51100000000E-03 0.  1.
         11   -1    0    0    0    0 -0.00000000000E+00 -0.00000000000E+00 -0.45593999997E+02  0.45594000000E+02  0.51100000000E-03 0. -1.
    9900012    2    1    2    0    0 -0.26224294336E+01  0.11821187531E+02 -0.14285213103E+02  0.72461416644E+02  0.69999799842E+02 0.  0.
        -12    1    1    2    0    0  0.26224294336E+01 -0.11821187531E+02  0.14285213103E+02  0.18726583356E+02  0.00000000000E+00 0.  1.
         11    1    3    3    0    0 -0.82496385684E+01  0.18327258405E+01 -0.26802774930E+02  0.28103454676E+02  0.51100000000E-03 0. -1.
        -11    1    3    3    0    0  0.17909332068E+02 -0.86689517481E+01  0.31887148094E+01  0.20151000023E+02  0.51100000000E-03 0.  1.
         12    1    3    3    0    0 -0.12282122934E+02  0.18657413438E+02  0.93288470170E+01  0.24206961945E+02  0.00000000000E+00 0. -1.
</event>
<event>
 7    1  0.2710146E-013  0.7246153E+02  0.7816164E-02  0.1226708E+00
        -11   -1    0    0    0    0  0.00000000000E+00  0.00000000000E+00  0.45593999997E+02  0.45594000000E+02  0.51100000000E-03 0.  1.
         11   -1    0    0    0    0 -0.00000000000E+00 -0.00000000000E+00 -0.45593999997E+02  0.45594000000E+02  0.51100000000E-03 0. -1.
    9900012    2    1    2    0    0 -0.10572268510E+02 -0.11077739277E+02 -0.10779209350E+02  0.72461534152E+02  0.69999952918E+02 0.  0.
        -12    1    1    2    0    0  0.10572268510E+02  0.11077739277E+02  0.10779209350E+02  0.18726465848E+02  0.00000000000E+00 0.  1.
         11    1    3    3    0    0  0.75706422885E+01 -0.37200968928E+01 -0.25138594051E+01  0.88018881452E+01  0.51100000000E-03 0. -1.
        -11    1    3    3    0    0  0.23321794148E+01  0.97047373848E+01  0.21501045425E+02  0.23704766254E+02  0.51100000000E-03 0.  1.
         12    1    3    3    0    0 -0.20475090214E+02 -0.17062379769E+02 -0.29766395371E+02  0.39954879752E+02  0.00000000000E+00 0. -1.
</event>
<event>
 7    1  0.2710146E-013  0.7246141E+02  0.7816164E-02  0.1226708E+00
        -11   -1    0    0    0    0  0.00000000000E+00  0.00000000000E+00  0.45593999997E+02  0.45594000000E+02  0.51100000000E-03 0.  1.
         11   -1    0    0    0    0 -0.00000000000E+00 -0.00000000000E+00 -0.45593999997E+02  0.45594000000E+02  0.51100000000E-03 0. -1.
    9900012    2    1    2    0    0 -0.11436334350E+02 -0.14748144754E+02  0.15451593917E+01  0.72461413696E+02  0.69999796001E+02 0.  0.
        -12    1    1    2    0    0  0.11436334350E+02  0.14748144754E+02 -0.15451593917E+01  0.18726586304E+02  0.00000000000E+00 0.  1.
         11    1    3    3    0    0 -0.79208370097E+01 -0.34266607289E+02 -0.11598950290E+02  0.37033440053E+02  0.51100000000E-03 0. -1.
        -11    1    3    3    0    0 -0.24994563373E+01 -0.45285317441E+01 -0.34285817405E+01  0.62056470051E+01  0.51100000000E-03 0.  1.
        -12    1    3    3    0    0 -0.10160410027E+01  0.24046994279E+02  0.16572691422E+02  0.29222326638E+02  0.00000000000E+00 0.  1.
</event>
<event>
 7    1  0.2710146E-013  0.7246155E+02  0.7816164E-02  0.1226708E+00
        -11   -1    0    0    0    0  0.00000000000E+00  0.00000000000E+00  0.45593999997E+02  0.45594000000E+02  0.51100000000E-03 0. -1.
         11   -1    0    0    0    0 -0.00000000000E+00 -0.00000000000E+00 -0.45593999997E+02  0.45594000000E+02  0.51100000000E-03 0.  1.
    9900012    2    1    2    0    0  0.13899519871E+02  0.12453541691E+02  0.15468495647E+01  0.72461545534E+02  0.69999967746E+02 0.  0.
        -12    1    1    2    0    0 -0.13899519871E+02 -0.12453541691E+02 -0.15468495647E+01  0.18726454466E+02  0.00000000000E+00 0.  1.
         11    1    3    3    0    0 -0.66870044410E+01 -0.19525428593E+02 -0.62843663158E+01  0.21574328504E+02  0.51100000000E-03 0. -1.
        -11    1    3    3    0    0 -0.28666091043E+01 -0.49923241681E+01 -0.18503203772E+01  0.60468532408E+01  0.51100000000E-03 0.  1.
        -12    1    3    3    0    0  0.23453133416E+02  0.36971294452E+02  0.96815362577E+01  0.44840363790E+02  0.00000000000E+00 0.  1.
</event>
<event>
 7    1  0.2710146E-013  0.7246163E+02  0.7816164E-02  0.1226708E+00
        -11   -1    0    0    0    0  0.00000000000E+00  0.00000000000E+00  0.45593999997E+02  0.45594000000E+02  0.51100000000E-03 0. -1.
         11   -1    0    0    0    0 -0.00000000000E+00 -0.00000000000E+00 -0.45593999997E+02  0.45594000000E+02  0.51100000000E-03 0.  1.
    9900012    2    1    2    0    0 -0.14100915822E+02  0.11492063894E+02  0.44467620497E+01  0.72461626825E+02  0.70000073642E+02 0.  0.
        -12    1    1    2    0    0  0.14100915822E+02 -0.11492063894E+02 -0.44467620497E+01  0.18726373175E+02  0.00000000000E+00 0.  1.
         11    1    3    3    0    0  0.18920054310E+02 -0.43210688603E+01 -0.50404084718E+01  0.20051079996E+02  0.51100000000E-03 0. -1.
        -11    1    3    3    0    0  0.44979084930E+01 -0.16475906781E+01 -0.64764021182E+01  0.80554031874E+01  0.51100000000E-03 0.  1.
        -12    1    3    3    0    0 -0.37518878625E+02  0.17460723432E+02  0.15963572640E+02  0.44355143642E+02  0.00000000000E+00 0.  1.
</event>
<event>
 7    1  0.2710146E-013  0.7246154E+02  0.7816164E-02  0.1226708E+00
        -11   -1    0    0    0    0  0.00000000000E+00  0.00000000000E+00  0.45593999997E+02  0.45594000000E+02  0.51100000000E-03 0. -1.
         11   -1    0    0    0    0 -0.00000000000E+00 -0.00000000000E+00 -0.45593999997E+02  0.45594000000E+02  0.51100000000E-03 0.  1.
    9900012    2    1    2    0    0 -0.18062702177E+02 -0.48511109947E+01  0.94120781519E+00  0.72461538509E+02  0.69999958594E+02 0.  0.
        -12    1    1    2    0    0  0.18062702177E+02  0.48511109947E+01 -0.94120781519E+00  0.18726461491E+02  0.00000000000E+00 0.  1.
         11    1    3    3    0    0 -0.10538825903E+02 -0.15879849523E+02  0.31238706904E+02  0.36593623510E+02  0.51100000000E-03 0. -1.
        -11    1    3    3    0    0  0.24002957523E+01 -0.95781981475E-01 -0.36679976275E+00  0.24300486032E+01  0.51100000000E-03 0.  1.
        -12    1    3    3    0    0 -0.99241720264E+01  0.11124520510E+02 -0.29930699326E+02  0.33437866396E+02  0.00000000000E+00 0.  1.
</event>
<event>
 7    1  0.2710146E-013  0.7246142E+02  0.7816164E-02  0.1226708E+00
        -11   -1    0    0    0    0  0.00000000000E+00  0.00000000000E+00  0.45593999997E+02  0.45594000000E+02  0.51100000000E-03 0. -1.
         11   -1    0    0    0    0 -0.00000000000E+00 -0.00000000000E+00 -0.45593999997E+02  0.45594000000E+02  0.51100000000E-03 0.  1.
    9900012    2    1    2    0    0  0.16773959866E+02  0.72495884204E+01 -0.40942290915E+01  0.72461415322E+02  0.69999798120E+02 0.  0.
        -12    1    1    2    0    0 -0.16773959866E+02 -0.72495884204E+01  0.40942290915E+01  0.18726584678E+02  0.00000000000E+00 0.  1.
         11    1    3    3    0    0 -0.10694236428E+02  0.16468061969E+02  0.48858247880E+00  0.19641855077E+02  0.51100000000E-03 0. -1.
        -11    1    3    3    0    0 -0.58223243931E+01 -0.14060412070E+01  0.13040596589E+02  0.14350385809E+02  0.51100000000E-03 0.  1.
        -12    1    3    3    0    0  0.33290520686E+02 -0.78124323415E+01 -0.17623408159E+02  0.38469174436E+02  0.00000000000E+00 0.  1.
</event>
<event>
 7    1  0.2710146E-013  0.7246161E+02  0.7816164E-02  0.1226708E+00
        -11   -1    0    0    0    0  0.00000000000E+00  0.00000000000E+00  0.45593999997E+02  0.45594000000E+02  0.51100000000E-03 0. -1.
         11   -1    0    0    0    0 -0.00000000000E+00 -0.00000000000E+00 -0.45593999997E+02  0.45594000000E+02  0.51100000000E-03 0.  1.
    9900012    2    1    2    0    0 -0.29004591407E+01  0.18478078556E+02  0.90863816752E+00  0.72461610234E+02  0.70000052029E+02 0.  0.
        -12    1    1    2    0    0  0.29004591407E+01 -0.18478078556E+02 -0.90863816752E+00  0.18726389766E+02  0.00000000000E+00 0.  1.
         11    1    3    3    0    0 -0.16565214976E+02  0.13732286995E+02  0.12782612548E+02  0.25027529585E+02  0.51100000000E-03 0. -1.
        -11    1    3    3    0    0 -0.56798980183E+00  0.14020920298E+02 -0.23131053927E+02  0.27054657168E+02  0.51100000000E-03 0.  1.
         12    1    3    3    0    0  0.14232745638E+02 -0.92751287379E+01  0.11257079547E+02  0.20379423481E+02  0.00000000000E+00 0. -1.
</event>
<event>
 7    1  0.2710146E-013  0.7246151E+02  0.7816164E-02  0.1226708E+00
        -11   -1    0    0    0    0  0.00000000000E+00  0.00000000000E+00  0.45593999997E+02  0.45594000000E+02  0.51100000000E-03 0.  1.
         11   -1    0    0    0    0 -0.00000000000E+00 -0.00000000000E+00 -0.45593999997E+02  0.45594000000E+02  0.51100000000E-03 0. -1.
    9900012    2    1    2    0    0 -0.17331807227E+02  0.70893504368E+01 -0.17554807610E+00  0.72461514785E+02  0.69999927689E+02 0.  0.
        -12    1    1    2    0    0  0.17331807227E+02 -0.70893504368E+01  0.17554807610E+00  0.18726485215E+02  0.00000000000E+00 0.  1.
         11    1    3    3    0    0  0.62167068880E+01 -0.39478194912E+01 -0.24377058453E+02  0.25465146816E+02  0.51100000000E-03 0. -1.
        -11    1    3    3    0    0 -0.28122749649E+02  0.56204888359E+01  0.87306323297E+01  0.29978373600E+02  0.51100000000E-03 0.  1.
        -12    1    3    3    0    0  0.45742355335E+01  0.54166810920E+01  0.15470878048E+02  0.17017994369E+02  0.00000000000E+00 0.  1.
</event>
<event>
 7    1  0.2710146E-013  0.7246158E+02  0.7816164E-02  0.1226708E+00
        -11   -1    0    0    0    0  0.00000000000E+00  0.00000000000E+00  0.45593999997E+02  0.45594000000E+02  0.51100000000E-03 0. -1.
         11   -1    0    0    0    0 -0.00000000000E+00 -0.00000000000E+00 -0.45593999997E+02  0.45594000000E+02  0.51100000000E-03 0.  1.
    9900012    2    1    2    0    0  0.41442425763E+01  0.17040778767E+01  0.18182413079E+02  0.72461580874E+02  0.70000013781E+02 0.  0.
        -12    1    1    2    0    0 -0.41442425763E+01 -0.17040778767E+01 -0.18182413079E+02  0.18726419126E+02  0.00000000000E+00 0.  1.
         11    1    3    3    0    0  0.36685191108E+01 -0.25748312471E+02  0.16800745162E+02  0.30962859458E+02  0.51100000000E-03 0. -1.
        -11    1    3    3    0    0  0.11952825318E+02  0.13277024494E+02 -0.95270242592E+01  0.20246323221E+02  0.51100000000E-03 0.  1.
         12    1    3    3    0    0 -0.11477101852E+02  0.14175365854E+02  0.10908692176E+02  0.21252398194E+02  0.00000000000E+00 0. -1.
</event>
<event>
 7    1  0.2710146E-013  0.7246159E+02  0.7816164E-02  0.1226708E+00
        -11   -1    0    0    0    0  0.00000000000E+00  0.00000000000E+00  0.45593999997E+02  0.45594000000E+02  0.51100000000E-03 0.  1.
         11   -1    0    0    0    0 -0.00000000000E+00 -0.00000000000E+00 -0.45593999997E+02  0.45594000000E+02  0.51100000000E-03 0. -1.
    9900012    2    1    2    0    0  0.47134302194E+01 -0.14771039087E+02 -0.10501361534E+02  0.72461585121E+02  0.70000019315E+02 0.  0.
        -12    1    1    2    0    0 -0.47134302194E+01  0.14771039087E+02  0.10501361534E+02  0.18726414879E+02  0.00000000000E+00 0.  1.
         11    1    3    3    0    0  0.80200323266E+01 -0.14748594881E+02  0.18740933500E+02  0.25160774197E+02  0.51100000000E-03 0.  1.
        -11    1    3    3    0    0  0.93962956934E+01 -0.67975244387E+01 -0.30712552609E+02  0.32829218682E+02  0.51100000000E-03 0. -1.
         12    1    3    3    0    0 -0.12702897801E+02  0.67750802324E+01  0.14702575752E+01  0.14471592242E+02  0.00000000000E+00 0. -1.
</event>
<event>
 7    1  0.2710146E-013  0.7246160E+02  0.7816164E-02  0.1226708E+00
        -11   -1    0    0    0    0  0.00000000000E+00  0.00000000000E+00  0.45593999997E+02  0.45594000000E+02  0.51100000000E-03 0. -1.
         11   -1    0    0    0    0 -0.00000000000E+00 -0.00000000000E+00 -0.45593999997E+02  0.45594000000E+02  0.51100000000E-03 0.  1.
    9900012    2    1    2    0    0 -0.36903931913E+01  0.11818803330E+02  0.14049016464E+02  0.72461602117E+02  0.70000041455E+02 0.  0.
        -12    1    1    2    0    0  0.36903931913E+01 -0.11818803330E+02 -0.14049016464E+02  0.18726397883E+02  0.00000000000E+00 0.  1.
         11    1    3    3    0    0  0.16181675736E+02 -0.13171436569E+02  0.14789751952E+02  0.25574794896E+02  0.51100000000E-03 0. -1.
        -11    1    3    3    0    0  0.63902580349E+01  0.16498327544E+02 -0.62065143947E+01  0.18749694150E+02  0.51100000000E-03 0.  1.
         12    1    3    3    0    0 -0.26262326962E+02  0.84919123554E+01  0.54657789069E+01  0.28137113071E+02  0.00000000000E+00 0. -1.
</event>
<event>
 7    1  0.2710146E-013  0.7246151E+02  0.7816164E-02  0.1226708E+00
        -11   -1    0    0    0    0  0.00000000000E+00  0.00000000000E+00  0.45593999997E+02  0.45594000000E+02  0.51100000000E-03 0.  1.
         11   -1    0    0    0    0 -0.00000000000E+00 -0.00000000000E+00 -0.45593999997E+02  0.45594000000E+02  0.51100000000E-03 0. -1.
    9900012    2    1    2    0    0 -0.15612017690E+02 -0.55042538476E+01 -0.87549743141E+01  0.72461508550E+02  0.69999919567E+02 0.  0.
        -12    1    1    2    0    0  0.15612017690E+02  0.55042538476E+01  0.87549743141E+01  0.18726491450E+02  0.00000000000E+00 0.  1.
         11    1    3    3    0    0  0.13305424499E+02  0.17475906126E+02 -0.12094097222E+02  0.25074066362E+02  0.51100000000E-03 0. -1.
        -11    1    3    3    0    0 -0.19767922884E+01 -0.15485952151E+02 -0.75963863293E+01  0.17361667757E+02  0.51100000000E-03 0.  1.
        -12    1    3    3    0    0 -0.26940649901E+02 -0.74942078230E+01  0.10935509237E+02  0.30025774432E+02  0.00000000000E+00 0.  1.
</event>
<event>
 7    1  0.2710146E-013  0.7246160E+02  0.7816164E-02  0.1226708E+00
        -11   -1    0    0    0    0  0.00000000000E+00  0.00000000000E+00  0.45593999997E+02  0.45594000000E+02  0.51100000000E-03 0. -1.
         11   -1    0    0    0    0 -0.00000000000E+00 -0.00000000000E+00 -0.45593999997E+02  0.45594000000E+02  0.51100000000E-03 0.  1.
    9900012    2    1    2    0    0 -0.11574264572E+02  0.14610146875E+02  0.18050392935E+01  0.72461597277E+02  0.70000035150E+02 0.  0.
        -12    1    1    2    0    0  0.11574264572E+02 -0.14610146875E+02 -0.18050392935E+01  0.18726402723E+02  0.00000000000E+00 0.  1.
         11    1    3    3    0    0 -0.96733084463E+01  0.99814063258E+01  0.86578667379E+01  0.16375592363E+02  0.51100000000E-03 0. -1.
        -11    1    3    3    0    0 -0.21673729398E+02  0.10437525141E+01 -0.22016002198E+02  0.30911879890E+02  0.51100000000E-03 0.  1.
         12    1    3    3    0    0  0.19772773272E+02  0.35849880352E+01  0.15163174754E+02  0.25174125023E+02  0.00000000000E+00 0. -1.
</event>
<event>
 7    1  0.2710146E-013  0.7246141E+02  0.7816164E-02  0.1226708E+00
        -11   -1    0    0    0    0  0.00000000000E+00  0.00000000000E+00  0.45593999997E+02  0.45594000000E+02  0.51100000000E-03 0.  1.
         11   -1    0    0    0    0 -0.00000000000E+00 -0.00000000000E+00 -0.45593999997E+02  0.45594000000E+02  0.51100000000E-03 0. -1.
    9900012    2    1    2    0    0 -0.76644769610E+01  0.90576007733E+01 -0.14487951418E+02  0.72461412614E+02  0.69999794591E+02 0.  0.
        -12    1    1    2    0    0  0.76644769610E+01 -0.90576007733E+01  0.14487951418E+02  0.18726587386E+02  0.00000000000E+00 0.  1.
         11    1    3    3    0    0  0.80144785878E+00  0.14869615089E+02  0.47001485946E+01  0.15615350417E+02  0.51100000000E-03 0. -1.
        -11    1    3    3    0    0  0.93775070570E+01  0.19878049624E+02 -0.52216447536E+01  0.22590707595E+02  0.51100000000E-03 0.  1.
         12    1    3    3    0    0 -0.17843431877E+02 -0.25690063940E+02 -0.13966455259E+02  0.34255354601E+02  0.00000000000E+00 0. -1.
</event>
<event>
 7    1  0.2710146E-013  0.7246172E+02  0.7816164E-02  0.1226708E+00
        -11   -1    0    0    0    0  0.00000000000E+00  0.00000000000E+00  0.45593999997E+02  0.45594000000E+02  0.51100000000E-03 0.  1.
         11   -1    0    0    0    0 -0.00000000000E+00 -0.00000000000E+00 -0.45593999997E+02  0.45594000000E+02  0.51100000000E-03 0. -1.
    9900012    2    1    2    0    0 -0.11466547675E+02 -0.14504057783E+02  0.29705696608E+01  0.72461716550E+02  0.70000190525E+02 0.  0.
        -12    1    1    2    0    0  0.11466547675E+02  0.14504057783E+02 -0.29705696608E+01  0.18726283450E+02  0.00000000000E+00 0.  1.
         11    1    3    3    0    0 -0.86045398530E+01 -0.37958217423E+02  0.21221651520E+00  0.38921837214E+02  0.51100000000E-03 0. -1.
        -11    1    3    3    0    0 -0.12147697695E+01 -0.48860642960E+01  0.58681116871E+00  0.50688891788E+01  0.51100000000E-03 0.  1.
        -12    1    3    3    0    0 -0.16472380520E+01  0.28340223936E+02  0.21715419769E+01  0.28470990157E+02  0.00000000000E+00 0.  1.
</event>
<event>
 7    1  0.2710146E-013  0.7246162E+02  0.7816164E-02  0.1226708E+00
        -11   -1    0    0    0    0  0.00000000000E+00  0.00000000000E+00  0.45593999997E+02  0.45594000000E+02  0.51100000000E-03 0.  1.
         11   -1    0    0    0    0 -0.00000000000E+00 -0.00000000000E+00 -0.45593999997E+02  0.45594000000E+02  0.51100000000E-03 0. -1.
    9900012    2    1    2    0    0  0.15249315548E+02  0.26312702673E+01 -0.10545710655E+02  0.72461622318E+02  0.70000067770E+02 0.  0.
        -12    1    1    2    0    0 -0.15249315548E+02 -0.26312702673E+01  0.10545710655E+02  0.18726377682E+02  0.00000000000E+00 0.  1.
         11    1    3    3    0    0  0.56078055529E+01  0.13582516780E+01 -0.71211290928E+01  0.91653047170E+01  0.51100000000E-03 0. -1.
        -11    1    3    3    0    0  0.11257491564E+02 -0.49946227386E+01 -0.31847422816E+02  0.34145800809E+02  0.51100000000E-03 0.  1.
        -12    1    3    3    0    0 -0.16159815696E+01  0.62676413280E+01  0.28422841254E+02  0.29150516791E+02  0.00000000000E+00 0.  1.
</event>
<event>
 7    1  0.2710146E-013  0.7246155E+02  0.7816164E-02  0.1226708E+00
        -11   -1    0    0    0    0  0.00000000000E+00  0.00000000000E+00  0.45593999997E+02  0.45594000000E+02  0.51100000000E-03 0.  1.
         11   -1    0    0    0    0 -0.00000000000E+00 -0.00000000000E+00 -0.45593999997E+02  0.45594000000E+02  0.51100000000E-03 0. -1.
    9900012    2    1    2    0    0 -0.10383698179E+02 -0.35837199234E+01 -0.15166270934E+02  0.72461547842E+02  0.69999970752E+02 0.  0.
        -12    1    1    2    0    0  0.10383698179E+02  0.35837199234E+01  0.15166270934E+02  0.18726452158E+02  0.00000000000E+00 0.  1.
         11    1    3    3    0    0  0.89782706534E+01 -0.13317567944E+01 -0.53512425238E+01  0.10536541980E+02  0.51100000000E-03 0. -1.
        -11    1    3    3    0    0 -0.34185817382E+02 -0.10107529847E+02 -0.21361477145E+02  0.41558933766E+02  0.51100000000E-03 0.  1.
         12    1    3    3    0    0  0.14823848549E+02  0.78555667181E+01  0.11546448734E+02  0.20366072097E+02  0.00000000000E+00 0. -1.
</event>
<event>
 7    1  0.2710146E-013  0.7246159E+02  0.7816164E-02  0.1226708E+00
        -11   -1    0    0    0    0  0.00000000000E+00  0.00000000000E+00  0.45593999997E+02  0.45594000000E+02  0.51100000000E-03 0. -1.
         11   -1    0    0    0    0 -0.00000000000E+00 -0.00000000000E+00 -0.45593999997E+02  0.45594000000E+02  0.51100000000E-03 0.  1.
    9900012    2    1    2    0    0 -0.16726317636E+02 -0.13234256436E+01  0.83160956647E+01  0.72461585389E+02  0.70000019663E+02 0.  0.
        -12    1    1    2    0    0  0.16726317636E+02  0.13234256436E+01 -0.83160956647E+01  0.18726414611E+02  0.00000000000E+00 0.  1.
         11    1    3    3    0    0  0.13668120219E+02 -0.10367014175E+02  0.82667138049E+01  0.19042874011E+02  0.51100000000E-03 0. -1.
        -11    1    3    3    0    0 -0.49732495399E+01  0.99293239500E+01 -0.18748007979E+02  0.21790192485E+02  0.51100000000E-03 0.  1.
        -12    1    3    3    0    0 -0.25421188315E+02 -0.88573541869E+00  0.18797389839E+02  0.31628518892E+02  0.00000000000E+00 0.  1.
</event>
<event>
 7    1  0.2710146E-013  0.7246155E+02  0.7816164E-02  0.1226708E+00
        -11   -1    0    0    0    0  0.00000000000E+00  0.00000000000E+00  0.45593999997E+02  0.45594000000E+02  0.51100000000E-03 0.  1.
         11   -1    0    0    0    0 -0.00000000000E+00 -0.00000000000E+00 -0.45593999997E+02  0.45594000000E+02  0.51100000000E-03 0. -1.
    9900012    2    1    2    0    0  0.36749429959E+00 -0.12768554149E+02  0.13693394980E+02  0.72461545631E+02  0.69999967872E+02 0.  0.
        -12    1    1    2    0    0 -0.36749429959E+00  0.12768554149E+02 -0.13693394980E+02  0.18726454369E+02  0.00000000000E+00 0.  1.
         11    1    3    3    0    0 -0.65970860211E+01 -0.48788207750E+01  0.63914566461E+01  0.10400728554E+02  0.51100000000E-03 0. -1.
        -11    1    3    3    0    0 -0.25916142430E+02 -0.10014026789E+02  0.86055067545E+01  0.29085768302E+02  0.51100000000E-03 0.  1.
        -12    1    3    3    0    0  0.32880722751E+02  0.21242934143E+01 -0.13035684201E+01  0.32975048775E+02  0.00000000000E+00 0.  1.
</event>
<event>
 7    1  0.2710146E-013  0.7246162E+02  0.7816164E-02  0.1226708E+00
        -11   -1    0    0    0    0  0.00000000000E+00  0.00000000000E+00  0.45593999997E+02  0.45594000000E+02  0.51100000000E-03 0. -1.
         11   -1    0    0    0    0 -0.00000000000E+00 -0.00000000000E+00 -0.45593999997E+02  0.45594000000E+02  0.51100000000E-03 0.  1.
    9900012    2    1    2    0    0 -0.30067243700E+01 -0.13332040107E+02  0.12802092112E+02  0.72461621618E+02  0.70000066859E+02 0.  0.
        -12    1    1    2    0    0  0.30067243700E+01  0.13332040107E+02 -0.12802092112E+02  0.18726378382E+02  0.00000000000E+00 0.  1.
         11    1    3    3    0    0 -0.17458018207E+01 -0.13631649272E+02  0.26639053884E+02  0.29975137664E+02  0.51100000000E-03 0. -1.
        -11    1    3    3    0    0  0.54804332634E+01  0.18570496036E+02 -0.14727664763E+01  0.19418226313E+02  0.51100000000E-03 0.  1.
        -12    1    3    3    0    0 -0.67413558127E+01 -0.18270886872E+02 -0.12364195296E+02  0.23068257641E+02  0.00000000000E+00 0.  1.
</event>
<event>
 7    1  0.2710146E-013  0.7246154E+02  0.7816164E-02  0.1226708E+00
        -11   -1    0    0    0    0  0.00000000000E+00  0.00000000000E+00  0.45593999997E+02  0.45594000000E+02  0.51100000000E-03 0. -1.
         11   -1    0    0    0    0 -0.00000000000E+00 -0.00000000000E+00 -0.45593999997E+02  0.45594000000E+02  0.51100000000E-03 0.  1.
    9900012    2    1    2    0    0 -0.16924507506E+02 -0.26066079299E+01 -0.75793658248E+01  0.72461544235E+02  0.69999966052E+02 0.  0.
        -12    1    1    2    0    0  0.16924507506E+02  0.26066079299E+01  0.75793658248E+01  0.18726455765E+02  0.00000000000E+00 0.  1.
         11    1    3    3    0    0 -0.22139175045E+02 -0.78696295570E+01  0.11833179177E+02  0.26307760656E+02  0.51100000000E-03 0. -1.
        -11    1    3    3    0    0  0.24309874625E+01 -0.18042560526E+02 -0.10703262189E+02  0.21118795234E+02  0.51100000000E-03 0.  1.
        -12    1    3    3    0    0  0.27836800765E+01  0.23305582153E+02 -0.87092828132E+01  0.25034988344E+02  0.00000000000E+00 0.  1.
</event>
<event>
 7    1  0.2710146E-013  0.7246158E+02  0.7816164E-02  0.1226708E+00
        -11   -1    0    0    0    0  0.00000000000E+00  0.00000000000E+00  0.45593999997E+02  0.45594000000E+02  0.51100000000E-03 0.  1.
         11   -1    0    0    0    0 -0.00000000000E+00 -0.00000000000E+00 -0.45593999997E+02  0.45594000000E+02  0.51100000000E-03 0. -1.
    9900012    2    1    2    0    0  0.52405919169E+01 -0.17608931814E+02 -0.36250089115E+01  0.72461575545E+02  0.70000006840E+02 0.  0.
        -12    1    1    2    0    0 -0.52405919169E+01  0.17608931814E+02  0.36250089115E+01  0.18726424455E+02  0.00000000000E+00 0.  1.
         11    1    3    3    0    0 -0.86050168272E+01 -0.14966396606E+02 -0.27060080537E+01  0.17474605055E+02  0.51100000000E-03 0. -1.
        -11    1    3    3    0    0 -0.13318896802E+02  0.15583178767E+02  0.63819882329E+01  0.21469938206E+02  0.51100000000E-03 0.  1.
         12    1    3    3    0    0  0.27164505546E+02 -0.18225713974E+02 -0.73009890906E+01  0.33517032284E+02  0.00000000000E+00 0. -1.
</event>
<event>
 7    1  0.2710146E-013  0.7246156E+02  0.7816164E-02  0.1226708E+00
        -11   -1    0    0    0    0  0.00000000000E+00  0.00000000000E+00  0.45593999997E+02  0.45594000000E+02  0.51100000000E-03 0.  1.
         11   -1    0    0    0    0 -0.00000000000E+00 -0.00000000000E+00 -0.45593999997E+02  0.45594000000E+02  0.51100000000E-03 0. -1.
    9900012    2    1    2    0    0  0.99858469343E+01 -0.82274447172E+00 -0.15820417124E+02  0.72461557587E+02  0.69999983447E+02 0.  0.
        -12    1    1    2    0    0 -0.99858469343E+01  0.82274447172E+00  0.15820417124E+02  0.18726442413E+02  0.00000000000E+00 0.  1.
         11    1    3    3    0    0 -0.11523347582E+02 -0.83406756214E+01 -0.18639693431E+02  0.23447656189E+02  0.51100000000E-03 0. -1.
        -11    1    3    3    0    0  0.52587199439E+01 -0.47103510049E+01 -0.18348271721E+02  0.19659618954E+02  0.51100000000E-03 0.  1.
        -12    1    3    3    0    0  0.16250474572E+02  0.12228282155E+02  0.21167548028E+02  0.29354282444E+02  0.00000000000E+00 0.  1.
</event>
<event>
 7    1  0.2710146E-013  0.7246117E+02  0.7816164E-02  0.1226709E+00
        -11   -1    0    0    0    0  0.00000000000E+00  0.00000000000E+00  0.45593999997E+02  0.45594000000E+02  0.51100000000E-03 0. -1.
         11   -1    0    0    0    0 -0.00000000000E+00 -0.00000000000E+00 -0.45593999997E+02  0.45594000000E+02  0.51100000000E-03 0.  1.
    9900012    2    1    2    0    0  0.14695743193E+02 -0.51291603437E+00  0.11595949793E+02  0.72461174256E+02  0.69999484085E+02 0.  0.
        -12    1    1    2    0    0 -0.14695743193E+02  0.51291603437E+00 -0.11595949793E+02  0.18726825744E+02  0.00000000000E+00 0.  1.
         11    1    3    3    0    0  0.46136561585E+01 -0.82379815831E+01 -0.10248269002E+02  0.13934747271E+02  0.51100000000E-03 0. -1.
        -11    1    3    3    0    0  0.21402808985E+02 -0.64986151253E+01 -0.78536623172E+01  0.23706375578E+02  0.51100000000E-03 0.  1.
        -12    1    3    3    0    0 -0.11320721950E+02  0.14223680674E+02  0.29697881112E+02  0.34820051407E+02  0.00000000000E+00 0.  1.
</event>
<event>
 7    1  0.2710146E-013  0.7246157E+02  0.7816164E-02  0.1226708E+00
        -11   -1    0    0    0    0  0.00000000000E+00  0.00000000000E+00  0.45593999997E+02  0.45594000000E+02  0.51100000000E-03 0. -1.
         11   -1    0    0    0    0 -0.00000000000E+00 -0.00000000000E+00 -0.45593999997E+02  0.45594000000E+02  0.51100000000E-03 0.  1.
    9900012    2    1    2    0    0 -0.13251414869E+02  0.85115399944E+01  0.10130792689E+02  0.72461567622E+02  0.69999996518E+02 0.  0.
        -12    1    1    2    0    0  0.13251414869E+02 -0.85115399944E+01 -0.10130792689E+02  0.18726432378E+02  0.00000000000E+00 0.  1.
         11    1    3    3    0    0 -0.28797258328E+02  0.28054340307E+02  0.11482769556E+02  0.41811267551E+02  0.51100000000E-03 0. -1.
        -11    1    3    3    0    0 -0.90126439825E+00  0.27105655153E+01  0.56698998644E+00  0.29122020593E+01  0.51100000000E-03 0.  1.
        -12    1    3    3    0    0  0.16447107857E+02 -0.22253365828E+02 -0.19189668536E+01  0.27738098012E+02  0.00000000000E+00 0.  1.
</event>
<event>
 7    1  0.2710146E-013  0.7246153E+02  0.7816164E-02  0.1226708E+00
        -11   -1    0    0    0    0  0.00000000000E+00  0.00000000000E+00  0.45593999997E+02  0.45594000000E+02  0.51100000000E-03 0.  1.
         11   -1    0    0    0    0 -0.00000000000E+00 -0.00000000000E+00 -0.45593999997E+02  0.45594000000E+02  0.51100000000E-03 0. -1.
    9900012    2    1    2    0    0  0.52744589794E+01 -0.16605840705E+02 -0.68634482797E+01  0.72461527151E+02  0.69999943798E+02 0.  0.
        -12    1    1    2    0    0 -0.52744589794E+01  0.16605840705E+02  0.68634482797E+01  0.18726472849E+02  0.00000000000E+00 0.  1.
         11    1    3    3    0    0 -0.42460432959E+01  0.69426316540E+01 -0.22923517298E+02  0.24325226896E+02  0.51100000000E-03 0. -1.
        -11    1    3    3    0    0 -0.17954697574E+01  0.45764443549E+01 -0.80292986211E+01  0.94147326670E+01  0.51100000000E-03 0.  1.
        -12    1    3    3    0    0  0.11315972033E+02 -0.28124916714E+02  0.24089367640E+02  0.38721567588E+02  0.00000000000E+00 0.  1.
</event>
<event>
 7    1  0.2710146E-013  0.7246152E+02  0.7816164E-02  0.1226708E+00
        -11   -1    0    0    0    0  0.00000000000E+00  0.00000000000E+00  0.45593999997E+02  0.45594000000E+02  0.51100000000E-03 0. -1.
         11   -1    0    0    0    0 -0.00000000000E+00 -0.00000000000E+00 -0.45593999997E+02  0.45594000000E+02  0.51100000000E-03 0.  1.
    9900012    2    1    2    0    0  0.16381959049E+02  0.55019826831E+01  0.72139196873E+01  0.72461520539E+02  0.69999935185E+02 0.  0.
        -12    1    1    2    0    0 -0.16381959049E+02 -0.55019826831E+01 -0.72139196873E+01  0.18726479461E+02  0.00000000000E+00 0.  1.
         11    1    3    3    0    0  0.58477694012E+01  0.34084440323E+02 -0.69435453764E+01  0.35272628223E+02  0.51100000000E-03 0. -1.
        -11    1    3    3    0    0 -0.37810430793E+00  0.19076148494E+01  0.13345224081E+01  0.23585816925E+01  0.51100000000E-03 0.  1.
        -12    1    3    3    0    0  0.10912293956E+02 -0.30490072489E+02  0.12822942656E+02  0.34830310624E+02  0.00000000000E+00 0.  1.
</event>
<event>
 7    1  0.2710146E-013  0.7246159E+02  0.7816164E-02  0.1226708E+00
        -11   -1    0    0    0    0  0.00000000000E+00  0.00000000000E+00  0.45593999997E+02  0.45594000000E+02  0.51100000000E-03 0. -1.
         11   -1    0    0    0    0 -0.00000000000E+00 -0.00000000000E+00 -0.45593999997E+02  0.45594000000E+02  0.51100000000E-03 0.  1.
    9900012    2    1    2    0    0 -0.58564410131E+01  0.12896847811E+02 -0.12249563589E+02  0.72461591029E+02  0.70000027011E+02 0.  0.
        -12    1    1    2    0    0  0.58564410131E+01 -0.12896847811E+02  0.12249563589E+02  0.18726408971E+02  0.00000000000E+00 0.  1.
         11    1    3    3    0    0 -0.34281758857E+01  0.51359805485E+01  0.32753905496E+01  0.69899119888E+01  0.51100000000E-03 0. -1.
        -11    1    3    3    0    0  0.40017274336E+01 -0.15122684586E+01 -0.39100955434E+02  0.39334278873E+02  0.51100000000E-03 0.  1.
         12    1    3    3    0    0 -0.64299925611E+01  0.92731357216E+01  0.23576001295E+02  0.26137400167E+02  0.00000000000E+00 0. -1.
</event>
<event>
 7    1  0.2710146E-013  0.7246157E+02  0.7816164E-02  0.1226708E+00
        -11   -1    0    0    0    0  0.00000000000E+00  0.00000000000E+00  0.45593999997E+02  0.45594000000E+02  0.51100000000E-03 0. -1.
         11   -1    0    0    0    0 -0.00000000000E+00 -0.00000000000E+00 -0.45593999997E+02  0.45594000000E+02  0.51100000000E-03 0.  1.
    9900012    2    1    2    0    0 -0.16778576815E+02 -0.87901233610E+00  0.82695783390E+01  0.72461568719E+02  0.69999997948E+02 0.  0.
        -12    1    1    2    0    0  0.16778576815E+02  0.87901233610E+00 -0.82695783390E+01  0.18726431281E+02  0.00000000000E+00 0.  1.
         11    1    3    3    0    0 -0.18017411731E+02  0.25469774636E+01  0.16178510951E+01  0.18268324009E+02  0.51100000000E-03 0. -1.
        -11    1    3    3    0    0 -0.16734842200E+02  0.18702842259E+02  0.91686659647E+00  0.25113579925E+02  0.51100000000E-03 0.  1.
        -12    1    3    3    0    0  0.17973677117E+02 -0.22128832058E+02  0.57348606474E+01  0.29079664785E+02  0.00000000000E+00 0.  1.
</event>
<event>
 7    1  0.2710146E-013  0.7246156E+02  0.7816164E-02  0.1226708E+00
        -11   -1    0    0    0    0  0.00000000000E+00  0.00000000000E+00  0.45593999997E+02  0.45594000000E+02  0.51100000000E-03 0. -1.
         11   -1    0    0    0    0 -0.00000000000E+00 -0.00000000000E+00 -0.45593999997E+02  0.45594000000E+02  0.51100000000E-03 0.  1.
    9900012    2    1    2    0    0  0.13749316358E+02 -0.12566600095E+02  0.19278294319E+01  0.72461557076E+02  0.69999982780E+02 0.  0.
        -12    1    1    2    0    0 -0.13749316358E+02  0.12566600095E+02 -0.19278294319E+01  0.18726442924E+02  0.00000000000E+00 0.  1.
         11    1    3    3    0    0 -0.55006532266E+01  0.67794286688E+01  0.89918382862E+01  0.12532796776E+02  0.51100000000E-03 0. -1.
        -11    1    3    3    0    0  0.49595775631E+01  0.15792166008E+02 -0.13617057668E+02  0.21433949160E+02  0.51100000000E-03 0.  1.
         12    1    3    3    0    0  0.14290392022E+02 -0.35138194772E+02  0.65530488134E+01  0.38494811140E+02  0.00000000000E+00 0. -1.
</event>
<event>
 7    1  0.2710146E-013  0.7246155E+02  0.7816164E-02  0.1226708E+00
        -11   -1    0    0    0    0  0.00000000000E+00  0.00000000000E+00  0.45593999997E+02  0.45594000000E+02  0.51100000000E-03 0.  1.
         11   -1    0    0    0    0 -0.00000000000E+00 -0.00000000000E+00 -0.45593999997E+02  0.45594000000E+02  0.51100000000E-03 0. -1.
    9900012    2    1    2    0    0  0.37045453983E+01  0.14864199141E+01 -0.18296086949E+02  0.72461550833E+02  0.69999974648E+02 0.  0.
        -12    1    1    2    0    0 -0.37045453983E+01 -0.14864199141E+01  0.18296086949E+02  0.18726449167E+02  0.00000000000E+00 0.  1.
         11    1    3    3    0    0  0.46552391651E+01 -0.77818059251E+00 -0.20412027855E+02  0.20950601379E+02  0.51100000000E-03 0. -1.
        -11    1    3    3    0    0 -0.27467181474E+01  0.23899009338E+02 -0.10670189581E+02  0.26316535750E+02  0.51100000000E-03 0.  1.
        -12    1    3    3    0    0  0.17960243805E+01 -0.21634408832E+02  0.12786130487E+02  0.25194413704E+02  0.00000000000E+00 0.  1.
</event>
<event>
 7    1  0.2710146E-013  0.7246157E+02  0.7816164E-02  0.1226708E+00
        -11   -1    0    0    0    0  0.00000000000E+00  0.00000000000E+00  0.45593999997E+02  0.45594000000E+02  0.51100000000E-03 0.  1.
         11   -1    0    0    0    0 -0.00000000000E+00 -0.00000000000E+00 -0.45593999997E+02  0.45594000000E+02  0.51100000000E-03 0. -1.
    9900012    2    1    2    0    0  0.40053496571E+01 -0.18247385862E+02 -0.12919863009E+01  0.72461570942E+02  0.70000000844E+02 0.  0.
        -12    1    1    2    0    0 -0.40053496571E+01  0.18247385862E+02  0.12919863009E+01  0.18726429058E+02  0.00000000000E+00 0.  1.
         11    1    3    3    0    0  0.22601757421E+02 -0.25499156006E+02 -0.70100891701E+01  0.34787752815E+02  0.51100000000E-03 0. -1.
        -11    1    3    3    0    0  0.54504362843E+01 -0.35496913374E+01  0.90048586730E+01  0.11108332200E+02  0.51100000000E-03 0.  1.
        -12    1    3    3    0    0 -0.24046844048E+02  0.10801461481E+02 -0.32867558038E+01  0.26565485927E+02  0.00000000000E+00 0.  1.
</event>
<event>
 7    1  0.2710146E-013  0.7246157E+02  0.7816164E-02  0.1226708E+00
        -11   -1    0    0    0    0  0.00000000000E+00  0.00000000000E+00  0.45593999997E+02  0.45594000000E+02  0.51100000000E-03 0. -1.
         11   -1    0    0    0    0 -0.00000000000E+00 -0.00000000000E+00 -0.45593999997E+02  0.45594000000E+02  0.51100000000E-03 0.  1.
    9900012    2    1    2    0    0  0.12338962981E+02  0.13175559902E+02  0.49833483445E+01  0.72461570898E+02  0.70000000787E+02 0.  0.
        -12    1    1    2    0    0 -0.12338962981E+02 -0.13175559902E+02 -0.49833483445E+01  0.18726429102E+02  0.00000000000E+00 0.  1.
         11    1    3    3    0    0  0.26168930559E+02 -0.57226971098E+01  0.18885366304E+02  0.32775284125E+02  0.51100000000E-03 0. -1.
        -11    1    3    3    0    0  0.50099098405E+01  0.13303242305E+02 -0.14114051420E+02  0.20032021869E+02  0.51100000000E-03 0.  1.
        -12    1    3    3    0    0 -0.18839877418E+02  0.55950147069E+01  0.21203346013E+00  0.19654264903E+02  0.00000000000E+00 0.  1.
</event>
<event>
 7    1  0.2710146E-013  0.7246158E+02  0.7816164E-02  0.1226708E+00
        -11   -1    0    0    0    0  0.00000000000E+00  0.00000000000E+00  0.45593999997E+02  0.45594000000E+02  0.51100000000E-03 0. -1.
         11   -1    0    0    0    0 -0.00000000000E+00 -0.00000000000E+00 -0.45593999997E+02  0.45594000000E+02  0.51100000000E-03 0.  1.
    9900012    2    1    2    0    0  0.91468985003E+01 -0.55099778551E+01  0.15383539049E+02  0.72461577977E+02  0.70000010008E+02 0.  0.
        -12    1    1    2    0    0 -0.91468985003E+01  0.55099778551E+01 -0.15383539049E+02  0.18726422023E+02  0.00000000000E+00 0.  1.
         11    1    3    3    0    0  0.45482754549E+01  0.59923861335E+01  0.36616134240E+02  0.37380968261E+02  0.51100000000E-03 0. -1.
        -11    1    3    3    0    0 -0.55951854573E+01  0.56056197586E+01 -0.47972187356E+01  0.92597181943E+01  0.51100000000E-03 0.  1.
        -12    1    3    3    0    0  0.10193808503E+02 -0.17107983747E+02 -0.16435376456E+02  0.25820891521E+02  0.00000000000E+00 0.  1.
</event>
<event>
 7    1  0.2710146E-013  0.7246171E+02  0.7816164E-02  0.1226708E+00
        -11   -1    0    0    0    0  0.00000000000E+00  0.00000000000E+00  0.45593999997E+02  0.45594000000E+02  0.51100000000E-03 0.  1.
         11   -1    0    0    0    0 -0.00000000000E+00 -0.00000000000E+00 -0.45593999997E+02  0.45594000000E+02  0.51100000000E-03 0. -1.
    9900012    2    1    2    0    0  0.13608955672E+02  0.10901582993E+02 -0.68283006869E+01  0.72461711619E+02  0.70000184102E+02 0.  0.
        -12    1    1    2    0    0 -0.13608955672E+02 -0.10901582993E+02  0.68283006869E+01  0.18726288381E+02  0.00000000000E+00 0.  1.
         11    1    3    3    0    0  0.59373718009E+01 -0.12116345279E+02 -0.64138783498E+01  0.14939747072E+02  0.51100000000E-03 0. -1.
        -11    1    3    3    0    0 -0.76623720049E+00 -0.15305896538E+02 -0.83996582205E+01  0.17476036357E+02  0.51100000000E-03 0.  1.
         12    1    3    3    0    0  0.84378210716E+01  0.38323824810E+02  0.79852358834E+01  0.40045928190E+02  0.00000000000E+00 0. -1.
</event>
<event>
 7    1  0.2710146E-013  0.7246160E+02  0.7816164E-02  0.1226708E+00
        -11   -1    0    0    0    0  0.00000000000E+00  0.00000000000E+00  0.45593999997E+02  0.45594000000E+02  0.51100000000E-03 0.  1.
         11   -1    0    0    0    0 -0.00000000000E+00 -0.00000000000E+00 -0.45593999997E+02  0.45594000000E+02  0.51100000000E-03 0. -1.
    9900012    2    1    2    0    0 -0.18401504008E+01  0.18385402001E+02 -0.30445146346E+01  0.72461595391E+02  0.70000032693E+02 0.  0.
        -12    1    1    2    0    0  0.18401504008E+01 -0.18385402001E+02  0.30445146346E+01  0.18726404609E+02  0.00000000000E+00 0.  1.
         11    1    3    3    0    0  0.64281574954E+01 -0.77349877834E+01 -0.24499363384E+02  0.26483391990E+02  0.51100000000E-03 0. -1.
        -11    1    3    3    0    0  0.11682400126E+01  0.18125564553E+01 -0.70344121811E+01  0.73575200051E+01  0.51100000000E-03 0.  1.
        -12    1    3    3    0    0 -0.94365479088E+01  0.24307833329E+02  0.28489260931E+02  0.38620683396E+02  0.00000000000E+00 0.  1.
</event>
<event>
 7    1  0.2710146E-013  0.7246136E+02  0.7816164E-02  0.1226709E+00
        -11   -1    0    0    0    0  0.00000000000E+00  0.00000000000E+00  0.45593999997E+02  0.45594000000E+02  0.51100000000E-03 0.  1.
         11   -1    0    0    0    0 -0.00000000000E+00 -0.00000000000E+00 -0.45593999997E+02  0.45594000000E+02  0.51100000000E-03 0. -1.
    9900012    2    1    2    0    0 -0.36927469240E+01  0.17993068299E+02 -0.36469566891E+01  0.72461356421E+02  0.69999721390E+02 0.  0.
        -12    1    1    2    0    0  0.36927469240E+01 -0.17993068299E+02  0.36469566891E+01  0.18726643579E+02  0.00000000000E+00 0.  1.
         11    1    3    3    0    0  0.27947320872E+01  0.33233117022E+02 -0.23074381503E+02  0.40554625833E+02  0.51100000000E-03 0. -1.
        -11    1    3    3    0    0  0.20246283882E+01  0.37303901109E+01  0.52005996747E+01  0.67127615575E+01  0.51100000000E-03 0.  1.
        -12    1    3    3    0    0 -0.85121073993E+01 -0.18970438835E+02  0.14226825139E+02  0.25193969030E+02  0.00000000000E+00 0.  1.
</event>
<event>
 7    1  0.2710146E-013  0.7246159E+02  0.7816164E-02  0.1226708E+00
        -11   -1    0    0    0    0  0.00000000000E+00  0.00000000000E+00  0.45593999997E+02  0.45594000000E+02  0.51100000000E-03 0.  1.
         11   -1    0    0    0    0 -0.00000000000E+00 -0.00000000000E+00 -0.45593999997E+02  0.45594000000E+02  0.51100000000E-03 0. -1.
    9900012    2    1    2    0    0 -0.23501521836E+01 -0.16854770094E+02 -0.78148639803E+01  0.72461585788E+02  0.70000020183E+02 0.  0.
        -12    1    1    2    0    0  0.23501521836E+01  0.16854770094E+02  0.78148639803E+01  0.18726414212E+02  0.00000000000E+00 0.  1.
         11    1    3    3    0    0 -0.11043840773E+02 -0.32850973623E+02 -0.21411902145E+02  0.40738463898E+02  0.51100000000E-03 0. -1.
        -11    1    3    3    0    0  0.84713759404E+01 -0.32559770825E+01  0.66640268531E+01  0.11259433878E+02  0.51100000000E-03 0.  1.
        -12    1    3    3    0    0  0.22231264874E+00  0.19252180611E+02  0.69330113120E+01  0.20463688012E+02  0.00000000000E+00 0.  1.
</event>
<event>
 7    1  0.2710146E-013  0.7246154E+02  0.7816164E-02  0.1226708E+00
        -11   -1    0    0    0    0  0.00000000000E+00  0.00000000000E+00  0.45593999997E+02  0.45594000000E+02  0.51100000000E-03 0.  1.
         11   -1    0    0    0    0 -0.00000000000E+00 -0.00000000000E+00 -0.45593999997E+02  0.45594000000E+02  0.51100000000E-03 0. -1.
    9900012    2    1    2    0    0  0.85896829158E+01 -0.54203560540E+01 -0.15732688867E+02  0.72461537137E+02  0.69999956807E+02 0.  0.
        -12    1    1    2    0    0 -0.85896829158E+01  0.54203560540E+01  0.15732688867E+02  0.18726462863E+02  0.00000000000E+00 0.  1.
         11    1    3    3    0    0 -0.13116807675E+00  0.15197153814E+01 -0.30268895478E+02  0.30307305614E+02  0.51100000000E-03 0. -1.
        -11    1    3    3    0    0 -0.40933423812E+01  0.82462595046E+01 -0.79377186946E+01  0.12155806267E+02  0.51100000000E-03 0.  1.
        -12    1    3    3    0    0  0.12814193374E+02 -0.15186330940E+02  0.22473925305E+02  0.29998425256E+02  0.00000000000E+00 0.  1.
</event>
<event>
 7    1  0.2710146E-013  0.7246153E+02  0.7816164E-02  0.1226708E+00
        -11   -1    0    0    0    0  0.00000000000E+00  0.00000000000E+00  0.45593999997E+02  0.45594000000E+02  0.51100000000E-03 0. -1.
         11   -1    0    0    0    0 -0.00000000000E+00 -0.00000000000E+00 -0.45593999997E+02  0.45594000000E+02  0.51100000000E-03 0.  1.
    9900012    2    1    2    0    0  0.36691445694E+01 -0.17710905024E+02  0.48519949700E+01  0.72461531197E+02  0.69999949068E+02 0.  0.
        -12    1    1    2    0    0 -0.36691445694E+01  0.17710905024E+02 -0.48519949700E+01  0.18726468803E+02  0.00000000000E+00 0.  1.
         11    1    3    3    0    0  0.21192969279E+01  0.53518313190E+01  0.29558246591E+01  0.64707354769E+01  0.51100000000E-03 0. -1.
        -11    1    3    3    0    0 -0.20900306262E+02  0.11624313517E+02 -0.40205465744E+01  0.24251025991E+02  0.51100000000E-03 0.  1.
         12    1    3    3    0    0  0.22450153904E+02 -0.34687049860E+02  0.59167168853E+01  0.41739769729E+02  0.00000000000E+00 0. -1.
</event>
<event>
 7    1  0.2710146E-013  0.7246158E+02  0.7816164E-02  0.1226708E+00
        -11   -1    0    0    0    0  0.00000000000E+00  0.00000000000E+00  0.45593999997E+02  0.45594000000E+02  0.51100000000E-03 0.  1.
         11   -1    0    0    0    0 -0.00000000000E+00 -0.00000000000E+00 -0.45593999997E+02  0.45594000000E+02  0.51100000000E-03 0. -1.
    9900012    2    1    2    0    0  0.12215176685E+02 -0.76192636215E+01 -0.11975605977E+02  0.72461578609E+02  0.70000010832E+02 0.  0.
        -12    1    1    2    0    0 -0.12215176685E+02  0.76192636215E+01  0.11975605977E+02  0.18726421391E+02  0.00000000000E+00 0.  1.
         11    1    3    3    0    0  0.17097156711E+02 -0.21100663906E+00 -0.22028533033E+02  0.27885723216E+02  0.51100000000E-03 0. -1.
        -11    1    3    3    0    0  0.14924702163E+02 -0.20221724179E+01  0.17180653205E+02  0.22847554808E+02  0.51100000000E-03 0.  1.
        -12    1    3    3    0    0 -0.19806682189E+02 -0.53860845645E+01 -0.71277261483E+01  0.21728300585E+02  0.00000000000E+00 0.  1.
</event>
<event>
 7    1  0.2710146E-013  0.7246151E+02  0.7816164E-02  0.1226708E+00
        -11   -1    0    0    0    0  0.00000000000E+00  0.00000000000E+00  0.45593999997E+02  0.45594000000E+02  0.51100000000E-03 0.  1.
         11   -1    0    0    0    0 -0.00000000000E+00 -0.00000000000E+00 -0.45593999997E+02  0.45594000000E+02  0.51100000000E-03 0. -1.
    9900012    2    1    2    0    0  0.11802399811E+02 -0.14307457341E+02  0.25848383891E+01  0.72461511638E+02  0.69999923589E+02 0.  0.
        -12    1    1    2    0    0 -0.11802399811E+02  0.14307457341E+02 -0.25848383891E+01  0.18726488362E+02  0.00000000000E+00 0.  1.
         11    1    3    3    0    0 -0.12448329765E+02  0.12628303024E+02  0.11609055926E+02  0.21194459912E+02  0.51100000000E-03 0. -1.
        -11    1    3    3    0    0 -0.27871410718E+01  0.61345582345E+01  0.22221033393E+01  0.70949773501E+01  0.51100000000E-03 0.  1.
        -12    1    3    3    0    0  0.27037870648E+02 -0.33070318600E+02 -0.11246320876E+02  0.44172074376E+02  0.00000000000E+00 0.  1.
</event>
<event>
 7    1  0.2710146E-013  0.7246158E+02  0.7816164E-02  0.1226708E+00
        -11   -1    0    0    0    0  0.00000000000E+00  0.00000000000E+00  0.45593999997E+02  0.45594000000E+02  0.51100000000E-03 0. -1.
         11   -1    0    0    0    0 -0.00000000000E+00 -0.00000000000E+00 -0.45593999997E+02  0.45594000000E+02  0.51100000000E-03 0.  1.
    9900012    2    1    2    0    0  0.15607557745E+02  0.10341097526E+02  0.38033342426E+00  0.72461579885E+02  0.70000012493E+02 0.  0.
        -12    1    1    2    0    0 -0.15607557745E+02 -0.10341097526E+02 -0.38033342426E+00  0.18726420115E+02  0.00000000000E+00 0.  1.
         11    1    3    3    0    0  0.28641368875E+01  0.59234812088E+01 -0.27849200381E+00  0.65854739995E+01  0.51100000000E-03 0. -1.
        -11    1    3    3    0    0  0.18155247537E+02  0.23188853419E+02 -0.21404187194E+02  0.36407075764E+02  0.51100000000E-03 0.  1.
         12    1    3    3    0    0 -0.54118266787E+01 -0.18771237102E+02  0.22063012622E+02  0.29469030121E+02  0.00000000000E+00 0. -1.
</event>
<event>
 7    1  0.2710146E-013  0.7246157E+02  0.7816164E-02  0.1226708E+00
        -11   -1    0    0    0    0  0.00000000000E+00  0.00000000000E+00  0.45593999997E+02  0.45594000000E+02  0.51100000000E-03 0. -1.
         11   -1    0    0    0    0 -0.00000000000E+00 -0.00000000000E+00 -0.45593999997E+02  0.45594000000E+02  0.51100000000E-03 0.  1.
    9900012    2    1    2    0    0  0.11004346025E+02  0.13688551096E+02  0.64966991165E+01  0.72461570496E+02  0.70000000263E+02 0.  0.
        -12    1    1    2    0    0 -0.11004346025E+02 -0.13688551096E+02 -0.64966991165E+01  0.18726429504E+02  0.00000000000E+00 0.  1.
         11    1    3    3    0    0  0.25622873558E+02 -0.65779190904E+01  0.39612297345E+00  0.26456711485E+02  0.51100000000E-03 0. -1.
        -11    1    3    3    0    0  0.13144380603E+01 -0.99566869362E+01  0.62682807532E+01  0.11838695284E+02  0.51100000000E-03 0.  1.
         12    1    3    3    0    0 -0.15932965593E+02  0.30223157123E+02 -0.16770461009E+00  0.34166163728E+02  0.00000000000E+00 0. -1.
</event>
<event>
 7    1  0.2710146E-013  0.7246151E+02  0.7816164E-02  0.1226708E+00
        -11   -1    0    0    0    0  0.00000000000E+00  0.00000000000E+00  0.45593999997E+02  0.45594000000E+02  0.51100000000E-03 0.  1.
         11   -1    0    0    0    0 -0.00000000000E+00 -0.00000000000E+00 -0.45593999997E+02  0.45594000000E+02  0.51100000000E-03 0. -1.
    9900012    2    1    2    0    0  0.13518834748E+02 -0.11344855725E+02  0.62623345478E+01  0.72461508648E+02  0.69999919694E+02 0.  0.
        -12    1    1    2    0    0 -0.13518834748E+02  0.11344855725E+02 -0.62623345478E+01  0.18726491352E+02  0.00000000000E+00 0.  1.
         11    1    3    3    0    0 -0.52251039964E+00 -0.64163314408E+01  0.16817224640E+01  0.66536093200E+01  0.51100000000E-03 0. -1.
        -11    1    3    3    0    0  0.32045794024E+02  0.10410454091E+02 -0.13230775335E+02  0.36198948676E+02  0.51100000000E-03 0.  1.
         12    1    3    3    0    0 -0.18004448876E+02 -0.15338978375E+02  0.17811387419E+02  0.29608950652E+02  0.00000000000E+00 0. -1.
</event>
<event>
 7    1  0.2710146E-013  0.7246155E+02  0.7816164E-02  0.1226708E+00
        -11   -1    0    0    0    0  0.00000000000E+00  0.00000000000E+00  0.45593999997E+02  0.45594000000E+02  0.51100000000E-03 0.  1.
         11   -1    0    0    0    0 -0.00000000000E+00 -0.00000000000E+00 -0.45593999997E+02  0.45594000000E+02  0.51100000000E-03 0. -1.
    9900012    2    1    2    0    0  0.18432620696E+02 -0.32478041955E+01  0.60847362993E+00  0.72461548708E+02  0.69999971880E+02 0.  0.
        -12    1    1    2    0    0 -0.18432620696E+02  0.32478041955E+01 -0.60847362993E+00  0.18726451292E+02  0.00000000000E+00 0.  1.
         11    1    3    3    0    0 -0.58991326334E+01  0.58040449584E+01 -0.80018135294E+01  0.11511547408E+02  0.51100000000E-03 0. -1.
        -11    1    3    3    0    0  0.18538653619E+02  0.19967862915E+02  0.14367373003E+02  0.30802899777E+02  0.51100000000E-03 0.  1.
         12    1    3    3    0    0  0.57930997102E+01 -0.29019712069E+02 -0.57570858436E+01  0.30147101523E+02  0.00000000000E+00 0. -1.
</event>
<event>
 7    1  0.2710146E-013  0.7246153E+02  0.7816164E-02  0.1226708E+00
        -11   -1    0    0    0    0  0.00000000000E+00  0.00000000000E+00  0.45593999997E+02  0.45594000000E+02  0.51100000000E-03 0. -1.
         11   -1    0    0    0    0 -0.00000000000E+00 -0.00000000000E+00 -0.45593999997E+02  0.45594000000E+02  0.51100000000E-03 0.  1.
    9900012    2    1    2    0    0 -0.17513020519E+02  0.26346730167E+01  0.60855018050E+01  0.72461528848E+02  0.69999946008E+02 0.  0.
        -12    1    1    2    0    0  0.17513020519E+02 -0.26346730167E+01 -0.60855018050E+01  0.18726471152E+02  0.00000000000E+00 0.  1.
         11    1    3    3    0    0 -0.97652622025E+01  0.10906697625E+02  0.20270072696E+02  0.25003844631E+02  0.51100000000E-03 0. -1.
        -11    1    3    3    0    0 -0.10673061468E+02  0.31358372396E+01  0.13428725401E+02  0.17437843401E+02  0.51100000000E-03 0.  1.
        -12    1    3    3    0    0  0.29253031520E+01 -0.11407861848E+02 -0.27613296293E+02  0.30019840816E+02  0.00000000000E+00 0.  1.
</event>
<event>
 7    1  0.2710146E-013  0.7246143E+02  0.7816164E-02  0.1226708E+00
        -11   -1    0    0    0    0  0.00000000000E+00  0.00000000000E+00  0.45593999997E+02  0.45594000000E+02  0.51100000000E-03 0.  1.
         11   -1    0    0    0    0 -0.00000000000E+00 -0.00000000000E+00 -0.45593999997E+02  0.45594000000E+02  0.51100000000E-03 0. -1.
    9900012    2    1    2    0    0  0.99405093695E+01 -0.10399535433E+02 -0.11988336882E+02  0.72461433712E+02  0.69999822076E+02 0.  0.
        -12    1    1    2    0    0 -0.99405093695E+01  0.10399535433E+02  0.11988336882E+02  0.18726566288E+02  0.00000000000E+00 0.  1.
         11    1    3    3    0    0  0.62328842656E-01 -0.87205803335E+01 -0.27477314032E+01  0.91434366822E+01  0.51100000000E-03 0. -1.
        -11    1    3    3    0    0 -0.17937311291E+02 -0.13882018341E+02  0.12562521103E+02  0.25928256909E+02  0.51100000000E-03 0.  1.
         12    1    3    3    0    0  0.27815491818E+02  0.12203063242E+02 -0.21803126582E+02  0.37389740121E+02  0.00000000000E+00 0. -1.
</event>
<event>
 7    1  0.2710146E-013  0.7246159E+02  0.7816164E-02  0.1226708E+00
        -11   -1    0    0    0    0  0.00000000000E+00  0.00000000000E+00  0.45593999997E+02  0.45594000000E+02  0.51100000000E-03 0.  1.
         11   -1    0    0    0    0 -0.00000000000E+00 -0.00000000000E+00 -0.45593999997E+02  0.45594000000E+02  0.51100000000E-03 0. -1.
    9900012    2    1    2    0    0 -0.91658646753E+01 -0.80766552723E+01 -0.14192715299E+02  0.72461585416E+02  0.70000019698E+02 0.  0.
        -12    1    1    2    0    0  0.91658646753E+01  0.80766552723E+01  0.14192715299E+02  0.18726414584E+02  0.00000000000E+00 0.  1.
         11    1    3    3    0    0 -0.36764532783E+01 -0.48906860193E+00  0.21594669667E+00  0.37151218072E+01  0.51100000000E-03 0. -1.
        -11    1    3    3    0    0  0.11490775213E+02 -0.59523810753E+01  0.23694989811E+02  0.26998542514E+02  0.51100000000E-03 0.  1.
         12    1    3    3    0    0 -0.16980186610E+02 -0.16352055950E+01 -0.38103651807E+02  0.41747921094E+02  0.00000000000E+00 0. -1.
</event>
<event>
 7    1  0.2710146E-013  0.7246150E+02  0.7816164E-02  0.1226708E+00
        -11   -1    0    0    0    0  0.00000000000E+00  0.00000000000E+00  0.45593999997E+02  0.45594000000E+02  0.51100000000E-03 0.  1.
         11   -1    0    0    0    0 -0.00000000000E+00 -0.00000000000E+00 -0.45593999997E+02  0.45594000000E+02  0.51100000000E-03 0. -1.
    9900012    2    1    2    0    0  0.71185556797E+01  0.16314863049E+02 -0.58166343195E+01  0.72461499364E+02  0.69999907599E+02 0.  0.
        -12    1    1    2    0    0 -0.71185556797E+01 -0.16314863049E+02  0.58166343195E+01  0.18726500636E+02  0.00000000000E+00 0.  1.
         11    1    3    3    0    0  0.42582011109E+01  0.37793966166E+01  0.32040264465E+00  0.57025234416E+01  0.51100000000E-03 0. -1.
        -11    1    3    3    0    0  0.22577946992E+02  0.18902153696E+02  0.18339544048E+02  0.34689969456E+02  0.51100000000E-03 0.  1.
         12    1    3    3    0    0 -0.19717592423E+02 -0.63666872631E+01 -0.24476581012E+02  0.32069006466E+02  0.00000000000E+00 0. -1.
</event>
<event>
 7    1  0.2710146E-013  0.7246161E+02  0.7816164E-02  0.1226708E+00
        -11   -1    0    0    0    0  0.00000000000E+00  0.00000000000E+00  0.45593999997E+02  0.45594000000E+02  0.51100000000E-03 0.  1.
         11   -1    0    0    0    0 -0.00000000000E+00 -0.00000000000E+00 -0.45593999997E+02  0.45594000000E+02  0.51100000000E-03 0. -1.
    9900012    2    1    2    0    0 -0.15975206136E+01 -0.11163146324E+02 -0.14950246328E+02  0.72461607575E+02  0.70000048565E+02 0.  0.
        -12    1    1    2    0    0  0.15975206136E+01  0.11163146324E+02  0.14950246328E+02  0.18726392425E+02  0.00000000000E+00 0.  1.
         11    1    3    3    0    0  0.70082955962E+01 -0.75813699544E+01  0.20367526778E+02  0.22834831396E+02  0.51100000000E-03 0. -1.
        -11    1    3    3    0    0 -0.16599749829E+02 -0.52057412151E+01 -0.48132931986E+01  0.18050463365E+02  0.51100000000E-03 0.  1.
         12    1    3    3    0    0  0.79939336196E+01  0.16239648452E+01 -0.30504479908E+02  0.31576312815E+02  0.00000000000E+00 0. -1.
</event>
<event>
 7    1  0.2710146E-013  0.7246159E+02  0.7816164E-02  0.1226708E+00
        -11   -1    0    0    0    0  0.00000000000E+00  0.00000000000E+00  0.45593999997E+02  0.45594000000E+02  0.51100000000E-03 0. -1.
         11   -1    0    0    0    0 -0.00000000000E+00 -0.00000000000E+00 -0.45593999997E+02  0.45594000000E+02  0.51100000000E-03 0.  1.
    9900012    2    1    2    0    0 -0.55402548887E+01 -0.15421475485E+02  0.90643322583E+01  0.72461589515E+02  0.70000025039E+02 0.  0.
        -12    1    1    2    0    0  0.55402548887E+01  0.15421475485E+02 -0.90643322583E+01  0.18726410485E+02  0.00000000000E+00 0.  1.
         11    1    3    3    0    0  0.68510739322E+01  0.31254780989E+01  0.25321672927E+02  0.26417663550E+02  0.51100000000E-03 0. -1.
        -11    1    3    3    0    0 -0.17331650851E+00  0.22688561488E+01  0.10071753682E+02  0.10325597771E+02  0.51100000000E-03 0.  1.
        -12    1    3    3    0    0 -0.12218012312E+02 -0.20815809732E+02 -0.26329094350E+02  0.35718328194E+02  0.00000000000E+00 0.  1.
</event>
<event>
 7    1  0.2710146E-013  0.7246129E+02  0.7816164E-02  0.1226709E+00
        -11   -1    0    0    0    0  0.00000000000E+00  0.00000000000E+00  0.45593999997E+02  0.45594000000E+02  0.51100000000E-03 0.  1.
         11   -1    0    0    0    0 -0.00000000000E+00 -0.00000000000E+00 -0.45593999997E+02  0.45594000000E+02  0.51100000000E-03 0. -1.
    9900012    2    1    2    0    0 -0.16185807318E+02 -0.37023690470E+01  0.86603589169E+01  0.72461288819E+02  0.69999633325E+02 0.  0.
        -12    1    1    2    0    0  0.16185807318E+02  0.37023690470E+01 -0.86603589169E+01  0.18726711181E+02  0.00000000000E+00 0.  1.
         11    1    3    3    0    0  0.38242337998E+01  0.20436074869E+01  0.23800063105E+01  0.49462638441E+01  0.51100000000E-03 0. -1.
        -11    1    3    3    0    0  0.17953703086E+02  0.14699344992E+02  0.74794239124E+01  0.24379253065E+02  0.51100000000E-03 0.  1.
         12    1    3    3    0    0 -0.37963744204E+02 -0.20445321526E+02 -0.11990713060E+01  0.43135771910E+02  0.00000000000E+00 0. -1.
</event>
<event>
 7    1  0.2710146E-013  0.7246156E+02  0.7816164E-02  0.1226708E+00
        -11   -1    0    0    0    0  0.00000000000E+00  0.00000000000E+00  0.45593999997E+02  0.45594000000E+02  0.51100000000E-03 0. -1.
         11   -1    0    0    0    0 -0.00000000000E+00 -0.00000000000E+00 -0.45593999997E+02  0.45594000000E+02  0.51100000000E-03 0.  1.
    9900012    2    1    2    0    0 -0.12528269569E+01  0.13508882458E+02  0.12908133927E+02  0.72461564084E+02  0.69999991909E+02 0.  0.
        -12    1    1    2    0    0  0.12528269569E+01 -0.13508882458E+02 -0.12908133927E+02  0.18726435916E+02  0.00000000000E+00 0.  1.
         11    1    3    3    0    0 -0.13423779369E+02  0.10635273879E+02  0.15912460940E+02  0.23377624269E+02  0.51100000000E-03 0. -1.
        -11    1    3    3    0    0 -0.17154172194E+02 -0.62824699847E+01 -0.89450716378E+00  0.18290303335E+02  0.51100000000E-03 0.  1.
        -12    1    3    3    0    0  0.29325124606E+02  0.91560785637E+01 -0.21098198493E+01  0.30793636479E+02  0.00000000000E+00 0.  1.
</event>
<event>
 7    1  0.2710146E-013  0.7246148E+02  0.7816164E-02  0.1226708E+00
        -11   -1    0    0    0    0  0.00000000000E+00  0.00000000000E+00  0.45593999997E+02  0.45594000000E+02  0.51100000000E-03 0. -1.
         11   -1    0    0    0    0 -0.00000000000E+00 -0.00000000000E+00 -0.45593999997E+02  0.45594000000E+02  0.51100000000E-03 0.  1.
    9900012    2    1    2    0    0  0.13412084605E+01  0.17998494141E+02 -0.49937795255E+01  0.72461482293E+02  0.69999885361E+02 0.  0.
        -12    1    1    2    0    0 -0.13412084605E+01 -0.17998494141E+02  0.49937795255E+01  0.18726517707E+02  0.00000000000E+00 0.  1.
         11    1    3    3    0    0 -0.15933211944E+02  0.12736168758E+02  0.69937566683E+01  0.21563623770E+02  0.51100000000E-03 0. -1.
        -11    1    3    3    0    0 -0.42491356820E+01  0.15642786958E+02 -0.19954625869E+02  0.25708734541E+02  0.51100000000E-03 0.  1.
         12    1    3    3    0    0  0.21523556086E+02 -0.10380461575E+02  0.79670896750E+01  0.25189123982E+02  0.00000000000E+00 0. -1.
</event>
<event>
 7    1  0.2710146E-013  0.7246158E+02  0.7816164E-02  0.1226708E+00
        -11   -1    0    0    0    0  0.00000000000E+00  0.00000000000E+00  0.45593999997E+02  0.45594000000E+02  0.51100000000E-03 0.  1.
         11   -1    0    0    0    0 -0.00000000000E+00 -0.00000000000E+00 -0.45593999997E+02  0.45594000000E+02  0.51100000000E-03 0. -1.
    9900012    2    1    2    0    0 -0.92174707209E+01 -0.98435010121E+01 -0.12993169709E+02  0.72461581823E+02  0.70000015018E+02 0.  0.
        -12    1    1    2    0    0  0.92174707209E+01  0.98435010121E+01  0.12993169709E+02  0.18726418177E+02  0.00000000000E+00 0.  1.
         11    1    3    3    0    0  0.10611075654E+02 -0.20747363767E+02 -0.17278799600E+02  0.29010428224E+02  0.51100000000E-03 0. -1.
        -11    1    3    3    0    0 -0.30216956287E+01  0.96138829904E+01  0.18719314593E+02  0.21259589124E+02  0.51100000000E-03 0.  1.
         12    1    3    3    0    0 -0.16806850747E+02  0.12899797646E+01 -0.14433684701E+02  0.22191564475E+02  0.00000000000E+00 0. -1.
</event>
<event>
 7    1  0.2710146E-013  0.7246153E+02  0.7816164E-02  0.1226708E+00
        -11   -1    0    0    0    0  0.00000000000E+00  0.00000000000E+00  0.45593999997E+02  0.45594000000E+02  0.51100000000E-03 0. -1.
         11   -1    0    0    0    0 -0.00000000000E+00 -0.00000000000E+00 -0.45593999997E+02  0.45594000000E+02  0.51100000000E-03 0.  1.
    9900012    2    1    2    0    0  0.91780776357E+01  0.16141771020E+02  0.24262407501E+01  0.72461534105E+02  0.69999952857E+02 0.  0.
        -12    1    1    2    0    0 -0.91780776357E+01 -0.16141771020E+02 -0.24262407501E+01  0.18726465895E+02  0.00000000000E+00 0.  1.
         11    1    3    3    0    0  0.10762574432E+02  0.33748158884E+02  0.14338733950E+02  0.38214794622E+02  0.51100000000E-03 0. -1.
        -11    1    3    3    0    0  0.39318509610E+01  0.53100806551E+01  0.19657154746E+01  0.68935075347E+01  0.51100000000E-03 0.  1.
        -12    1    3    3    0    0 -0.55163477571E+01 -0.22916468520E+02 -0.13878208674E+02  0.27353231948E+02  0.00000000000E+00 0.  1.
</event>
<event>
 7    1  0.2710146E-013  0.7246152E+02  0.7816164E-02  0.1226708E+00
        -11   -1    0    0    0    0  0.00000000000E+00  0.00000000000E+00  0.45593999997E+02  0.45594000000E+02  0.51100000000E-03 0. -1.
         11   -1    0    0    0    0 -0.00000000000E+00 -0.00000000000E+00 -0.45593999997E+02  0.45594000000E+02  0.51100000000E-03 0.  1.
    9900012    2    1    2    0    0 -0.17350906244E+02  0.50589461583E+01 -0.49024771257E+01  0.72461516996E+02  0.69999930569E+02 0.  0.
        -12    1    1    2    0    0  0.17350906244E+02 -0.50589461583E+01  0.49024771257E+01  0.18726483004E+02  0.00000000000E+00 0.  1.
         11    1    3    3    0    0  0.13219811125E+02 -0.73376353593E+01  0.24960636897E+01  0.15324315092E+02  0.51100000000E-03 0. -1.
        -11    1    3    3    0    0 -0.25796420805E+02 -0.14295650428E+02 -0.50240641180E+01  0.29917589609E+02  0.51100000000E-03 0.  1.
         12    1    3    3    0    0 -0.47742965633E+01  0.26692231945E+02 -0.23744766974E+01  0.27219612295E+02  0.00000000000E+00 0. -1.
</event>
<event>
 7    1  0.2948931E-013  0.7246155E+02  0.7816164E-02  0.1226708E+00
        -11   -1    0    0    0    0  0.00000000000E+00  0.00000000000E+00  0.45593999997E+02  0.45594000000E+02  0.51100000000E-03 0. -1.
         11   -1    0    0    0    0 -0.00000000000E+00 -0.00000000000E+00 -0.45593999997E+02  0.45594000000E+02  0.51100000000E-03 0.  1.
    9900012    2    1    2    0    0 -0.19267332356E+01 -0.13407751263E+02  0.12930573690E+02  0.72461552637E+02  0.69999976998E+02 0.  0.
        -12    1    1    2    0    0  0.19267332356E+01  0.13407751263E+02 -0.12930573690E+02  0.18726447363E+02  0.00000000000E+00 0.  1.
         11    1    3    3    0    0 -0.14047529750E+02 -0.17197175682E+02  0.20535852146E+02  0.30245614015E+02  0.51100000000E-03 0. -1.
        -11    1    3    3    0    0 -0.12477857507E+02  0.24478732334E+01  0.60146051374E+01  0.14066431195E+02  0.51100000000E-03 0.  1.
        -12    1    3    3    0    0  0.24598654022E+02  0.13415511858E+01 -0.13619883594E+02  0.28149507427E+02  0.00000000000E+00 0.  1.
</event>
<event>
 7    1  0.2724897E-013  0.7246158E+02  0.7816164E-02  0.1226708E+00
        -11   -1    0    0    0    0  0.00000000000E+00  0.00000000000E+00  0.45593999997E+02  0.45594000000E+02  0.51100000000E-03 0. -1.
         11   -1    0    0    0    0 -0.00000000000E+00 -0.00000000000E+00 -0.45593999997E+02  0.45594000000E+02  0.51100000000E-03 0.  1.
    9900012    2    1    2    0    0  0.14461094185E+02  0.86958345720E+01  0.81202210767E+01  0.72461580848E+02  0.70000013748E+02 0.  0.
        -12    1    1    2    0    0 -0.14461094185E+02 -0.86958345720E+01 -0.81202210767E+01  0.18726419152E+02  0.00000000000E+00 0.  1.
         11    1    3    3    0    0 -0.66199281010E+01  0.85070716023E+01  0.79041050223E+01  0.13366697115E+02  0.51100000000E-03 0. -1.
        -11    1    3    3    0    0 -0.69727839378E+01  0.14036392659E+02 -0.17215352445E+02  0.23281073746E+02  0.51100000000E-03 0.  1.
         12    1    3    3    0    0  0.28053806224E+02 -0.13847629690E+02  0.17431468499E+02  0.35813809986E+02  0.00000000000E+00 0. -1.
</event>
<event>
 7    1  0.2710146E-013  0.7246148E+02  0.7816164E-02  0.1226708E+00
        -11   -1    0    0    0    0  0.00000000000E+00  0.00000000000E+00  0.45593999997E+02  0.45594000000E+02  0.51100000000E-03 0. -1.
         11   -1    0    0    0    0 -0.00000000000E+00 -0.00000000000E+00 -0.45593999997E+02  0.45594000000E+02  0.51100000000E-03 0.  1.
    9900012    2    1    2    0    0 -0.29848579167E+01  0.23439007094E+00  0.18485625363E+02  0.72461477083E+02  0.69999878575E+02 0.  0.
        -12    1    1    2    0    0  0.29848579167E+01 -0.23439007094E+00 -0.18485625363E+02  0.18726522917E+02  0.00000000000E+00 0.  1.
         11    1    3    3    0    0 -0.26590581165E+02  0.36434505299E+01  0.19182156613E+02  0.32989223560E+02  0.51100000000E-03 0. -1.
        -11    1    3    3    0    0  0.36376299959E+01 -0.11806571894E+00 -0.14516759459E+02  0.14966048141E+02  0.51100000000E-03 0.  1.
        -12    1    3    3    0    0  0.19968093253E+02 -0.32909947400E+01  0.13820228209E+02  0.24506205383E+02  0.00000000000E+00 0.  1.
</event>
<event>
 7    1  0.2710146E-013  0.7246157E+02  0.7816164E-02  0.1226708E+00
        -11   -1    0    0    0    0  0.00000000000E+00  0.00000000000E+00  0.45593999997E+02  0.45594000000E+02  0.51100000000E-03 0. -1.
         11   -1    0    0    0    0 -0.00000000000E+00 -0.00000000000E+00 -0.45593999997E+02  0.45594000000E+02  0.51100000000E-03 0.  1.
    9900012    2    1    2    0    0  0.40840868302E+01  0.17822585540E+02  0.40441333952E+01  0.72461565863E+02  0.69999994227E+02 0.  0.
        -12    1    1    2    0    0 -0.40840868302E+01 -0.17822585540E+02 -0.40441333952E+01  0.18726434137E+02  0.00000000000E+00 0.  1.
         11    1    3    3    0    0  0.30587801380E+02  0.48498308592E+01  0.11536366271E+02  0.33048785146E+02  0.51100000000E-03 0. -1.
        -11    1    3    3    0    0 -0.76992725706E+01 -0.57327357932E+01  0.41358713843E+01  0.10452200254E+02  0.51100000000E-03 0.  1.
        -12    1    3    3    0    0 -0.18804441979E+02  0.18705490474E+02 -0.11628104261E+02  0.28960580462E+02  0.00000000000E+00 0.  1.
</event>
<event>
 7    1  0.2710146E-013  0.7246165E+02  0.7816164E-02  0.1226708E+00
        -11   -1    0    0    0    0  0.00000000000E+00  0.00000000000E+00  0.45593999997E+02  0.45594000000E+02  0.51100000000E-03 0.  1.
         11   -1    0    0    0    0 -0.00000000000E+00 -0.00000000000E+00 -0.45593999997E+02  0.45594000000E+02  0.51100000000E-03 0. -1.
    9900012    2    1    2    0    0  0.15835458831E+02  0.58429933613E+01  0.81101020651E+01  0.72461652697E+02  0.70000107345E+02 0.  0.
        -12    1    1    2    0    0 -0.15835458831E+02 -0.58429933613E+01 -0.81101020651E+01  0.18726347303E+02  0.00000000000E+00 0.  1.
         11    1    3    3    0    0 -0.53092560986E+01 -0.12494262135E+02  0.11317247834E+02  0.17674130400E+02  0.51100000000E-03 0. -1.
        -11    1    3    3    0    0  0.18806302386E+02  0.27459396488E+02  0.13253181715E+02  0.35823767121E+02  0.51100000000E-03 0.  1.
         12    1    3    3    0    0  0.23384125431E+01 -0.91221409917E+01 -0.16460327484E+02  0.18963755176E+02  0.00000000000E+00 0. -1.
</event>
<event>
 7    1  0.2710146E-013  0.7246157E+02  0.7816164E-02  0.1226708E+00
        -11   -1    0    0    0    0  0.00000000000E+00  0.00000000000E+00  0.45593999997E+02  0.45594000000E+02  0.51100000000E-03 0.  1.
         11   -1    0    0    0    0 -0.00000000000E+00 -0.00000000000E+00 -0.45593999997E+02  0.45594000000E+02  0.51100000000E-03 0. -1.
    9900012    2    1    2    0    0  0.12508629955E+02  0.66811223378E+01  0.12230122297E+02  0.72461571871E+02  0.70000002055E+02 0.  0.
        -12    1    1    2    0    0 -0.12508629955E+02 -0.66811223378E+01 -0.12230122297E+02  0.18726428129E+02  0.00000000000E+00 0.  1.
         11    1    3    3    0    0 -0.73966222081E+01  0.13825447082E+02 -0.12772258016E+02  0.20223342508E+02  0.51100000000E-03 0. -1.
        -11    1    3    3    0    0 -0.73369598805E+01  0.10288498792E+02  0.11850263112E+02  0.17323767598E+02  0.51100000000E-03 0.  1.
         12    1    3    3    0    0  0.27242212044E+02 -0.17432823537E+02  0.13152117202E+02  0.34914461766E+02  0.00000000000E+00 0. -1.
</event>
<event>
 7    1  0.2710146E-013  0.7246171E+02  0.7816164E-02  0.1226708E+00
        -11   -1    0    0    0    0  0.00000000000E+00  0.00000000000E+00  0.45593999997E+02  0.45594000000E+02  0.51100000000E-03 0. -1.
         11   -1    0    0    0    0 -0.00000000000E+00 -0.00000000000E+00 -0.45593999997E+02  0.45594000000E+02  0.51100000000E-03 0.  1.
    9900012    2    1    2    0    0  0.12954420640E+01  0.44090673743E+01  0.18153672056E+02  0.72461712211E+02  0.70000184872E+02 0.  0.
        -12    1    1    2    0    0 -0.12954420640E+01 -0.44090673743E+01 -0.18153672056E+02  0.18726287789E+02  0.00000000000E+00 0.  1.
         11    1    3    3    0    0  0.12926313623E+02 -0.39141281369E+01  0.23779093552E+02  0.27346942669E+02  0.51100000000E-03 0. -1.
        -11    1    3    3    0    0  0.14118129043E+02 -0.13047633737E+00 -0.10478699146E+02  0.17582426676E+02  0.51100000000E-03 0.  1.
         12    1    3    3    0    0 -0.25749000602E+02  0.84536718486E+01  0.48532776508E+01  0.27532342866E+02  0.00000000000E+00 0. -1.
</event>
<event>
 7    1  0.2710146E-013  0.7246156E+02  0.7816164E-02  0.1226708E+00
        -11   -1    0    0    0    0  0.00000000000E+00  0.00000000000E+00  0.45593999997E+02  0.45594000000E+02  0.51100000000E-03 0.  1.
         11   -1    0    0    0    0 -0.00000000000E+00 -0.00000000000E+00 -0.45593999997E+02  0.45594000000E+02  0.51100000000E-03 0. -1.
    9900012    2    1    2    0    0 -0.13961051789E+02  0.75312654326E+00  0.12457978175E+02  0.72461564492E+02  0.69999992442E+02 0.  0.
        -12    1    1    2    0    0  0.13961051789E+02 -0.75312654326E+00 -0.12457978175E+02  0.18726435508E+02  0.00000000000E+00 0.  1.
         11    1    3    3    0    0 -0.23234668003E+02  0.76334895455E+01  0.42767001963E+01  0.24827608115E+02  0.51100000000E-03 0. -1.
        -11    1    3    3    0    0  0.37410206333E+01  0.16012266805E+02  0.15876290241E+02  0.22857045209E+02  0.51100000000E-03 0.  1.
        -12    1    3    3    0    0  0.55325955816E+01 -0.22892629807E+02 -0.76950122627E+01  0.24776911169E+02  0.00000000000E+00 0.  1.
</event>
<event>
 7    1  0.2710146E-013  0.7246144E+02  0.7816164E-02  0.1226708E+00
        -11   -1    0    0    0    0  0.00000000000E+00  0.00000000000E+00  0.45593999997E+02  0.45594000000E+02  0.51100000000E-03 0.  1.
         11   -1    0    0    0    0 -0.00000000000E+00 -0.00000000000E+00 -0.45593999997E+02  0.45594000000E+02  0.51100000000E-03 0. -1.
    9900012    2    1    2    0    0 -0.13372491294E+02 -0.10009479590E+02 -0.84658700108E+01  0.72461437045E+02  0.69999826417E+02 0.  0.
        -12    1    1    2    0    0  0.13372491294E+02  0.10009479590E+02  0.84658700108E+01  0.18726562955E+02  0.00000000000E+00 0.  1.
         11    1    3    3    0    0 -0.17412272803E+02  0.17581380410E+01  0.42923300031E+01  0.18019500288E+02  0.51100000000E-03 0. -1.
        -11    1    3    3    0    0 -0.57526596995E+01 -0.37360151732E+01  0.19027434461E+02  0.20226076372E+02  0.51100000000E-03 0.  1.
        -12    1    3    3    0    0  0.97924412079E+01 -0.80316024581E+01 -0.31785634475E+02  0.34215860384E+02  0.00000000000E+00 0.  1.
</event>
<event>
 7    1  0.2710146E-013  0.7246160E+02  0.7816164E-02  0.1226708E+00
        -11   -1    0    0    0    0  0.00000000000E+00  0.00000000000E+00  0.45593999997E+02  0.45594000000E+02  0.51100000000E-03 0.  1.
         11   -1    0    0    0    0 -0.00000000000E+00 -0.00000000000E+00 -0.45593999997E+02  0.45594000000E+02  0.51100000000E-03 0. -1.
    9900012    2    1    2    0    0 -0.62714871486E+01 -0.15830473947E+02 -0.77937502115E+01  0.72461601552E+02  0.70000040720E+02 0.  0.
        -12    1    1    2    0    0  0.62714871486E+01  0.15830473947E+02  0.77937502115E+01  0.18726398448E+02  0.00000000000E+00 0.  1.
         11    1    3    3    0    0  0.71144829826E+00  0.98851935514E+01  0.38347372465E+01  0.10626778451E+02  0.51100000000E-03 0. -1.
        -11    1    3    3    0    0 -0.25778833193E+02 -0.68127810258E+01  0.89853268999E+01  0.28137134287E+02  0.51100000000E-03 0.  1.
         12    1    3    3    0    0  0.18795897746E+02 -0.18902886473E+02 -0.20613814358E+02  0.33697688815E+02  0.00000000000E+00 0. -1.
</event>
<event>
 7    1  0.2710146E-013  0.7246157E+02  0.7816164E-02  0.1226708E+00
        -11   -1    0    0    0    0  0.00000000000E+00  0.00000000000E+00  0.45593999997E+02  0.45594000000E+02  0.51100000000E-03 0. -1.
         11   -1    0    0    0    0 -0.00000000000E+00 -0.00000000000E+00 -0.45593999997E+02  0.45594000000E+02  0.51100000000E-03 0.  1.
    9900012    2    1    2    0    0  0.17424501808E+02  0.65605736335E+01 -0.20061764738E+01  0.72461571251E+02  0.70000001246E+02 0.  0.
        -12    1    1    2    0    0 -0.17424501808E+02 -0.65605736335E+01  0.20061764738E+01  0.18726428749E+02  0.00000000000E+00 0.  1.
         11    1    3    3    0    0 -0.16932741311E+02 -0.10923727058E+02  0.11715010477E+02  0.23308518011E+02  0.51100000000E-03 0. -1.
        -11    1    3    3    0    0  0.30215490102E+01  0.26040113978E+01 -0.13902350134E+02  0.14463262885E+02  0.51100000000E-03 0.  1.
        -12    1    3    3    0    0  0.31335694109E+02  0.14880289294E+02  0.18116318307E+00  0.34689790355E+02  0.00000000000E+00 0.  1.
</event>
<event>
 7    1  0.2710146E-013  0.7246157E+02  0.7816164E-02  0.1226708E+00
        -11   -1    0    0    0    0  0.00000000000E+00  0.00000000000E+00  0.45593999997E+02  0.45594000000E+02  0.51100000000E-03 0. -1.
         11   -1    0    0    0    0 -0.00000000000E+00 -0.00000000000E+00 -0.45593999997E+02  0.45594000000E+02  0.51100000000E-03 0.  1.
    9900012    2    1    2    0    0  0.44211374384E+01  0.66404219134E+01  0.16942184051E+02  0.72461567882E+02  0.69999996858E+02 0.  0.
        -12    1    1    2    0    0 -0.44211374384E+01 -0.66404219134E+01 -0.16942184051E+02  0.18726432118E+02  0.00000000000E+00 0.  1.
         11    1    3    3    0    0 -0.11269603214E+02  0.15222337566E+02  0.48513686979E+01  0.19551452532E+02  0.51100000000E-03 0. -1.
        -11    1    3    3    0    0 -0.13045046347E+02  0.56680912452E+01 -0.67148771747E+01  0.15728638476E+02  0.51100000000E-03 0.  1.
        -12    1    3    3    0    0  0.28735787000E+02 -0.14250006898E+02  0.18805692528E+02  0.37181476875E+02  0.00000000000E+00 0.  1.
</event>
<event>
 7    1  0.2710146E-013  0.7246159E+02  0.7816164E-02  0.1226708E+00
        -11   -1    0    0    0    0  0.00000000000E+00  0.00000000000E+00  0.45593999997E+02  0.45594000000E+02  0.51100000000E-03 0.  1.
         11   -1    0    0    0    0 -0.00000000000E+00 -0.00000000000E+00 -0.45593999997E+02  0.45594000000E+02  0.51100000000E-03 0. -1.
    9900012    2    1    2    0    0  0.37245674327E+01  0.14537818834E+02 -0.11200800527E+02  0.72461587865E+02  0.70000022889E+02 0.  0.
        -12    1    1    2    0    0 -0.37245674327E+01 -0.14537818834E+02  0.11200800527E+02  0.18726412135E+02  0.00000000000E+00 0.  1.
         11    1    3    3    0    0  0.13292910246E+02  0.80753388022E+01  0.23173822982E+02  0.27909472074E+02  0.51100000000E-03 0. -1.
        -11    1    3    3    0    0  0.42784742955E+01 -0.37820344149E+00  0.22177853683E+01  0.48339375608E+01  0.51100000000E-03 0.  1.
         12    1    3    3    0    0 -0.13846817109E+02  0.68406834734E+01 -0.36592408878E+02  0.39718178230E+02  0.00000000000E+00 0. -1.
</event>
<event>
 7    1  0.2710146E-013  0.7246156E+02  0.7816164E-02  0.1226708E+00
        -11   -1    0    0    0    0  0.00000000000E+00  0.00000000000E+00  0.45593999997E+02  0.45594000000E+02  0.51100000000E-03 0. -1.
         11   -1    0    0    0    0 -0.00000000000E+00 -0.00000000000E+00 -0.45593999997E+02  0.45594000000E+02  0.51100000000E-03 0.  1.
    9900012    2    1    2    0    0  0.12426831088E+02  0.70758204341E+01  0.12090744743E+02  0.72461562161E+02  0.69999989405E+02 0.  0.
        -12    1    1    2    0    0 -0.12426831088E+02 -0.70758204341E+01 -0.12090744743E+02  0.18726437839E+02  0.00000000000E+00 0.  1.
         11    1    3    3    0    0  0.13131388279E+02 -0.12478925897E+02  0.99183915294E+01  0.20652637615E+02  0.51100000000E-03 0. -1.
        -11    1    3    3    0    0 -0.16027497314E+02 -0.47276775304E+01  0.12949096894E+02  0.21140262903E+02  0.51100000000E-03 0.  1.
         12    1    3    3    0    0  0.15322940123E+02  0.24282423861E+02 -0.10776743680E+02  0.30668661643E+02  0.00000000000E+00 0. -1.
</event>
<event>
 7    1  0.2710146E-013  0.7246154E+02  0.7816164E-02  0.1226708E+00
        -11   -1    0    0    0    0  0.00000000000E+00  0.00000000000E+00  0.45593999997E+02  0.45594000000E+02  0.51100000000E-03 0.  1.
         11   -1    0    0    0    0 -0.00000000000E+00 -0.00000000000E+00 -0.45593999997E+02  0.45594000000E+02  0.51100000000E-03 0. -1.
    9900012    2    1    2    0    0 -0.21706424778E+01  0.17592852189E+02  0.60382214618E+01  0.72461541303E+02  0.69999962233E+02 0.  0.
        -12    1    1    2    0    0  0.21706424778E+01 -0.17592852189E+02 -0.60382214618E+01  0.18726458697E+02  0.00000000000E+00 0.  1.
         11    1    3    3    0    0 -0.19735857095E+02  0.27937500071E+02 -0.67596714488E+01  0.34866905854E+02  0.51100000000E-03 0. -1.
        -11    1    3    3    0    0 -0.58503350930E+01  0.44764345926E+01  0.46434108202E+01  0.87078212928E+01  0.51100000000E-03 0.  1.
        -12    1    3    3    0    0  0.23415549710E+02 -0.14821082474E+02  0.81544820905E+01  0.28886814156E+02  0.00000000000E+00 0.  1.
</event>
<event>
 7    1  0.2710146E-013  0.7246157E+02  0.7816164E-02  0.1226708E+00
        -11   -1    0    0    0    0  0.00000000000E+00  0.00000000000E+00  0.45593999997E+02  0.45594000000E+02  0.51100000000E-03 0. -1.
         11   -1    0    0    0    0 -0.00000000000E+00 -0.00000000000E+00 -0.45593999997E+02  0.45594000000E+02  0.51100000000E-03 0.  1.
    9900012    2    1    2    0    0  0.47844263185E+00 -0.18422484862E+02  0.33259981810E+01  0.72461571623E+02  0.70000001731E+02 0.  0.
        -12    1    1    2    0    0 -0.47844263185E+00  0.18422484862E+02 -0.33259981810E+01  0.18726428377E+02  0.00000000000E+00 0.  1.
         11    1    3    3    0    0 -0.58727535758E+01 -0.15781532821E+02  0.14150414691E+02  0.21995005091E+02  0.51100000000E-03 0. -1.
        -11    1    3    3    0    0 -0.16463662419E+02 -0.76297768424E+00  0.10202136603E+02  0.19383444140E+02  0.51100000000E-03 0.  1.
        -12    1    3    3    0    0  0.22814858627E+02 -0.18779743568E+01 -0.21026553113E+02  0.31083122392E+02  0.00000000000E+00 0.  1.
</event>
<event>
 7    1  0.2710146E-013  0.7246160E+02  0.7816164E-02  0.1226708E+00
        -11   -1    0    0    0    0  0.00000000000E+00  0.00000000000E+00  0.45593999997E+02  0.45594000000E+02  0.51100000000E-03 0. -1.
         11   -1    0    0    0    0 -0.00000000000E+00 -0.00000000000E+00 -0.45593999997E+02  0.45594000000E+02  0.51100000000E-03 0.  1.
    9900012    2    1    2    0    0 -0.71225553590E+01  0.36532251763E+01  0.16929295761E+02  0.72461604085E+02  0.70000044018E+02 0.  0.
        -12    1    1    2    0    0  0.71225553590E+01 -0.36532251763E+01 -0.16929295761E+02  0.18726395915E+02  0.00000000000E+00 0.  1.
         11    1    3    3    0    0 -0.63032427612E+01 -0.80991788677E+01  0.16922263228E+02  0.19791173807E+02  0.51100000000E-03 0. -1.
        -11    1    3    3    0    0 -0.17743431731E+01 -0.14596354861E+02 -0.16076012303E+02  0.21786235121E+02  0.51100000000E-03 0.  1.
        -12    1    3    3    0    0  0.95503057526E+00  0.26348758905E+02  0.16083044836E+02  0.30884195156E+02  0.00000000000E+00 0.  1.
</event>
<event>
 7    1  0.2710146E-013  0.7246154E+02  0.7816164E-02  0.1226708E+00
        -11   -1    0    0    0    0  0.00000000000E+00  0.00000000000E+00  0.45593999997E+02  0.45594000000E+02  0.51100000000E-03 0. -1.
         11   -1    0    0    0    0 -0.00000000000E+00 -0.00000000000E+00 -0.45593999997E+02  0.45594000000E+02  0.51100000000E-03 0.  1.
    9900012    2    1    2    0    0 -0.15769821417E+02 -0.50417833686E+01  0.87506231908E+01  0.72461541358E+02  0.69999962305E+02 0.  0.
        -12    1    1    2    0    0  0.15769821417E+02  0.50417833686E+01 -0.87506231908E+01  0.18726458642E+02  0.00000000000E+00 0.  1.
         11    1    3    3    0    0  0.65765776985E+01 -0.41753260151E+01  0.20421669549E+01  0.80532706207E+01  0.51100000000E-03 0. -1.
        -11    1    3    3    0    0  0.14065175206E+02 -0.13457411432E+02 -0.10607583594E+02  0.22168714577E+02  0.51100000000E-03 0.  1.
        -12    1    3    3    0    0 -0.36411574322E+02  0.12590954079E+02  0.17316039830E+02  0.42239556160E+02  0.00000000000E+00 0.  1.
</event>
<event>
 7    1  0.2710146E-013  0.7246159E+02  0.7816164E-02  0.1226708E+00
        -11   -1    0    0    0    0  0.00000000000E+00  0.00000000000E+00  0.45593999997E+02  0.45594000000E+02  0.51100000000E-03 0.  1.
         11   -1    0    0    0    0 -0.00000000000E+00 -0.00000000000E+00 -0.45593999997E+02  0.45594000000E+02  0.51100000000E-03 0. -1.
    9900012    2    1    2    0    0  0.53208018112E+01  0.11872312345E+02 -0.13469058867E+02  0.72461594069E+02  0.70000030971E+02 0.  0.
        -12    1    1    2    0    0 -0.53208018112E+01 -0.11872312345E+02  0.13469058867E+02  0.18726405931E+02  0.00000000000E+00 0.  1.
         11    1    3    3    0    0 -0.20467727996E+02  0.19282163111E+02 -0.23094648329E+02  0.36388081638E+02  0.51100000000E-03 0. -1.
        -11    1    3    3    0    0 -0.20490479182E+01 -0.55945668889E+01  0.50371731805E+01  0.78019798742E+01  0.51100000000E-03 0.  1.
        -12    1    3    3    0    0  0.27837577725E+02 -0.18152838769E+01  0.45884162821E+01  0.28271532557E+02  0.00000000000E+00 0.  1.
</event>
<event>
 7    1  0.2710146E-013  0.7246152E+02  0.7816164E-02  0.1226708E+00
        -11   -1    0    0    0    0  0.00000000000E+00  0.00000000000E+00  0.45593999997E+02  0.45594000000E+02  0.51100000000E-03 0. -1.
         11   -1    0    0    0    0 -0.00000000000E+00 -0.00000000000E+00 -0.45593999997E+02  0.45594000000E+02  0.51100000000E-03 0.  1.
    9900012    2    1    2    0    0  0.86698007277E+01  0.92825165369E+01  0.13760473150E+02  0.72461516635E+02  0.69999930098E+02 0.  0.
        -12    1    1    2    0    0 -0.86698007277E+01 -0.92825165369E+01 -0.13760473150E+02  0.18726483365E+02  0.00000000000E+00 0.  1.
         11    1    3    3    0    0 -0.94924577658E+01 -0.15788338681E+01  0.15775889253E+02  0.18479127491E+02  0.51100000000E-03 0. -1.
        -11    1    3    3    0    0 -0.19267739391E+01 -0.18267818794E+02  0.14618902645E+01  0.18427229436E+02  0.51100000000E-03 0.  1.
        -12    1    3    3    0    0  0.20089032433E+02  0.29129169199E+02 -0.34773063674E+01  0.35555159708E+02  0.00000000000E+00 0.  1.
</event>
<event>
 7    1  0.2710146E-013  0.7246158E+02  0.7816164E-02  0.1226708E+00
        -11   -1    0    0    0    0  0.00000000000E+00  0.00000000000E+00  0.45593999997E+02  0.45594000000E+02  0.51100000000E-03 0.  1.
         11   -1    0    0    0    0 -0.00000000000E+00 -0.00000000000E+00 -0.45593999997E+02  0.45594000000E+02  0.51100000000E-03 0. -1.
    9900012    2    1    2    0    0 -0.49471545792E+01  0.12667352591E+02 -0.12874100890E+02  0.72461584597E+02  0.70000018632E+02 0.  0.
        -12    1    1    2    0    0  0.49471545792E+01 -0.12667352591E+02  0.12874100890E+02  0.18726415403E+02  0.00000000000E+00 0.  1.
         11    1    3    3    0    0 -0.83316969219E+00  0.27110955301E+02 -0.33918040372E+02  0.43429615840E+02  0.51100000000E-03 0. -1.
        -11    1    3    3    0    0 -0.47635842157E+01 -0.84230272956E+01  0.32056720041E+01  0.10193893106E+02  0.51100000000E-03 0.  1.
        -12    1    3    3    0    0  0.64959932870E+00 -0.60205754139E+01  0.17838267478E+02  0.18838075651E+02  0.00000000000E+00 0.  1.
</event>
<event>
 7    1  0.2710146E-013  0.7246144E+02  0.7816164E-02  0.1226708E+00
        -11   -1    0    0    0    0  0.00000000000E+00  0.00000000000E+00  0.45593999997E+02  0.45594000000E+02  0.51100000000E-03 0.  1.
         11   -1    0    0    0    0 -0.00000000000E+00 -0.00000000000E+00 -0.45593999997E+02  0.45594000000E+02  0.51100000000E-03 0. -1.
    9900012    2    1    2    0    0  0.96688989789E+01 -0.89169275049E+01 -0.13329846263E+02  0.72461441187E+02  0.69999831813E+02 0.  0.
        -12    1    1    2    0    0 -0.96688989789E+01  0.89169275049E+01  0.13329846263E+02  0.18726558813E+02  0.00000000000E+00 0.  1.
         11    1    3    3    0    0  0.20547436764E+02 -0.29486799979E+02  0.28979045986E+01  0.36056433295E+02  0.51100000000E-03 0. -1.
        -11    1    3    3    0    0  0.45080773204E+01 -0.14987572825E+01  0.41751050302E+00  0.47689988257E+01  0.51100000000E-03 0.  1.
        -12    1    3    3    0    0 -0.15386615106E+02  0.22068629757E+02 -0.16645261365E+02  0.31636009066E+02  0.00000000000E+00 0.  1.
</event>
<event>
 7    1  0.2710146E-013  0.7246159E+02  0.7816164E-02  0.1226708E+00
        -11   -1    0    0    0    0  0.00000000000E+00  0.00000000000E+00  0.45593999997E+02  0.45594000000E+02  0.51100000000E-03 0.  1.
         11   -1    0    0    0    0 -0.00000000000E+00 -0.00000000000E+00 -0.45593999997E+02  0.45594000000E+02  0.51100000000E-03 0. -1.
    9900012    2    1    2    0    0  0.17087007355E+02  0.30059714070E+00  0.76565210539E+01  0.72461588340E+02  0.70000023508E+02 0.  0.
        -12    1    1    2    0    0 -0.17087007355E+02 -0.30059714070E+00 -0.76565210539E+01  0.18726411660E+02  0.00000000000E+00 0.  1.
         11    1    3    3    0    0  0.69932865170E+00  0.12254778592E+01  0.44082619920E+01  0.46285667974E+01  0.51100000000E-03 0. -1.
        -11    1    3    3    0    0  0.54511483276E+01  0.37426333993E+01  0.34117714099E+02  0.34752564487E+02  0.51100000000E-03 0.  1.
         12    1    3    3    0    0  0.10936530376E+02 -0.46675141178E+01 -0.30869455037E+02  0.33080457055E+02  0.00000000000E+00 0. -1.
</event>
<event>
 7    1  0.2710146E-013  0.7246160E+02  0.7816164E-02  0.1226708E+00
        -11   -1    0    0    0    0  0.00000000000E+00  0.00000000000E+00  0.45593999997E+02  0.45594000000E+02  0.51100000000E-03 0.  1.
         11   -1    0    0    0    0 -0.00000000000E+00 -0.00000000000E+00 -0.45593999997E+02  0.45594000000E+02  0.51100000000E-03 0. -1.
    9900012    2    1    2    0    0  0.71843094247E+00  0.16420241493E+01 -0.18640429755E+02  0.72461601313E+02  0.70000040407E+02 0.  0.
        -12    1    1    2    0    0 -0.71843094247E+00 -0.16420241493E+01  0.18640429755E+02  0.18726398687E+02  0.00000000000E+00 0.  1.
         11    1    3    3    0    0  0.88807050699E+01  0.52371948716E+01 -0.13372158094E+02  0.16885193070E+02  0.51100000000E-03 0. -1.
        -11    1    3    3    0    0 -0.56287870326E+01  0.24567694126E+02 -0.95986636407E+01  0.26970153542E+02  0.51100000000E-03 0.  1.
         12    1    3    3    0    0 -0.25334870948E+01 -0.28162864848E+02  0.43303919797E+01  0.28606254701E+02  0.00000000000E+00 0. -1.
</event>
<event>
 7    1  0.2710146E-013  0.7246160E+02  0.7816164E-02  0.1226708E+00
        -11   -1    0    0    0    0  0.00000000000E+00  0.00000000000E+00  0.45593999997E+02  0.45594000000E+02  0.51100000000E-03 0.  1.
         11   -1    0    0    0    0 -0.00000000000E+00 -0.00000000000E+00 -0.45593999997E+02  0.45594000000E+02  0.51100000000E-03 0. -1.
    9900012    2    1    2    0    0  0.98838093599E+01  0.14865818778E+02 -0.56564734957E+01  0.72461602914E+02  0.70000042493E+02 0.  0.
        -12    1    1    2    0    0 -0.98838093599E+01 -0.14865818778E+02  0.56564734957E+01  0.18726397086E+02  0.00000000000E+00 0.  1.
         11    1    3    3    0    0  0.32127882164E+01  0.23813690743E+02 -0.79012020996E+01  0.25295115532E+02  0.51100000000E-03 0. -1.
        -11    1    3    3    0    0  0.10938154022E+01 -0.16703658121E+02 -0.18122336646E+02  0.24670381281E+02  0.51100000000E-03 0.  1.
        -12    1    3    3    0    0  0.55772057413E+01  0.77557861568E+01  0.20367065250E+02  0.22496106101E+02  0.00000000000E+00 0.  1.
</event>
<event>
 7    1  0.2710146E-013  0.7246158E+02  0.7816164E-02  0.1226708E+00
        -11   -1    0    0    0    0  0.00000000000E+00  0.00000000000E+00  0.45593999997E+02  0.45594000000E+02  0.51100000000E-03 0.  1.
         11   -1    0    0    0    0 -0.00000000000E+00 -0.00000000000E+00 -0.45593999997E+02  0.45594000000E+02  0.51100000000E-03 0. -1.
    9900012    2    1    2    0    0  0.17722530802E+02  0.56081583684E+01  0.22669731875E+01  0.72461582677E+02  0.70000016130E+02 0.  0.
        -12    1    1    2    0    0 -0.17722530802E+02 -0.56081583684E+01 -0.22669731875E+01  0.18726417323E+02  0.00000000000E+00 0.  1.
         11    1    3    3    0    0 -0.74426563600E+01 -0.18729297598E+02  0.28202180160E+01  0.20350266636E+02  0.51100000000E-03 0. -1.
        -11    1    3    3    0    0  0.26858600505E+01 -0.96307371919E+01  0.46879630687E+01  0.11042732500E+02  0.51100000000E-03 0.  1.
         12    1    3    3    0    0  0.22479327112E+02  0.33968193159E+02 -0.52412078972E+01  0.41068583541E+02  0.00000000000E+00 0. -1.
</event>
<event>
 7    1  0.2710146E-013  0.7246163E+02  0.7816164E-02  0.1226708E+00
        -11   -1    0    0    0    0  0.00000000000E+00  0.00000000000E+00  0.45593999997E+02  0.45594000000E+02  0.51100000000E-03 0.  1.
         11   -1    0    0    0    0 -0.00000000000E+00 -0.00000000000E+00 -0.45593999997E+02  0.45594000000E+02  0.51100000000E-03 0. -1.
    9900012    2    1    2    0    0  0.93015001674E+01  0.11659183222E+02 -0.11323541740E+02  0.72461626718E+02  0.70000073503E+02 0.  0.
        -12    1    1    2    0    0 -0.93015001674E+01 -0.11659183222E+02  0.11323541740E+02  0.18726373282E+02  0.00000000000E+00 0.  1.
         11    1    3    3    0    0 -0.20716348710E+01 -0.51046488446E+01 -0.13379408085E+02  0.14469197346E+02  0.51100000000E-03 0. -1.
        -11    1    3    3    0    0 -0.20345224630E+02 -0.22196503657E+01 -0.29943201670E+01  0.20683833458E+02  0.51100000000E-03 0.  1.
        -12    1    3    3    0    0  0.31718359668E+02  0.18983482432E+02  0.50501865128E+01  0.37308595914E+02  0.00000000000E+00 0.  1.
</event>
<event>
 7    1  0.2710146E-013  0.7246158E+02  0.7816164E-02  0.1226708E+00
        -11   -1    0    0    0    0  0.00000000000E+00  0.00000000000E+00  0.45593999997E+02  0.45594000000E+02  0.51100000000E-03 0.  1.
         11   -1    0    0    0    0 -0.00000000000E+00 -0.00000000000E+00 -0.45593999997E+02  0.45594000000E+02  0.51100000000E-03 0. -1.
    9900012    2    1    2    0    0  0.13161473704E+02 -0.83237932572E+01 -0.10400433191E+02  0.72461576561E+02  0.70000008163E+02 0.  0.
        -12    1    1    2    0    0 -0.13161473704E+02  0.83237932572E+01  0.10400433191E+02  0.18726423439E+02  0.00000000000E+00 0.  1.
         11    1    3    3    0    0 -0.19134115813E+02  0.44684484438E+00  0.59417304575E+01  0.20040414650E+02  0.51100000000E-03 0. -1.
        -11    1    3    3    0    0  0.77008821556E+01  0.83596836967E+01  0.79251684183E+01  0.13856269058E+02  0.51100000000E-03 0.  1.
         12    1    3    3    0    0  0.24594707361E+02 -0.17130321798E+02 -0.24267332067E+02  0.38564892853E+02  0.00000000000E+00 0. -1.
</event>
<event>
 7    1  0.2710146E-013  0.7246158E+02  0.7816164E-02  0.1226708E+00
        -11   -1    0    0    0    0  0.00000000000E+00  0.00000000000E+00  0.45593999997E+02  0.45594000000E+02  0.51100000000E-03 0. -1.
         11   -1    0    0    0    0 -0.00000000000E+00 -0.00000000000E+00 -0.45593999997E+02  0.45594000000E+02  0.51100000000E-03 0.  1.
    9900012    2    1    2    0    0 -0.28471657649E+01  0.18442911675E+02 -0.15592588366E+01  0.72461584644E+02  0.70000018693E+02 0.  0.
        -12    1    1    2    0    0  0.28471657649E+01 -0.18442911675E+02  0.15592588366E+01  0.18726415356E+02  0.00000000000E+00 0.  1.
         11    1    3    3    0    0  0.20799856930E+02 -0.59561083767E+01  0.13742055607E+02  0.25631101573E+02  0.51100000000E-03 0. -1.
        -11    1    3    3    0    0 -0.56559832176E+00  0.20861349909E+02 -0.82183314164E+01  0.22428927594E+02  0.51100000000E-03 0.  1.
        -12    1    3    3    0    0 -0.23081424373E+02  0.35376701429E+01 -0.70829830271E+01  0.24401555477E+02  0.00000000000E+00 0.  1.
</event>
<event>
 7    1  0.2710146E-013  0.7246156E+02  0.7816164E-02  0.1226708E+00
        -11   -1    0    0    0    0  0.00000000000E+00  0.00000000000E+00  0.45593999997E+02  0.45594000000E+02  0.51100000000E-03 0.  1.
         11   -1    0    0    0    0 -0.00000000000E+00 -0.00000000000E+00 -0.45593999997E+02  0.45594000000E+02  0.51100000000E-03 0. -1.
    9900012    2    1    2    0    0 -0.23570869660E+01  0.18543016845E+02 -0.11314275600E+01  0.72461562511E+02  0.69999989861E+02 0.  0.
        -12    1    1    2    0    0  0.23570869660E+01 -0.18543016845E+02  0.11314275600E+01  0.18726437489E+02  0.00000000000E+00 0.  1.
         11    1    3    3    0    0 -0.25259233740E+02 -0.14617506141E+00 -0.33991863346E+01  0.25487344394E+02  0.51100000000E-03 0.  1.
        -11    1    3    3    0    0  0.19689184467E+02  0.16802335707E+02  0.17531436222E+02  0.31262337188E+02  0.51100000000E-03 0. -1.
         12    1    3    3    0    0  0.32129623063E+01  0.18868561997E+01 -0.15263677447E+02  0.15711880929E+02  0.00000000000E+00 0. -1.
</event>
<event>
 7    1  0.2710146E-013  0.7246159E+02  0.7816164E-02  0.1226708E+00
        -11   -1    0    0    0    0  0.00000000000E+00  0.00000000000E+00  0.45593999997E+02  0.45594000000E+02  0.51100000000E-03 0.  1.
         11   -1    0    0    0    0 -0.00000000000E+00 -0.00000000000E+00 -0.45593999997E+02  0.45594000000E+02  0.51100000000E-03 0. -1.
    9900012    2    1    2    0    0 -0.81296650337E+01 -0.13598704452E+02  0.99831012606E+01  0.72461587447E+02  0.70000022344E+02 0.  0.
        -12    1    1    2    0    0  0.81296650337E+01  0.13598704452E+02 -0.99831012606E+01  0.18726412553E+02  0.00000000000E+00 0.  1.
         11    1    3    3    0    0 -0.16529057160E+02 -0.98775673032E+01  0.47484975353E+01  0.19832405187E+02  0.51100000000E-03 0. -1.
        -11    1    3    3    0    0  0.15684492999E+02  0.13502810615E+02  0.20015882281E+02  0.28791748105E+02  0.51100000000E-03 0.  1.
         12    1    3    3    0    0 -0.72851008735E+01 -0.17223947764E+02 -0.14781278556E+02  0.23837434155E+02  0.00000000000E+00 0. -1.
</event>
<event>
 7    1  0.2710146E-013  0.7246160E+02  0.7816164E-02  0.1226708E+00
        -11   -1    0    0    0    0  0.00000000000E+00  0.00000000000E+00  0.45593999997E+02  0.45594000000E+02  0.51100000000E-03 0. -1.
         11   -1    0    0    0    0 -0.00000000000E+00 -0.00000000000E+00 -0.45593999997E+02  0.45594000000E+02  0.51100000000E-03 0.  1.
    9900012    2    1    2    0    0  0.11675113280E+02 -0.13734832481E+02  0.50718826064E+01  0.72461604550E+02  0.70000044624E+02 0.  0.
        -12    1    1    2    0    0 -0.11675113280E+02  0.13734832481E+02 -0.50718826064E+01  0.18726395450E+02  0.00000000000E+00 0.  1.
         11    1    3    3    0    0 -0.59845713050E+01  0.59018706772E+01 -0.12422333569E+02  0.14998718038E+02  0.51100000000E-03 0. -1.
        -11    1    3    3    0    0  0.25614680961E+01  0.48426551081E+01 -0.13867231252E+02  0.14910148563E+02  0.51100000000E-03 0.  1.
         12    1    3    3    0    0  0.15098216489E+02 -0.24479358266E+02  0.31361447428E+02  0.42552737950E+02  0.00000000000E+00 0. -1.
</event>
<event>
 7    1  0.2710146E-013  0.7246157E+02  0.7816164E-02  0.1226708E+00
        -11   -1    0    0    0    0  0.00000000000E+00  0.00000000000E+00  0.45593999997E+02  0.45594000000E+02  0.51100000000E-03 0.  1.
         11   -1    0    0    0    0 -0.00000000000E+00 -0.00000000000E+00 -0.45593999997E+02  0.45594000000E+02  0.51100000000E-03 0. -1.
    9900012    2    1    2    0    0 -0.33801786748E+01  0.18070332868E+02 -0.35660601345E+01  0.72461566204E+02  0.69999994671E+02 0.  0.
        -12    1    1    2    0    0  0.33801786748E+01 -0.18070332868E+02  0.35660601345E+01  0.18726433796E+02  0.00000000000E+00 0.  1.
         11    1    3    3    0    0  0.22969048281E+02 -0.48255336308E+01 -0.85088930155E+01  0.24965260150E+02  0.51100000000E-03 0. -1.
        -11    1    3    3    0    0  0.32662508785E+00  0.58701896664E+01  0.13490679970E+02  0.14716122349E+02  0.51100000000E-03 0.  1.
        -12    1    3    3    0    0 -0.26675852044E+02  0.17025676833E+02 -0.85478470890E+01  0.32780183705E+02  0.00000000000E+00 0.  1.
</event>
<event>
 7    1  0.2710146E-013  0.7246167E+02  0.7816164E-02  0.1226708E+00
        -11   -1    0    0    0    0  0.00000000000E+00  0.00000000000E+00  0.45593999997E+02  0.45594000000E+02  0.51100000000E-03 0.  1.
         11   -1    0    0    0    0 -0.00000000000E+00 -0.00000000000E+00 -0.45593999997E+02  0.45594000000E+02  0.51100000000E-03 0. -1.
    9900012    2    1    2    0    0  0.11119917953E+01 -0.10818981238E+02 -0.15244290881E+02  0.72461674006E+02  0.70000135104E+02 0.  0.
        -12    1    1    2    0    0 -0.11119917953E+01  0.10818981238E+02  0.15244290881E+02  0.18726325994E+02  0.00000000000E+00 0.  1.
         11    1    3    3    0    0 -0.11452936572E+02 -0.18814674435E+02 -0.19199516927E+02  0.29219568456E+02  0.51100000000E-03 0. -1.
        -11    1    3    3    0    0  0.82436606135E+01 -0.70381800013E+01 -0.15100583553E+02  0.18588209756E+02  0.51100000000E-03 0.  1.
        -12    1    3    3    0    0  0.43212677539E+01  0.15033873199E+02  0.19055809599E+02  0.24653895794E+02  0.00000000000E+00 0.  1.
</event>
<event>
 7    1  0.2710146E-013  0.7246140E+02  0.7816164E-02  0.1226708E+00
        -11   -1    0    0    0    0  0.00000000000E+00  0.00000000000E+00  0.45593999997E+02  0.45594000000E+02  0.51100000000E-03 0.  1.
         11   -1    0    0    0    0 -0.00000000000E+00 -0.00000000000E+00 -0.45593999997E+02  0.45594000000E+02  0.51100000000E-03 0. -1.
    9900012    2    1    2    0    0 -0.91124284729E+01 -0.10370265430E+02 -0.12653327297E+02  0.72461402620E+02  0.69999781572E+02 0.  0.
        -12    1    1    2    0    0  0.91124284729E+01  0.10370265430E+02  0.12653327297E+02  0.18726597380E+02  0.00000000000E+00 0.  1.
         11    1    3    3    0    0  0.11704269386E+02  0.12284780484E+02 -0.13148709153E+02  0.21466119958E+02  0.51100000000E-03 0. -1.
        -11    1    3    3    0    0 -0.10214825301E+02 -0.50554393008E+01 -0.19332457815E+02  0.22442015237E+02  0.51100000000E-03 0.  1.
        -12    1    3    3    0    0 -0.10601872558E+02 -0.17599606612E+02  0.19827839671E+02  0.28553267425E+02  0.00000000000E+00 0.  1.
</event>
<event>
 7    1  0.2710146E-013  0.7246154E+02  0.7816164E-02  0.1226708E+00
        -11   -1    0    0    0    0  0.00000000000E+00  0.00000000000E+00  0.45593999997E+02  0.45594000000E+02  0.51100000000E-03 0.  1.
         11   -1    0    0    0    0 -0.00000000000E+00 -0.00000000000E+00 -0.45593999997E+02  0.45594000000E+02  0.51100000000E-03 0. -1.
    9900012    2    1    2    0    0  0.38419190415E+01  0.17747779788E+02 -0.45756005903E+01  0.72461544113E+02  0.69999965894E+02 0.  0.
        -12    1    1    2    0    0 -0.38419190415E+01 -0.17747779788E+02  0.45756005903E+01  0.18726455887E+02  0.00000000000E+00 0.  1.
         11    1    3    3    0    0  0.91447808812E+01  0.36009194971E+02 -0.49904290064E+01  0.37485910977E+02  0.51100000000E-03 0. -1.
        -11    1    3    3    0    0 -0.19380726176E+01  0.33477561341E+01  0.10280192301E+02  0.10983895057E+02  0.51100000000E-03 0.  1.
         12    1    3    3    0    0 -0.33647892220E+01 -0.21609171317E+02 -0.98653638851E+01  0.23991738080E+02  0.00000000000E+00 0. -1.
</event>
<event>
 7    1  0.2710146E-013  0.7246153E+02  0.7816164E-02  0.1226708E+00
        -11   -1    0    0    0    0  0.00000000000E+00  0.00000000000E+00  0.45593999997E+02  0.45594000000E+02  0.51100000000E-03 0. -1.
         11   -1    0    0    0    0 -0.00000000000E+00 -0.00000000000E+00 -0.45593999997E+02  0.45594000000E+02  0.51100000000E-03 0.  1.
    9900012    2    1    2    0    0 -0.33452288847E+01  0.91845610841E+01  0.15972912786E+02  0.72461530459E+02  0.69999948107E+02 0.  0.
        -12    1    1    2    0    0  0.33452288847E+01 -0.91845610841E+01 -0.15972912786E+02  0.18726469541E+02  0.00000000000E+00 0.  1.
         11    1    3    3    0    0  0.15134526068E+02  0.35777453286E+01  0.19198888102E+02  0.24707315628E+02  0.51100000000E-03 0. -1.
        -11    1    3    3    0    0  0.20999042708E+01 -0.16626730970E+02 -0.47526461952E+01  0.17419685038E+02  0.51100000000E-03 0.  1.
        -12    1    3    3    0    0 -0.20579659224E+02  0.22233546726E+02  0.15266708794E+01  0.30334529793E+02  0.00000000000E+00 0.  1.
</event>
<event>
 7    1  0.2710146E-013  0.7246159E+02  0.7816164E-02  0.1226708E+00
        -11   -1    0    0    0    0  0.00000000000E+00  0.00000000000E+00  0.45593999997E+02  0.45594000000E+02  0.51100000000E-03 0. -1.
         11   -1    0    0    0    0 -0.00000000000E+00 -0.00000000000E+00 -0.45593999997E+02  0.45594000000E+02  0.51100000000E-03 0.  1.
    9900012    2    1    2    0    0 -0.16706399416E+02  0.23260654591E+01  0.81341280279E+01  0.72461590821E+02  0.70000026740E+02 0.  0.
        -12    1    1    2    0    0  0.16706399416E+02 -0.23260654591E+01 -0.81341280279E+01  0.18726409179E+02  0.00000000000E+00 0.  1.
         11    1    3    3    0    0 -0.32891330882E+01 -0.10712310702E+01 -0.41576745361E+00  0.34840773979E+01  0.51100000000E-03 0. -1.
        -11    1    3    3    0    0 -0.37237090310E+02 -0.38248475772E+01  0.19003872049E+02  0.41980680162E+02  0.51100000000E-03 0.  1.
         12    1    3    3    0    0  0.23819823983E+02  0.72221441065E+01 -0.10453976568E+02  0.26996833261E+02  0.00000000000E+00 0. -1.
</event>
<event>
 7    1  0.2710146E-013  0.7246160E+02  0.7816164E-02  0.1226708E+00
        -11   -1    0    0    0    0  0.00000000000E+00  0.00000000000E+00  0.45593999997E+02  0.45594000000E+02  0.51100000000E-03 0.  1.
         11   -1    0    0    0    0 -0.00000000000E+00 -0.00000000000E+00 -0.45593999997E+02  0.45594000000E+02  0.51100000000E-03 0. -1.
    9900012    2    1    2    0    0  0.43686539128E+01 -0.17355772933E+02 -0.55109021247E+01  0.72461600631E+02  0.70000039519E+02 0.  0.
        -12    1    1    2    0    0 -0.43686539128E+01  0.17355772933E+02  0.55109021247E+01  0.18726399369E+02  0.00000000000E+00 0.  1.
         11    1    3    3    0    0 -0.45404471943E+01 -0.18750496790E+02  0.66967179687E+01  0.20421626341E+02  0.51100000000E-03 0. -1.
        -11    1    3    3    0    0 -0.18782534567E+02  0.94852367985E+00 -0.15203398985E+02  0.24183189262E+02  0.51100000000E-03 0.  1.
         12    1    3    3    0    0  0.27691635674E+02  0.44620017740E+00  0.29957788921E+01  0.27856785028E+02  0.00000000000E+00 0. -1.
</event>
<event>
 7    1  0.2710146E-013  0.7246159E+02  0.7816164E-02  0.1226708E+00
        -11   -1    0    0    0    0  0.00000000000E+00  0.00000000000E+00  0.45593999997E+02  0.45594000000E+02  0.51100000000E-03 0.  1.
         11   -1    0    0    0    0 -0.00000000000E+00 -0.00000000000E+00 -0.45593999997E+02  0.45594000000E+02  0.51100000000E-03 0. -1.
    9900012    2    1    2    0    0 -0.12108819052E+02  0.14071470186E+02  0.24594327995E+01  0.72461585988E+02  0.70000020444E+02 0.  0.
        -12    1    1    2    0    0  0.12108819052E+02 -0.14071470186E+02 -0.24594327995E+01  0.18726414012E+02  0.00000000000E+00 0.  1.
         11    1    3    3    0    0  0.95417356776E+01  0.22740220625E+02 -0.27577063402E+01  0.24814658940E+02  0.51100000000E-03 0. -1.
        -11    1    3    3    0    0 -0.84996947371E+01  0.14421829786E+02  0.11539679728E+02  0.20332195983E+02  0.51100000000E-03 0.  1.
        -12    1    3    3    0    0 -0.13150859993E+02 -0.23090580225E+02 -0.63225405887E+01  0.27314731065E+02  0.00000000000E+00 0.  1.
</event>
<event>
 7    1  0.2710146E-013  0.7246160E+02  0.7816164E-02  0.1226708E+00
        -11   -1    0    0    0    0  0.00000000000E+00  0.00000000000E+00  0.45593999997E+02  0.45594000000E+02  0.51100000000E-03 0.  1.
         11   -1    0    0    0    0 -0.00000000000E+00 -0.00000000000E+00 -0.45593999997E+02  0.45594000000E+02  0.51100000000E-03 0. -1.
    9900012    2    1    2    0    0  0.56908556374E+01 -0.17218072747E+02  0.46722732149E+01  0.72461601414E+02  0.70000040539E+02 0.  0.
        -12    1    1    2    0    0 -0.56908556374E+01  0.17218072747E+02 -0.46722732149E+01  0.18726398586E+02  0.00000000000E+00 0.  1.
         11    1    3    3    0    0 -0.14909105737E+02  0.14378039946E+02 -0.63276738418E+01  0.21657537328E+02  0.51100000000E-03 0. -1.
        -11    1    3    3    0    0  0.20397776606E+02 -0.36657431518E+01 -0.16215828418E+00  0.20725184170E+02  0.51100000000E-03 0.  1.
        -12    1    3    3    0    0  0.20218476895E+00 -0.27930369541E+02  0.11162105341E+02  0.30078879917E+02  0.00000000000E+00 0.  1.
</event>
<event>
 7    1  0.2710146E-013  0.7246159E+02  0.7816164E-02  0.1226708E+00
        -11   -1    0    0    0    0  0.00000000000E+00  0.00000000000E+00  0.45593999997E+02  0.45594000000E+02  0.51100000000E-03 0.  1.
         11   -1    0    0    0    0 -0.00000000000E+00 -0.00000000000E+00 -0.45593999997E+02  0.45594000000E+02  0.51100000000E-03 0. -1.
    9900012    2    1    2    0    0 -0.60207446511E+01 -0.15713168559E+02 -0.82173865949E+01  0.72461588844E+02  0.70000024165E+02 0.  0.
        -12    1    1    2    0    0  0.60207446511E+01  0.15713168559E+02  0.82173865949E+01  0.18726411156E+02  0.00000000000E+00 0.  1.
         11    1    3    3    0    0 -0.19238900155E+02 -0.17619362746E+02 -0.76916736935E+01  0.27198144555E+02  0.51100000000E-03 0. -1.
        -11    1    3    3    0    0 -0.98048702015E+01  0.25764079622E+01 -0.14967450314E+02  0.18077553121E+02  0.51100000000E-03 0.  1.
        -12    1    3    3    0    0  0.23023025705E+02 -0.67021377514E+00  0.14441737413E+02  0.27185891169E+02  0.00000000000E+00 0.  1.
</event>
<event>
 7    1  0.2710146E-013  0.7246158E+02  0.7816164E-02  0.1226708E+00
        -11   -1    0    0    0    0  0.00000000000E+00  0.00000000000E+00  0.45593999997E+02  0.45594000000E+02  0.51100000000E-03 0.  1.
         11   -1    0    0    0    0 -0.00000000000E+00 -0.00000000000E+00 -0.45593999997E+02  0.45594000000E+02  0.51100000000E-03 0. -1.
    9900012    2    1    2    0    0 -0.12887293550E+02 -0.13582307685E+02  0.34240766396E+00  0.72461583896E+02  0.70000017719E+02 0.  0.
        -12    1    1    2    0    0  0.12887293550E+02  0.13582307685E+02 -0.34240766396E+00  0.18726416104E+02  0.00000000000E+00 0.  1.
         11    1    3    3    0    0 -0.77167877487E+01  0.93208688411E-01  0.86017892993E+01  0.11556309118E+02  0.51100000000E-03 0. -1.
        -11    1    3    3    0    0  0.94950976631E+01  0.92604737773E+01  0.18479340005E+02  0.22746412058E+02  0.51100000000E-03 0.  1.
         12    1    3    3    0    0 -0.14665603464E+02 -0.22935990150E+02 -0.26738721641E+02  0.38158862721E+02  0.00000000000E+00 0. -1.
</event>
<event>
 7    1  0.2710146E-013  0.7246156E+02  0.7816164E-02  0.1226708E+00
        -11   -1    0    0    0    0  0.00000000000E+00  0.00000000000E+00  0.45593999997E+02  0.45594000000E+02  0.51100000000E-03 0.  1.
         11   -1    0    0    0    0 -0.00000000000E+00 -0.00000000000E+00 -0.45593999997E+02  0.45594000000E+02  0.51100000000E-03 0. -1.
    9900012    2    1    2    0    0 -0.17142531764E+02 -0.41478235128E+01 -0.62935488234E+01  0.72461559015E+02  0.69999985307E+02 0.  0.
        -12    1    1    2    0    0  0.17142531764E+02  0.41478235128E+01  0.62935488234E+01  0.18726440985E+02  0.00000000000E+00 0.  1.
         11    1    3    3    0    0 -0.14893574916E+02 -0.76246244412E+01 -0.23585121285E+02  0.28917320379E+02  0.51100000000E-03 0. -1.
        -11    1    3    3    0    0  0.63915671134E+01  0.61825384656E+01 -0.10823032968E+02  0.14007639164E+02  0.51100000000E-03 0.  1.
         12    1    3    3    0    0 -0.86405239615E+01 -0.27057375373E+01  0.28114605429E+02  0.29536599472E+02  0.00000000000E+00 0. -1.
</event>
<event>
 7    1  0.2710146E-013  0.7246155E+02  0.7816164E-02  0.1226708E+00
        -11   -1    0    0    0    0  0.00000000000E+00  0.00000000000E+00  0.45593999997E+02  0.45594000000E+02  0.51100000000E-03 0.  1.
         11   -1    0    0    0    0 -0.00000000000E+00 -0.00000000000E+00 -0.45593999997E+02  0.45594000000E+02  0.51100000000E-03 0. -1.
    9900012    2    1    2    0    0  0.17444427558E+02  0.10635200944E+01 -0.67261156848E+01  0.72461554528E+02  0.69999979462E+02 0.  0.
        -12    1    1    2    0    0 -0.17444427558E+02 -0.10635200944E+01  0.67261156848E+01  0.18726445472E+02  0.00000000000E+00 0.  1.
         11    1    3    3    0    0  0.73795689443E+01  0.13766847166E+02 -0.66840414355E+01  0.16990012621E+02  0.51100000000E-03 0. -1.
        -11    1    3    3    0    0  0.31803216283E+02 -0.40521843854E+01  0.60520512221E+00  0.32066041816E+02  0.51100000000E-03 0.  1.
        -12    1    3    3    0    0 -0.21738357670E+02 -0.86511426860E+01 -0.64727937143E+00  0.23405500091E+02  0.00000000000E+00 0.  1.
</event>
<event>
 7    1  0.2710146E-013  0.7246151E+02  0.7816164E-02  0.1226708E+00
        -11   -1    0    0    0    0  0.00000000000E+00  0.00000000000E+00  0.45593999997E+02  0.45594000000E+02  0.51100000000E-03 0. -1.
         11   -1    0    0    0    0 -0.00000000000E+00 -0.00000000000E+00 -0.45593999997E+02  0.45594000000E+02  0.51100000000E-03 0.  1.
    9900012    2    1    2    0    0  0.67549152509E+01 -0.14713679464E+02  0.94106388753E+01  0.72461511609E+02  0.69999923551E+02 0.  0.
        -12    1    1    2    0    0 -0.67549152509E+01  0.14713679464E+02 -0.94106388753E+01  0.18726488391E+02  0.00000000000E+00 0.  1.
         11    1    3    3    0    0 -0.43597586299E+01  0.13249565314E+02  0.23400799980E+02  0.27242538727E+02  0.51100000000E-03 0. -1.
        -11    1    3    3    0    0  0.16968972440E+01  0.66536801006E+01 -0.41319988001E+01  0.80140085777E+01  0.51100000000E-03 0.  1.
        -12    1    3    3    0    0  0.94177766367E+01 -0.34616924879E+02 -0.98581623046E+01  0.37204964304E+02  0.00000000000E+00 0.  1.
</event>
<event>
 7    1  0.2710146E-013  0.7246156E+02  0.7816164E-02  0.1226708E+00
        -11   -1    0    0    0    0  0.00000000000E+00  0.00000000000E+00  0.45593999997E+02  0.45594000000E+02  0.51100000000E-03 0.  1.
         11   -1    0    0    0    0 -0.00000000000E+00 -0.00000000000E+00 -0.45593999997E+02  0.45594000000E+02  0.51100000000E-03 0. -1.
    9900012    2    1    2    0    0 -0.39687210734E+01 -0.15553502707E+02 -0.96445528872E+01  0.72461558966E+02  0.69999985242E+02 0.  0.
        -12    1    1    2    0    0  0.39687210734E+01  0.15553502707E+02  0.96445528872E+01  0.18726441034E+02  0.00000000000E+00 0.  1.
         11    1    3    3    0    0 -0.24756402209E+02 -0.20338450452E+02 -0.44580198840E+00  0.32042639666E+02  0.51100000000E-03 0. -1.
        -11    1    3    3    0    0  0.11064170314E+02 -0.13803658178E+02 -0.79750388253E+01  0.19405104698E+02  0.51100000000E-03 0.  1.
        -12    1    3    3    0    0  0.97235108211E+01  0.18588605923E+02 -0.12237120735E+01  0.21013814601E+02  0.00000000000E+00 0.  1.
</event>
<event>
 7    1  0.2710146E-013  0.7246157E+02  0.7816164E-02  0.1226708E+00
        -11   -1    0    0    0    0  0.00000000000E+00  0.00000000000E+00  0.45593999997E+02  0.45594000000E+02  0.51100000000E-03 0. -1.
         11   -1    0    0    0    0 -0.00000000000E+00 -0.00000000000E+00 -0.45593999997E+02  0.45594000000E+02  0.51100000000E-03 0.  1.
    9900012    2    1    2    0    0 -0.62054162495E+01 -0.11206344000E+02  0.13659788753E+02  0.72461570403E+02  0.70000000142E+02 0.  0.
        -12    1    1    2    0    0  0.62054162495E+01  0.11206344000E+02 -0.13659788753E+02  0.18726429597E+02  0.00000000000E+00 0.  1.
         11    1    3    3    0    0  0.19088656317E+02 -0.10305107896E+02  0.38032374635E+01  0.22023547948E+02  0.51100000000E-03 0. -1.
        -11    1    3    3    0    0  0.61142732127E+01  0.91585327161E+01  0.13313258343E+02  0.17277323473E+02  0.51100000000E-03 0.  1.
         12    1    3    3    0    0 -0.31408345780E+02 -0.10059768820E+02 -0.34567070535E+01  0.33160698982E+02  0.00000000000E+00 0. -1.
</event>
<event>
 7    1  0.2710146E-013  0.7246159E+02  0.7816164E-02  0.1226708E+00
        -11   -1    0    0    0    0  0.00000000000E+00  0.00000000000E+00  0.45593999997E+02  0.45594000000E+02  0.51100000000E-03 0.  1.
         11   -1    0    0    0    0 -0.00000000000E+00 -0.00000000000E+00 -0.45593999997E+02  0.45594000000E+02  0.51100000000E-03 0. -1.
    9900012    2    1    2    0    0 -0.28724060029E+01  0.15628140769E+02 -0.99090335125E+01  0.72461589631E+02  0.70000025190E+02 0.  0.
        -12    1    1    2    0    0  0.28724060029E+01 -0.15628140769E+02  0.99090335125E+01  0.18726410369E+02  0.00000000000E+00 0.  1.
         11    1    3    3    0    0  0.72469074365E+01  0.27444096916E+02  0.61848863817E+00  0.28391524288E+02  0.51100000000E-03 0. -1.
        -11    1    3    3    0    0 -0.15378689235E+02  0.10599084774E+02 -0.96655114339E+01  0.21030140089E+02  0.51100000000E-03 0.  1.
        -12    1    3    3    0    0  0.52593757952E+01 -0.22415040921E+02 -0.86201071675E+00  0.23039925254E+02  0.00000000000E+00 0.  1.
</event>
<event>
 7    1  0.2710146E-013  0.7246157E+02  0.7816164E-02  0.1226708E+00
        -11   -1    0    0    0    0  0.00000000000E+00  0.00000000000E+00  0.45593999997E+02  0.45594000000E+02  0.51100000000E-03 0. -1.
         11   -1    0    0    0    0 -0.00000000000E+00 -0.00000000000E+00 -0.45593999997E+02  0.45594000000E+02  0.51100000000E-03 0.  1.
    9900012    2    1    2    0    0 -0.12152923717E+02  0.71038510875E+01  0.12349937256E+02  0.72461569337E+02  0.69999998753E+02 0.  0.
        -12    1    1    2    0    0  0.12152923717E+02 -0.71038510875E+01 -0.12349937256E+02  0.18726430663E+02  0.00000000000E+00 0.  1.
         11    1    3    3    0    0  0.15711046064E+02  0.17775728994E+02  0.19668842987E+02  0.30816828104E+02  0.51100000000E-03 0. -1.
        -11    1    3    3    0    0 -0.13423899163E+02 -0.13894755809E+02  0.74808571205E+01  0.20717831239E+02  0.51100000000E-03 0.  1.
        -12    1    3    3    0    0 -0.14440070618E+02  0.32228779031E+01 -0.14799762851E+02  0.20926909994E+02  0.00000000000E+00 0.  1.
</event>
<event>
 7    1  0.2710146E-013  0.7246152E+02  0.7816164E-02  0.1226708E+00
        -11   -1    0    0    0    0  0.00000000000E+00  0.00000000000E+00  0.45593999997E+02  0.45594000000E+02  0.51100000000E-03 0.  1.
         11   -1    0    0    0    0 -0.00000000000E+00 -0.00000000000E+00 -0.45593999997E+02  0.45594000000E+02  0.51100000000E-03 0. -1.
    9900012    2    1    2    0    0 -0.13997265553E+00 -0.11430131574E+02 -0.14832849148E+02  0.72461523717E+02  0.69999939324E+02 0.  0.
        -12    1    1    2    0    0  0.13997265553E+00  0.11430131574E+02  0.14832849148E+02  0.18726476283E+02  0.00000000000E+00 0.  1.
         11    1    3    3    0    0 -0.31891478218E+01 -0.83933601480E+01 -0.18108842368E+01  0.91596102747E+01  0.51100000000E-03 0. -1.
        -11    1    3    3    0    0 -0.28537714095E+02  0.28033297985E+01 -0.92563906290E-01  0.28675221918E+02  0.51100000000E-03 0.  1.
         12    1    3    3    0    0  0.31586889261E+02 -0.58401012245E+01 -0.12929401005E+02  0.34626691524E+02  0.00000000000E+00 0. -1.
</event>
<event>
 7    1  0.2710146E-013  0.7246160E+02  0.7816164E-02  0.1226708E+00
        -11   -1    0    0    0    0  0.00000000000E+00  0.00000000000E+00  0.45593999997E+02  0.45594000000E+02  0.51100000000E-03 0.  1.
         11   -1    0    0    0    0 -0.00000000000E+00 -0.00000000000E+00 -0.45593999997E+02  0.45594000000E+02  0.51100000000E-03 0. -1.
    9900012    2    1    2    0    0 -0.69986053935E+01  0.14995135769E+02 -0.87660460851E+01  0.72461597832E+02  0.70000035873E+02 0.  0.
        -12    1    1    2    0    0  0.69986053935E+01 -0.14995135769E+02  0.87660460851E+01  0.18726402168E+02  0.00000000000E+00 0.  1.
         11    1    3    3    0    0  0.40923857175E+01  0.10344462215E+02 -0.15421433887E+02  0.19015155608E+02  0.51100000000E-03 0. -1.
        -11    1    3    3    0    0 -0.20192868902E+01  0.16311735180E+02 -0.18205224775E+02  0.24527136676E+02  0.51100000000E-03 0.  1.
        -12    1    3    3    0    0 -0.90717042208E+01 -0.11661061627E+02  0.24860612577E+02  0.28919305549E+02  0.00000000000E+00 0.  1.
</event>
<event>
 7    1  0.2710146E-013  0.7246209E+02  0.7816164E-02  0.1226707E+00
        -11   -1    0    0    0    0  0.00000000000E+00  0.00000000000E+00  0.45593999997E+02  0.45594000000E+02  0.51100000000E-03 0.  1.
         11   -1    0    0    0    0 -0.00000000000E+00 -0.00000000000E+00 -0.45593999997E+02  0.45594000000E+02  0.51100000000E-03 0. -1.
    9900012    2    1    2    0    0  0.78386627083E+01  0.75236447450E+01  0.15251555299E+02  0.72462087410E+02  0.70000673636E+02 0.  0.
        -12    1    1    2    0    0 -0.78386627083E+01 -0.75236447450E+01 -0.15251555299E+02  0.18725912590E+02  0.00000000000E+00 0.  1.
         11    1    3    3    0    0  0.14727620047E+02 -0.97797756368E+01 -0.40142407717E+01  0.18129008053E+02  0.51100000000E-03 0. -1.
        -11    1    3    3    0    0  0.24839433912E+01 -0.33296925304E+01 -0.13707361455E+02  0.14323008952E+02  0.51100000000E-03 0.  1.
        -12    1    3    3    0    0 -0.93729007299E+01  0.20633112912E+02  0.32973157526E+02  0.40010070404E+02  0.00000000000E+00 0.  1.
</event>
<event>
 7    1  0.2710146E-013  0.7246164E+02  0.7816164E-02  0.1226708E+00
        -11   -1    0    0    0    0  0.00000000000E+00  0.00000000000E+00  0.45593999997E+02  0.45594000000E+02  0.51100000000E-03 0. -1.
         11   -1    0    0    0    0 -0.00000000000E+00 -0.00000000000E+00 -0.45593999997E+02  0.45594000000E+02  0.51100000000E-03 0.  1.
    9900012    2    1    2    0    0 -0.30802748400E+01 -0.26123049865E+01  0.18285627894E+02  0.72461643764E+02  0.70000095707E+02 0.  0.
        -12    1    1    2    0    0  0.30802748400E+01  0.26123049865E+01 -0.18285627894E+02  0.18726356236E+02  0.00000000000E+00 0.  1.
         11    1    3    3    0    0 -0.39765318493E+01 -0.78941860541E+01  0.55392557320E+01  0.10431410898E+02  0.51100000000E-03 0. -1.
        -11    1    3    3    0    0  0.93037475480E+01 -0.15783611597E+02  0.28876322395E+02  0.34198305643E+02  0.51100000000E-03 0.  1.
        -12    1    3    3    0    0 -0.84074905387E+01  0.21065492665E+02 -0.16129950234E+02  0.27831927222E+02  0.00000000000E+00 0.  1.
</event>
<event>
 7    1  0.2710146E-013  0.7246155E+02  0.7816164E-02  0.1226708E+00
        -11   -1    0    0    0    0  0.00000000000E+00  0.00000000000E+00  0.45593999997E+02  0.45594000000E+02  0.51100000000E-03 0.  1.
         11   -1    0    0    0    0 -0.00000000000E+00 -0.00000000000E+00 -0.45593999997E+02  0.45594000000E+02  0.51100000000E-03 0. -1.
    9900012    2    1    2    0    0 -0.13040160759E+02  0.82431172123E+01 -0.10615334296E+02  0.72461545552E+02  0.69999967768E+02 0.  0.
        -12    1    1    2    0    0  0.13040160759E+02 -0.82431172123E+01  0.10615334296E+02  0.18726454448E+02  0.00000000000E+00 0.  1.
         11    1    3    3    0    0  0.15222398091E+01  0.50372538634E+01 -0.29299724768E+02  0.29768523851E+02  0.51100000000E-03 0. -1.
        -11    1    3    3    0    0  0.85923322026E+01  0.43433140598E+00 -0.45854433633E+01  0.97490054646E+01  0.51100000000E-03 0.  1.
        -12    1    3    3    0    0 -0.23154732771E+02  0.27715319429E+01  0.23269833836E+02  0.32944016236E+02  0.00000000000E+00 0.  1.
</event>
<event>
 7    1  0.2710146E-013  0.7246157E+02  0.7816164E-02  0.1226708E+00
        -11   -1    0    0    0    0  0.00000000000E+00  0.00000000000E+00  0.45593999997E+02  0.45594000000E+02  0.51100000000E-03 0.  1.
         11   -1    0    0    0    0 -0.00000000000E+00 -0.00000000000E+00 -0.45593999997E+02  0.45594000000E+02  0.51100000000E-03 0. -1.
    9900012    2    1    2    0    0  0.15484032062E+02  0.70603865421E+00  0.10508354244E+02  0.72461568188E+02  0.69999997256E+02 0.  0.
        -12    1    1    2    0    0 -0.15484032062E+02 -0.70603865421E+00 -0.10508354244E+02  0.18726431812E+02  0.00000000000E+00 0.  1.
         11    1    3    3    0    0  0.10963927273E+02 -0.15784037985E+02  0.52690268040E+01  0.19927523681E+02  0.51100000000E-03 0. -1.
        -11    1    3    3    0    0  0.16243222096E+02 -0.69521116257E+01  0.16343944452E+02  0.24068623572E+02  0.51100000000E-03 0.  1.
        -12    1    3    3    0    0 -0.11723117307E+02  0.23442188265E+02 -0.11104617012E+02  0.28465420935E+02  0.00000000000E+00 0.  1.
</event>
<event>
 7    1  0.2710146E-013  0.7246160E+02  0.7816164E-02  0.1226708E+00
        -11   -1    0    0    0    0  0.00000000000E+00  0.00000000000E+00  0.45593999997E+02  0.45594000000E+02  0.51100000000E-03 0.  1.
         11   -1    0    0    0    0 -0.00000000000E+00 -0.00000000000E+00 -0.45593999997E+02  0.45594000000E+02  0.51100000000E-03 0. -1.
    9900012    2    1    2    0    0 -0.66852078073E+01  0.16386058171E+02  0.61223617817E+01  0.72461595657E+02  0.70000033040E+02 0.  0.
        -12    1    1    2    0    0  0.66852078073E+01 -0.16386058171E+02 -0.61223617817E+01  0.18726404343E+02  0.00000000000E+00 0.  1.
         11    1    3    3    0    0 -0.23462349452E+00  0.31734675290E+02 -0.22397815408E+02  0.38843362358E+02  0.51100000000E-03 0. -1.
        -11    1    3    3    0    0 -0.22577491433E+01 -0.13138112009E+01  0.18858247565E+01  0.32217799954E+01  0.51100000000E-03 0.  1.
        -12    1    3    3    0    0 -0.41928351694E+01 -0.14034805917E+02  0.26634352434E+02  0.30396453304E+02  0.00000000000E+00 0.  1.
</event>
<event>
 7    1  0.2710146E-013  0.7246159E+02  0.7816164E-02  0.1226708E+00
        -11   -1    0    0    0    0  0.00000000000E+00  0.00000000000E+00  0.45593999997E+02  0.45594000000E+02  0.51100000000E-03 0.  1.
         11   -1    0    0    0    0 -0.00000000000E+00 -0.00000000000E+00 -0.45593999997E+02  0.45594000000E+02  0.51100000000E-03 0. -1.
    9900012    2    1    2    0    0 -0.66019493800E+01  0.89857616906E+01 -0.15044891480E+02  0.72461590616E+02  0.70000026472E+02 0.  0.
        -12    1    1    2    0    0  0.66019493800E+01 -0.89857616906E+01  0.15044891480E+02  0.18726409384E+02  0.00000000000E+00 0.  1.
         11    1    3    3    0    0  0.51433552931E+01  0.63378843506E+01  0.17448960031E+01  0.83467085749E+01  0.51100000000E-03 0. -1.
        -11    1    3    3    0    0  0.65419967162E+01  0.27975635518E+02 -0.15956545241E+02  0.32864041747E+02  0.51100000000E-03 0.  1.
        -12    1    3    3    0    0 -0.18287301389E+02 -0.25327758178E+02 -0.83324224228E+00  0.31250840294E+02  0.00000000000E+00 0.  1.
</event>
<event>
 7    1  0.2710146E-013  0.7246158E+02  0.7816164E-02  0.1226708E+00
        -11   -1    0    0    0    0  0.00000000000E+00  0.00000000000E+00  0.45593999997E+02  0.45594000000E+02  0.51100000000E-03 0. -1.
         11   -1    0    0    0    0 -0.00000000000E+00 -0.00000000000E+00 -0.45593999997E+02  0.45594000000E+02  0.51100000000E-03 0.  1.
    9900012    2    1    2    0    0  0.17791658771E+02  0.39753111895E+01  0.42816483870E+01  0.72461581929E+02  0.70000015156E+02 0.  0.
        -12    1    1    2    0    0 -0.17791658771E+02 -0.39753111895E+01 -0.42816483870E+01  0.18726418071E+02  0.00000000000E+00 0.  1.
         11    1    3    3    0    0  0.22190974087E+02  0.10817935444E+02 -0.20300907802E+01  0.24770715109E+02  0.51100000000E-03 0. -1.
        -11    1    3    3    0    0 -0.87786615672E+01 -0.24071847618E+02 -0.56834265725E+01  0.26245382156E+02  0.51100000000E-03 0.  1.
         12    1    3    3    0    0  0.43793462510E+01  0.17229223364E+02  0.11995165740E+02  0.21445484663E+02  0.00000000000E+00 0. -1.
</event>
<event>
 7    1  0.2710146E-013  0.7246170E+02  0.7816164E-02  0.1226708E+00
        -11   -1    0    0    0    0  0.00000000000E+00  0.00000000000E+00  0.45593999997E+02  0.45594000000E+02  0.51100000000E-03 0.  1.
         11   -1    0    0    0    0 -0.00000000000E+00 -0.00000000000E+00 -0.45593999997E+02  0.45594000000E+02  0.51100000000E-03 0. -1.
    9900012    2    1    2    0    0 -0.15984011084E+02 -0.97484838551E+01 -0.39078911651E+00  0.72461701275E+02  0.70000170626E+02 0.  0.
        -12    1    1    2    0    0  0.15984011084E+02  0.97484838551E+01  0.39078911651E+00  0.18726298725E+02  0.00000000000E+00 0.  1.
         11    1    3    3    0    0  0.82349549685E+01 -0.20504943707E+02 -0.16725751894E+02  0.27713137254E+02  0.51100000000E-03 0. -1.
        -11    1    3    3    0    0 -0.38164106859E+00 -0.41585356612E+01 -0.70381885433E+01  0.81838357133E+01  0.51100000000E-03 0.  1.
        -12    1    3    3    0    0 -0.23837324984E+02  0.14914995513E+02  0.23373151321E+02  0.36564728308E+02  0.00000000000E+00 0.  1.
</event>
<event>
 7    1  0.2710146E-013  0.7246180E+02  0.7816164E-02  0.1226707E+00
        -11   -1    0    0    0    0  0.00000000000E+00  0.00000000000E+00  0.45593999997E+02  0.45594000000E+02  0.51100000000E-03 0.  1.
         11   -1    0    0    0    0 -0.00000000000E+00 -0.00000000000E+00 -0.45593999997E+02  0.45594000000E+02  0.51100000000E-03 0. -1.
    9900012    2    1    2    0    0 -0.40096683528E+01 -0.12656771124E+02 -0.13206034353E+02  0.72461798064E+02  0.70000296712E+02 0.  0.
        -12    1    1    2    0    0  0.40096683528E+01  0.12656771124E+02  0.13206034353E+02  0.18726201936E+02  0.00000000000E+00 0.  1.
         11    1    3    3    0    0  0.14083702933E+02 -0.22128616815E+01 -0.17795618501E+01  0.14367125174E+02  0.51100000000E-03 0. -1.
        -11    1    3    3    0    0 -0.68042274755E+01  0.51297953592E+01 -0.30102061563E+02  0.31284923247E+02  0.51100000000E-03 0.  1.
        -12    1    3    3    0    0 -0.11289143811E+02 -0.15573704802E+02  0.18675589059E+02  0.26809749643E+02  0.00000000000E+00 0.  1.
</event>
<event>
 7    1  0.2710146E-013  0.7246154E+02  0.7816164E-02  0.1226708E+00
        -11   -1    0    0    0    0  0.00000000000E+00  0.00000000000E+00  0.45593999997E+02  0.45594000000E+02  0.51100000000E-03 0.  1.
         11   -1    0    0    0    0 -0.00000000000E+00 -0.00000000000E+00 -0.45593999997E+02  0.45594000000E+02  0.51100000000E-03 0. -1.
    9900012    2    1    2    0    0 -0.37119842681E+01 -0.15214639988E+02 -0.10267236188E+02  0.72461541816E+02  0.69999962902E+02 0.  0.
        -12    1    1    2    0    0  0.37119842681E+01  0.15214639988E+02  0.10267236188E+02  0.18726458184E+02  0.00000000000E+00 0.  1.
         11    1    3    3    0    0  0.32418181652E+01 -0.17313350583E+02 -0.20282866606E+02  0.26863658936E+02  0.51100000000E-03 0. -1.
        -11    1    3    3    0    0  0.52811778540E+01  0.11076524398E+02 -0.13097644743E+02  0.17947939445E+02  0.51100000000E-03 0.  1.
        -12    1    3    3    0    0 -0.12234980287E+02 -0.89778138027E+01  0.23113275160E+02  0.27649943435E+02  0.00000000000E+00 0.  1.
</event>
<event>
 7    1  0.2710146E-013  0.7246157E+02  0.7816164E-02  0.1226708E+00
        -11   -1    0    0    0    0  0.00000000000E+00  0.00000000000E+00  0.45593999997E+02  0.45594000000E+02  0.51100000000E-03 0.  1.
         11   -1    0    0    0    0 -0.00000000000E+00 -0.00000000000E+00 -0.45593999997E+02  0.45594000000E+02  0.51100000000E-03 0. -1.
    9900012    2    1    2    0    0 -0.67455734337E+01 -0.84674851803E+01 -0.15279996275E+02  0.72461565412E+02  0.69999993639E+02 0.  0.
        -12    1    1    2    0    0  0.67455734337E+01  0.84674851803E+01  0.15279996275E+02  0.18726434588E+02  0.00000000000E+00 0.  1.
         11    1    3    3    0    0  0.30269665131E+00 -0.10741363711E+02  0.10864139454E+01  0.10800408101E+02  0.51100000000E-03 0.  1.
        -11    1    3    3    0    0  0.17305312182E+02 -0.12362148113E+02 -0.24171303127E+02  0.32195472210E+02  0.51100000000E-03 0. -1.
         12    1    3    3    0    0 -0.24353582267E+02  0.14636026644E+02  0.78048929067E+01  0.29465685100E+02  0.00000000000E+00 0. -1.
</event>
<event>
 7    1  0.2710146E-013  0.7246160E+02  0.7816164E-02  0.1226708E+00
        -11   -1    0    0    0    0  0.00000000000E+00  0.00000000000E+00  0.45593999997E+02  0.45594000000E+02  0.51100000000E-03 0. -1.
         11   -1    0    0    0    0 -0.00000000000E+00 -0.00000000000E+00 -0.45593999997E+02  0.45594000000E+02  0.51100000000E-03 0.  1.
    9900012    2    1    2    0    0  0.13796860516E+01  0.15638536483E+02  0.10208365872E+02  0.72461599099E+02  0.70000037524E+02 0.  0.
        -12    1    1    2    0    0 -0.13796860516E+01 -0.15638536483E+02 -0.10208365872E+02  0.18726400901E+02  0.00000000000E+00 0.  1.
         11    1    3    3    0    0  0.22339922231E+02  0.54505385912E+01  0.19490477021E+02  0.30143974373E+02  0.51100000000E-03 0. -1.
        -11    1    3    3    0    0 -0.33307644350E+01  0.85927920449E+01  0.11682169193E+02  0.14879621775E+02  0.51100000000E-03 0.  1.
        -12    1    3    3    0    0 -0.17629471745E+02  0.15952058466E+01 -0.20964280342E+02  0.27438002952E+02  0.00000000000E+00 0.  1.
</event>
<event>
 7    1  0.2710146E-013  0.7246143E+02  0.7816164E-02  0.1226708E+00
        -11   -1    0    0    0    0  0.00000000000E+00  0.00000000000E+00  0.45593999997E+02  0.45594000000E+02  0.51100000000E-03 0. -1.
         11   -1    0    0    0    0 -0.00000000000E+00 -0.00000000000E+00 -0.45593999997E+02  0.45594000000E+02  0.51100000000E-03 0.  1.
    9900012    2    1    2    0    0 -0.11226768927E+02 -0.10443763697E+02  0.10750430677E+02  0.72461433298E+02  0.69999821537E+02 0.  0.
        -12    1    1    2    0    0  0.11226768927E+02  0.10443763697E+02 -0.10750430677E+02  0.18726566702E+02  0.00000000000E+00 0.  1.
         11    1    3    3    0    0  0.11498386635E+02  0.11392251176E+02 -0.27784701905E+01  0.16423038054E+02  0.51100000000E-03 0. -1.
        -11    1    3    3    0    0  0.11463015036E+02 -0.13887544965E+02 -0.10345351828E+01  0.18037041947E+02  0.51100000000E-03 0.  1.
        -12    1    3    3    0    0 -0.34188170599E+02 -0.79484699079E+01  0.14563436050E+02  0.38001353297E+02  0.00000000000E+00 0.  1.
</event>
<event>
 7    1  0.2710146E-013  0.7246158E+02  0.7816164E-02  0.1226708E+00
        -11   -1    0    0    0    0  0.00000000000E+00  0.00000000000E+00  0.45593999997E+02  0.45594000000E+02  0.51100000000E-03 0.  1.
         11   -1    0    0    0    0 -0.00000000000E+00 -0.00000000000E+00 -0.45593999997E+02  0.45594000000E+02  0.51100000000E-03 0. -1.
    9900012    2    1    2    0    0 -0.16701525241E+02  0.81132957338E+01 -0.24314981749E+01  0.72461582926E+02  0.70000016456E+02 0.  0.
        -12    1    1    2    0    0  0.16701525241E+02 -0.81132957338E+01  0.24314981749E+01  0.18726417074E+02  0.00000000000E+00 0.  1.
         11    1    3    3    0    0 -0.22274743427E+02 -0.24999076573E+02 -0.16804125814E+01  0.33525241400E+02  0.51100000000E-03 0. -1.
        -11    1    3    3    0    0 -0.24754354620E+01 -0.18094090322E+01  0.32124195231E+00  0.30830080158E+01  0.51100000000E-03 0.  1.
        -12    1    3    3    0    0  0.80486536476E+01  0.34921781339E+02 -0.10723275458E+01  0.35853333510E+02  0.00000000000E+00 0.  1.
</event>
<event>
 7    1  0.2710146E-013  0.7246144E+02  0.7816164E-02  0.1226708E+00
        -11   -1    0    0    0    0  0.00000000000E+00  0.00000000000E+00  0.45593999997E+02  0.45594000000E+02  0.51100000000E-03 0. -1.
         11   -1    0    0    0    0 -0.00000000000E+00 -0.00000000000E+00 -0.45593999997E+02  0.45594000000E+02  0.51100000000E-03 0.  1.
    9900012    2    1    2    0    0 -0.58817434626E+00 -0.16765989295E+02  0.83210365144E+01  0.72461441460E+02  0.69999832169E+02 0.  0.
        -12    1    1    2    0    0  0.58817434626E+00  0.16765989295E+02 -0.83210365144E+01  0.18726558540E+02  0.00000000000E+00 0.  1.
         11    1    3    3    0    0  0.93629394978E+01 -0.17547008122E+02  0.16513931961E+02  0.25850958960E+02  0.51100000000E-03 0. -1.
        -11    1    3    3    0    0  0.90625659770E+01 -0.48639992716E+01  0.13659755983E+02  0.17099050406E+02  0.51100000000E-03 0.  1.
        -12    1    3    3    0    0 -0.19013679821E+02  0.56450180988E+01 -0.21852651430E+02  0.29511432093E+02  0.00000000000E+00 0.  1.
</event>
<event>
 7    1  0.2710146E-013  0.7246159E+02  0.7816164E-02  0.1226708E+00
        -11   -1    0    0    0    0  0.00000000000E+00  0.00000000000E+00  0.45593999997E+02  0.45594000000E+02  0.51100000000E-03 0.  1.
         11   -1    0    0    0    0 -0.00000000000E+00 -0.00000000000E+00 -0.45593999997E+02  0.45594000000E+02  0.51100000000E-03 0. -1.
    9900012    2    1    2    0    0  0.16674574607E+01 -0.83213345118E+01 -0.16692917911E+02  0.72461587347E+02  0.70000022215E+02 0.  0.
        -12    1    1    2    0    0 -0.16674574607E+01  0.83213345118E+01  0.16692917911E+02  0.18726412653E+02  0.00000000000E+00 0.  1.
         11    1    3    3    0    0 -0.43916627306E+00 -0.80647436588E+01  0.15148528913E+02  0.17167145534E+02  0.51100000000E-03 0. -1.
        -11    1    3    3    0    0  0.17048726123E+02  0.74781179903E+01  0.73318371413E+00  0.18631126368E+02  0.51100000000E-03 0.  1.
         12    1    3    3    0    0 -0.14942102390E+02 -0.77347088433E+01 -0.32574630539E+02  0.36663315445E+02  0.00000000000E+00 0. -1.
</event>
<event>
 7    1  0.2710146E-013  0.7246149E+02  0.7816164E-02  0.1226708E+00
        -11   -1    0    0    0    0  0.00000000000E+00  0.00000000000E+00  0.45593999997E+02  0.45594000000E+02  0.51100000000E-03 0.  1.
         11   -1    0    0    0    0 -0.00000000000E+00 -0.00000000000E+00 -0.45593999997E+02  0.45594000000E+02  0.51100000000E-03 0. -1.
    9900012    2    1    2    0    0 -0.15412677513E+02 -0.19518966478E+01 -0.10455696405E+02  0.72461491624E+02  0.69999897517E+02 0.  0.
        -12    1    1    2    0    0  0.15412677513E+02  0.19518966478E+01  0.10455696405E+02  0.18726508376E+02  0.00000000000E+00 0.  1.
         11    1    3    3    0    0 -0.18227089924E+01 -0.26485792168E+01 -0.16035143820E+01  0.35928399036E+01  0.51100000000E-03 0. -1.
        -11    1    3    3    0    0 -0.44266481588E+01 -0.30505395901E+02  0.85455751135E+01  0.31987517054E+02  0.51100000000E-03 0.  1.
         12    1    3    3    0    0 -0.91633203618E+01  0.31202078470E+02 -0.17397757136E+02  0.36881134666E+02  0.00000000000E+00 0. -1.
</event>
<event>
 7    1  0.2710146E-013  0.7246154E+02  0.7816164E-02  0.1226708E+00
        -11   -1    0    0    0    0  0.00000000000E+00  0.00000000000E+00  0.45593999997E+02  0.45594000000E+02  0.51100000000E-03 0.  1.
         11   -1    0    0    0    0 -0.00000000000E+00 -0.00000000000E+00 -0.45593999997E+02  0.45594000000E+02  0.51100000000E-03 0. -1.
    9900012    2    1    2    0    0 -0.15897756331E+01  0.13884425129E+02 -0.12464976153E+02  0.72461540692E+02  0.69999961437E+02 0.  0.
        -12    1    1    2    0    0  0.15897756331E+01 -0.13884425129E+02  0.12464976153E+02  0.18726459308E+02  0.00000000000E+00 0.  1.
         11    1    3    3    0    0  0.23922833630E+02  0.13242338673E+01 -0.19292682008E+02  0.30761390468E+02  0.51100000000E-03 0. -1.
        -11    1    3    3    0    0 -0.67290949187E+00 -0.71236524617E+01  0.69949457126E+01  0.10006422805E+02  0.51100000000E-03 0.  1.
         12    1    3    3    0    0 -0.24839699771E+02  0.19683843723E+02 -0.16723985789E+00  0.31693727418E+02  0.00000000000E+00 0. -1.
</event>
<event>
 7    1  0.2710146E-013  0.7246162E+02  0.7816164E-02  0.1226708E+00
        -11   -1    0    0    0    0  0.00000000000E+00  0.00000000000E+00  0.45593999997E+02  0.45594000000E+02  0.51100000000E-03 0.  1.
         11   -1    0    0    0    0 -0.00000000000E+00 -0.00000000000E+00 -0.45593999997E+02  0.45594000000E+02  0.51100000000E-03 0. -1.
    9900012    2    1    2    0    0 -0.12575037590E+02 -0.66276656354E+01  0.12190964471E+02  0.72461624566E+02  0.70000070699E+02 0.  0.
        -12    1    1    2    0    0  0.12575037590E+02  0.66276656354E+01 -0.12190964471E+02  0.18726375434E+02  0.00000000000E+00 0.  1.
         11    1    3    3    0    0 -0.10212485875E+02 -0.17471385091E+02 -0.15771405432E+02  0.25656995036E+02  0.51100000000E-03 0. -1.
        -11    1    3    3    0    0 -0.71837390000E+01  0.18942506025E+02  0.34603610372E+01  0.20552341455E+02  0.51100000000E-03 0.  1.
         12    1    3    3    0    0  0.48211872846E+01 -0.80987865691E+01  0.24502008865E+02  0.26252288075E+02  0.00000000000E+00 0. -1.
</event>
<event>
 7    1  0.2710146E-013  0.7246162E+02  0.7816164E-02  0.1226708E+00
        -11   -1    0    0    0    0  0.00000000000E+00  0.00000000000E+00  0.45593999997E+02  0.45594000000E+02  0.51100000000E-03 0. -1.
         11   -1    0    0    0    0 -0.00000000000E+00 -0.00000000000E+00 -0.45593999997E+02  0.45594000000E+02  0.51100000000E-03 0.  1.
    9900012    2    1    2    0    0 -0.15063585084E+02 -0.52931086472E+01 -0.97851253539E+01  0.72461620934E+02  0.70000065968E+02 0.  0.
        -12    1    1    2    0    0  0.15063585084E+02  0.52931086472E+01  0.97851253539E+01  0.18726379066E+02  0.00000000000E+00 0.  1.
         11    1    3    3    0    0 -0.47795445854E+01  0.63571179249E+01  0.12484551153E+02  0.14802736656E+02  0.51100000000E-03 0. -1.
        -11    1    3    3    0    0 -0.25866832887E+02 -0.14643420730E+02 -0.27954005319E+02  0.40803789382E+02  0.51100000000E-03 0.  1.
         12    1    3    3    0    0  0.15582792389E+02  0.29931941583E+01  0.56843288114E+01  0.16855094896E+02  0.00000000000E+00 0. -1.
</event>
<event>
 7    1  0.2710146E-013  0.7246153E+02  0.7816164E-02  0.1226708E+00
        -11   -1    0    0    0    0  0.00000000000E+00  0.00000000000E+00  0.45593999997E+02  0.45594000000E+02  0.51100000000E-03 0.  1.
         11   -1    0    0    0    0 -0.00000000000E+00 -0.00000000000E+00 -0.45593999997E+02  0.45594000000E+02  0.51100000000E-03 0. -1.
    9900012    2    1    2    0    0 -0.60266446575E+01  0.13320974388E+02 -0.11700927881E+02  0.72461534296E+02  0.69999953106E+02 0.  0.
        -12    1    1    2    0    0  0.60266446575E+01 -0.13320974388E+02  0.11700927881E+02  0.18726465704E+02  0.00000000000E+00 0.  1.
         11    1    3    3    0    0  0.20776681305E+01 -0.64718978107E+01  0.19273246621E+01  0.70651784653E+01  0.51100000000E-03 0. -1.
        -11    1    3    3    0    0  0.11252725291E+02 -0.18035269675E+02 -0.70544767333E+01  0.22397777143E+02  0.51100000000E-03 0.  1.
         12    1    3    3    0    0 -0.19357038079E+02  0.37828141873E+02 -0.65737758102E+01  0.42998578688E+02  0.00000000000E+00 0. -1.
</event>
<event>
 7    1  0.2710146E-013  0.7246156E+02  0.7816164E-02  0.1226708E+00
        -11   -1    0    0    0    0  0.00000000000E+00  0.00000000000E+00  0.45593999997E+02  0.45594000000E+02  0.51100000000E-03 0. -1.
         11   -1    0    0    0    0 -0.00000000000E+00 -0.00000000000E+00 -0.45593999997E+02  0.45594000000E+02  0.51100000000E-03 0.  1.
    9900012    2    1    2    0    0 -0.54713416288E+01 -0.47044118196E+01  0.17280402220E+02  0.72461564923E+02  0.69999993003E+02 0.  0.
        -12    1    1    2    0    0  0.54713416288E+01  0.47044118196E+01 -0.17280402220E+02  0.18726435077E+02  0.00000000000E+00 0.  1.
         11    1    3    3    0    0  0.70246841861E+00  0.22217880102E+02  0.20728999213E+02  0.30394392027E+02  0.51100000000E-03 0. -1.
        -11    1    3    3    0    0  0.23079418885E+01  0.66566652015E+01  0.11188393706E+01  0.71336939353E+01  0.51100000000E-03 0.  1.
        -12    1    3    3    0    0 -0.84817519359E+01 -0.33578957123E+02 -0.45674363631E+01  0.34933478960E+02  0.00000000000E+00 0.  1.
</event>
<event>
 7    1  0.2710146E-013  0.7246159E+02  0.7816164E-02  0.1226708E+00
        -11   -1    0    0    0    0  0.00000000000E+00  0.00000000000E+00  0.45593999997E+02  0.45594000000E+02  0.51100000000E-03 0.  1.
         11   -1    0    0    0    0 -0.00000000000E+00 -0.00000000000E+00 -0.45593999997E+02  0.45594000000E+02  0.51100000000E-03 0. -1.
    9900012    2    1    2    0    0 -0.67297232736E+00  0.67465803549E+01 -0.17455923776E+02  0.72461587821E+02  0.70000022831E+02 0.  0.
        -12    1    1    2    0    0  0.67297232736E+00 -0.67465803549E+01  0.17455923776E+02  0.18726412179E+02  0.00000000000E+00 0.  1.
         11    1    3    3    0    0 -0.12228664162E+02 -0.16411100794E+01 -0.81301630388E+00  0.12365050152E+02  0.51100000000E-03 0. -1.
        -11    1    3    3    0    0  0.71343918735E+00 -0.13951970097E+02  0.14586961297E+02  0.20197670787E+02  0.51100000000E-03 0.  1.
        -12    1    3    3    0    0  0.10842252648E+02  0.22339660531E+02 -0.31229868770E+02  0.39898866882E+02  0.00000000000E+00 0.  1.
</event>
<event>
 7    1  0.2710146E-013  0.7246159E+02  0.7816164E-02  0.1226708E+00
        -11   -1    0    0    0    0  0.00000000000E+00  0.00000000000E+00  0.45593999997E+02  0.45594000000E+02  0.51100000000E-03 0.  1.
         11   -1    0    0    0    0 -0.00000000000E+00 -0.00000000000E+00 -0.45593999997E+02  0.45594000000E+02  0.51100000000E-03 0. -1.
    9900012    2    1    2    0    0 -0.70642959254E+01  0.46891145047E+01 -0.16696899293E+02  0.72461587697E+02  0.70000022670E+02 0.  0.
        -12    1    1    2    0    0  0.70642959254E+01 -0.46891145047E+01  0.16696899293E+02  0.18726412303E+02  0.00000000000E+00 0.  1.
         11    1    3    3    0    0  0.91719541521E+01 -0.22876271967E+02  0.10671691495E+02  0.26857653689E+02  0.51100000000E-03 0.  1.
        -11    1    3    3    0    0 -0.16364852710E+02  0.15290894946E+02 -0.10484948410E+02  0.24729618192E+02  0.51100000000E-03 0. -1.
        -12    1    3    3    0    0  0.12860263282E+00  0.12274491526E+02 -0.16883642377E+02  0.20874315816E+02  0.00000000000E+00 0.  1.
</event>
<event>
 7    1  0.2710146E-013  0.7246152E+02  0.7816164E-02  0.1226708E+00
        -11   -1    0    0    0    0  0.00000000000E+00  0.00000000000E+00  0.45593999997E+02  0.45594000000E+02  0.51100000000E-03 0. -1.
         11   -1    0    0    0    0 -0.00000000000E+00 -0.00000000000E+00 -0.45593999997E+02  0.45594000000E+02  0.51100000000E-03 0.  1.
    9900012    2    1    2    0    0  0.50708492020E+01  0.72980758781E+01  0.16483492085E+02  0.72461523170E+02  0.69999938612E+02 0.  0.
        -12    1    1    2    0    0 -0.50708492020E+01 -0.72980758781E+01 -0.16483492085E+02  0.18726476830E+02  0.00000000000E+00 0.  1.
         11    1    3    3    0    0  0.25696617734E+02  0.58158496995E+01  0.11650143418E+02  0.28807396838E+02  0.51100000000E-03 0. -1.
        -11    1    3    3    0    0  0.53994502849E+01 -0.65173829772E+01 -0.96328362125E+01  0.12822709464E+02  0.51100000000E-03 0.  1.
        -12    1    3    3    0    0 -0.26025218817E+02  0.79996091559E+01  0.14466184879E+02  0.30831416868E+02  0.00000000000E+00 0.  1.
</event>
<event>
 7    1  0.2710146E-013  0.7246158E+02  0.7816164E-02  0.1226708E+00
        -11   -1    0    0    0    0  0.00000000000E+00  0.00000000000E+00  0.45593999997E+02  0.45594000000E+02  0.51100000000E-03 0. -1.
         11   -1    0    0    0    0 -0.00000000000E+00 -0.00000000000E+00 -0.45593999997E+02  0.45594000000E+02  0.51100000000E-03 0.  1.
    9900012    2    1    2    0    0 -0.79473395824E+01  0.16814500696E+02  0.21888495938E+01  0.72461582760E+02  0.70000016239E+02 0.  0.
        -12    1    1    2    0    0  0.79473395824E+01 -0.16814500696E+02 -0.21888495938E+01  0.18726417240E+02  0.00000000000E+00 0.  1.
         11    1    3    3    0    0 -0.22302289601E+02  0.27479551593E+01 -0.34390061095E+01  0.22732578874E+02  0.51100000000E-03 0. -1.
        -11    1    3    3    0    0 -0.52880802926E+01  0.10421561502E+02 -0.16305350791E+02  0.20060837520E+02  0.51100000000E-03 0.  1.
        -12    1    3    3    0    0  0.19643030311E+02  0.36449840352E+01  0.21933206494E+02  0.29668166366E+02  0.00000000000E+00 0.  1.
</event>
<event>
 7    1  0.2710146E-013  0.7246156E+02  0.7816164E-02  0.1226708E+00
        -11   -1    0    0    0    0  0.00000000000E+00  0.00000000000E+00  0.45593999997E+02  0.45594000000E+02  0.51100000000E-03 0.  1.
         11   -1    0    0    0    0 -0.00000000000E+00 -0.00000000000E+00 -0.45593999997E+02  0.45594000000E+02  0.51100000000E-03 0. -1.
    9900012    2    1    2    0    0  0.52065997730E+01  0.10442119800E+02 -0.14646947771E+02  0.72461558103E+02  0.69999984119E+02 0.  0.
        -12    1    1    2    0    0 -0.52065997730E+01 -0.10442119800E+02  0.14646947771E+02  0.18726441897E+02  0.00000000000E+00 0.  1.
         11    1    3    3    0    0 -0.14232364309E+02 -0.28395761831E+01 -0.26988981485E+02  0.30643572060E+02  0.51100000000E-03 0. -1.
        -11    1    3    3    0    0 -0.58677834244E+01  0.91918270544E+01  0.11952803750E+02  0.16179928450E+02  0.51100000000E-03 0.  1.
        -12    1    3    3    0    0  0.25306747506E+02  0.40898689285E+01  0.38922996424E+00  0.25638057593E+02  0.00000000000E+00 0.  1.
</event>
<event>
 7    1  0.2710146E-013  0.7246155E+02  0.7816164E-02  0.1226708E+00
        -11   -1    0    0    0    0  0.00000000000E+00  0.00000000000E+00  0.45593999997E+02  0.45594000000E+02  0.51100000000E-03 0.  1.
         11   -1    0    0    0    0 -0.00000000000E+00 -0.00000000000E+00 -0.45593999997E+02  0.45594000000E+02  0.51100000000E-03 0. -1.
    9900012    2    1    2    0    0  0.13816787065E+02 -0.11813449262E+02 -0.44965096616E+01  0.72461553797E+02  0.69999978509E+02 0.  0.
        -12    1    1    2    0    0 -0.13816787065E+02  0.11813449262E+02  0.44965096616E+01  0.18726446203E+02  0.00000000000E+00 0.  1.
         11    1    3    3    0    0  0.10819670388E+01 -0.82332273269E+00 -0.16338893393E+02  0.16395363692E+02  0.51100000000E-03 0. -1.
        -11    1    3    3    0    0 -0.41431560874E+01  0.19325290206E+02  0.73162173238E+01  0.21075094783E+02  0.51100000000E-03 0.  1.
         12    1    3    3    0    0  0.16877976113E+02 -0.30315416735E+02  0.45261664081E+01  0.34991095323E+02  0.00000000000E+00 0. -1.
</event>
<event>
 7    1  0.2710146E-013  0.7246158E+02  0.7816164E-02  0.1226708E+00
        -11   -1    0    0    0    0  0.00000000000E+00  0.00000000000E+00  0.45593999997E+02  0.45594000000E+02  0.51100000000E-03 0.  1.
         11   -1    0    0    0    0 -0.00000000000E+00 -0.00000000000E+00 -0.45593999997E+02  0.45594000000E+02  0.51100000000E-03 0. -1.
    9900012    2    1    2    0    0  0.11443355385E+02 -0.11480560582E+02 -0.93768471409E+01  0.72461577062E+02  0.70000008816E+02 0.  0.
        -12    1    1    2    0    0 -0.11443355385E+02  0.11480560582E+02  0.93768471409E+01  0.18726422938E+02  0.00000000000E+00 0.  1.
         11    1    3    3    0    0 -0.14499219842E+02  0.13026128897E+02 -0.14805797933E+02  0.24476908766E+02  0.51100000000E-03 0. -1.
        -11    1    3    3    0    0 -0.25512482806E+01  0.54241590201E+01  0.26868093866E+01  0.65688137289E+01  0.51100000000E-03 0.  1.
         12    1    3    3    0    0  0.28493823508E+02 -0.29930848499E+02  0.27421414057E+01  0.41415854566E+02  0.00000000000E+00 0. -1.
</event>
<event>
 7    1  0.2710146E-013  0.7246159E+02  0.7816164E-02  0.1226708E+00
        -11   -1    0    0    0    0  0.00000000000E+00  0.00000000000E+00  0.45593999997E+02  0.45594000000E+02  0.51100000000E-03 0.  1.
         11   -1    0    0    0    0 -0.00000000000E+00 -0.00000000000E+00 -0.45593999997E+02  0.45594000000E+02  0.51100000000E-03 0. -1.
    9900012    2    1    2    0    0  0.97074407724E+00 -0.56459738719E+01 -0.17828607629E+02  0.72461585100E+02  0.70000019287E+02 0.  0.
        -12    1    1    2    0    0 -0.97074407724E+00  0.56459738719E+01  0.17828607629E+02  0.18726414900E+02  0.00000000000E+00 0.  1.
         11    1    3    3    0    0 -0.14260079027E+02 -0.99010171940E+01  0.36769789726E+01  0.17745426734E+02  0.51100000000E-03 0. -1.
        -11    1    3    3    0    0  0.49185137350E+01  0.13491064396E+02  0.11839767092E+02  0.18611305192E+02  0.51100000000E-03 0.  1.
         12    1    3    3    0    0  0.10312309370E+02 -0.92360210739E+01 -0.33345353693E+02  0.36104853174E+02  0.00000000000E+00 0. -1.
</event>
<event>
 7    1  0.2710146E-013  0.7246156E+02  0.7816164E-02  0.1226708E+00
        -11   -1    0    0    0    0  0.00000000000E+00  0.00000000000E+00  0.45593999997E+02  0.45594000000E+02  0.51100000000E-03 0.  1.
         11   -1    0    0    0    0 -0.00000000000E+00 -0.00000000000E+00 -0.45593999997E+02  0.45594000000E+02  0.51100000000E-03 0. -1.
    9900012    2    1    2    0    0 -0.16251105726E+01 -0.15109797608E+02 -0.10942243508E+02  0.72461557169E+02  0.69999982902E+02 0.  0.
        -12    1    1    2    0    0  0.16251105726E+01  0.15109797608E+02  0.10942243508E+02  0.18726442831E+02  0.00000000000E+00 0.  1.
         11    1    3    3    0    0 -0.22280842007E+01 -0.19456125211E+02 -0.36216238240E+01  0.19915354047E+02  0.51100000000E-03 0. -1.
        -11    1    3    3    0    0 -0.12198225598E+02  0.13249149124E+02  0.16268542516E+02  0.24269366207E+02  0.51100000000E-03 0.  1.
         12    1    3    3    0    0  0.12801199226E+02 -0.89028215207E+01 -0.23589162199E+02  0.28276836915E+02  0.00000000000E+00 0. -1.
</event>
<event>
 7    1  0.2710146E-013  0.7246165E+02  0.7816164E-02  0.1226708E+00
        -11   -1    0    0    0    0  0.00000000000E+00  0.00000000000E+00  0.45593999997E+02  0.45594000000E+02  0.51100000000E-03 0. -1.
         11   -1    0    0    0    0 -0.00000000000E+00 -0.00000000000E+00 -0.45593999997E+02  0.45594000000E+02  0.51100000000E-03 0.  1.
    9900012    2    1    2    0    0  0.14119113061E+01 -0.53852454524E+00  0.18665283631E+02  0.72461646505E+02  0.70000099278E+02 0.  0.
        -12    1    1    2    0    0 -0.14119113061E+01  0.53852454524E+00 -0.18665283631E+02  0.18726353495E+02  0.00000000000E+00 0.  1.
         11    1    3    3    0    0  0.12541972840E+02 -0.11454622311E+02  0.13367180669E+02  0.21614600952E+02  0.51100000000E-03 0. -1.
        -11    1    3    3    0    0  0.89581084367E+01  0.95065811967E+01 -0.16583075189E+02  0.21109741253E+02  0.51100000000E-03 0.  1.
         12    1    3    3    0    0 -0.20088169971E+02  0.14095165693E+01  0.21881178150E+02  0.29737304299E+02  0.00000000000E+00 0. -1.
</event>
<event>
 7    1  0.2710146E-013  0.7246155E+02  0.7816164E-02  0.1226708E+00
        -11   -1    0    0    0    0  0.00000000000E+00  0.00000000000E+00  0.45593999997E+02  0.45594000000E+02  0.51100000000E-03 0. -1.
         11   -1    0    0    0    0 -0.00000000000E+00 -0.00000000000E+00 -0.45593999997E+02  0.45594000000E+02  0.51100000000E-03 0.  1.
    9900012    2    1    2    0    0  0.14874383714E+02  0.68231760545E+01  0.91036657345E+01  0.72461554738E+02  0.69999979735E+02 0.  0.
        -12    1    1    2    0    0 -0.14874383714E+02 -0.68231760545E+01 -0.91036657345E+01  0.18726445262E+02  0.00000000000E+00 0.  1.
         11    1    3    3    0    0 -0.91142849645E+01 -0.56411661173E+01  0.13481563892E+02  0.17223400095E+02  0.51100000000E-03 0. -1.
        -11    1    3    3    0    0  0.37638625740E+01 -0.86207445371E+01 -0.20003867298E+02  0.22105171454E+02  0.51100000000E-03 0.  1.
         12    1    3    3    0    0  0.20224806104E+02  0.21085086709E+02  0.15625969140E+02  0.33132983190E+02  0.00000000000E+00 0. -1.
</event>
<event>
 7    1  0.2710146E-013  0.7246163E+02  0.7816164E-02  0.1226708E+00
        -11   -1    0    0    0    0  0.00000000000E+00  0.00000000000E+00  0.45593999997E+02  0.45594000000E+02  0.51100000000E-03 0.  1.
         11   -1    0    0    0    0 -0.00000000000E+00 -0.00000000000E+00 -0.45593999997E+02  0.45594000000E+02  0.51100000000E-03 0. -1.
    9900012    2    1    2    0    0 -0.18135020845E+02  0.28839748519E+01  0.36715939022E+01  0.72461631057E+02  0.70000079155E+02 0.  0.
        -12    1    1    2    0    0  0.18135020845E+02 -0.28839748519E+01 -0.36715939022E+01  0.18726368943E+02  0.00000000000E+00 0.  1.
         11    1    3    3    0    0 -0.27212884778E+02  0.17194755261E+02 -0.13633007944E+02  0.34957969225E+02  0.51100000000E-03 0. -1.
        -11    1    3    3    0    0  0.69135766638E+00  0.27927307039E+01 -0.64453029683E+01  0.70582753433E+01  0.51100000000E-03 0.  1.
        -12    1    3    3    0    0  0.83865062665E+01 -0.17103511113E+02  0.23749904815E+02  0.30445386489E+02  0.00000000000E+00 0.  1.
</event>
<event>
 7    1  0.2710146E-013  0.7246156E+02  0.7816164E-02  0.1226708E+00
        -11   -1    0    0    0    0  0.00000000000E+00  0.00000000000E+00  0.45593999997E+02  0.45594000000E+02  0.51100000000E-03 0.  1.
         11   -1    0    0    0    0 -0.00000000000E+00 -0.00000000000E+00 -0.45593999997E+02  0.45594000000E+02  0.51100000000E-03 0. -1.
    9900012    2    1    2    0    0  0.20072268957E+01 -0.15275561574E+02 -0.10644623006E+02  0.72461555058E+02  0.69999980152E+02 0.  0.
        -12    1    1    2    0    0 -0.20072268957E+01  0.15275561574E+02  0.10644623006E+02  0.18726444942E+02  0.00000000000E+00 0.  1.
         11    1    3    3    0    0  0.25585249403E+01 -0.33964839176E+01  0.98355843422E+01  0.10715450177E+02  0.51100000000E-03 0. -1.
        -11    1    3    3    0    0  0.29585692085E+01 -0.21072091362E+02  0.14275822164E+02  0.25623919779E+02  0.51100000000E-03 0.  1.
         12    1    3    3    0    0 -0.35098672532E+01  0.91930137052E+01 -0.34756029512E+02  0.36122185102E+02  0.00000000000E+00 0. -1.
</event>
<event>
 7    1  0.2710146E-013  0.7246159E+02  0.7816164E-02  0.1226708E+00
        -11   -1    0    0    0    0  0.00000000000E+00  0.00000000000E+00  0.45593999997E+02  0.45594000000E+02  0.51100000000E-03 0. -1.
         11   -1    0    0    0    0 -0.00000000000E+00 -0.00000000000E+00 -0.45593999997E+02  0.45594000000E+02  0.51100000000E-03 0.  1.
    9900012    2    1    2    0    0  0.17676975741E+02  0.61723049286E+01 -0.32509041736E+00  0.72461588084E+02  0.70000023174E+02 0.  0.
        -12    1    1    2    0    0 -0.17676975741E+02 -0.61723049286E+01  0.32509041736E+00  0.18726411916E+02  0.00000000000E+00 0.  1.
         11    1    3    3    0    0  0.10249022582E+02  0.62734522634E+00 -0.24136988830E+02  0.26230330840E+02  0.51100000000E-03 0. -1.
        -11    1    3    3    0    0  0.94605184569E+00 -0.73085212842E+01 -0.82643310079E+01  0.11072879694E+02  0.51100000000E-03 0.  1.
         12    1    3    3    0    0  0.64819013129E+01  0.12853480986E+02  0.32076229420E+02  0.35158377550E+02  0.00000000000E+00 0. -1.
</event>
<event>
 7    1  0.2710146E-013  0.7246163E+02  0.7816164E-02  0.1226708E+00
        -11   -1    0    0    0    0  0.00000000000E+00  0.00000000000E+00  0.45593999997E+02  0.45594000000E+02  0.51100000000E-03 0.  1.
         11   -1    0    0    0    0 -0.00000000000E+00 -0.00000000000E+00 -0.45593999997E+02  0.45594000000E+02  0.51100000000E-03 0. -1.
    9900012    2    1    2    0    0 -0.10996124001E+02 -0.90995533889E+01 -0.12122718236E+02  0.72461630562E+02  0.70000078509E+02 0.  0.
        -12    1    1    2    0    0  0.10996124001E+02  0.90995533889E+01  0.12122718236E+02  0.18726369438E+02  0.00000000000E+00 0.  1.
         11    1    3    3    0    0  0.15129995460E+02 -0.57540189350E+01 -0.22415346210E+02  0.27649109254E+02  0.51100000000E-03 0. -1.
        -11    1    3    3    0    0  0.71127420018E+01  0.54276280359E+01  0.42621847508E+01  0.99104219886E+01  0.51100000000E-03 0.  1.
        -12    1    3    3    0    0 -0.33238861463E+02 -0.87731624898E+01  0.60304432241E+01  0.34902099319E+02  0.00000000000E+00 0.  1.
</event>
<event>
 7    1  0.2710146E-013  0.7246167E+02  0.7816164E-02  0.1226708E+00
        -11   -1    0    0    0    0  0.00000000000E+00  0.00000000000E+00  0.45593999997E+02  0.45594000000E+02  0.51100000000E-03 0.  1.
         11   -1    0    0    0    0 -0.00000000000E+00 -0.00000000000E+00 -0.45593999997E+02  0.45594000000E+02  0.51100000000E-03 0. -1.
    9900012    2    1    2    0    0 -0.79829770545E+01  0.16938817829E+02 -0.15522451518E+00  0.72461666490E+02  0.70000125312E+02 0.  0.
        -12    1    1    2    0    0  0.79829770545E+01 -0.16938817829E+02  0.15522451518E+00  0.18726333510E+02  0.00000000000E+00 0.  1.
         11    1    3    3    0    0 -0.73813941759E+01 -0.19102899285E+02  0.60356414007E+01  0.21350285910E+02  0.51100000000E-03 0. -1.
        -11    1    3    3    0    0 -0.68085710643E+01 -0.43405953060E+01  0.39884547972E+01  0.90058414087E+01  0.51100000000E-03 0.  1.
        -12    1    3    3    0    0  0.62069881856E+01  0.40382312420E+02 -0.10179320713E+02  0.42105539171E+02  0.00000000000E+00 0.  1.
</event>
<event>
 7    1  0.2710146E-013  0.7246166E+02  0.7816164E-02  0.1226708E+00
        -11   -1    0    0    0    0  0.00000000000E+00  0.00000000000E+00  0.45593999997E+02  0.45594000000E+02  0.51100000000E-03 0. -1.
         11   -1    0    0    0    0 -0.00000000000E+00 -0.00000000000E+00 -0.45593999997E+02  0.45594000000E+02  0.51100000000E-03 0.  1.
    9900012    2    1    2    0    0 -0.14223376625E+02  0.13356091136E+01  0.12107326759E+02  0.72461664118E+02  0.70000122222E+02 0.  0.
        -12    1    1    2    0    0  0.14223376625E+02 -0.13356091136E+01 -0.12107326759E+02  0.18726335882E+02  0.00000000000E+00 0.  1.
         11    1    3    3    0    0 -0.42853979106E+01  0.97468102984E+01  0.22550835129E+02  0.24938025414E+02  0.51100000000E-03 0. -1.
        -11    1    3    3    0    0 -0.93808963643E+01 -0.13999046485E+01  0.16851301973E+02  0.19337200626E+02  0.51100000000E-03 0.  1.
        -12    1    3    3    0    0 -0.55708235002E+00 -0.70112965363E+01 -0.27294810343E+02  0.28186438078E+02  0.00000000000E+00 0.  1.
</event>
<event>
 7    1  0.2710146E-013  0.7246150E+02  0.7816164E-02  0.1226708E+00
        -11   -1    0    0    0    0  0.00000000000E+00  0.00000000000E+00  0.45593999997E+02  0.45594000000E+02  0.51100000000E-03 0.  1.
         11   -1    0    0    0    0 -0.00000000000E+00 -0.00000000000E+00 -0.45593999997E+02  0.45594000000E+02  0.51100000000E-03 0. -1.
    9900012    2    1    2    0    0 -0.17730734223E+02 -0.50182310111E+01 -0.33346750291E+01  0.72461504436E+02  0.69999914207E+02 0.  0.
        -12    1    1    2    0    0  0.17730734223E+02  0.50182310111E+01  0.33346750291E+01  0.18726495564E+02  0.00000000000E+00 0.  1.
         11    1    3    3    0    0 -0.26925199717E+02  0.17438233075E+02  0.15177113708E+02  0.35488070296E+02  0.51100000000E-03 0.  1.
        -11    1    3    3    0    0  0.64402230938E+01 -0.12309192109E+01  0.24646991181E+01  0.70047396529E+01  0.51100000000E-03 0. -1.
        -12    1    3    3    0    0  0.27542423998E+01 -0.21225544876E+02 -0.20976487855E+02  0.29968694486E+02  0.00000000000E+00 0.  1.
</event>
<event>
 7    1  0.2710146E-013  0.7246155E+02  0.7816164E-02  0.1226708E+00
        -11   -1    0    0    0    0  0.00000000000E+00  0.00000000000E+00  0.45593999997E+02  0.45594000000E+02  0.51100000000E-03 0.  1.
         11   -1    0    0    0    0 -0.00000000000E+00 -0.00000000000E+00 -0.45593999997E+02  0.45594000000E+02  0.51100000000E-03 0. -1.
    9900012    2    1    2    0    0 -0.25109724494E+01 -0.29516479287E+01 -0.18321101539E+02  0.72461548929E+02  0.69999972167E+02 0.  0.
        -12    1    1    2    0    0  0.25109724494E+01  0.29516479287E+01  0.18321101539E+02  0.18726451071E+02  0.00000000000E+00 0.  1.
         11    1    3    3    0    0  0.61914348917E+01  0.13991616951E+02 -0.19590238883E+02  0.24857125149E+02  0.51100000000E-03 0.  1.
        -11    1    3    3    0    0 -0.84960795846E+01  0.13216104167E+02 -0.55863669709E+01  0.16675019456E+02  0.51100000000E-03 0. -1.
         12    1    3    3    0    0 -0.20632775643E+00 -0.30159369046E+02  0.68555043151E+01  0.30929404324E+02  0.00000000000E+00 0. -1.
</event>
<event>
 7    1  0.2710146E-013  0.7246115E+02  0.7816164E-02  0.1226709E+00
        -11   -1    0    0    0    0  0.00000000000E+00  0.00000000000E+00  0.45593999997E+02  0.45594000000E+02  0.51100000000E-03 0.  1.
         11   -1    0    0    0    0 -0.00000000000E+00 -0.00000000000E+00 -0.45593999997E+02  0.45594000000E+02  0.51100000000E-03 0. -1.
    9900012    2    1    2    0    0 -0.13921647935E+02  0.10393255237E+02 -0.69901976355E+01  0.72461150328E+02  0.69999452914E+02 0.  0.
        -12    1    1    2    0    0  0.13921647935E+02 -0.10393255237E+02  0.69901976355E+01  0.18726849672E+02  0.00000000000E+00 0.  1.
         11    1    3    3    0    0  0.80123331320E+01 -0.20645854422E+02 -0.51413013460E+01  0.22735033909E+02  0.51100000000E-03 0. -1.
        -11    1    3    3    0    0  0.56190499276E+01 -0.25720369747E+01 -0.97444440657E+00  0.62560881109E+01  0.51100000000E-03 0.  1.
        -12    1    3    3    0    0 -0.27553030994E+02  0.33611146634E+02 -0.87445188292E+00  0.43470028309E+02  0.00000000000E+00 0.  1.
</event>
<event>
 7    1  0.2710146E-013  0.7246159E+02  0.7816164E-02  0.1226708E+00
        -11   -1    0    0    0    0  0.00000000000E+00  0.00000000000E+00  0.45593999997E+02  0.45594000000E+02  0.51100000000E-03 0.  1.
         11   -1    0    0    0    0 -0.00000000000E+00 -0.00000000000E+00 -0.45593999997E+02  0.45594000000E+02  0.51100000000E-03 0. -1.
    9900012    2    1    2    0    0 -0.12240810835E+02 -0.87650571138E+01 -0.11136195228E+02  0.72461587630E+02  0.70000022583E+02 0.  0.
        -12    1    1    2    0    0  0.12240810835E+02  0.87650571138E+01  0.11136195228E+02  0.18726412370E+02  0.00000000000E+00 0.  1.
         11    1    3    3    0    0 -0.18733351630E+02  0.15028635602E+02  0.85418350575E+01  0.25490415802E+02  0.51100000000E-03 0. -1.
        -11    1    3    3    0    0 -0.90267963569E+01  0.15095536801E+01  0.29835055571E+01  0.96261680046E+01  0.51100000000E-03 0.  1.
         12    1    3    3    0    0  0.15519337152E+02 -0.25303246396E+02 -0.22661535842E+02  0.37345003823E+02  0.00000000000E+00 0. -1.
</event>
<event>
 7    1  0.2710146E-013  0.7246155E+02  0.7816164E-02  0.1226708E+00
        -11   -1    0    0    0    0  0.00000000000E+00  0.00000000000E+00  0.45593999997E+02  0.45594000000E+02  0.51100000000E-03 0. -1.
         11   -1    0    0    0    0 -0.00000000000E+00 -0.00000000000E+00 -0.45593999997E+02  0.45594000000E+02  0.51100000000E-03 0.  1.
    9900012    2    1    2    0    0 -0.15838522143E+02  0.55977286689E+01  0.82756673317E+01  0.72461547595E+02  0.69999970429E+02 0.  0.
        -12    1    1    2    0    0  0.15838522143E+02 -0.55977286689E+01 -0.82756673317E+01  0.18726452405E+02  0.00000000000E+00 0.  1.
         11    1    3    3    0    0  0.85470314186E-02 -0.26085739785E+01  0.15089711188E+02  0.15313527198E+02  0.51100000000E-03 0. -1.
        -11    1    3    3    0    0  0.12740379995E+01  0.36765866743E+01  0.22535561637E+02  0.22869018365E+02  0.51100000000E-03 0.  1.
        -12    1    3    3    0    0 -0.17121107174E+02  0.45297159732E+01 -0.29349605494E+02  0.34279002031E+02  0.00000000000E+00 0.  1.
</event>
<event>
 7    1  0.2710146E-013  0.7246143E+02  0.7816164E-02  0.1226708E+00
        -11   -1    0    0    0    0  0.00000000000E+00  0.00000000000E+00  0.45593999997E+02  0.45594000000E+02  0.51100000000E-03 0. -1.
         11   -1    0    0    0    0 -0.00000000000E+00 -0.00000000000E+00 -0.45593999997E+02  0.45594000000E+02  0.51100000000E-03 0.  1.
    9900012    2    1    2    0    0  0.14935192122E+02  0.94118268937E+01 -0.62483429375E+01  0.72461434948E+02  0.69999823686E+02 0.  0.
        -12    1    1    2    0    0 -0.14935192122E+02 -0.94118268937E+01  0.62483429375E+01  0.18726565052E+02  0.00000000000E+00 0.  1.
         11    1    3    3    0    0  0.94690625683E+01  0.21412598395E+02  0.14016855386E+02  0.27287996466E+02  0.51100000000E-03 0. -1.
        -11    1    3    3    0    0 -0.76796335079E+01  0.10219226838E+02 -0.74082202549E+00  0.12804615789E+02  0.51100000000E-03 0.  1.
         12    1    3    3    0    0  0.13145763061E+02 -0.22219998339E+02 -0.19524376298E+02  0.32368822692E+02  0.00000000000E+00 0. -1.
</event>
<event>
 7    1  0.2710146E-013  0.7246154E+02  0.7816164E-02  0.1226708E+00
        -11   -1    0    0    0    0  0.00000000000E+00  0.00000000000E+00  0.45593999997E+02  0.45594000000E+02  0.51100000000E-03 0.  1.
         11   -1    0    0    0    0 -0.00000000000E+00 -0.00000000000E+00 -0.45593999997E+02  0.45594000000E+02  0.51100000000E-03 0. -1.
    9900012    2    1    2    0    0 -0.58021955741E+01 -0.94828746211E+01 -0.15069499042E+02  0.72461543156E+02  0.69999964647E+02 0.  0.
        -12    1    1    2    0    0  0.58021955741E+01  0.94828746211E+01  0.15069499042E+02  0.18726456844E+02  0.00000000000E+00 0.  1.
         11    1    3    3    0    0 -0.95784993626E+01 -0.11101266354E+01 -0.93357561563E+01  0.13421489279E+02  0.51100000000E-03 0. -1.
        -11    1    3    3    0    0  0.42237671267E+01 -0.18629857754E+02  0.22195225120E+02  0.29283780956E+02  0.51100000000E-03 0.  1.
         12    1    3    3    0    0 -0.44746333813E+00  0.10257109768E+02 -0.27928968006E+02  0.29756272921E+02  0.00000000000E+00 0. -1.
</event>
<event>
 7    1  0.2710146E-013  0.7246155E+02  0.7816164E-02  0.1226708E+00
        -11   -1    0    0    0    0  0.00000000000E+00  0.00000000000E+00  0.45593999997E+02  0.45594000000E+02  0.51100000000E-03 0.  1.
         11   -1    0    0    0    0 -0.00000000000E+00 -0.00000000000E+00 -0.45593999997E+02  0.45594000000E+02  0.51100000000E-03 0. -1.
    9900012    2    1    2    0    0  0.55835301871E+01 -0.90431134090E+01 -0.15418371720E+02  0.72461550898E+02  0.69999974733E+02 0.  0.
        -12    1    1    2    0    0 -0.55835301871E+01  0.90431134090E+01  0.15418371720E+02  0.18726449102E+02  0.00000000000E+00 0.  1.
         11    1    3    3    0    0  0.25767984519E+02  0.12931719021E+02 -0.48765401466E+01  0.29240366397E+02  0.51100000000E-03 0. -1.
        -11    1    3    3    0    0  0.74293857558E+01 -0.19954243741E+01 -0.59490234887E+00  0.77156594149E+01  0.51100000000E-03 0.  1.
        -12    1    3    3    0    0 -0.27613840087E+02 -0.19979408056E+02 -0.99469292242E+01  0.35505525086E+02  0.00000000000E+00 0.  1.
</event>
<event>
 7    1  0.2710146E-013  0.7246150E+02  0.7816164E-02  0.1226708E+00
        -11   -1    0    0    0    0  0.00000000000E+00  0.00000000000E+00  0.45593999997E+02  0.45594000000E+02  0.51100000000E-03 0. -1.
         11   -1    0    0    0    0 -0.00000000000E+00 -0.00000000000E+00 -0.45593999997E+02  0.45594000000E+02  0.51100000000E-03 0.  1.
    9900012    2    1    2    0    0  0.29901970980E+01  0.45431194199E+01  0.17919284086E+02  0.72461495925E+02  0.69999903119E+02 0.  0.
        -12    1    1    2    0    0 -0.29901970980E+01 -0.45431194199E+01 -0.17919284086E+02  0.18726504075E+02  0.00000000000E+00 0.  1.
         11    1    3    3    0    0 -0.22098424542E+02  0.23410821007E+02  0.37928151954E+01  0.32415927487E+02  0.51100000000E-03 0. -1.
        -11    1    3    3    0    0 -0.12881809849E+00 -0.31041630994E+01 -0.41162314397E+01  0.51571100606E+01  0.51100000000E-03 0.  1.
        -12    1    3    3    0    0  0.25217439738E+02 -0.15763538488E+02  0.18242700330E+02  0.34888458377E+02  0.00000000000E+00 0.  1.
</event>
<event>
 7    1  0.2710146E-013  0.7246154E+02  0.7816164E-02  0.1226708E+00
        -11   -1    0    0    0    0  0.00000000000E+00  0.00000000000E+00  0.45593999997E+02  0.45594000000E+02  0.51100000000E-03 0. -1.
         11   -1    0    0    0    0 -0.00000000000E+00 -0.00000000000E+00 -0.45593999997E+02  0.45594000000E+02  0.51100000000E-03 0.  1.
    9900012    2    1    2    0    0  0.46040076971E+01 -0.17741505399E+02  0.38369679626E+01  0.72461542143E+02  0.69999963328E+02 0.  0.
        -12    1    1    2    0    0 -0.46040076971E+01  0.17741505399E+02 -0.38369679626E+01  0.18726457857E+02  0.00000000000E+00 0.  1.
         11    1    3    3    0    0  0.14068553257E+01  0.66282382760E+00  0.68932625804E+01  0.70665158739E+01  0.51100000000E-03 0. -1.
        -11    1    3    3    0    0 -0.29620802621E+02 -0.11268310279E+02 -0.24442111880E+00  0.31692688533E+02  0.51100000000E-03 0.  1.
         12    1    3    3    0    0  0.32817954993E+02 -0.71360189476E+01 -0.28118734990E+01  0.33702337737E+02  0.00000000000E+00 0. -1.
</event>
<event>
 7    1  0.2710146E-013  0.7246138E+02  0.7816164E-02  0.1226709E+00
        -11   -1    0    0    0    0  0.00000000000E+00  0.00000000000E+00  0.45593999997E+02  0.45594000000E+02  0.51100000000E-03 0. -1.
         11   -1    0    0    0    0 -0.00000000000E+00 -0.00000000000E+00 -0.45593999997E+02  0.45594000000E+02  0.51100000000E-03 0.  1.
    9900012    2    1    2    0    0 -0.61623308497E+01 -0.11717552687E+02  0.13244286286E+02  0.72461375058E+02  0.69999745668E+02 0.  0.
        -12    1    1    2    0    0  0.61623308497E+01  0.11717552687E+02 -0.13244286286E+02  0.18726624942E+02  0.00000000000E+00 0.  1.
         11    1    3    3    0    0 -0.80283600623E+01 -0.10729469636E+02  0.19645212760E+02  0.23780464012E+02  0.51100000000E-03 0. -1.
        -11    1    3    3    0    0  0.81626426259E+01 -0.53930721606E+00  0.19961784116E+02  0.21572955575E+02  0.51100000000E-03 0.  1.
        -12    1    3    3    0    0 -0.62966134133E+01 -0.44877583501E+00 -0.26362710589E+02  0.27107955472E+02  0.00000000000E+00 0.  1.
</event>
<event>
 7    1  0.2710146E-013  0.7246157E+02  0.7816164E-02  0.1226708E+00
        -11   -1    0    0    0    0  0.00000000000E+00  0.00000000000E+00  0.45593999997E+02  0.45594000000E+02  0.51100000000E-03 0.  1.
         11   -1    0    0    0    0 -0.00000000000E+00 -0.00000000000E+00 -0.45593999997E+02  0.45594000000E+02  0.51100000000E-03 0. -1.
    9900012    2    1    2    0    0 -0.43259049836E+01 -0.94282906456E+01 -0.15590803698E+02  0.72461567388E+02  0.69999996214E+02 0.  0.
        -12    1    1    2    0    0  0.43259049836E+01  0.94282906456E+01  0.15590803698E+02  0.18726432612E+02  0.00000000000E+00 0.  1.
         11    1    3    3    0    0  0.61755162030E+01  0.19277890730E+02 -0.25255275145E+02  0.32366695758E+02  0.51100000000E-03 0. -1.
        -11    1    3    3    0    0  0.76295937384E+00  0.33426614081E+01 -0.22435430955E+01  0.40974355612E+01  0.51100000000E-03 0.  1.
        -12    1    3    3    0    0 -0.11264380560E+02 -0.32048842784E+02  0.11908014542E+02  0.35997436069E+02  0.00000000000E+00 0.  1.
</event>
<event>
 7    1  0.2710146E-013  0.7246118E+02  0.7816164E-02  0.1226709E+00
        -11   -1    0    0    0    0  0.00000000000E+00  0.00000000000E+00  0.45593999997E+02  0.45594000000E+02  0.51100000000E-03 0. -1.
         11   -1    0    0    0    0 -0.00000000000E+00 -0.00000000000E+00 -0.45593999997E+02  0.45594000000E+02  0.51100000000E-03 0.  1.
    9900012    2    1    2    0    0 -0.18466424141E+02 -0.16977738549E+01 -0.26081567405E+01  0.72461181312E+02  0.69999493276E+02 0.  0.
        -12    1    1    2    0    0  0.18466424141E+02  0.16977738549E+01  0.26081567405E+01  0.18726818688E+02  0.00000000000E+00 0.  1.
         11    1    3    3    0    0 -0.98315432303E+01 -0.43300079964E+01  0.96825449066E+01  0.14462361068E+02  0.51100000000E-03 0. -1.
        -11    1    3    3    0    0  0.95560498416E+01 -0.15884071062E+02  0.12297228918E+02  0.22245081286E+02  0.51100000000E-03 0.  1.
         12    1    3    3    0    0 -0.18190930752E+02  0.18516305204E+02 -0.24587930565E+02  0.35753738958E+02  0.00000000000E+00 0. -1.
</event>
<event>
 7    1  0.2710146E-013  0.7246156E+02  0.7816164E-02  0.1226708E+00
        -11   -1    0    0    0    0  0.00000000000E+00  0.00000000000E+00  0.45593999997E+02  0.45594000000E+02  0.51100000000E-03 0.  1.
         11   -1    0    0    0    0 -0.00000000000E+00 -0.00000000000E+00 -0.45593999997E+02  0.45594000000E+02  0.51100000000E-03 0. -1.
    9900012    2    1    2    0    0  0.23133759346E+01 -0.18246788894E+02  0.35188914844E+01  0.72461558522E+02  0.69999984664E+02 0.  0.
        -12    1    1    2    0    0 -0.23133759346E+01  0.18246788894E+02 -0.35188914844E+01  0.18726441478E+02  0.00000000000E+00 0.  1.
         11    1    3    3    0    0  0.75856706543E+01  0.11099499388E+02  0.10378831051E+02  0.16984152030E+02  0.51100000000E-03 0. -1.
        -11    1    3    3    0    0  0.93592139774E+01 -0.15385220546E+02  0.16608229574E+02  0.24497615953E+02  0.51100000000E-03 0.  1.
         12    1    3    3    0    0 -0.14631508697E+02 -0.13961067736E+02 -0.23468169140E+02  0.30979790540E+02  0.00000000000E+00 0. -1.
</event>
<event>
 7    1  0.2710146E-013  0.7246155E+02  0.7816164E-02  0.1226708E+00
        -11   -1    0    0    0    0  0.00000000000E+00  0.00000000000E+00  0.45593999997E+02  0.45594000000E+02  0.51100000000E-03 0.  1.
         11   -1    0    0    0    0 -0.00000000000E+00 -0.00000000000E+00 -0.45593999997E+02  0.45594000000E+02  0.51100000000E-03 0. -1.
    9900012    2    1    2    0    0  0.12394858188E+02  0.11322800495E+02  0.82970735486E+01  0.72461554795E+02  0.69999979809E+02 0.  0.
        -12    1    1    2    0    0 -0.12394858188E+02 -0.11322800495E+02 -0.82970735486E+01  0.18726445205E+02  0.00000000000E+00 0.  1.
         11    1    3    3    0    0  0.27876194683E+01 -0.16903245558E+02  0.97509245893E+01  0.19712205947E+02  0.51100000000E-03 0. -1.
        -11    1    3    3    0    0 -0.85522412690E+01  0.58558658268E+01 -0.17074625421E+02  0.19974354278E+02  0.51100000000E-03 0.  1.
        -12    1    3    3    0    0  0.18159479989E+02  0.22370180226E+02  0.15620774380E+02  0.32774994570E+02  0.00000000000E+00 0.  1.
</event>
<event>
 7    1  0.2710146E-013  0.7246158E+02  0.7816164E-02  0.1226708E+00
        -11   -1    0    0    0    0  0.00000000000E+00  0.00000000000E+00  0.45593999997E+02  0.45594000000E+02  0.51100000000E-03 0. -1.
         11   -1    0    0    0    0 -0.00000000000E+00 -0.00000000000E+00 -0.45593999997E+02  0.45594000000E+02  0.51100000000E-03 0.  1.
    9900012    2    1    2    0    0  0.29448837506E+01  0.12877601079E+01  0.18448531526E+02  0.72461575305E+02  0.70000006527E+02 0.  0.
        -12    1    1    2    0    0 -0.29448837506E+01 -0.12877601079E+01 -0.18448531526E+02  0.18726424695E+02  0.00000000000E+00 0.  1.
         11    1    3    3    0    0 -0.99634557643E+01  0.74818463348E+01 -0.20265708407E+01  0.12623607447E+02  0.51100000000E-03 0. -1.
        -11    1    3    3    0    0  0.23533585842E+02  0.90219955346E+01 -0.74738338050E+01  0.26288481471E+02  0.51100000000E-03 0.  1.
         12    1    3    3    0    0 -0.10625246327E+02 -0.15216081762E+02  0.27948936172E+02  0.33549486387E+02  0.00000000000E+00 0. -1.
</event>
<event>
 7    1  0.2710146E-013  0.7246153E+02  0.7816164E-02  0.1226708E+00
        -11   -1    0    0    0    0  0.00000000000E+00  0.00000000000E+00  0.45593999997E+02  0.45594000000E+02  0.51100000000E-03 0. -1.
         11   -1    0    0    0    0 -0.00000000000E+00 -0.00000000000E+00 -0.45593999997E+02  0.45594000000E+02  0.51100000000E-03 0.  1.
    9900012    2    1    2    0    0 -0.12512324575E+02 -0.82121763632E+01 -0.11255339673E+02  0.72461527346E+02  0.69999944052E+02 0.  0.
        -12    1    1    2    0    0  0.12512324575E+02  0.82121763632E+01  0.11255339673E+02  0.18726472654E+02  0.00000000000E+00 0.  1.
         11    1    3    3    0    0 -0.87961544884E+01  0.47206703799E+01  0.76025638261E+01  0.12548148852E+02  0.51100000000E-03 0. -1.
        -11    1    3    3    0    0 -0.95340493201E+01  0.11864819090E+02  0.12371123053E+02  0.19614196754E+02  0.51100000000E-03 0.  1.
        -12    1    3    3    0    0  0.58178792333E+01 -0.24797665833E+02 -0.31229026552E+02  0.40299181740E+02  0.00000000000E+00 0.  1.
</event>
<event>
 7    1  0.2710146E-013  0.7246152E+02  0.7816164E-02  0.1226708E+00
        -11   -1    0    0    0    0  0.00000000000E+00  0.00000000000E+00  0.45593999997E+02  0.45594000000E+02  0.51100000000E-03 0.  1.
         11   -1    0    0    0    0 -0.00000000000E+00 -0.00000000000E+00 -0.45593999997E+02  0.45594000000E+02  0.51100000000E-03 0. -1.
    9900012    2    1    2    0    0  0.29588856628E+01 -0.15692775616E+02 -0.97807438492E+01  0.72461517118E+02  0.69999930727E+02 0.  0.
        -12    1    1    2    0    0 -0.29588856628E+01  0.15692775616E+02  0.97807438492E+01  0.18726482882E+02  0.00000000000E+00 0.  1.
         11    1    3    3    0    0  0.75216018327E+01 -0.16548215648E+02 -0.30580981892E+02  0.35575474544E+02  0.51100000000E-03 0. -1.
        -11    1    3    3    0    0 -0.14904890652E+02 -0.10449291161E+00  0.15155180962E+01  0.14982105309E+02  0.51100000000E-03 0.  1.
        -12    1    3    3    0    0  0.10342174482E+02  0.95993294357E+00  0.19284719947E+02  0.21903937265E+02  0.00000000000E+00 0.  1.
</event>
<event>
 7    1  0.2710146E-013  0.7246160E+02  0.7816164E-02  0.1226708E+00
        -11   -1    0    0    0    0  0.00000000000E+00  0.00000000000E+00  0.45593999997E+02  0.45594000000E+02  0.51100000000E-03 0.  1.
         11   -1    0    0    0    0 -0.00000000000E+00 -0.00000000000E+00 -0.45593999997E+02  0.45594000000E+02  0.51100000000E-03 0. -1.
    9900012    2    1    2    0    0  0.13276676498E+02 -0.11216682064E+02 -0.69709467498E+01  0.72461596342E+02  0.70000033932E+02 0.  0.
        -12    1    1    2    0    0 -0.13276676498E+02  0.11216682064E+02  0.69709467498E+01  0.18726403658E+02  0.00000000000E+00 0.  1.
         11    1    3    3    0    0 -0.14125440266E+02 -0.18537743725E+02 -0.12727059776E+02  0.26554736977E+02  0.51100000000E-03 0. -1.
        -11    1    3    3    0    0 -0.62958058460E+01  0.98334330514E+01  0.26485671668E+01  0.11972822772E+02  0.51100000000E-03 0.  1.
         12    1    3    3    0    0  0.33697922610E+02 -0.25123713903E+01  0.31075458598E+01  0.33934036593E+02  0.00000000000E+00 0. -1.
</event>
<event>
 7    1  0.2710146E-013  0.7246158E+02  0.7816164E-02  0.1226708E+00
        -11   -1    0    0    0    0  0.00000000000E+00  0.00000000000E+00  0.45593999997E+02  0.45594000000E+02  0.51100000000E-03 0. -1.
         11   -1    0    0    0    0 -0.00000000000E+00 -0.00000000000E+00 -0.45593999997E+02  0.45594000000E+02  0.51100000000E-03 0.  1.
    9900012    2    1    2    0    0 -0.66363072259E+01  0.18363089724E+01  0.17414541778E+02  0.72461578303E+02  0.70000010433E+02 0.  0.
        -12    1    1    2    0    0  0.66363072259E+01 -0.18363089724E+01 -0.17414541778E+02  0.18726421697E+02  0.00000000000E+00 0.  1.
         11    1    3    3    0    0  0.12064853351E+01 -0.18100548176E+02  0.21041011148E+02  0.27781461472E+02  0.51100000000E-03 0. -1.
        -11    1    3    3    0    0 -0.59630923167E+01  0.18560912843E+02  0.15812655483E+02  0.25101912859E+02  0.51100000000E-03 0.  1.
         12    1    3    3    0    0 -0.18797002444E+01  0.13759443053E+01 -0.19439124853E+02  0.19578203972E+02  0.00000000000E+00 0. -1.
</event>
<event>
 7    1  0.2710146E-013  0.7246151E+02  0.7816164E-02  0.1226708E+00
        -11   -1    0    0    0    0  0.00000000000E+00  0.00000000000E+00  0.45593999997E+02  0.45594000000E+02  0.51100000000E-03 0.  1.
         11   -1    0    0    0    0 -0.00000000000E+00 -0.00000000000E+00 -0.45593999997E+02  0.45594000000E+02  0.51100000000E-03 0. -1.
    9900012    2    1    2    0    0 -0.41193529846E+01  0.18251903164E+02 -0.76181641907E+00  0.72461510676E+02  0.69999922336E+02 0.  0.
        -12    1    1    2    0    0  0.41193529846E+01 -0.18251903164E+02  0.76181641907E+00  0.18726489324E+02  0.00000000000E+00 0.  1.
         11    1    3    3    0    0  0.18260901643E+02  0.12842453514E+02 -0.13139671219E+02  0.25904441725E+02  0.51100000000E-03 0. -1.
        -11    1    3    3    0    0 -0.22630808328E+01  0.80526116956E+01 -0.12133543465E+02  0.14737332434E+02  0.51100000000E-03 0.  1.
        -12    1    3    3    0    0 -0.20117173795E+02 -0.26431620454E+01  0.24511398265E+02  0.31819736517E+02  0.00000000000E+00 0.  1.
</event>
<event>
 7    1  0.2710146E-013  0.7246158E+02  0.7816164E-02  0.1226708E+00
        -11   -1    0    0    0    0  0.00000000000E+00  0.00000000000E+00  0.45593999997E+02  0.45594000000E+02  0.51100000000E-03 0.  1.
         11   -1    0    0    0    0 -0.00000000000E+00 -0.00000000000E+00 -0.45593999997E+02  0.45594000000E+02  0.51100000000E-03 0. -1.
    9900012    2    1    2    0    0 -0.12182598238E+02 -0.96140120016E+01 -0.10480167989E+02  0.72461578888E+02  0.70000011195E+02 0.  0.
        -12    1    1    2    0    0  0.12182598238E+02  0.96140120016E+01  0.10480167989E+02  0.18726421112E+02  0.00000000000E+00 0.  1.
         11    1    3    3    0    0 -0.83414364830E+01 -0.21006867370E+02  0.65585596579E+01  0.23534713603E+02  0.51100000000E-03 0. -1.
        -11    1    3    3    0    0  0.74891570248E+01 -0.10072687109E+02 -0.20870310683E+02  0.24353980512E+02  0.51100000000E-03 0.  1.
        -12    1    3    3    0    0 -0.11330318779E+02  0.21465542477E+02  0.38315830358E+01  0.24572884773E+02  0.00000000000E+00 0.  1.
</event>
<event>
 7    1  0.2710146E-013  0.7246154E+02  0.7816164E-02  0.1226708E+00
        -11   -1    0    0    0    0  0.00000000000E+00  0.00000000000E+00  0.45593999997E+02  0.45594000000E+02  0.51100000000E-03 0.  1.
         11   -1    0    0    0    0 -0.00000000000E+00 -0.00000000000E+00 -0.45593999997E+02  0.45594000000E+02  0.51100000000E-03 0. -1.
    9900012    2    1    2    0    0 -0.18962442192E+01  0.13558552822E+02 -0.12776938925E+02  0.72461541043E+02  0.69999961894E+02 0.  0.
        -12    1    1    2    0    0  0.18962442192E+01 -0.13558552822E+02  0.12776938925E+02  0.18726458957E+02  0.00000000000E+00 0.  1.
         11    1    3    3    0    0 -0.84734609229E+01 -0.17056933235E+02 -0.17954802573E+02  0.26174671862E+02  0.51100000000E-03 0. -1.
        -11    1    3    3    0    0 -0.10449261580E+02  0.11212556927E+02 -0.80159213420E+01  0.17296343418E+02  0.51100000000E-03 0.  1.
        -12    1    3    3    0    0  0.17026478284E+02  0.19402929131E+02  0.13193784990E+02  0.28990525762E+02  0.00000000000E+00 0.  1.
</event>
<event>
 7    1  0.2710146E-013  0.7246169E+02  0.7816164E-02  0.1226708E+00
        -11   -1    0    0    0    0  0.00000000000E+00  0.00000000000E+00  0.45593999997E+02  0.45594000000E+02  0.51100000000E-03 0.  1.
         11   -1    0    0    0    0 -0.00000000000E+00 -0.00000000000E+00 -0.45593999997E+02  0.45594000000E+02  0.51100000000E-03 0. -1.
    9900012    2    1    2    0    0  0.24857475284E+00  0.12020325960E+02 -0.14357043001E+02  0.72461689383E+02  0.70000155135E+02 0.  0.
        -12    1    1    2    0    0 -0.24857475284E+00 -0.12020325960E+02  0.14357043001E+02  0.18726310617E+02  0.00000000000E+00 0.  1.
         11    1    3    3    0    0  0.39104806622E+01 -0.50487132860E+01  0.16873183971E+02  0.18041222310E+02  0.51100000000E-03 0. -1.
        -11    1    3    3    0    0  0.12567755313E+02  0.62084924270E+01  0.36149612717E+01  0.14476249413E+02  0.51100000000E-03 0.  1.
         12    1    3    3    0    0 -0.16229661222E+02  0.10860546819E+02 -0.34845188244E+02  0.39944217659E+02  0.00000000000E+00 0. -1.
</event>
<event>
 7    1  0.2710146E-013  0.7246149E+02  0.7816164E-02  0.1226708E+00
        -11   -1    0    0    0    0  0.00000000000E+00  0.00000000000E+00  0.45593999997E+02  0.45594000000E+02  0.51100000000E-03 0. -1.
         11   -1    0    0    0    0 -0.00000000000E+00 -0.00000000000E+00 -0.45593999997E+02  0.45594000000E+02  0.51100000000E-03 0.  1.
    9900012    2    1    2    0    0 -0.33415136685E+01  0.12571020104E+02 -0.13471667610E+02  0.72461492363E+02  0.69999898480E+02 0.  0.
        -12    1    1    2    0    0  0.33415136685E+01 -0.12571020104E+02  0.13471667610E+02  0.18726507637E+02  0.00000000000E+00 0.  1.
         11    1    3    3    0    0  0.14437206652E+01  0.20161583682E+02  0.11240162874E+02  0.23128230534E+02  0.51100000000E-03 0. -1.
        -11    1    3    3    0    0 -0.11480158737E+02  0.10500457530E+01  0.85297539337E+01  0.14340618645E+02  0.51100000000E-03 0.  1.
        -12    1    3    3    0    0  0.66949244030E+01 -0.86406093307E+01 -0.33241584418E+02  0.34992643184E+02  0.00000000000E+00 0.  1.
</event>
<event>
 7    1  0.2710146E-013  0.7246152E+02  0.7816164E-02  0.1226708E+00
        -11   -1    0    0    0    0  0.00000000000E+00  0.00000000000E+00  0.45593999997E+02  0.45594000000E+02  0.51100000000E-03 0. -1.
         11   -1    0    0    0    0 -0.00000000000E+00 -0.00000000000E+00 -0.45593999997E+02  0.45594000000E+02  0.51100000000E-03 0.  1.
    9900012    2    1    2    0    0 -0.12477762543E+02  0.66418090390E+01  0.12283032823E+02  0.72461519265E+02  0.69999933525E+02 0.  0.
        -12    1    1    2    0    0  0.12477762543E+02 -0.66418090390E+01 -0.12283032823E+02  0.18726480735E+02  0.00000000000E+00 0.  1.
         11    1    3    3    0    0 -0.13965780810E+02  0.59648888587E+01  0.14053881675E+02  0.20691411821E+02  0.51100000000E-03 0. -1.
        -11    1    3    3    0    0  0.13345246602E+02  0.64869347218E+01  0.20841963128E+02  0.25584435820E+02  0.51100000000E-03 0.  1.
        -12    1    3    3    0    0 -0.11857228334E+02 -0.58100145415E+01 -0.22612811980E+02  0.26185671624E+02  0.00000000000E+00 0.  1.
</event>
<event>
 7    1  0.2710146E-013  0.7246159E+02  0.7816164E-02  0.1226708E+00
        -11   -1    0    0    0    0  0.00000000000E+00  0.00000000000E+00  0.45593999997E+02  0.45594000000E+02  0.51100000000E-03 0. -1.
         11   -1    0    0    0    0 -0.00000000000E+00 -0.00000000000E+00 -0.45593999997E+02  0.45594000000E+02  0.51100000000E-03 0.  1.
    9900012    2    1    2    0    0 -0.92071931704E+00  0.18193524165E+02  0.43389250445E+01  0.72461593080E+02  0.70000029682E+02 0.  0.
        -12    1    1    2    0    0  0.92071931704E+00 -0.18193524165E+02 -0.43389250445E+01  0.18726406920E+02  0.00000000000E+00 0.  1.
         11    1    3    3    0    0 -0.13273329121E+02  0.11257335564E+02  0.11541524356E+02  0.20883382261E+02  0.51100000000E-03 0. -1.
        -11    1    3    3    0    0 -0.11865474956E+00 -0.12093784139E+02 -0.21527236398E+02  0.24692014923E+02  0.51100000000E-03 0.  1.
         12    1    3    3    0    0  0.12471264553E+02  0.19029972741E+02  0.14324637087E+02  0.26886195896E+02  0.00000000000E+00 0. -1.
</event>
<event>
 7    1  0.2710146E-013  0.7246142E+02  0.7816164E-02  0.1226708E+00
        -11   -1    0    0    0    0  0.00000000000E+00  0.00000000000E+00  0.45593999997E+02  0.45594000000E+02  0.51100000000E-03 0.  1.
         11   -1    0    0    0    0 -0.00000000000E+00 -0.00000000000E+00 -0.45593999997E+02  0.45594000000E+02  0.51100000000E-03 0. -1.
    9900012    2    1    2    0    0  0.15345829533E+02 -0.10556802329E+02  0.19350104776E+01  0.72461419292E+02  0.69999803291E+02 0.  0.
        -12    1    1    2    0    0 -0.15345829533E+02  0.10556802329E+02 -0.19350104776E+01  0.18726580708E+02  0.00000000000E+00 0.  1.
         11    1    3    3    0    0 -0.12468870385E+02  0.38182497351E+01 -0.18502828593E+02  0.22636396046E+02  0.51100000000E-03 0.  1.
        -11    1    3    3    0    0  0.66573770747E+01 -0.83932603128E+01 -0.83632285650E+01  0.13590845466E+02  0.51100000000E-03 0. -1.
        -12    1    3    3    0    0  0.21157322843E+02 -0.59817917517E+01  0.28801067636E+02  0.36234177780E+02  0.00000000000E+00 0.  1.
</event>
<event>
 7    1  0.2710146E-013  0.7246155E+02  0.7816164E-02  0.1226708E+00
        -11   -1    0    0    0    0  0.00000000000E+00  0.00000000000E+00  0.45593999997E+02  0.45594000000E+02  0.51100000000E-03 0.  1.
         11   -1    0    0    0    0 -0.00000000000E+00 -0.00000000000E+00 -0.45593999997E+02  0.45594000000E+02  0.51100000000E-03 0. -1.
    9900012    2    1    2    0    0 -0.33656410486E+01  0.15549908254E+02 -0.98768770310E+01  0.72461551157E+02  0.69999975070E+02 0.  0.
        -12    1    1    2    0    0  0.33656410486E+01 -0.15549908254E+02  0.98768770310E+01  0.18726448843E+02  0.00000000000E+00 0.  1.
         11    1    3    3    0    0  0.47251689218E+00  0.37446033156E+01  0.84948662500E+00  0.38687147727E+01  0.51100000000E-03 0. -1.
        -11    1    3    3    0    0 -0.33933353355E+01  0.37857464966E+02  0.47221135101E+01  0.38301445594E+02  0.51100000000E-03 0.  1.
         12    1    3    3    0    0 -0.44482260527E+00 -0.26052160028E+02 -0.15448477166E+02  0.30291390790E+02  0.00000000000E+00 0. -1.
</event>
<event>
 7    1  0.2710146E-013  0.7246093E+02  0.7816164E-02  0.1226710E+00
        -11   -1    0    0    0    0  0.00000000000E+00  0.00000000000E+00  0.45593999997E+02  0.45594000000E+02  0.51100000000E-03 0.  1.
         11   -1    0    0    0    0 -0.00000000000E+00 -0.00000000000E+00 -0.45593999997E+02  0.45594000000E+02  0.51100000000E-03 0. -1.
    9900012    2    1    2    0    0  0.53109035282E+01 -0.29473704666E-01 -0.17958184868E+02  0.72460934860E+02  0.69999172224E+02 0.  0.
        -12    1    1    2    0    0 -0.53109035282E+01  0.29473704666E-01  0.17958184868E+02  0.18727065140E+02  0.00000000000E+00 0.  1.
         11    1    3    3    0    0 -0.25652878493E+01 -0.11411340354E+01  0.58824498859E+01  0.65181366630E+01  0.51100000000E-03 0. -1.
        -11    1    3    3    0    0 -0.66768314628E+01 -0.11657807123E+02  0.16451745612E+02  0.21240161940E+02  0.51100000000E-03 0.  1.
         12    1    3    3    0    0  0.14553022840E+02  0.12769467453E+02 -0.40292380366E+02  0.44702636258E+02  0.00000000000E+00 0. -1.
</event>
<event>
 7    1  0.2710146E-013  0.7246149E+02  0.7816164E-02  0.1226708E+00
        -11   -1    0    0    0    0  0.00000000000E+00  0.00000000000E+00  0.45593999997E+02  0.45594000000E+02  0.51100000000E-03 0. -1.
         11   -1    0    0    0    0 -0.00000000000E+00 -0.00000000000E+00 -0.45593999997E+02  0.45594000000E+02  0.51100000000E-03 0.  1.
    9900012    2    1    2    0    0 -0.15323770363E+02 -0.67542488591E+01  0.83811859602E+01  0.72461492213E+02  0.69999898284E+02 0.  0.
        -12    1    1    2    0    0  0.15323770363E+02  0.67542488591E+01 -0.83811859602E+01  0.18726507787E+02  0.00000000000E+00 0.  1.
         11    1    3    3    0    0  0.36908484485E+01 -0.13608449764E+02  0.17194746553E+02  0.22236716856E+02  0.51100000000E-03 0. -1.
        -11    1    3    3    0    0 -0.24694471741E+02 -0.12460416267E+02  0.13085036289E+01  0.27690992943E+02  0.51100000000E-03 0.  1.
         12    1    3    3    0    0  0.56798529294E+01  0.19314617172E+02 -0.10122064221E+02  0.22533782414E+02  0.00000000000E+00 0. -1.
</event>
<event>
 7    1  0.2710146E-013  0.7246179E+02  0.7816164E-02  0.1226707E+00
        -11   -1    0    0    0    0  0.00000000000E+00  0.00000000000E+00  0.45593999997E+02  0.45594000000E+02  0.51100000000E-03 0. -1.
         11   -1    0    0    0    0 -0.00000000000E+00 -0.00000000000E+00 -0.45593999997E+02  0.45594000000E+02  0.51100000000E-03 0.  1.
    9900012    2    1    2    0    0  0.86694889310E+01 -0.16443219267E+02  0.22652514336E+01  0.72461792102E+02  0.70000288945E+02 0.  0.
        -12    1    1    2    0    0 -0.86694889310E+01  0.16443219267E+02 -0.22652514336E+01  0.18726207898E+02  0.00000000000E+00 0.  1.
         11    1    3    3    0    0  0.15349687849E+02  0.20461292926E+02  0.32997102665E+00  0.25580975478E+02  0.51100000000E-03 0. -1.
        -11    1    3    3    0    0  0.35650615148E+01  0.29737427755E+01 -0.28230801991E+01  0.54334695887E+01  0.51100000000E-03 0.  1.
        -12    1    3    3    0    0 -0.10245260433E+02 -0.39878254968E+02  0.47583606061E+01  0.41447347036E+02  0.00000000000E+00 0.  1.
</event>
<event>
 7    1  0.2710146E-013  0.7246146E+02  0.7816164E-02  0.1226708E+00
        -11   -1    0    0    0    0  0.00000000000E+00  0.00000000000E+00  0.45593999997E+02  0.45594000000E+02  0.51100000000E-03 0.  1.
         11   -1    0    0    0    0 -0.00000000000E+00 -0.00000000000E+00 -0.45593999997E+02  0.45594000000E+02  0.51100000000E-03 0. -1.
    9900012    2    1    2    0    0  0.33355374892E+01  0.15550746799E+02 -0.98859424387E+01  0.72461457494E+02  0.69999853056E+02 0.  0.
        -12    1    1    2    0    0 -0.33355374892E+01 -0.15550746799E+02  0.98859424387E+01  0.18726542506E+02  0.00000000000E+00 0.  1.
         11    1    3    3    0    0  0.60861316593E+00 -0.14207470306E+01 -0.49704738602E+01  0.52052418548E+01  0.51100000000E-03 0. -1.
        -11    1    3    3    0    0 -0.16161737095E+02 -0.31601605731E+01 -0.27187777525E+02  0.31786217261E+02  0.51100000000E-03 0.  1.
        -12    1    3    3    0    0  0.18888661418E+02  0.20131654402E+02  0.22272308946E+02  0.35469998378E+02  0.00000000000E+00 0.  1.
</event>
<event>
 7    1  0.2710146E-013  0.7246172E+02  0.7816164E-02  0.1226708E+00
        -11   -1    0    0    0    0  0.00000000000E+00  0.00000000000E+00  0.45593999997E+02  0.45594000000E+02  0.51100000000E-03 0. -1.
         11   -1    0    0    0    0 -0.00000000000E+00 -0.00000000000E+00 -0.45593999997E+02  0.45594000000E+02  0.51100000000E-03 0.  1.
    9900012    2    1    2    0    0  0.99171010415E+01  0.12070891462E+02  0.10325617889E+02  0.72461716371E+02  0.70000190292E+02 0.  0.
        -12    1    1    2    0    0 -0.99171010415E+01 -0.12070891462E+02 -0.10325617889E+02  0.18726283629E+02  0.00000000000E+00 0.  1.
         11    1    3    3    0    0  0.62468209091E+01  0.32512820780E+02  0.28052576071E+02  0.43394162177E+02  0.51100000000E-03 0. -1.
        -11    1    3    3    0    0 -0.68160423126E+00 -0.17064160647E+01  0.11090884590E+01  0.21462799410E+01  0.51100000000E-03 0.  1.
        -12    1    3    3    0    0  0.43518843637E+01 -0.18735513253E+02 -0.18836046641E+02  0.26921274254E+02  0.00000000000E+00 0.  1.
</event>
<event>
 7    1  0.2710146E-013  0.7246158E+02  0.7816164E-02  0.1226708E+00
        -11   -1    0    0    0    0  0.00000000000E+00  0.00000000000E+00  0.45593999997E+02  0.45594000000E+02  0.51100000000E-03 0. -1.
         11   -1    0    0    0    0 -0.00000000000E+00 -0.00000000000E+00 -0.45593999997E+02  0.45594000000E+02  0.51100000000E-03 0.  1.
    9900012    2    1    2    0    0  0.12658534522E+02  0.13364417021E+02 -0.34398378897E+01  0.72461584880E+02  0.70000019000E+02 0.  0.
        -12    1    1    2    0    0 -0.12658534522E+02 -0.13364417021E+02  0.34398378897E+01  0.18726415120E+02  0.00000000000E+00 0.  1.
         11    1    3    3    0    0 -0.14245799695E+02  0.19187743345E+02  0.13597217259E+02  0.27495392725E+02  0.51100000000E-03 0. -1.
        -11    1    3    3    0    0  0.11747153243E+02  0.85807694233E+01  0.42216872115E+01  0.15147536314E+02  0.51100000000E-03 0.  1.
        -12    1    3    3    0    0  0.15157180974E+02 -0.14404095748E+02 -0.21258742361E+02  0.29818655841E+02  0.00000000000E+00 0.  1.
</event>
<event>
 7    1  0.2710146E-013  0.7246160E+02  0.7816164E-02  0.1226708E+00
        -11   -1    0    0    0    0  0.00000000000E+00  0.00000000000E+00  0.45593999997E+02  0.45594000000E+02  0.51100000000E-03 0.  1.
         11   -1    0    0    0    0 -0.00000000000E+00 -0.00000000000E+00 -0.45593999997E+02  0.45594000000E+02  0.51100000000E-03 0. -1.
    9900012    2    1    2    0    0  0.14844932475E+02 -0.65405934589E+01 -0.93555628609E+01  0.72461603138E+02  0.70000042785E+02 0.  0.
        -12    1    1    2    0    0 -0.14844932475E+02  0.65405934589E+01  0.93555628609E+01  0.18726396862E+02  0.00000000000E+00 0.  1.
         11    1    3    3    0    0  0.21899384395E+02  0.14734335730E+02 -0.27551638542E+02  0.38154638943E+02  0.51100000000E-03 0. -1.
        -11    1    3    3    0    0  0.18291536230E+01 -0.14406448508E+02  0.20884120896E+01  0.14671503908E+02  0.51100000000E-03 0.  1.
        -12    1    3    3    0    0 -0.88836055430E+01 -0.68684806804E+01  0.16107663591E+02  0.19635460287E+02  0.00000000000E+00 0.  1.
</event>
<event>
 7    1  0.2710146E-013  0.7246160E+02  0.7816164E-02  0.1226708E+00
        -11   -1    0    0    0    0  0.00000000000E+00  0.00000000000E+00  0.45593999997E+02  0.45594000000E+02  0.51100000000E-03 0.  1.
         11   -1    0    0    0    0 -0.00000000000E+00 -0.00000000000E+00 -0.45593999997E+02  0.45594000000E+02  0.51100000000E-03 0. -1.
    9900012    2    1    2    0    0 -0.10512650230E+02  0.37889741736E+01 -0.15026841522E+02  0.72461598683E+02  0.70000036982E+02 0.  0.
        -12    1    1    2    0    0  0.10512650230E+02 -0.37889741736E+01  0.15026841522E+02  0.18726401317E+02  0.00000000000E+00 0.  1.
         11    1    3    3    0    0 -0.15787534770E+02 -0.74644028945E+01 -0.33303626965E+00  0.17466381368E+02  0.51100000000E-03 0. -1.
        -11    1    3    3    0    0  0.43220149352E+01 -0.62506368579E+01 -0.30475027919E+02  0.31408240975E+02  0.51100000000E-03 0.  1.
         12    1    3    3    0    0  0.95286960460E+00  0.17504013926E+02  0.15781222667E+02  0.23586976340E+02  0.00000000000E+00 0. -1.
</event>
<event>
 7    1  0.2710146E-013  0.7246163E+02  0.7816164E-02  0.1226708E+00
        -11   -1    0    0    0    0  0.00000000000E+00  0.00000000000E+00  0.45593999997E+02  0.45594000000E+02  0.51100000000E-03 0.  1.
         11   -1    0    0    0    0 -0.00000000000E+00 -0.00000000000E+00 -0.45593999997E+02  0.45594000000E+02  0.51100000000E-03 0. -1.
    9900012    2    1    2    0    0  0.11849616987E+02  0.64488179343E+00 -0.14486122966E+02  0.72461626783E+02  0.70000073587E+02 0.  0.
        -12    1    1    2    0    0 -0.11849616987E+02 -0.64488179343E+00  0.14486122966E+02  0.18726373217E+02  0.00000000000E+00 0.  1.
         11    1    3    3    0    0  0.14871098442E+02 -0.17832191466E+01 -0.20415887298E+01  0.15116134565E+02  0.51100000000E-03 0. -1.
        -11    1    3    3    0    0  0.25884912803E+02 -0.44475302028E+01 -0.60708808328E+01  0.26956721426E+02  0.51100000000E-03 0.  1.
        -12    1    3    3    0    0 -0.28906394257E+02  0.68756311428E+01 -0.63736534034E+01  0.30388770792E+02  0.00000000000E+00 0.  1.
</event>
<event>
 7    1  0.2710146E-013  0.7246158E+02  0.7816164E-02  0.1226708E+00
        -11   -1    0    0    0    0  0.00000000000E+00  0.00000000000E+00  0.45593999997E+02  0.45594000000E+02  0.51100000000E-03 0.  1.
         11   -1    0    0    0    0 -0.00000000000E+00 -0.00000000000E+00 -0.45593999997E+02  0.45594000000E+02  0.51100000000E-03 0. -1.
    9900012    2    1    2    0    0 -0.83880165634E+01 -0.78423407750E+01 -0.14792491021E+02  0.72461576922E+02  0.70000008634E+02 0.  0.
        -12    1    1    2    0    0  0.83880165634E+01  0.78423407750E+01  0.14792491021E+02  0.18726423078E+02  0.00000000000E+00 0.  1.
         11    1    3    3    0    0 -0.20287253695E+02  0.18845963082E+02 -0.66773554548E+01  0.28483856184E+02  0.51100000000E-03 0. -1.
        -11    1    3    3    0    0  0.21506635599E+01  0.10021128348E+01 -0.13862493392E+02  0.14064078612E+02  0.51100000000E-03 0.  1.
        -12    1    3    3    0    0  0.97485735722E+01 -0.27690416692E+02  0.57473578265E+01  0.29913642126E+02  0.00000000000E+00 0.  1.
</event>
<event>
 7    1  0.2710146E-013  0.7246204E+02  0.7816164E-02  0.1226707E+00
        -11   -1    0    0    0    0  0.00000000000E+00  0.00000000000E+00  0.45593999997E+02  0.45594000000E+02  0.51100000000E-03 0. -1.
         11   -1    0    0    0    0 -0.00000000000E+00 -0.00000000000E+00 -0.45593999997E+02  0.45594000000E+02  0.51100000000E-03 0.  1.
    9900012    2    1    2    0    0 -0.17616068850E+02  0.63477290276E+01  0.20492781558E+00  0.72462040987E+02  0.70000613162E+02 0.  0.
        -12    1    1    2    0    0  0.17616068850E+02 -0.63477290276E+01 -0.20492781558E+00  0.18725959013E+02  0.00000000000E+00 0.  1.
         11    1    3    3    0    0  0.56705879106E+01 -0.45739739827E+00  0.17718144640E+02  0.18609068472E+02  0.51100000000E-03 0. -1.
        -11    1    3    3    0    0  0.13577383599E+02  0.18857319614E+01 -0.55014946684E+01  0.14770503521E+02  0.51100000000E-03 0.  1.
         12    1    3    3    0    0 -0.36864040360E+02  0.49193944645E+01 -0.12011722156E+02  0.39082468994E+02  0.00000000000E+00 0. -1.
</event>
<event>
 7    1  0.2710146E-013  0.7246155E+02  0.7816164E-02  0.1226708E+00
        -11   -1    0    0    0    0  0.00000000000E+00  0.00000000000E+00  0.45593999997E+02  0.45594000000E+02  0.51100000000E-03 0. -1.
         11   -1    0    0    0    0 -0.00000000000E+00 -0.00000000000E+00 -0.45593999997E+02  0.45594000000E+02  0.51100000000E-03 0.  1.
    9900012    2    1    2    0    0  0.31526937504E+01  0.33699619299E+01  0.18148935533E+02  0.72461548594E+02  0.69999971731E+02 0.  0.
        -12    1    1    2    0    0 -0.31526937504E+01 -0.33699619299E+01 -0.18148935533E+02  0.18726451406E+02  0.00000000000E+00 0.  1.
         11    1    3    3    0    0  0.13758325322E+01 -0.44089922165E+01  0.28443597196E+01  0.54242520219E+01  0.51100000000E-03 0. -1.
        -11    1    3    3    0    0  0.31463034890E+02  0.10809791121E+02  0.16577406108E+02  0.37169672344E+02  0.51100000000E-03 0.  1.
         12    1    3    3    0    0 -0.29686173672E+02 -0.30308369746E+01 -0.12728302948E+01  0.29867624228E+02  0.00000000000E+00 0. -1.
</event>
<event>
 7    1  0.2710146E-013  0.7246159E+02  0.7816164E-02  0.1226708E+00
        -11   -1    0    0    0    0  0.00000000000E+00  0.00000000000E+00  0.45593999997E+02  0.45594000000E+02  0.51100000000E-03 0. -1.
         11   -1    0    0    0    0 -0.00000000000E+00 -0.00000000000E+00 -0.45593999997E+02  0.45594000000E+02  0.51100000000E-03 0.  1.
    9900012    2    1    2    0    0  0.11342800377E+02  0.61604888169E+01  0.13567156458E+02  0.72461588779E+02  0.70000024080E+02 0.  0.
        -12    1    1    2    0    0 -0.11342800377E+02 -0.61604888169E+01 -0.13567156458E+02  0.18726411221E+02  0.00000000000E+00 0.  1.
         11    1    3    3    0    0 -0.69814809840E+01 -0.66977467417E+01  0.13330796912E+01  0.97661655664E+01  0.51100000000E-03 0. -1.
        -11    1    3    3    0    0 -0.15951507231E+02 -0.10156058200E+02  0.98978580196E+01  0.21343938126E+02  0.51100000000E-03 0.  1.
        -12    1    3    3    0    0  0.34275788592E+02  0.23014293759E+02  0.23362187471E+01  0.41351485086E+02  0.00000000000E+00 0.  1.
</event>
<event>
 7    1  0.2710146E-013  0.7246154E+02  0.7816164E-02  0.1226708E+00
        -11   -1    0    0    0    0  0.00000000000E+00  0.00000000000E+00  0.45593999997E+02  0.45594000000E+02  0.51100000000E-03 0.  1.
         11   -1    0    0    0    0 -0.00000000000E+00 -0.00000000000E+00 -0.45593999997E+02  0.45594000000E+02  0.51100000000E-03 0. -1.
    9900012    2    1    2    0    0 -0.16996282191E+02 -0.36121892255E+01 -0.69827503143E+01  0.72461539543E+02  0.69999959940E+02 0.  0.
        -12    1    1    2    0    0  0.16996282191E+02  0.36121892255E+01  0.69827503143E+01  0.18726460457E+02  0.00000000000E+00 0.  1.
         11    1    3    3    0    0 -0.17568811853E+02  0.50205254839E+01  0.14708193281E+02  0.23456337649E+02  0.51100000000E-03 0. -1.
        -11    1    3    3    0    0 -0.10465869226E+02  0.60994850344E+01  0.76793181889E+01  0.14342596154E+02  0.51100000000E-03 0.  1.
         12    1    3    3    0    0  0.11038398888E+02 -0.14732199744E+02 -0.29370261785E+02  0.34662605739E+02  0.00000000000E+00 0. -1.
</event>
<event>
 7    1  0.2710146E-013  0.7246175E+02  0.7816164E-02  0.1226708E+00
        -11   -1    0    0    0    0  0.00000000000E+00  0.00000000000E+00  0.45593999997E+02  0.45594000000E+02  0.51100000000E-03 0.  1.
         11   -1    0    0    0    0 -0.00000000000E+00 -0.00000000000E+00 -0.45593999997E+02  0.45594000000E+02  0.51100000000E-03 0. -1.
    9900012    2    1    2    0    0 -0.59419465937E+01 -0.20780954062E+00 -0.17757319508E+02  0.72461753439E+02  0.70000238580E+02 0.  0.
        -12    1    1    2    0    0  0.59419465937E+01  0.20780954062E+00  0.17757319508E+02  0.18726246561E+02  0.00000000000E+00 0.  1.
         11    1    3    3    0    0  0.14755661733E+02  0.67833000923E+01 -0.16741521954E+02  0.23324263567E+02  0.51100000000E-03 0. -1.
        -11    1    3    3    0    0 -0.91765215786E+01  0.18611839312E+02  0.22487135521E+01  0.20872609414E+02  0.51100000000E-03 0.  1.
        -12    1    3    3    0    0 -0.11521086748E+02 -0.25602948945E+02 -0.32645111063E+01  0.28264880458E+02  0.00000000000E+00 0.  1.
</event>
<event>
 7    1  0.2710146E-013  0.7246159E+02  0.7816164E-02  0.1226708E+00
        -11   -1    0    0    0    0  0.00000000000E+00  0.00000000000E+00  0.45593999997E+02  0.45594000000E+02  0.51100000000E-03 0. -1.
         11   -1    0    0    0    0 -0.00000000000E+00 -0.00000000000E+00 -0.45593999997E+02  0.45594000000E+02  0.51100000000E-03 0.  1.
    9900012    2    1    2    0    0 -0.66690300845E+01 -0.47855296693E+01  0.16831549762E+02  0.72461592873E+02  0.70000029414E+02 0.  0.
        -12    1    1    2    0    0  0.66690300845E+01  0.47855296693E+01 -0.16831549762E+02  0.18726407127E+02  0.00000000000E+00 0.  1.
         11    1    3    3    0    0  0.22573938971E+02  0.55693492599E+01  0.17815595182E+02  0.29291565404E+02  0.51100000000E-03 0. -1.
        -11    1    3    3    0    0  0.17955333130E+01  0.69934719340E+01  0.19860144310E+01  0.74884473124E+01  0.51100000000E-03 0.  1.
        -12    1    3    3    0    0 -0.31038502369E+02 -0.17348350863E+02 -0.29700598512E+01  0.35681580157E+02  0.00000000000E+00 0.  1.
</event>
<event>
 7    1  0.2710146E-013  0.7246162E+02  0.7816164E-02  0.1226708E+00
        -11   -1    0    0    0    0  0.00000000000E+00  0.00000000000E+00  0.45593999997E+02  0.45594000000E+02  0.51100000000E-03 0. -1.
         11   -1    0    0    0    0 -0.00000000000E+00 -0.00000000000E+00 -0.45593999997E+02  0.45594000000E+02  0.51100000000E-03 0.  1.
    9900012    2    1    2    0    0  0.28142190620E+01 -0.89915596079E+01  0.16183608250E+02  0.72461624240E+02  0.70000070274E+02 0.  0.
        -12    1    1    2    0    0 -0.28142190620E+01  0.89915596079E+01 -0.16183608250E+02  0.18726375760E+02  0.00000000000E+00 0.  1.
         11    1    3    3    0    0  0.93270505818E+01  0.19257933363E+01  0.18352642698E+02  0.20676606269E+02  0.51100000000E-03 0. -1.
        -11    1    3    3    0    0  0.17145380553E+02 -0.36561834820E+01  0.13818763788E+02  0.22322409925E+02  0.51100000000E-03 0.  1.
        -12    1    3    3    0    0 -0.23658212073E+02 -0.72611694622E+01 -0.15987798236E+02  0.29462608046E+02  0.00000000000E+00 0.  1.
</event>
<event>
 7    1  0.2710146E-013  0.7246158E+02  0.7816164E-02  0.1226708E+00
        -11   -1    0    0    0    0  0.00000000000E+00  0.00000000000E+00  0.45593999997E+02  0.45594000000E+02  0.51100000000E-03 0. -1.
         11   -1    0    0    0    0 -0.00000000000E+00 -0.00000000000E+00 -0.45593999997E+02  0.45594000000E+02  0.51100000000E-03 0.  1.
    9900012    2    1    2    0    0 -0.16628130252E+02  0.86055040668E+01  0.35973925352E+00  0.72461579406E+02  0.70000011870E+02 0.  0.
        -12    1    1    2    0    0  0.16628130252E+02 -0.86055040668E+01 -0.35973925352E+00  0.18726420594E+02  0.00000000000E+00 0.  1.
         11    1    3    3    0    0 -0.20501237851E+02 -0.10266581399E+02 -0.48013066125E+01  0.23425541456E+02  0.51100000000E-03 0. -1.
        -11    1    3    3    0    0 -0.87322799781E+01 -0.45984179611E+01  0.17177013503E+02  0.19810299203E+02  0.51100000000E-03 0.  1.
        -12    1    3    3    0    0  0.12605387576E+02  0.23470503427E+02 -0.12015967637E+02  0.29225738747E+02  0.00000000000E+00 0.  1.
</event>
<event>
 7    1  0.2710146E-013  0.7246157E+02  0.7816164E-02  0.1226708E+00
        -11   -1    0    0    0    0  0.00000000000E+00  0.00000000000E+00  0.45593999997E+02  0.45594000000E+02  0.51100000000E-03 0. -1.
         11   -1    0    0    0    0 -0.00000000000E+00 -0.00000000000E+00 -0.45593999997E+02  0.45594000000E+02  0.51100000000E-03 0.  1.
    9900012    2    1    2    0    0  0.12286770091E+02  0.44104569542E+00  0.14125156766E+02  0.72461566965E+02  0.69999995662E+02 0.  0.
        -12    1    1    2    0    0 -0.12286770091E+02 -0.44104569542E+00 -0.14125156766E+02  0.18726433035E+02  0.00000000000E+00 0.  1.
         11    1    3    3    0    0 -0.55494869280E+01  0.12781324331E+02 -0.55906862068E+01  0.15013821277E+02  0.51100000000E-03 0. -1.
        -11    1    3    3    0    0  0.21164141034E+00  0.15373958383E+02 -0.51910762505E+01  0.16228082491E+02  0.51100000000E-03 0.  1.
         12    1    3    3    0    0  0.17624615608E+02 -0.27714237018E+02  0.24906919223E+02  0.41219663196E+02  0.00000000000E+00 0. -1.
</event>
<event>
 7    1  0.2710146E-013  0.7246151E+02  0.7816164E-02  0.1226708E+00
        -11   -1    0    0    0    0  0.00000000000E+00  0.00000000000E+00  0.45593999997E+02  0.45594000000E+02  0.51100000000E-03 0. -1.
         11   -1    0    0    0    0 -0.00000000000E+00 -0.00000000000E+00 -0.45593999997E+02  0.45594000000E+02  0.51100000000E-03 0.  1.
    9900012    2    1    2    0    0  0.12113971976E+02 -0.13955813248E+02 -0.30279059815E+01  0.72461514610E+02  0.69999927460E+02 0.  0.
        -12    1    1    2    0    0 -0.12113971976E+02  0.13955813248E+02  0.30279059815E+01  0.18726485390E+02  0.00000000000E+00 0.  1.
         11    1    3    3    0    0  0.14599421269E+02 -0.18354775629E-01 -0.85531827527E+00  0.14624466072E+02  0.51100000000E-03 0. -1.
        -11    1    3    3    0    0 -0.88085752228E+01 -0.29395825306E+02  0.14761026153E+02  0.34052803647E+02  0.51100000000E-03 0.  1.
         12    1    3    3    0    0  0.63231259292E+01  0.15458366834E+02 -0.16933613859E+02  0.23784244890E+02  0.00000000000E+00 0. -1.
</event>
<event>
 7    1  0.2710146E-013  0.7246154E+02  0.7816164E-02  0.1226708E+00
        -11   -1    0    0    0    0  0.00000000000E+00  0.00000000000E+00  0.45593999997E+02  0.45594000000E+02  0.51100000000E-03 0.  1.
         11   -1    0    0    0    0 -0.00000000000E+00 -0.00000000000E+00 -0.45593999997E+02  0.45594000000E+02  0.51100000000E-03 0. -1.
    9900012    2    1    2    0    0  0.12447204465E+01  0.11450190517E+02 -0.14765642587E+02  0.72461537631E+02  0.69999957449E+02 0.  0.
        -12    1    1    2    0    0 -0.12447204465E+01 -0.11450190517E+02  0.14765642587E+02  0.18726462369E+02  0.00000000000E+00 0.  1.
         11    1    3    3    0    0 -0.11306773057E+02 -0.13015676023E+02  0.18521127443E+02  0.25303815944E+02  0.51100000000E-03 0.  1.
        -11    1    3    3    0    0 -0.20854906984E+01  0.49197583089E+01  0.61314337971E+00  0.53785907389E+01  0.51100000000E-03 0. -1.
        -12    1    3    3    0    0  0.14636984202E+02  0.19546108231E+02 -0.33899913410E+02  0.41779130947E+02  0.00000000000E+00 0.  1.
</event>
<event>
 7    1  0.2710146E-013  0.7246173E+02  0.7816164E-02  0.1226708E+00
        -11   -1    0    0    0    0  0.00000000000E+00  0.00000000000E+00  0.45593999997E+02  0.45594000000E+02  0.51100000000E-03 0.  1.
         11   -1    0    0    0    0 -0.00000000000E+00 -0.00000000000E+00 -0.45593999997E+02  0.45594000000E+02  0.51100000000E-03 0. -1.
    9900012    2    1    2    0    0 -0.24796167461E+01  0.16483152730E+02 -0.85340673916E+01  0.72461731569E+02  0.70000210089E+02 0.  0.
        -12    1    1    2    0    0  0.24796167461E+01 -0.16483152730E+02  0.85340673916E+01  0.18726268431E+02  0.00000000000E+00 0.  1.
         11    1    3    3    0    0 -0.25028651833E+00  0.81093937081E+01  0.16233307925E+02  0.18147870291E+02  0.51100000000E-03 0. -1.
        -11    1    3    3    0    0 -0.13350037104E+02  0.20217648944E+02  0.54788330650E+00  0.24233798626E+02  0.51100000000E-03 0.  1.
         12    1    3    3    0    0  0.11120706876E+02 -0.11843889922E+02 -0.25315258623E+02  0.30080062651E+02  0.00000000000E+00 0. -1.
</event>
<event>
 7    1  0.2710146E-013  0.7246159E+02  0.7816164E-02  0.1226708E+00
        -11   -1    0    0    0    0  0.00000000000E+00  0.00000000000E+00  0.45593999997E+02  0.45594000000E+02  0.51100000000E-03 0.  1.
         11   -1    0    0    0    0 -0.00000000000E+00 -0.00000000000E+00 -0.45593999997E+02  0.45594000000E+02  0.51100000000E-03 0. -1.
    9900012    2    1    2    0    0  0.10372428848E+02  0.90664481533E+01  0.12684268452E+02  0.72461590080E+02  0.70000025775E+02 0.  0.
        -12    1    1    2    0    0 -0.10372428848E+02 -0.90664481533E+01 -0.12684268452E+02  0.18726409920E+02  0.00000000000E+00 0.  1.
         11    1    3    3    0    0 -0.41231648524E+01 -0.19676935383E+02 -0.13250579489E+02  0.24078208644E+02  0.51100000000E-03 0. -1.
        -11    1    3    3    0    0 -0.13851456954E+01  0.22129988791E+02  0.81064821021E+01  0.23608686639E+02  0.51100000000E-03 0.  1.
        -12    1    3    3    0    0  0.15880739396E+02  0.66133947453E+01  0.17828365838E+02  0.24774694797E+02  0.00000000000E+00 0.  1.
</event>
<event>
 7    1  0.2710146E-013  0.7246155E+02  0.7816164E-02  0.1226708E+00
        -11   -1    0    0    0    0  0.00000000000E+00  0.00000000000E+00  0.45593999997E+02  0.45594000000E+02  0.51100000000E-03 0. -1.
         11   -1    0    0    0    0 -0.00000000000E+00 -0.00000000000E+00 -0.45593999997E+02  0.45594000000E+02  0.51100000000E-03 0.  1.
    9900012    2    1    2    0    0  0.98199199960E+01  0.36027070868E+01  0.15532856523E+02  0.72461549219E+02  0.69999972545E+02 0.  0.
        -12    1    1    2    0    0 -0.98199199960E+01 -0.36027070868E+01 -0.15532856523E+02  0.18726450781E+02  0.00000000000E+00 0.  1.
         11    1    3    3    0    0 -0.66429840072E+01  0.21223673464E+02  0.21827766788E+02  0.31161273322E+02  0.51100000000E-03 0. -1.
        -11    1    3    3    0    0 -0.23989997383E+01  0.25586439533E+01  0.90472175582E+01  0.97032986365E+01  0.51100000000E-03 0.  1.
        -12    1    3    3    0    0  0.18861903742E+02 -0.20179610331E+02 -0.15342127823E+02  0.31596977260E+02  0.00000000000E+00 0.  1.
</event>
<event>
 7    1  0.2710146E-013  0.7246157E+02  0.7816164E-02  0.1226708E+00
        -11   -1    0    0    0    0  0.00000000000E+00  0.00000000000E+00  0.45593999997E+02  0.45594000000E+02  0.51100000000E-03 0.  1.
         11   -1    0    0    0    0 -0.00000000000E+00 -0.00000000000E+00 -0.45593999997E+02  0.45594000000E+02  0.51100000000E-03 0. -1.
    9900012    2    1    2    0    0 -0.75348739376E+01  0.12586432251E+02 -0.11639874941E+02  0.72461567059E+02  0.69999995785E+02 0.  0.
        -12    1    1    2    0    0  0.75348739376E+01 -0.12586432251E+02  0.11639874941E+02  0.18726432941E+02  0.00000000000E+00 0.  1.
         11    1    3    3    0    0  0.25248041618E+02 -0.78339194821E+01  0.14171123626E+01  0.26473422667E+02  0.51100000000E-03 0. -1.
        -11    1    3    3    0    0 -0.64438584547E+01  0.11956322092E+02  0.31255867467E+01  0.13937225066E+02  0.51100000000E-03 0.  1.
        -12    1    3    3    0    0 -0.26339057101E+02  0.84640296406E+01 -0.16182574051E+02  0.32050919326E+02  0.00000000000E+00 0.  1.
</event>
<event>
 7    1  0.2710146E-013  0.7246166E+02  0.7816164E-02  0.1226708E+00
        -11   -1    0    0    0    0  0.00000000000E+00  0.00000000000E+00  0.45593999997E+02  0.45594000000E+02  0.51100000000E-03 0. -1.
         11   -1    0    0    0    0 -0.00000000000E+00 -0.00000000000E+00 -0.45593999997E+02  0.45594000000E+02  0.51100000000E-03 0.  1.
    9900012    2    1    2    0    0  0.62005065907E+01  0.17002656673E+02  0.48103287888E+01  0.72461658152E+02  0.70000114451E+02 0.  0.
        -12    1    1    2    0    0 -0.62005065907E+01 -0.17002656673E+02 -0.48103287888E+01  0.18726341848E+02  0.00000000000E+00 0.  1.
         11    1    3    3    0    0 -0.75778257135E+01  0.26481378522E+02  0.90826057286E+01  0.29003113247E+02  0.51100000000E-03 0. -1.
        -11    1    3    3    0    0  0.23785241372E+02 -0.59844056830E+01  0.93063308608E+01  0.26232777452E+02  0.51100000000E-03 0.  1.
        -12    1    3    3    0    0 -0.10006909067E+02 -0.34943161653E+01 -0.13578607801E+02  0.17225767453E+02  0.00000000000E+00 0.  1.
</event>
<event>
 7    1  0.2710146E-013  0.7246157E+02  0.7816164E-02  0.1226708E+00
        -11   -1    0    0    0    0  0.00000000000E+00  0.00000000000E+00  0.45593999997E+02  0.45594000000E+02  0.51100000000E-03 0.  1.
         11   -1    0    0    0    0 -0.00000000000E+00 -0.00000000000E+00 -0.45593999997E+02  0.45594000000E+02  0.51100000000E-03 0. -1.
    9900012    2    1    2    0    0  0.14343894740E+02  0.12034892578E+02 -0.30533431952E+00  0.72461569889E+02  0.69999999471E+02 0.  0.
        -12    1    1    2    0    0 -0.14343894740E+02 -0.12034892578E+02  0.30533431952E+00  0.18726430111E+02  0.00000000000E+00 0.  1.
         11    1    3    3    0    0  0.24843655395E+01  0.25982652980E+01  0.11640773880E+02  0.12183212691E+02  0.51100000000E-03 0. -1.
        -11    1    3    3    0    0  0.16325655762E+02  0.30395270194E+02  0.22468098329E+01  0.34575246071E+02  0.51100000000E-03 0.  1.
         12    1    3    3    0    0 -0.44661265609E+01 -0.20958642914E+02 -0.14192918033E+02  0.25703111126E+02  0.00000000000E+00 0. -1.
</event>
<event>
 7    1  0.2710146E-013  0.7246155E+02  0.7816164E-02  0.1226708E+00
        -11   -1    0    0    0    0  0.00000000000E+00  0.00000000000E+00  0.45593999997E+02  0.45594000000E+02  0.51100000000E-03 0.  1.
         11   -1    0    0    0    0 -0.00000000000E+00 -0.00000000000E+00 -0.45593999997E+02  0.45594000000E+02  0.51100000000E-03 0. -1.
    9900012    2    1    2    0    0  0.80857553866E+01  0.14326787721E+02 -0.89467070423E+01  0.72461552033E+02  0.69999976211E+02 0.  0.
        -12    1    1    2    0    0 -0.80857553866E+01 -0.14326787721E+02  0.89467070423E+01  0.18726447967E+02  0.00000000000E+00 0.  1.
         11    1    3    3    0    0  0.94534995616E+01 -0.13344185280E+02  0.11741180472E+02  0.20131846758E+02  0.51100000000E-03 0. -1.
        -11    1    3    3    0    0  0.36523685972E+01 -0.90879878620E+00  0.96444666649E+01  0.10352847392E+02  0.51100000000E-03 0.  1.
         12    1    3    3    0    0 -0.50201127723E+01  0.28579771787E+02 -0.30332354180E+02  0.41976857883E+02  0.00000000000E+00 0. -1.
</event>
<event>
 7    1  0.2710146E-013  0.7246193E+02  0.7816164E-02  0.1226707E+00
        -11   -1    0    0    0    0  0.00000000000E+00  0.00000000000E+00  0.45593999997E+02  0.45594000000E+02  0.51100000000E-03 0.  1.
         11   -1    0    0    0    0 -0.00000000000E+00 -0.00000000000E+00 -0.45593999997E+02  0.45594000000E+02  0.51100000000E-03 0. -1.
    9900012    2    1    2    0    0  0.50773366802E+00 -0.55931459238E+01 -0.17864059996E+02  0.72461929554E+02  0.70000468002E+02 0.  0.
        -12    1    1    2    0    0 -0.50773366802E+00  0.55931459238E+01  0.17864059996E+02  0.18726070446E+02  0.00000000000E+00 0.  1.
         11    1    3    3    0    0 -0.89777028369E+01 -0.21214706297E+02 -0.35639596455E+01  0.23310184901E+02  0.51100000000E-03 0. -1.
        -11    1    3    3    0    0 -0.15026358108E+02  0.15443111276E+02 -0.17628607064E+01  0.21619176719E+02  0.51100000000E-03 0.  1.
         12    1    3    3    0    0  0.24511794613E+02  0.17844909674E+00 -0.12537239644E+02  0.27532567935E+02  0.00000000000E+00 0. -1.
</event>
<event>
 7    1  0.2710146E-013  0.7246157E+02  0.7816164E-02  0.1226708E+00
        -11   -1    0    0    0    0  0.00000000000E+00  0.00000000000E+00  0.45593999997E+02  0.45594000000E+02  0.51100000000E-03 0.  1.
         11   -1    0    0    0    0 -0.00000000000E+00 -0.00000000000E+00 -0.45593999997E+02  0.45594000000E+02  0.51100000000E-03 0. -1.
    9900012    2    1    2    0    0  0.17684518829E+02  0.49239065262E+01 -0.37002959700E+01  0.72461568093E+02  0.69999997133E+02 0.  0.
        -12    1    1    2    0    0 -0.17684518829E+02 -0.49239065262E+01  0.37002959700E+01  0.18726431907E+02  0.00000000000E+00 0.  1.
         11    1    3    3    0    0  0.13360095228E+02 -0.20135576562E+02 -0.18328647881E+02  0.30329406875E+02  0.51100000000E-03 0. -1.
        -11    1    3    3    0    0 -0.93880245224E+01  0.16090285136E-01  0.90514245826E+01  0.13040841636E+02  0.51100000000E-03 0.  1.
        -12    1    3    3    0    0  0.13712448123E+02  0.25043392803E+02  0.55769273284E+01  0.29091319582E+02  0.00000000000E+00 0.  1.
</event>
<event>
 7    1  0.2710146E-013  0.7246157E+02  0.7816164E-02  0.1226708E+00
        -11   -1    0    0    0    0  0.00000000000E+00  0.00000000000E+00  0.45593999997E+02  0.45594000000E+02  0.51100000000E-03 0. -1.
         11   -1    0    0    0    0 -0.00000000000E+00 -0.00000000000E+00 -0.45593999997E+02  0.45594000000E+02  0.51100000000E-03 0.  1.
    9900012    2    1    2    0    0  0.40058751243E+01  0.58781418875E+01  0.17322810568E+02  0.72461565381E+02  0.69999993599E+02 0.  0.
        -12    1    1    2    0    0 -0.40058751243E+01 -0.58781418875E+01 -0.17322810568E+02  0.18726434619E+02  0.00000000000E+00 0.  1.
         11    1    3    3    0    0 -0.19455322208E+01 -0.18405136838E+02  0.37109994268E+00  0.18511398463E+02  0.51100000000E-03 0. -1.
        -11    1    3    3    0    0  0.22384957407E+02  0.76903456197E+00  0.93581685769E+01  0.24274535045E+02  0.51100000000E-03 0.  1.
         12    1    3    3    0    0 -0.16433550062E+02  0.23514244163E+02  0.75935420487E+01  0.29675631873E+02  0.00000000000E+00 0. -1.
</event>
<event>
 7    1  0.2710146E-013  0.7246158E+02  0.7816164E-02  0.1226708E+00
        -11   -1    0    0    0    0  0.00000000000E+00  0.00000000000E+00  0.45593999997E+02  0.45594000000E+02  0.51100000000E-03 0.  1.
         11   -1    0    0    0    0 -0.00000000000E+00 -0.00000000000E+00 -0.45593999997E+02  0.45594000000E+02  0.51100000000E-03 0. -1.
    9900012    2    1    2    0    0 -0.68984845938E+01  0.16567386264E+02 -0.53489523743E+01  0.72461583663E+02  0.70000017416E+02 0.  0.
        -12    1    1    2    0    0  0.68984845938E+01 -0.16567386264E+02  0.53489523743E+01  0.18726416337E+02  0.00000000000E+00 0.  1.
         11    1    3    3    0    0  0.91670036093E+01 -0.71805124264E+01 -0.27311196536E+01  0.11960465238E+02  0.51100000000E-03 0. -1.
        -11    1    3    3    0    0 -0.27414255897E+02  0.13749110667E+02  0.17516422226E+02  0.35318614333E+02  0.51100000000E-03 0.  1.
         12    1    3    3    0    0  0.11348767694E+02  0.99987880236E+01 -0.20134254947E+02  0.25182504093E+02  0.00000000000E+00 0. -1.
</event>
<event>
 7    1  0.2710146E-013  0.7246162E+02  0.7816164E-02  0.1226708E+00
        -11   -1    0    0    0    0  0.00000000000E+00  0.00000000000E+00  0.45593999997E+02  0.45594000000E+02  0.51100000000E-03 0.  1.
         11   -1    0    0    0    0 -0.00000000000E+00 -0.00000000000E+00 -0.45593999997E+02  0.45594000000E+02  0.51100000000E-03 0. -1.
    9900012    2    1    2    0    0  0.11935778189E+02  0.44135916039E+01 -0.13738070986E+02  0.72461623248E+02  0.70000068982E+02 0.  0.
        -12    1    1    2    0    0 -0.11935778189E+02 -0.44135916039E+01  0.13738070986E+02  0.18726376752E+02  0.00000000000E+00 0.  1.
         11    1    3    3    0    0 -0.11210596965E+02  0.14392734348E+02 -0.88891206220E+01  0.20293958510E+02  0.51100000000E-03 0. -1.
        -11    1    3    3    0    0  0.11083859664E+02  0.14791480839E+02  0.98458015451E+01  0.20942293542E+02  0.51100000000E-03 0.  1.
         12    1    3    3    0    0  0.12062515490E+02 -0.24770623583E+02 -0.14694751910E+02  0.31225371196E+02  0.00000000000E+00 0. -1.
</event>
<event>
 7    1  0.2710146E-013  0.7246155E+02  0.7816164E-02  0.1226708E+00
        -11   -1    0    0    0    0  0.00000000000E+00  0.00000000000E+00  0.45593999997E+02  0.45594000000E+02  0.51100000000E-03 0. -1.
         11   -1    0    0    0    0 -0.00000000000E+00 -0.00000000000E+00 -0.45593999997E+02  0.45594000000E+02  0.51100000000E-03 0.  1.
    9900012    2    1    2    0    0 -0.10409386993E+02 -0.15289438904E+01  0.15491512998E+02  0.72461548602E+02  0.69999971742E+02 0.  0.
        -12    1    1    2    0    0  0.10409386993E+02  0.15289438904E+01 -0.15491512998E+02  0.18726451398E+02  0.00000000000E+00 0.  1.
         11    1    3    3    0    0 -0.24963600190E+02 -0.29958393936E+01  0.26014455374E+02  0.36178837416E+02  0.51100000000E-03 0. -1.
        -11    1    3    3    0    0 -0.34251115848E+01 -0.90085919657E+01 -0.12036146720E+02  0.15419304352E+02  0.51100000000E-03 0.  1.
        -12    1    3    3    0    0  0.17979324782E+02  0.10475487469E+02  0.15132043440E+01  0.20863406834E+02  0.00000000000E+00 0.  1.
</event>
<event>
 7    1  0.2710146E-013  0.7246155E+02  0.7816164E-02  0.1226708E+00
        -11   -1    0    0    0    0  0.00000000000E+00  0.00000000000E+00  0.45593999997E+02  0.45594000000E+02  0.51100000000E-03 0. -1.
         11   -1    0    0    0    0 -0.00000000000E+00 -0.00000000000E+00 -0.45593999997E+02  0.45594000000E+02  0.51100000000E-03 0.  1.
    9900012    2    1    2    0    0  0.85715195250E+01 -0.16035924036E+02  0.44786411974E+01  0.72461547222E+02  0.69999969944E+02 0.  0.
        -12    1    1    2    0    0 -0.85715195250E+01  0.16035924036E+02 -0.44786411974E+01  0.18726452778E+02  0.00000000000E+00 0.  1.
         11    1    3    3    0    0  0.92139222894E+01 -0.18876827674E+02  0.65022332667E+01  0.21988861378E+02  0.51100000000E-03 0. -1.
        -11    1    3    3    0    0  0.94839400368E+01 -0.14590882947E+02 -0.17785279639E+02  0.24882828535E+02  0.51100000000E-03 0.  1.
         12    1    3    3    0    0 -0.10126342801E+02  0.17431786585E+02  0.15761687570E+02  0.25589857309E+02  0.00000000000E+00 0. -1.
</event>
<event>
 7    1  0.2710146E-013  0.7246156E+02  0.7816164E-02  0.1226708E+00
        -11   -1    0    0    0    0  0.00000000000E+00  0.00000000000E+00  0.45593999997E+02  0.45594000000E+02  0.51100000000E-03 0. -1.
         11   -1    0    0    0    0 -0.00000000000E+00 -0.00000000000E+00 -0.45593999997E+02  0.45594000000E+02  0.51100000000E-03 0.  1.
    9900012    2    1    2    0    0  0.32821183422E+01 -0.64986603278E+01  0.17253245638E+02  0.72461564890E+02  0.69999992960E+02 0.  0.
        -12    1    1    2    0    0 -0.32821183422E+01  0.64986603278E+01 -0.17253245638E+02  0.18726435110E+02  0.00000000000E+00 0.  1.
         11    1    3    3    0    0  0.21426579756E+02  0.14016098783E+02  0.27987859903E+01  0.25756213783E+02  0.51100000000E-03 0. -1.
        -11    1    3    3    0    0  0.66921965307E+01 -0.53466858179E+01  0.15362449860E+02  0.17589127596E+02  0.51100000000E-03 0.  1.
        -12    1    3    3    0    0 -0.24836657945E+02 -0.15168073293E+02 -0.90799021218E+00  0.29116223511E+02  0.00000000000E+00 0.  1.
</event>
<event>
 7    1  0.2710146E-013  0.7246151E+02  0.7816164E-02  0.1226708E+00
        -11   -1    0    0    0    0  0.00000000000E+00  0.00000000000E+00  0.45593999997E+02  0.45594000000E+02  0.51100000000E-03 0.  1.
         11   -1    0    0    0    0 -0.00000000000E+00 -0.00000000000E+00 -0.45593999997E+02  0.45594000000E+02  0.51100000000E-03 0. -1.
    9900012    2    1    2    0    0 -0.18651660666E+02 -0.83309919372E+00  0.14501995804E+01  0.72461505969E+02  0.69999916204E+02 0.  0.
        -12    1    1    2    0    0  0.18651660666E+02  0.83309919372E+00 -0.14501995804E+01  0.18726494031E+02  0.00000000000E+00 0.  1.
         11    1    3    3    0    0 -0.46167376729E+01 -0.93343862811E+00 -0.86439480344E+01  0.98439530827E+01  0.51100000000E-03 0. -1.
        -11    1    3    3    0    0 -0.34607456959E+02 -0.15085443447E+00 -0.76563039447E+01  0.35444573979E+02  0.51100000000E-03 0.  1.
         12    1    3    3    0    0  0.20572533965E+02  0.25119386886E+00  0.17750451559E+02  0.27172978907E+02  0.00000000000E+00 0. -1.
</event>
<event>
 7    1  0.2710146E-013  0.7246158E+02  0.7816164E-02  0.1226708E+00
        -11   -1    0    0    0    0  0.00000000000E+00  0.00000000000E+00  0.45593999997E+02  0.45594000000E+02  0.51100000000E-03 0.  1.
         11   -1    0    0    0    0 -0.00000000000E+00 -0.00000000000E+00 -0.45593999997E+02  0.45594000000E+02  0.51100000000E-03 0. -1.
    9900012    2    1    2    0    0  0.33451980956E+01  0.18071913378E+02  0.35908688695E+01  0.72461581691E+02  0.70000014847E+02 0.  0.
        -12    1    1    2    0    0 -0.33451980956E+01 -0.18071913378E+02 -0.35908688695E+01  0.18726418309E+02  0.00000000000E+00 0.  1.
         11    1    3    3    0    0  0.10138683348E+01 -0.93528502524E+01 -0.11274519658E+02  0.14683954870E+02  0.51100000000E-03 0. -1.
        -11    1    3    3    0    0  0.16069385178E+02 -0.55639540631E+01 -0.38538355938E+01  0.17436592955E+02  0.51100000000E-03 0.  1.
        -12    1    3    3    0    0 -0.13738055418E+02  0.32988717693E+02  0.18719224122E+02  0.40341033866E+02  0.00000000000E+00 0.  1.
</event>
<event>
 7    1  0.2710146E-013  0.7246158E+02  0.7816164E-02  0.1226708E+00
        -11   -1    0    0    0    0  0.00000000000E+00  0.00000000000E+00  0.45593999997E+02  0.45594000000E+02  0.51100000000E-03 0. -1.
         11   -1    0    0    0    0 -0.00000000000E+00 -0.00000000000E+00 -0.45593999997E+02  0.45594000000E+02  0.51100000000E-03 0.  1.
    9900012    2    1    2    0    0 -0.38319801504E+01  0.44271888355E+01  0.17787483202E+02  0.72461584659E+02  0.70000018713E+02 0.  0.
        -12    1    1    2    0    0  0.38319801504E+01 -0.44271888355E+01 -0.17787483202E+02  0.18726415341E+02  0.00000000000E+00 0.  1.
         11    1    3    3    0    0  0.77725776850E+01 -0.95047901042E+01  0.11091982049E+02  0.16546481947E+02  0.51100000000E-03 0. -1.
        -11    1    3    3    0    0 -0.29505689389E+02  0.12690929805E+02 -0.75608071665E+01  0.32997139435E+02  0.51100000000E-03 0.  1.
         12    1    3    3    0    0  0.17901131554E+02  0.12410491349E+01  0.14256308319E+02  0.22917963277E+02  0.00000000000E+00 0. -1.
</event>
<event>
 7    1  0.2710146E-013  0.7246153E+02  0.7816164E-02  0.1226708E+00
        -11   -1    0    0    0    0  0.00000000000E+00  0.00000000000E+00  0.45593999997E+02  0.45594000000E+02  0.51100000000E-03 0. -1.
         11   -1    0    0    0    0 -0.00000000000E+00 -0.00000000000E+00 -0.45593999997E+02  0.45594000000E+02  0.51100000000E-03 0.  1.
    9900012    2    1    2    0    0 -0.14954864248E+02  0.11250563631E+02  0.67648049429E+00  0.72461527493E+02  0.69999944243E+02 0.  0.
        -12    1    1    2    0    0  0.14954864248E+02 -0.11250563631E+02 -0.67648049429E+00  0.18726472507E+02  0.00000000000E+00 0.  1.
         11    1    3    3    0    0 -0.12436255815E+02  0.30139729356E+02  0.44613675773E+01  0.32908472241E+02  0.51100000000E-03 0. -1.
        -11    1    3    3    0    0 -0.10209210463E+01  0.10038836456E+02 -0.31805676715E+01  0.10580006056E+02  0.51100000000E-03 0.  1.
        -12    1    3    3    0    0 -0.14976873873E+01 -0.28928002182E+02 -0.60431941154E+00  0.28973049195E+02  0.00000000000E+00 0.  1.
</event>
<event>
 7    1  0.2710146E-013  0.7246156E+02  0.7816164E-02  0.1226708E+00
        -11   -1    0    0    0    0  0.00000000000E+00  0.00000000000E+00  0.45593999997E+02  0.45594000000E+02  0.51100000000E-03 0.  1.
         11   -1    0    0    0    0 -0.00000000000E+00 -0.00000000000E+00 -0.45593999997E+02  0.45594000000E+02  0.51100000000E-03 0. -1.
    9900012    2    1    2    0    0 -0.24560427301E+01  0.18507559627E+02 -0.14551891563E+01  0.72461561878E+02  0.69999989037E+02 0.  0.
        -12    1    1    2    0    0  0.24560427301E+01 -0.18507559627E+02  0.14551891563E+01  0.18726438122E+02  0.00000000000E+00 0.  1.
         11    1    3    3    0    0 -0.34720079501E+02  0.10959482753E+02 -0.33496352938E+01  0.36562470371E+02  0.51100000000E-03 0. -1.
        -11    1    3    3    0    0 -0.99801189683E+00 -0.97556568488E+00 -0.49112633604E+00  0.14795139373E+01  0.51100000000E-03 0.  1.
        -12    1    3    3    0    0  0.33262048668E+02  0.85236425589E+01  0.23855724736E+01  0.34419577570E+02  0.00000000000E+00 0.  1.
</event>
<event>
 7    1  0.2710146E-013  0.7246166E+02  0.7816164E-02  0.1226708E+00
        -11   -1    0    0    0    0  0.00000000000E+00  0.00000000000E+00  0.45593999997E+02  0.45594000000E+02  0.51100000000E-03 0. -1.
         11   -1    0    0    0    0 -0.00000000000E+00 -0.00000000000E+00 -0.45593999997E+02  0.45594000000E+02  0.51100000000E-03 0.  1.
    9900012    2    1    2    0    0  0.15519544323E+02 -0.11813748588E+01 -0.10412687095E+02  0.72461656120E+02  0.70000111804E+02 0.  0.
        -12    1    1    2    0    0 -0.15519544323E+02  0.11813748588E+01  0.10412687095E+02  0.18726343880E+02  0.00000000000E+00 0.  1.
         11    1    3    3    0    0  0.58944961509E+01  0.11308931558E+02 -0.17748276245E+01  0.12875831282E+02  0.51100000000E-03 0. -1.
        -11    1    3    3    0    0 -0.23792132640E+02 -0.35698841571E+01 -0.65569113844E+01  0.24935972722E+02  0.51100000000E-03 0.  1.
         12    1    3    3    0    0  0.33417180812E+02 -0.89204222595E+01 -0.20809480861E+01  0.34649852116E+02  0.00000000000E+00 0. -1.
</event>
<event>
 7    1  0.2710146E-013  0.7246156E+02  0.7816164E-02  0.1226708E+00
        -11   -1    0    0    0    0  0.00000000000E+00  0.00000000000E+00  0.45593999997E+02  0.45594000000E+02  0.51100000000E-03 0.  1.
         11   -1    0    0    0    0 -0.00000000000E+00 -0.00000000000E+00 -0.45593999997E+02  0.45594000000E+02  0.51100000000E-03 0. -1.
    9900012    2    1    2    0    0  0.92399973357E+01  0.11878567737E+02 -0.11144577131E+02  0.72461560891E+02  0.69999987751E+02 0.  0.
        -12    1    1    2    0    0 -0.92399973357E+01 -0.11878567737E+02  0.11144577131E+02  0.18726439109E+02  0.00000000000E+00 0.  1.
         11    1    3    3    0    0  0.15416391098E+02  0.25937043662E+02  0.15850362173E+02  0.34082683722E+02  0.51100000000E-03 0. -1.
        -11    1    3    3    0    0 -0.38122181765E+01  0.13296446576E+01  0.26952366412E+01  0.48544065707E+01  0.51100000000E-03 0.  1.
        -12    1    3    3    0    0 -0.23641755854E+01 -0.15388120582E+02 -0.29690175945E+02  0.33524470599E+02  0.00000000000E+00 0.  1.
</event>
<event>
 7    1  0.2710146E-013  0.7246156E+02  0.7816164E-02  0.1226708E+00
        -11   -1    0    0    0    0  0.00000000000E+00  0.00000000000E+00  0.45593999997E+02  0.45594000000E+02  0.51100000000E-03 0. -1.
         11   -1    0    0    0    0 -0.00000000000E+00 -0.00000000000E+00 -0.45593999997E+02  0.45594000000E+02  0.51100000000E-03 0.  1.
    9900012    2    1    2    0    0 -0.48185179684E+01 -0.17693452257E+02  0.37951411226E+01  0.72461562423E+02  0.69999989746E+02 0.  0.
        -12    1    1    2    0    0  0.48185179684E+01  0.17693452257E+02 -0.37951411226E+01  0.18726437577E+02  0.00000000000E+00 0.  1.
         11    1    3    3    0    0 -0.85611934913E+01 -0.26024952720E+02  0.29258097036E+02  0.40082769871E+02  0.51100000000E-03 0. -1.
        -11    1    3    3    0    0 -0.71759744702E+01  0.42426952423E+01 -0.10256245208E+02  0.13216869469E+02  0.51100000000E-03 0.  1.
        -12    1    3    3    0    0  0.10918649993E+02  0.40888052203E+01 -0.15206710705E+02  0.19161923084E+02  0.00000000000E+00 0.  1.
</event>
<event>
 7    1  0.3448297E-013  0.7246151E+02  0.7816164E-02  0.1226708E+00
        -11   -1    0    0    0    0  0.00000000000E+00  0.00000000000E+00  0.45593999997E+02  0.45594000000E+02  0.51100000000E-03 0. -1.
         11   -1    0    0    0    0 -0.00000000000E+00 -0.00000000000E+00 -0.45593999997E+02  0.45594000000E+02  0.51100000000E-03 0.  1.
    9900012    2    1    2    0    0  0.35647379192E+01 -0.31464879065E+01  0.18112802909E+02  0.72461511493E+02  0.69999923400E+02 0.  0.
        -12    1    1    2    0    0 -0.35647379192E+01  0.31464879065E+01 -0.18112802909E+02  0.18726488507E+02  0.00000000000E+00 0.  1.
         11    1    3    3    0    0  0.89221335438E+01 -0.14028424912E+02  0.12308957544E+01  0.16670821129E+02  0.51100000000E-03 0. -1.
        -11    1    3    3    0    0  0.55121299821E+01 -0.44355710088E+00 -0.17307691124E+02  0.18169658558E+02  0.51100000000E-03 0.  1.
         12    1    3    3    0    0 -0.10869525607E+02  0.11325494107E+02  0.34189598278E+02  0.37621031806E+02  0.00000000000E+00 0. -1.
</event>
<event>
 7    1  0.2710146E-013  0.7246159E+02  0.7816164E-02  0.1226708E+00
        -11   -1    0    0    0    0  0.00000000000E+00  0.00000000000E+00  0.45593999997E+02  0.45594000000E+02  0.51100000000E-03 0.  1.
         11   -1    0    0    0    0 -0.00000000000E+00 -0.00000000000E+00 -0.45593999997E+02  0.45594000000E+02  0.51100000000E-03 0. -1.
    9900012    2    1    2    0    0  0.13522284425E+02 -0.12814149189E+02  0.19036437499E+01  0.72461589371E+02  0.70000024851E+02 0.  0.
        -12    1    1    2    0    0 -0.13522284425E+02  0.12814149189E+02 -0.19036437499E+01  0.18726410629E+02  0.00000000000E+00 0.  1.
         11    1    3    3    0    0  0.31534252054E+02 -0.22223965720E+02 -0.55508071006E+01  0.38975956238E+02  0.51100000000E-03 0. -1.
        -11    1    3    3    0    0 -0.13139287389E+02 -0.70886341849E+01  0.52269429259E+00  0.14938635054E+02  0.51100000000E-03 0.  1.
        -12    1    3    3    0    0 -0.48726802400E+01  0.16498450716E+02  0.69317565578E+01  0.18546998078E+02  0.00000000000E+00 0.  1.
</event>
<event>
 7    1  0.2710146E-013  0.7246160E+02  0.7816164E-02  0.1226708E+00
        -11   -1    0    0    0    0  0.00000000000E+00  0.00000000000E+00  0.45593999997E+02  0.45594000000E+02  0.51100000000E-03 0.  1.
         11   -1    0    0    0    0 -0.00000000000E+00 -0.00000000000E+00 -0.45593999997E+02  0.45594000000E+02  0.51100000000E-03 0. -1.
    9900012    2    1    2    0    0 -0.85760115315E+01  0.16170689583E+02  0.39545859872E+01  0.72461603505E+02  0.70000043263E+02 0.  0.
        -12    1    1    2    0    0  0.85760115315E+01 -0.16170689583E+02 -0.39545859872E+01  0.18726396495E+02  0.00000000000E+00 0.  1.
         11    1    3    3    0    0  0.17692185826E+01  0.15277246823E+01  0.79941834803E+01  0.83289283149E+01  0.51100000000E-03 0. -1.
        -11    1    3    3    0    0 -0.12102661601E+02  0.35299999896E+02  0.10552656556E+02  0.38780445732E+02  0.51100000000E-03 0.  1.
         12    1    3    3    0    0  0.17574314869E+01 -0.20657034996E+02 -0.14592254049E+02  0.25352229458E+02  0.00000000000E+00 0. -1.
</event>
<event>
 7    1  0.2710146E-013  0.7246155E+02  0.7816164E-02  0.1226708E+00
        -11   -1    0    0    0    0  0.00000000000E+00  0.00000000000E+00  0.45593999997E+02  0.45594000000E+02  0.51100000000E-03 0.  1.
         11   -1    0    0    0    0 -0.00000000000E+00 -0.00000000000E+00 -0.45593999997E+02  0.45594000000E+02  0.51100000000E-03 0. -1.
    9900012    2    1    2    0    0  0.15422876776E+02 -0.61460818246E+01 -0.86625930957E+01  0.72461548949E+02  0.69999972193E+02 0.  0.
        -12    1    1    2    0    0 -0.15422876776E+02  0.61460818246E+01  0.86625930957E+01  0.18726451051E+02  0.00000000000E+00 0.  1.
         11    1    3    3    0    0 -0.29633455965E+01  0.53396269321E+01 -0.72403498415E+01  0.94718371495E+01  0.51100000000E-03 0. -1.
        -11    1    3    3    0    0  0.19733916995E+02  0.15319022901E+02  0.17193611504E+02  0.30326889379E+02  0.51100000000E-03 0.  1.
         12    1    3    3    0    0 -0.13476946227E+01 -0.26804731658E+02 -0.18615854758E+02  0.32662822420E+02  0.00000000000E+00 0. -1.
</event>
<event>
 7    1  0.2710146E-013  0.7246151E+02  0.7816164E-02  0.1226708E+00
        -11   -1    0    0    0    0  0.00000000000E+00  0.00000000000E+00  0.45593999997E+02  0.45594000000E+02  0.51100000000E-03 0.  1.
         11   -1    0    0    0    0 -0.00000000000E+00 -0.00000000000E+00 -0.45593999997E+02  0.45594000000E+02  0.51100000000E-03 0. -1.
    9900012    2    1    2    0    0  0.11695216261E+02  0.14159441716E+02 -0.36624665097E+01  0.72461507162E+02  0.69999917758E+02 0.  0.
        -12    1    1    2    0    0 -0.11695216261E+02 -0.14159441716E+02  0.36624665097E+01  0.18726492838E+02  0.00000000000E+00 0.  1.
         11    1    3    3    0    0 -0.42056486869E+01  0.10571455196E+02  0.10377986532E+02  0.15399537349E+02  0.51100000000E-03 0. -1.
        -11    1    3    3    0    0  0.17832291414E+02 -0.29497529284E+01  0.17281447128E+02  0.25006800565E+02  0.51100000000E-03 0.  1.
         12    1    3    3    0    0 -0.19314264663E+01  0.65377394477E+01 -0.31321900169E+02  0.32055169248E+02  0.00000000000E+00 0. -1.
</event>
<event>
 7    1  0.2710146E-013  0.7246161E+02  0.7816164E-02  0.1226708E+00
        -11   -1    0    0    0    0  0.00000000000E+00  0.00000000000E+00  0.45593999997E+02  0.45594000000E+02  0.51100000000E-03 0. -1.
         11   -1    0    0    0    0 -0.00000000000E+00 -0.00000000000E+00 -0.45593999997E+02  0.45594000000E+02  0.51100000000E-03 0.  1.
    9900012    2    1    2    0    0  0.42179825693E+01 -0.14000345423E+02  0.11699431066E+02  0.72461608564E+02  0.70000049854E+02 0.  0.
        -12    1    1    2    0    0 -0.42179825693E+01  0.14000345423E+02 -0.11699431066E+02  0.18726391436E+02  0.00000000000E+00 0.  1.
         11    1    3    3    0    0  0.44887503144E+01 -0.50165299657E+00 -0.48181910017E+01  0.66042031998E+01  0.51100000000E-03 0. -1.
        -11    1    3    3    0    0 -0.15262469034E+02  0.69934514214E+01 -0.16944296433E+02  0.23852893026E+02  0.51100000000E-03 0.  1.
         12    1    3    3    0    0  0.14991701289E+02 -0.20492143848E+02  0.33461918501E+02  0.42004512339E+02  0.00000000000E+00 0. -1.
</event>
<event>
 7    1  0.2710146E-013  0.7246176E+02  0.7816164E-02  0.1226707E+00
        -11   -1    0    0    0    0  0.00000000000E+00  0.00000000000E+00  0.45593999997E+02  0.45594000000E+02  0.51100000000E-03 0. -1.
         11   -1    0    0    0    0 -0.00000000000E+00 -0.00000000000E+00 -0.45593999997E+02  0.45594000000E+02  0.51100000000E-03 0.  1.
    9900012    2    1    2    0    0  0.45172787577E+01 -0.91395021276E+01  0.15707818889E+02  0.72461764907E+02  0.70000253518E+02 0.  0.
        -12    1    1    2    0    0 -0.45172787577E+01  0.91395021276E+01 -0.15707818889E+02  0.18726235093E+02  0.00000000000E+00 0.  1.
         11    1    3    3    0    0  0.72156990609E+01 -0.36134951080E+02 -0.55536995971E+00  0.36852536392E+02  0.51100000000E-03 0.  1.
        -11    1    3    3    0    0  0.60495681781E+01  0.14631730203E+02  0.12025127793E+02  0.19881863659E+02  0.51100000000E-03 0. -1.
        -12    1    3    3    0    0 -0.87479884814E+01  0.12363718749E+02  0.42380610562E+01  0.15727364856E+02  0.00000000000E+00 0.  1.
</event>
<event>
 7    1  0.2710146E-013  0.7246159E+02  0.7816164E-02  0.1226708E+00
        -11   -1    0    0    0    0  0.00000000000E+00  0.00000000000E+00  0.45593999997E+02  0.45594000000E+02  0.51100000000E-03 0.  1.
         11   -1    0    0    0    0 -0.00000000000E+00 -0.00000000000E+00 -0.45593999997E+02  0.45594000000E+02  0.51100000000E-03 0. -1.
    9900012    2    1    2    0    0 -0.14948714252E+02 -0.97673728763E+01  0.56402762828E+01  0.72461592250E+02  0.70000028601E+02 0.  0.
        -12    1    1    2    0    0  0.14948714252E+02  0.97673728763E+01 -0.56402762828E+01  0.18726407750E+02  0.00000000000E+00 0.  1.
         11    1    3    3    0    0 -0.23835351452E+02 -0.11151399624E+02  0.19384817406E+01  0.26386273025E+02  0.51100000000E-03 0. -1.
        -11    1    3    3    0    0 -0.30543615326E+01  0.20490302523E+02 -0.59649146613E+01  0.21558335488E+02  0.51100000000E-03 0.  1.
         12    1    3    3    0    0  0.11940998733E+02 -0.19106275775E+02  0.96667092036E+01  0.24516983737E+02  0.00000000000E+00 0. -1.
</event>
<event>
 7    1  0.2710146E-013  0.7246154E+02  0.7816164E-02  0.1226708E+00
        -11   -1    0    0    0    0  0.00000000000E+00  0.00000000000E+00  0.45593999997E+02  0.45594000000E+02  0.51100000000E-03 0. -1.
         11   -1    0    0    0    0 -0.00000000000E+00 -0.00000000000E+00 -0.45593999997E+02  0.45594000000E+02  0.51100000000E-03 0.  1.
    9900012    2    1    2    0    0 -0.81358914002E+01 -0.12911858778E+02  0.10852248947E+02  0.72461544564E+02  0.69999966482E+02 0.  0.
        -12    1    1    2    0    0  0.81358914002E+01  0.12911858778E+02 -0.10852248947E+02  0.18726455436E+02  0.00000000000E+00 0.  1.
         11    1    3    3    0    0 -0.35160883376E+01 -0.70950596229E+00 -0.36060137822E+00  0.36050394622E+01  0.51100000000E-03 0. -1.
        -11    1    3    3    0    0 -0.32427670068E+02 -0.21087629884E+02  0.78589531308E+01  0.39471572869E+02  0.51100000000E-03 0.  1.
         12    1    3    3    0    0  0.27807867005E+02  0.88852770677E+01  0.33538971941E+01  0.29384932233E+02  0.00000000000E+00 0. -1.
</event>
<event>
 7    1  0.2710146E-013  0.7246150E+02  0.7816164E-02  0.1226708E+00
        -11   -1    0    0    0    0  0.00000000000E+00  0.00000000000E+00  0.45593999997E+02  0.45594000000E+02  0.51100000000E-03 0. -1.
         11   -1    0    0    0    0 -0.00000000000E+00 -0.00000000000E+00 -0.45593999997E+02  0.45594000000E+02  0.51100000000E-03 0.  1.
    9900012    2    1    2    0    0  0.10481388497E+02 -0.62348100580E+01  0.14210889415E+02  0.72461501682E+02  0.69999910619E+02 0.  0.
        -12    1    1    2    0    0 -0.10481388497E+02  0.62348100580E+01 -0.14210889415E+02  0.18726498318E+02  0.00000000000E+00 0.  1.
         11    1    3    3    0    0  0.27674131453E+02 -0.12153564647E+02  0.14395927553E+02  0.33478491837E+02  0.51100000000E-03 0. -1.
        -11    1    3    3    0    0 -0.17337870957E+02 -0.11510148197E+02 -0.38719059508E+01  0.21167827872E+02  0.51100000000E-03 0.  1.
        -12    1    3    3    0    0  0.14512800125E+00  0.17428902786E+02  0.36868678133E+01  0.17815181973E+02  0.00000000000E+00 0.  1.
</event>
<event>
 7    1  0.2710146E-013  0.7246158E+02  0.7816164E-02  0.1226708E+00
        -11   -1    0    0    0    0  0.00000000000E+00  0.00000000000E+00  0.45593999997E+02  0.45594000000E+02  0.51100000000E-03 0.  1.
         11   -1    0    0    0    0 -0.00000000000E+00 -0.00000000000E+00 -0.45593999997E+02  0.45594000000E+02  0.51100000000E-03 0. -1.
    9900012    2    1    2    0    0  0.57994450197E+01 -0.15023685647E+01 -0.17742265369E+02  0.72461584052E+02  0.70000017922E+02 0.  0.
        -12    1    1    2    0    0 -0.57994450197E+01  0.15023685647E+01  0.17742265369E+02  0.18726415948E+02  0.00000000000E+00 0.  1.
         11    1    3    3    0    0  0.14344846436E+02 -0.87564182301E+01 -0.10069630856E+02  0.19592012284E+02  0.51100000000E-03 0. -1.
        -11    1    3    3    0    0 -0.22964740094E+01  0.24943806347E+02  0.10117016906E+02  0.27015204965E+02  0.51100000000E-03 0.  1.
         12    1    3    3    0    0 -0.62489274072E+01 -0.17689756682E+02 -0.17789651419E+02  0.25854366803E+02  0.00000000000E+00 0. -1.
</event>
<event>
 7    1  0.2710146E-013  0.7246162E+02  0.7816164E-02  0.1226708E+00
        -11   -1    0    0    0    0  0.00000000000E+00  0.00000000000E+00  0.45593999997E+02  0.45594000000E+02  0.51100000000E-03 0. -1.
         11   -1    0    0    0    0 -0.00000000000E+00 -0.00000000000E+00 -0.45593999997E+02  0.45594000000E+02  0.51100000000E-03 0.  1.
    9900012    2    1    2    0    0  0.14246890552E+02 -0.48808146975E+01  0.11130193641E+02  0.72461616126E+02  0.70000059704E+02 0.  0.
        -12    1    1    2    0    0 -0.14246890552E+02  0.48808146975E+01 -0.11130193641E+02  0.18726383874E+02  0.00000000000E+00 0.  1.
         11    1    3    3    0    0 -0.63330142559E+01  0.47064117768E+01  0.16622048755E+02  0.18399725174E+02  0.51100000000E-03 0. -1.
        -11    1    3    3    0    0  0.34180568495E+01 -0.28226565384E+02 -0.34891867492E+01  0.28646056106E+02  0.51100000000E-03 0.  1.
         12    1    3    3    0    0  0.17161847959E+02  0.18639338910E+02 -0.20026683651E+01  0.25415834846E+02  0.00000000000E+00 0. -1.
</event>
<event>
 7    1  0.2710146E-013  0.7246103E+02  0.7816164E-02  0.1226709E+00
        -11   -1    0    0    0    0  0.00000000000E+00  0.00000000000E+00  0.45593999997E+02  0.45594000000E+02  0.51100000000E-03 0. -1.
         11   -1    0    0    0    0 -0.00000000000E+00 -0.00000000000E+00 -0.45593999997E+02  0.45594000000E+02  0.51100000000E-03 0.  1.
    9900012    2    1    2    0    0 -0.92739364888E+01 -0.14147464395E+02 -0.80338401483E+01  0.72461034567E+02  0.69999302112E+02 0.  0.
        -12    1    1    2    0    0  0.92739364888E+01  0.14147464395E+02  0.80338401483E+01  0.18726965433E+02  0.00000000000E+00 0.  1.
         11    1    3    3    0    0 -0.14436713721E+02 -0.80063417363E+01  0.16453231883E+02  0.23307274631E+02  0.51100000000E-03 0. -1.
        -11    1    3    3    0    0 -0.16926552203E+02  0.51321009340E+01 -0.82940393118E+01  0.19535550103E+02  0.51100000000E-03 0.  1.
         12    1    3    3    0    0  0.22089329435E+02 -0.11273223593E+02 -0.16193032719E+02  0.29618209833E+02  0.00000000000E+00 0. -1.
</event>
<event>
 7    1  0.2710146E-013  0.7246174E+02  0.7816164E-02  0.1226708E+00
        -11   -1    0    0    0    0  0.00000000000E+00  0.00000000000E+00  0.45593999997E+02  0.45594000000E+02  0.51100000000E-03 0.  1.
         11   -1    0    0    0    0 -0.00000000000E+00 -0.00000000000E+00 -0.45593999997E+02  0.45594000000E+02  0.51100000000E-03 0. -1.
    9900012    2    1    2    0    0  0.47530211485E+01 -0.17320012375E+02  0.53008392613E+01  0.72461736743E+02  0.70000216830E+02 0.  0.
        -12    1    1    2    0    0 -0.47530211485E+01  0.17320012375E+02 -0.53008392613E+01  0.18726263257E+02  0.00000000000E+00 0.  1.
         11    1    3    3    0    0 -0.13222992248E+01 -0.71715043051E+01 -0.59121641036E+01  0.93878982678E+01  0.51100000000E-03 0. -1.
        -11    1    3    3    0    0  0.83823470286E+01 -0.32281624167E+02  0.20291848090E+02  0.39040057630E+02  0.51100000000E-03 0.  1.
         12    1    3    3    0    0 -0.23070266553E+01  0.22133116098E+02 -0.90788447248E+01  0.24033780845E+02  0.00000000000E+00 0. -1.
</event>
<event>
 7    1  0.2710146E-013  0.7246172E+02  0.7816164E-02  0.1226708E+00
        -11   -1    0    0    0    0  0.00000000000E+00  0.00000000000E+00  0.45593999997E+02  0.45594000000E+02  0.51100000000E-03 0.  1.
         11   -1    0    0    0    0 -0.00000000000E+00 -0.00000000000E+00 -0.45593999997E+02  0.45594000000E+02  0.51100000000E-03 0. -1.
    9900012    2    1    2    0    0  0.65273119751E+00  0.64254366085E+01 -0.17577298853E+02  0.72461715569E+02  0.70000189246E+02 0.  0.
        -12    1    1    2    0    0 -0.65273119751E+00 -0.64254366085E+01  0.17577298853E+02  0.18726284431E+02  0.00000000000E+00 0.  1.
         11    1    3    3    0    0 -0.41247057229E+01 -0.18564403803E+02 -0.17413236325E+02  0.25785094249E+02  0.51100000000E-03 0. -1.
        -11    1    3    3    0    0 -0.11453696828E+02  0.15798113647E+02  0.13349653629E+02  0.23642775178E+02  0.51100000000E-03 0.  1.
         12    1    3    3    0    0  0.16231133748E+02  0.91917267642E+01 -0.13513716158E+02  0.23033846141E+02  0.00000000000E+00 0. -1.
</event>
<event>
 7    1  0.2710146E-013  0.7246155E+02  0.7816164E-02  0.1226708E+00
        -11   -1    0    0    0    0  0.00000000000E+00  0.00000000000E+00  0.45593999997E+02  0.45594000000E+02  0.51100000000E-03 0.  1.
         11   -1    0    0    0    0 -0.00000000000E+00 -0.00000000000E+00 -0.45593999997E+02  0.45594000000E+02  0.51100000000E-03 0. -1.
    9900012    2    1    2    0    0  0.15113803097E+02  0.92300274616E+01 -0.60876443344E+01  0.72461551737E+02  0.69999975826E+02 0.  0.
        -12    1    1    2    0    0 -0.15113803097E+02 -0.92300274616E+01  0.60876443344E+01  0.18726448263E+02  0.00000000000E+00 0.  1.
         11    1    3    3    0    0  0.19661837429E+02  0.17510017574E+02  0.13269126575E+02  0.29483186512E+02  0.51100000000E-03 0. -1.
        -11    1    3    3    0    0  0.14591152466E+02 -0.11966707373E+02 -0.90113037162E+01  0.20911896389E+02  0.51100000000E-03 0.  1.
        -12    1    3    3    0    0 -0.19139186798E+02  0.36867172607E+01 -0.10345467194E+02  0.22066468836E+02  0.00000000000E+00 0.  1.
</event>
<event>
 7    1  0.2710146E-013  0.7246153E+02  0.7816164E-02  0.1226708E+00
        -11   -1    0    0    0    0  0.00000000000E+00  0.00000000000E+00  0.45593999997E+02  0.45594000000E+02  0.51100000000E-03 0.  1.
         11   -1    0    0    0    0 -0.00000000000E+00 -0.00000000000E+00 -0.45593999997E+02  0.45594000000E+02  0.51100000000E-03 0. -1.
    9900012    2    1    2    0    0 -0.15551572510E+02 -0.89699572474E+01 -0.53262786173E+01  0.72461527175E+02  0.69999943829E+02 0.  0.
        -12    1    1    2    0    0  0.15551572510E+02  0.89699572474E+01  0.53262786173E+01  0.18726472825E+02  0.00000000000E+00 0.  1.
         11    1    3    3    0    0 -0.42039058210E+02 -0.41733139866E+01 -0.29598148165E+01  0.42349255824E+02  0.51100000000E-03 0. -1.
        -11    1    3    3    0    0  0.93641229162E+01 -0.39959835930E+01  0.51325914916E+01  0.11401674375E+02  0.51100000000E-03 0.  1.
        -12    1    3    3    0    0  0.17123362784E+02 -0.80065966771E+00 -0.74990552923E+01  0.18710596976E+02  0.00000000000E+00 0.  1.
</event>
<event>
 7    1  0.2710146E-013  0.7246159E+02  0.7816164E-02  0.1226708E+00
        -11   -1    0    0    0    0  0.00000000000E+00  0.00000000000E+00  0.45593999997E+02  0.45594000000E+02  0.51100000000E-03 0.  1.
         11   -1    0    0    0    0 -0.00000000000E+00 -0.00000000000E+00 -0.45593999997E+02  0.45594000000E+02  0.51100000000E-03 0. -1.
    9900012    2    1    2    0    0 -0.17957684385E+02  0.12785524376E+01 -0.51541613145E+01  0.72461588073E+02  0.70000023160E+02 0.  0.
        -12    1    1    2    0    0  0.17957684385E+02 -0.12785524376E+01  0.51541613145E+01  0.18726411927E+02  0.00000000000E+00 0.  1.
         11    1    3    3    0    0 -0.15204382710E+02  0.34267767370E+01 -0.80675710734E+01  0.17549978794E+02  0.51100000000E-03 0. -1.
        -11    1    3    3    0    0 -0.12743220082E+02 -0.23610739830E+02 -0.91424742435E+01  0.28345044169E+02  0.51100000000E-03 0.  1.
        -12    1    3    3    0    0  0.99899184068E+01  0.21462515531E+02  0.12055884002E+02  0.26566565110E+02  0.00000000000E+00 0.  1.
</event>
<event>
 7    1  0.2710146E-013  0.7246160E+02  0.7816164E-02  0.1226708E+00
        -11   -1    0    0    0    0  0.00000000000E+00  0.00000000000E+00  0.45593999997E+02  0.45594000000E+02  0.51100000000E-03 0.  1.
         11   -1    0    0    0    0 -0.00000000000E+00 -0.00000000000E+00 -0.45593999997E+02  0.45594000000E+02  0.51100000000E-03 0. -1.
    9900012    2    1    2    0    0 -0.16493545489E+02 -0.67176690299E+01 -0.57891333033E+01  0.72461596597E+02  0.70000034264E+02 0.  0.
        -12    1    1    2    0    0  0.16493545489E+02  0.67176690299E+01  0.57891333033E+01  0.18726403403E+02  0.00000000000E+00 0.  1.
         11    1    3    3    0    0  0.14720416126E+02  0.18770504265E+01 -0.24931820530E+02  0.29013956028E+02  0.51100000000E-03 0. -1.
        -11    1    3    3    0    0 -0.92571330778E+01 -0.23717829158E+01 -0.45214623400E+01  0.10571825243E+02  0.51100000000E-03 0.  1.
        -12    1    3    3    0    0 -0.21956828537E+02 -0.62229365406E+01  0.23664149567E+02  0.32875815326E+02  0.00000000000E+00 0.  1.
</event>
<event>
 7    1  0.2710146E-013  0.7246151E+02  0.7816164E-02  0.1226708E+00
        -11   -1    0    0    0    0  0.00000000000E+00  0.00000000000E+00  0.45593999997E+02  0.45594000000E+02  0.51100000000E-03 0.  1.
         11   -1    0    0    0    0 -0.00000000000E+00 -0.00000000000E+00 -0.45593999997E+02  0.45594000000E+02  0.51100000000E-03 0. -1.
    9900012    2    1    2    0    0 -0.92708626878E+01  0.11258300202E+02 -0.11746617598E+02  0.72461514921E+02  0.69999927866E+02 0.  0.
        -12    1    1    2    0    0  0.92708626878E+01 -0.11258300202E+02  0.11746617598E+02  0.18726485079E+02  0.00000000000E+00 0.  1.
         11    1    3    3    0    0  0.11032114222E+02  0.76282746513E+01  0.21082645245E+01  0.13577293468E+02  0.51100000000E-03 0. -1.
        -11    1    3    3    0    0 -0.85783470005E+01  0.14887393031E+02  0.16898653848E+02  0.24099523039E+02  0.51100000000E-03 0.  1.
         12    1    3    3    0    0 -0.11724629909E+02 -0.11257367481E+02 -0.30753535971E+02  0.34784698415E+02  0.00000000000E+00 0. -1.
</event>
<event>
 7    1  0.2710146E-013  0.7246161E+02  0.7816164E-02  0.1226708E+00
        -11   -1    0    0    0    0  0.00000000000E+00  0.00000000000E+00  0.45593999997E+02  0.45594000000E+02  0.51100000000E-03 0.  1.
         11   -1    0    0    0    0 -0.00000000000E+00 -0.00000000000E+00 -0.45593999997E+02  0.45594000000E+02  0.51100000000E-03 0. -1.
    9900012    2    1    2    0    0  0.70831822358E-02 -0.11293895220E+02 -0.14937391435E+02  0.72461607334E+02  0.70000048251E+02 0.  0.
        -12    1    1    2    0    0 -0.70831822358E-02  0.11293895220E+02  0.14937391435E+02  0.18726392666E+02  0.00000000000E+00 0.  1.
         11    1    3    3    0    0 -0.66207593556E+01 -0.16659579368E+00 -0.33578944437E+00  0.66313621086E+01  0.51100000000E-03 0. -1.
        -11    1    3    3    0    0 -0.27325356107E+02 -0.18570305924E+01  0.82753277384E+00  0.27400884288E+02  0.51100000000E-03 0.  1.
         12    1    3    3    0    0  0.33953198645E+02 -0.92702688334E+01 -0.15429134765E+02  0.38429360937E+02  0.00000000000E+00 0. -1.
</event>
<event>
 7    1  0.2710146E-013  0.7246158E+02  0.7816164E-02  0.1226708E+00
        -11   -1    0    0    0    0  0.00000000000E+00  0.00000000000E+00  0.45593999997E+02  0.45594000000E+02  0.51100000000E-03 0. -1.
         11   -1    0    0    0    0 -0.00000000000E+00 -0.00000000000E+00 -0.45593999997E+02  0.45594000000E+02  0.51100000000E-03 0.  1.
    9900012    2    1    2    0    0 -0.95809752568E+01  0.32441597753E+01  0.15759409286E+02  0.72461584417E+02  0.70000018398E+02 0.  0.
        -12    1    1    2    0    0  0.95809752568E+01 -0.32441597753E+01 -0.15759409286E+02  0.18726415583E+02  0.00000000000E+00 0.  1.
         11    1    3    3    0    0 -0.16488269929E+01 -0.32444965112E+01  0.18008966255E+02  0.18373030613E+02  0.51100000000E-03 0. -1.
        -11    1    3    3    0    0 -0.13981376055E+02  0.22505742438E+02  0.14443555580E+02  0.30176209456E+02  0.51100000000E-03 0.  1.
         12    1    3    3    0    0  0.60492277915E+01 -0.16017086152E+02 -0.16693112549E+02  0.23912344348E+02  0.00000000000E+00 0. -1.
</event>
<event>
 7    1  0.2710146E-013  0.7246156E+02  0.7816164E-02  0.1226708E+00
        -11   -1    0    0    0    0  0.00000000000E+00  0.00000000000E+00  0.45593999997E+02  0.45594000000E+02  0.51100000000E-03 0. -1.
         11   -1    0    0    0    0 -0.00000000000E+00 -0.00000000000E+00 -0.45593999997E+02  0.45594000000E+02  0.51100000000E-03 0.  1.
    9900012    2    1    2    0    0 -0.16518858854E+02  0.53756094813E+01  0.69935518540E+01  0.72461557662E+02  0.69999983543E+02 0.  0.
        -12    1    1    2    0    0  0.16518858854E+02 -0.53756094813E+01 -0.69935518540E+01  0.18726442338E+02  0.00000000000E+00 0.  1.
         11    1    3    3    0    0 -0.60579228453E+01  0.45850701788E+00  0.19533680307E+02  0.20456620553E+02  0.51100000000E-03 0. -1.
        -11    1    3    3    0    0 -0.24510745550E+02  0.16902300935E+02 -0.16384918802E+00  0.29774003277E+02  0.51100000000E-03 0.  1.
        -12    1    3    3    0    0  0.14049809542E+02 -0.11985198472E+02 -0.12376279264E+02  0.22230933831E+02  0.00000000000E+00 0.  1.
</event>
<event>
 7    1  0.2710146E-013  0.7246157E+02  0.7816164E-02  0.1226708E+00
        -11   -1    0    0    0    0  0.00000000000E+00  0.00000000000E+00  0.45593999997E+02  0.45594000000E+02  0.51100000000E-03 0.  1.
         11   -1    0    0    0    0 -0.00000000000E+00 -0.00000000000E+00 -0.45593999997E+02  0.45594000000E+02  0.51100000000E-03 0. -1.
    9900012    2    1    2    0    0  0.66338165998E+00  0.15274041203E+02 -0.10814008652E+02  0.72461569666E+02  0.69999999182E+02 0.  0.
        -12    1    1    2    0    0 -0.66338165998E+00 -0.15274041203E+02  0.10814008652E+02  0.18726430334E+02  0.00000000000E+00 0.  1.
         11    1    3    3    0    0  0.52928665611E+01  0.82155324668E+00 -0.20242250183E+01  0.57259823049E+01  0.51100000000E-03 0. -1.
        -11    1    3    3    0    0 -0.41171541776E+01 -0.20343647373E+02  0.14091198562E+02  0.25087383764E+02  0.51100000000E-03 0.  1.
         12    1    3    3    0    0 -0.51233072353E+00  0.34796135329E+02 -0.22880982196E+02  0.41648203597E+02  0.00000000000E+00 0. -1.
</event>
<event>
 7    1  0.2710146E-013  0.7246153E+02  0.7816164E-02  0.1226708E+00
        -11   -1    0    0    0    0  0.00000000000E+00  0.00000000000E+00  0.45593999997E+02  0.45594000000E+02  0.51100000000E-03 0. -1.
         11   -1    0    0    0    0 -0.00000000000E+00 -0.00000000000E+00 -0.45593999997E+02  0.45594000000E+02  0.51100000000E-03 0.  1.
    9900012    2    1    2    0    0 -0.94642819244E+01 -0.13834799855E+02  0.83490272032E+01  0.72461532778E+02  0.69999951128E+02 0.  0.
        -12    1    1    2    0    0  0.94642819244E+01  0.13834799855E+02 -0.83490272032E+01  0.18726467222E+02  0.00000000000E+00 0.  1.
         11    1    3    3    0    0 -0.18034471762E+02 -0.32655494021E+02  0.16968327291E+02  0.40982283890E+02  0.51100000000E-03 0. -1.
        -11    1    3    3    0    0  0.52095726764E+01 -0.41807123211E+01  0.21240727938E-01  0.66797046650E+01  0.51100000000E-03 0.  1.
        -12    1    3    3    0    0  0.33606171611E+01  0.23001406487E+02 -0.86405408157E+01  0.24799544223E+02  0.00000000000E+00 0.  1.
</event>
<event>
 7    1  0.2710146E-013  0.7246159E+02  0.7816164E-02  0.1226708E+00
        -11   -1    0    0    0    0  0.00000000000E+00  0.00000000000E+00  0.45593999997E+02  0.45594000000E+02  0.51100000000E-03 0. -1.
         11   -1    0    0    0    0 -0.00000000000E+00 -0.00000000000E+00 -0.45593999997E+02  0.45594000000E+02  0.51100000000E-03 0.  1.
    9900012    2    1    2    0    0  0.87979642969E+01 -0.13792141802E+02 -0.91132443568E+01  0.72461586196E+02  0.70000020715E+02 0.  0.
        -12    1    1    2    0    0 -0.87979642969E+01  0.13792141802E+02  0.91132443568E+01  0.18726413804E+02  0.00000000000E+00 0.  1.
         11    1    3    3    0    0  0.64593583019E+00  0.13935920092E+02  0.14387323091E+02  0.20040513165E+02  0.51100000000E-03 0. -1.
        -11    1    3    3    0    0 -0.16246433676E+01  0.49262181029E+01  0.55775309024E+01  0.76168196839E+01  0.51100000000E-03 0.  1.
        -12    1    3    3    0    0  0.97766718343E+01 -0.32654279997E+02 -0.29078098350E+02  0.44804253347E+02  0.00000000000E+00 0.  1.
</event>
<event>
 7    1  0.2710146E-013  0.7246156E+02  0.7816164E-02  0.1226708E+00
        -11   -1    0    0    0    0  0.00000000000E+00  0.00000000000E+00  0.45593999997E+02  0.45594000000E+02  0.51100000000E-03 0. -1.
         11   -1    0    0    0    0 -0.00000000000E+00 -0.00000000000E+00 -0.45593999997E+02  0.45594000000E+02  0.51100000000E-03 0.  1.
    9900012    2    1    2    0    0  0.99190150958E+01  0.15334572186E+02 -0.41404975645E+01  0.72461556539E+02  0.69999982082E+02 0.  0.
        -12    1    1    2    0    0 -0.99190150958E+01 -0.15334572186E+02  0.41404975645E+01  0.18726443461E+02  0.00000000000E+00 0.  1.
         11    1    3    3    0    0  0.59661101751E+01 -0.51927783141E+01 -0.98064609326E+00  0.79700115598E+01  0.51100000000E-03 0. -1.
        -11    1    3    3    0    0  0.23880451883E+02 -0.69688496206E+01 -0.14372853336E+02  0.28730119395E+02  0.51100000000E-03 0.  1.
         12    1    3    3    0    0 -0.19927546962E+02  0.27496200121E+02  0.11213001865E+02  0.35761425585E+02  0.00000000000E+00 0. -1.
</event>
<event>
 7    1  0.2710146E-013  0.7246154E+02  0.7816164E-02  0.1226708E+00
        -11   -1    0    0    0    0  0.00000000000E+00  0.00000000000E+00  0.45593999997E+02  0.45594000000E+02  0.51100000000E-03 0. -1.
         11   -1    0    0    0    0 -0.00000000000E+00 -0.00000000000E+00 -0.45593999997E+02  0.45594000000E+02  0.51100000000E-03 0.  1.
    9900012    2    1    2    0    0  0.17791567380E+02 -0.36060406021E+01  0.45975046360E+01  0.72461536171E+02  0.69999955548E+02 0.  0.
        -12    1    1    2    0    0 -0.17791567380E+02  0.36060406021E+01 -0.45975046360E+01  0.18726463829E+02  0.00000000000E+00 0.  1.
         11    1    3    3    0    0  0.80894233126E+00  0.11375871319E+02  0.14382379101E+02  0.18355317072E+02  0.51100000000E-03 0. -1.
        -11    1    3    3    0    0  0.10656192518E+02  0.10372432232E+02  0.12758828530E+02  0.19594118891E+02  0.51100000000E-03 0.  1.
        -12    1    3    3    0    0  0.63264325305E+01 -0.25354344153E+02 -0.22543702995E+02  0.34512100208E+02  0.00000000000E+00 0.  1.
</event>
<event>
 7    1  0.2710146E-013  0.7246156E+02  0.7816164E-02  0.1226708E+00
        -11   -1    0    0    0    0  0.00000000000E+00  0.00000000000E+00  0.45593999997E+02  0.45594000000E+02  0.51100000000E-03 0.  1.
         11   -1    0    0    0    0 -0.00000000000E+00 -0.00000000000E+00 -0.45593999997E+02  0.45594000000E+02  0.51100000000E-03 0. -1.
    9900012    2    1    2    0    0 -0.12947906575E+02  0.12934193727E+02 -0.39671174639E+01  0.72461556851E+02  0.69999982487E+02 0.  0.
        -12    1    1    2    0    0  0.12947906575E+02 -0.12934193727E+02  0.39671174639E+01  0.18726443149E+02  0.00000000000E+00 0.  1.
         11    1    3    3    0    0  0.87944219714E+01 -0.10375656439E+01  0.36034589765E+01  0.95605082047E+01  0.51100000000E-03 0. -1.
        -11    1    3    3    0    0 -0.26511968604E+01 -0.11741085465E+02 -0.24042996786E+02  0.26887685423E+02  0.51100000000E-03 0.  1.
        -12    1    3    3    0    0 -0.19091131686E+02  0.25712844836E+02  0.16472420345E+02  0.36013363223E+02  0.00000000000E+00 0.  1.
</event>
<event>
 7    1  0.2710146E-013  0.7246151E+02  0.7816164E-02  0.1226708E+00
        -11   -1    0    0    0    0  0.00000000000E+00  0.00000000000E+00  0.45593999997E+02  0.45594000000E+02  0.51100000000E-03 0.  1.
         11   -1    0    0    0    0 -0.00000000000E+00 -0.00000000000E+00 -0.45593999997E+02  0.45594000000E+02  0.51100000000E-03 0. -1.
    9900012    2    1    2    0    0 -0.69721839450E+01 -0.85215843666E+01 -0.15147695223E+02  0.72461510215E+02  0.69999921736E+02 0.  0.
        -12    1    1    2    0    0  0.69721839450E+01  0.85215843666E+01  0.15147695223E+02  0.18726489785E+02  0.00000000000E+00 0.  1.
         11    1    3    3    0    0 -0.19449722141E+02 -0.21317210467E+02 -0.38312865966E+01  0.29110031101E+02  0.51100000000E-03 0. -1.
        -11    1    3    3    0    0  0.19328643916E+01 -0.93996291094E+01 -0.15690556610E+02  0.18392459301E+02  0.51100000000E-03 0.  1.
        -12    1    3    3    0    0  0.10544673804E+02  0.22195255210E+02  0.43741479832E+01  0.24959019813E+02  0.00000000000E+00 0.  1.
</event>
<event>
 7    1  0.2710146E-013  0.7246160E+02  0.7816164E-02  0.1226708E+00
        -11   -1    0    0    0    0  0.00000000000E+00  0.00000000000E+00  0.45593999997E+02  0.45594000000E+02  0.51100000000E-03 0. -1.
         11   -1    0    0    0    0 -0.00000000000E+00 -0.00000000000E+00 -0.45593999997E+02  0.45594000000E+02  0.51100000000E-03 0.  1.
    9900012    2    1    2    0    0  0.15777348501E+02 -0.92461613480E+01  0.40325784563E+01  0.72461603806E+02  0.70000043656E+02 0.  0.
        -12    1    1    2    0    0 -0.15777348501E+02  0.92461613480E+01 -0.40325784563E+01  0.18726396194E+02  0.00000000000E+00 0.  1.
         11    1    3    3    0    0  0.11193536630E+02  0.45867828078E+01  0.15807937671E+02  0.19905394557E+02  0.51100000000E-03 0. -1.
        -11    1    3    3    0    0 -0.12740359252E+02  0.11247770248E+02  0.50620481249E+01  0.17732834542E+02  0.51100000000E-03 0.  1.
         12    1    3    3    0    0  0.17324171123E+02 -0.25080714404E+02 -0.16837407340E+02  0.34823374707E+02  0.00000000000E+00 0. -1.
</event>
<event>
 7    1  0.2710146E-013  0.7246160E+02  0.7816164E-02  0.1226708E+00
        -11   -1    0    0    0    0  0.00000000000E+00  0.00000000000E+00  0.45593999997E+02  0.45594000000E+02  0.51100000000E-03 0.  1.
         11   -1    0    0    0    0 -0.00000000000E+00 -0.00000000000E+00 -0.45593999997E+02  0.45594000000E+02  0.51100000000E-03 0. -1.
    9900012    2    1    2    0    0  0.10208466224E+02 -0.15542254752E+02 -0.22143785582E+01  0.72461603181E+02  0.70000042841E+02 0.  0.
        -12    1    1    2    0    0 -0.10208466224E+02  0.15542254752E+02  0.22143785582E+01  0.18726396819E+02  0.00000000000E+00 0.  1.
         11    1    3    3    0    0  0.28030322382E+01 -0.74897954214E+01  0.23933268703E+01  0.83475768311E+01  0.51100000000E-03 0. -1.
        -11    1    3    3    0    0 -0.14495537724E+02 -0.18177998719E+02 -0.23808860681E+02  0.33277952138E+02  0.51100000000E-03 0.  1.
         12    1    3    3    0    0  0.21900971710E+02  0.10125539388E+02  0.19201155252E+02  0.30836074211E+02  0.00000000000E+00 0. -1.
</event>
<event>
 7    1  0.2710146E-013  0.7246161E+02  0.7816164E-02  0.1226708E+00
        -11   -1    0    0    0    0  0.00000000000E+00  0.00000000000E+00  0.45593999997E+02  0.45594000000E+02  0.51100000000E-03 0. -1.
         11   -1    0    0    0    0 -0.00000000000E+00 -0.00000000000E+00 -0.45593999997E+02  0.45594000000E+02  0.51100000000E-03 0.  1.
    9900012    2    1    2    0    0  0.49691486842E+01  0.11291875628E+02  0.14088249126E+02  0.72461610672E+02  0.70000052599E+02 0.  0.
        -12    1    1    2    0    0 -0.49691486842E+01 -0.11291875628E+02 -0.14088249126E+02  0.18726389328E+02  0.00000000000E+00 0.  1.
         11    1    3    3    0    0  0.20180281491E+02  0.72453561091E+01  0.12034656324E+02  0.24588043829E+02  0.51100000000E-03 0. -1.
        -11    1    3    3    0    0  0.90773809089E+01  0.17656224725E+02 -0.91544068001E+00  0.19874082309E+02  0.51100000000E-03 0.  1.
        -12    1    3    3    0    0 -0.24288513716E+02 -0.13609705207E+02  0.29690334821E+01  0.27999484534E+02  0.00000000000E+00 0.  1.
</event>
<event>
 7    1  0.2710146E-013  0.7246155E+02  0.7816164E-02  0.1226708E+00
        -11   -1    0    0    0    0  0.00000000000E+00  0.00000000000E+00  0.45593999997E+02  0.45594000000E+02  0.51100000000E-03 0. -1.
         11   -1    0    0    0    0 -0.00000000000E+00 -0.00000000000E+00 -0.45593999997E+02  0.45594000000E+02  0.51100000000E-03 0.  1.
    9900012    2    1    2    0    0 -0.33390410415E+01  0.15006083425E+02  0.10693364064E+02  0.72461554265E+02  0.69999979119E+02 0.  0.
        -12    1    1    2    0    0  0.33390410415E+01 -0.15006083425E+02 -0.10693364064E+02  0.18726445735E+02  0.00000000000E+00 0.  1.
         11    1    3    3    0    0  0.11124214587E+02  0.45723415218E+01  0.63051321210E+01  0.13579733005E+02  0.51100000000E-03 0. -1.
        -11    1    3    3    0    0  0.13320247015E+02  0.22851579683E+02 -0.52365364998E+01  0.26963771793E+02  0.51100000000E-03 0.  1.
        -12    1    3    3    0    0 -0.27783502643E+02 -0.12417837779E+02  0.96247684430E+01  0.31918049467E+02  0.00000000000E+00 0.  1.
</event>
<event>
 7    1  0.2710146E-013  0.7246146E+02  0.7816164E-02  0.1226708E+00
        -11   -1    0    0    0    0  0.00000000000E+00  0.00000000000E+00  0.45593999997E+02  0.45594000000E+02  0.51100000000E-03 0.  1.
         11   -1    0    0    0    0 -0.00000000000E+00 -0.00000000000E+00 -0.45593999997E+02  0.45594000000E+02  0.51100000000E-03 0. -1.
    9900012    2    1    2    0    0 -0.10926208147E+01  0.82929730457E+01 -0.16754589116E+02  0.72461455241E+02  0.69999850122E+02 0.  0.
        -12    1    1    2    0    0  0.10926208147E+01 -0.82929730457E+01  0.16754589116E+02  0.18726544759E+02  0.00000000000E+00 0.  1.
         11    1    3    3    0    0 -0.12659559660E+02 -0.19910284304E+01 -0.21155421788E+01  0.12988616707E+02  0.51100000000E-03 0. -1.
        -11    1    3    3    0    0 -0.38185545489E+01 -0.16817839818E+02  0.98295121802E+01  0.19850451001E+02  0.51100000000E-03 0.  1.
         12    1    3    3    0    0  0.15385493394E+02  0.27101841294E+02 -0.24468559117E+02  0.39622387532E+02  0.00000000000E+00 0. -1.
</event>
<event>
 7    1  0.2710146E-013  0.7246174E+02  0.7816164E-02  0.1226708E+00
        -11   -1    0    0    0    0  0.00000000000E+00  0.00000000000E+00  0.45593999997E+02  0.45594000000E+02  0.51100000000E-03 0.  1.
         11   -1    0    0    0    0 -0.00000000000E+00 -0.00000000000E+00 -0.45593999997E+02  0.45594000000E+02  0.51100000000E-03 0. -1.
    9900012    2    1    2    0    0 -0.84253294153E+01 -0.14568132515E+02  0.82131629489E+01  0.72461742863E+02  0.70000224803E+02 0.  0.
        -12    1    1    2    0    0  0.84253294153E+01  0.14568132515E+02 -0.82131629489E+01  0.18726257137E+02  0.00000000000E+00 0.  1.
         11    1    3    3    0    0  0.45776078444E+01 -0.16829450398E+02 -0.10257252757E+02  0.20233539697E+02  0.51100000000E-03 0.  1.
        -11    1    3    3    0    0 -0.30444268373E+02 -0.22041342786E+01  0.86781968571E+01  0.31733622322E+02  0.51100000000E-03 0. -1.
        -12    1    3    3    0    0  0.17441331114E+02  0.44654521623E+01  0.97922188490E+01  0.20494580845E+02  0.00000000000E+00 0.  1.
</event>
<event>
 7    1  0.2710146E-013  0.7246201E+02  0.7816164E-02  0.1226707E+00
        -11   -1    0    0    0    0  0.00000000000E+00  0.00000000000E+00  0.45593999997E+02  0.45594000000E+02  0.51100000000E-03 0. -1.
         11   -1    0    0    0    0 -0.00000000000E+00 -0.00000000000E+00 -0.45593999997E+02  0.45594000000E+02  0.51100000000E-03 0.  1.
    9900012    2    1    2    0    0  0.11097913439E+02  0.11915772689E+02  0.92473406299E+01  0.72462011903E+02  0.70000575275E+02 0.  0.
        -12    1    1    2    0    0 -0.11097913439E+02 -0.11915772689E+02 -0.92473406299E+01  0.18725988097E+02  0.00000000000E+00 0.  1.
         11    1    3    3    0    0 -0.70764182841E+01 -0.41485429142E+01  0.29805041012E+02  0.30913210348E+02  0.51100000000E-03 0. -1.
        -11    1    3    3    0    0 -0.67081432470E+01  0.46433081712E+01 -0.80055338758E+01  0.11430138647E+02  0.51100000000E-03 0.  1.
         12    1    3    3    0    0  0.24882474970E+02  0.11421007432E+02 -0.12552166506E+02  0.30118662908E+02  0.00000000000E+00 0. -1.
</event>
<event>
 7    1  0.2710146E-013  0.7246147E+02  0.7816164E-02  0.1226708E+00
        -11   -1    0    0    0    0  0.00000000000E+00  0.00000000000E+00  0.45593999997E+02  0.45594000000E+02  0.51100000000E-03 0.  1.
         11   -1    0    0    0    0 -0.00000000000E+00 -0.00000000000E+00 -0.45593999997E+02  0.45594000000E+02  0.51100000000E-03 0. -1.
    9900012    2    1    2    0    0  0.49204881915E+01  0.17785779934E+02 -0.31839660211E+01  0.72461473052E+02  0.69999873324E+02 0.  0.
        -12    1    1    2    0    0 -0.49204881915E+01 -0.17785779934E+02  0.31839660211E+01  0.18726526948E+02  0.00000000000E+00 0.  1.
         11    1    3    3    0    0 -0.24825243727E+02 -0.34427139151E+01 -0.17858943214E+01  0.25126369097E+02  0.51100000000E-03 0. -1.
        -11    1    3    3    0    0 -0.45166387012E+01  0.10249703692E+02  0.11899239882E+01  0.11263763594E+02  0.51100000000E-03 0.  1.
        -12    1    3    3    0    0  0.34262370620E+02  0.10978790157E+02 -0.25879956879E+01  0.36071340362E+02  0.00000000000E+00 0.  1.
</event>
<event>
 7    1  0.2710146E-013  0.7246157E+02  0.7816164E-02  0.1226708E+00
        -11   -1    0    0    0    0  0.00000000000E+00  0.00000000000E+00  0.45593999997E+02  0.45594000000E+02  0.51100000000E-03 0.  1.
         11   -1    0    0    0    0 -0.00000000000E+00 -0.00000000000E+00 -0.45593999997E+02  0.45594000000E+02  0.51100000000E-03 0. -1.
    9900012    2    1    2    0    0 -0.11444992012E+02 -0.12282313894E+02 -0.82967486949E+01  0.72461571733E+02  0.70000001874E+02 0.  0.
        -12    1    1    2    0    0  0.11444992012E+02  0.12282313894E+02  0.82967486949E+01  0.18726428267E+02  0.00000000000E+00 0.  1.
         11    1    3    3    0    0 -0.29397154853E+02 -0.26527046416E+01  0.20185572601E+01  0.29585539188E+02  0.51100000000E-03 0. -1.
        -11    1    3    3    0    0  0.46818358220E+01  0.45950631934E+01  0.11751529642E+02  0.13458552730E+02  0.51100000000E-03 0.  1.
         12    1    3    3    0    0  0.13270327019E+02 -0.14224672446E+02 -0.22066835597E+02  0.29417479814E+02  0.00000000000E+00 0. -1.
</event>
<event>
 7    1  0.2710146E-013  0.7246156E+02  0.7816164E-02  0.1226708E+00
        -11   -1    0    0    0    0  0.00000000000E+00  0.00000000000E+00  0.45593999997E+02  0.45594000000E+02  0.51100000000E-03 0.  1.
         11   -1    0    0    0    0 -0.00000000000E+00 -0.00000000000E+00 -0.45593999997E+02  0.45594000000E+02  0.51100000000E-03 0. -1.
    9900012    2    1    2    0    0 -0.14228417333E+02 -0.90962460995E+01 -0.80925785944E+01  0.72461564642E+02  0.69999992637E+02 0.  0.
        -12    1    1    2    0    0  0.14228417333E+02  0.90962460995E+01  0.80925785944E+01  0.18726435358E+02  0.00000000000E+00 0.  1.
         11    1    3    3    0    0 -0.49081344615E+01 -0.29208830198E+02 -0.16042016184E+02  0.33683702721E+02  0.51100000000E-03 0. -1.
        -11    1    3    3    0    0  0.51394319586E+01  0.98243605235E+01 -0.89676763101E+01  0.14260120589E+02  0.51100000000E-03 0.  1.
        -12    1    3    3    0    0 -0.14459714830E+02  0.10288223576E+02  0.16917113900E+02  0.24517741332E+02  0.00000000000E+00 0.  1.
</event>
<event>
 7    1  0.2710146E-013  0.7246170E+02  0.7816164E-02  0.1226708E+00
        -11   -1    0    0    0    0  0.00000000000E+00  0.00000000000E+00  0.45593999997E+02  0.45594000000E+02  0.51100000000E-03 0. -1.
         11   -1    0    0    0    0 -0.00000000000E+00 -0.00000000000E+00 -0.45593999997E+02  0.45594000000E+02  0.51100000000E-03 0.  1.
    9900012    2    1    2    0    0 -0.25032350299E+00 -0.18528549208E+02 -0.27026567794E+01  0.72461704283E+02  0.70000174545E+02 0.  0.
        -12    1    1    2    0    0  0.25032350299E+00  0.18528549208E+02  0.27026567794E+01  0.18726295717E+02  0.00000000000E+00 0.  1.
         11    1    3    3    0    0 -0.18375784999E+02  0.94655256572E+01  0.14981181746E+02  0.25528444078E+02  0.51100000000E-03 0. -1.
        -11    1    3    3    0    0  0.10544843569E+02  0.34463315692E+01 -0.36556132301E+01  0.11680515208E+02  0.51100000000E-03 0.  1.
         12    1    3    3    0    0  0.75806179264E+01 -0.31440406434E+02 -0.14028225295E+02  0.35252744997E+02  0.00000000000E+00 0. -1.
</event>
<event>
 7    1  0.2710146E-013  0.7246176E+02  0.7816164E-02  0.1226708E+00
        -11   -1    0    0    0    0  0.00000000000E+00  0.00000000000E+00  0.45593999997E+02  0.45594000000E+02  0.51100000000E-03 0. -1.
         11   -1    0    0    0    0 -0.00000000000E+00 -0.00000000000E+00 -0.45593999997E+02  0.45594000000E+02  0.51100000000E-03 0.  1.
    9900012    2    1    2    0    0 -0.93148122247E+01 -0.15327701502E+02  0.53821962260E+01  0.72461756481E+02  0.70000242542E+02 0.  0.
        -12    1    1    2    0    0  0.93148122247E+01  0.15327701502E+02 -0.53821962260E+01  0.18726243519E+02  0.00000000000E+00 0.  1.
         11    1    3    3    0    0  0.13790114286E+02 -0.14868184052E+02 -0.86057194637E-01  0.20278992951E+02  0.51100000000E-03 0. -1.
        -11    1    3    3    0    0 -0.92485721834E+01  0.38414973612E+01 -0.20285821614E+02  0.22623168395E+02  0.51100000000E-03 0.  1.
         12    1    3    3    0    0 -0.13856354327E+02 -0.43010148114E+01  0.25754075035E+02  0.29559595135E+02  0.00000000000E+00 0. -1.
</event>
<event>
 7    1  0.2710146E-013  0.7246154E+02  0.7816164E-02  0.1226708E+00
        -11   -1    0    0    0    0  0.00000000000E+00  0.00000000000E+00  0.45593999997E+02  0.45594000000E+02  0.51100000000E-03 0.  1.
         11   -1    0    0    0    0 -0.00000000000E+00 -0.00000000000E+00 -0.45593999997E+02  0.45594000000E+02  0.51100000000E-03 0. -1.
    9900012    2    1    2    0    0  0.62646726861E+01  0.35047815094E+01 -0.17295970551E+02  0.72461542391E+02  0.69999963651E+02 0.  0.
        -12    1    1    2    0    0 -0.62646726861E+01 -0.35047815094E+01  0.17295970551E+02  0.18726457609E+02  0.00000000000E+00 0.  1.
         11    1    3    3    0    0  0.74470323500E+01  0.88930627004E+00 -0.10819452495E+01  0.75775828763E+01  0.51100000000E-03 0. -1.
        -11    1    3    3    0    0  0.15616520902E+02  0.24089108930E+02  0.64572500771E+01  0.29425447710E+02  0.51100000000E-03 0.  1.
         12    1    3    3    0    0 -0.16798880565E+02 -0.21473633691E+02 -0.22671275378E+02  0.35458511805E+02  0.00000000000E+00 0. -1.
</event>
<event>
 7    1  0.2710146E-013  0.7246158E+02  0.7816164E-02  0.1226708E+00
        -11   -1    0    0    0    0  0.00000000000E+00  0.00000000000E+00  0.45593999997E+02  0.45594000000E+02  0.51100000000E-03 0.  1.
         11   -1    0    0    0    0 -0.00000000000E+00 -0.00000000000E+00 -0.45593999997E+02  0.45594000000E+02  0.51100000000E-03 0. -1.
    9900012    2    1    2    0    0  0.24216087795E+01 -0.11944827134E+02 -0.14217444455E+02  0.72461579863E+02  0.70000012464E+02 0.  0.
        -12    1    1    2    0    0 -0.24216087795E+01  0.11944827134E+02  0.14217444455E+02  0.18726420137E+02  0.00000000000E+00 0.  1.
         11    1    3    3    0    0 -0.35529942638E+01  0.27314082089E+02 -0.57438434269E+01  0.28136712426E+02  0.51100000000E-03 0. -1.
        -11    1    3    3    0    0  0.59207333636E+00 -0.34542899955E+01  0.46412991053E+01  0.58158686242E+01  0.51100000000E-03 0.  1.
        -12    1    3    3    0    0  0.53825297069E+01 -0.35804619227E+02 -0.13114900133E+02  0.38508998812E+02  0.00000000000E+00 0.  1.
</event>
<event>
 7    1  0.2710146E-013  0.7246150E+02  0.7816164E-02  0.1226708E+00
        -11   -1    0    0    0    0  0.00000000000E+00  0.00000000000E+00  0.45593999997E+02  0.45594000000E+02  0.51100000000E-03 0.  1.
         11   -1    0    0    0    0 -0.00000000000E+00 -0.00000000000E+00 -0.45593999997E+02  0.45594000000E+02  0.51100000000E-03 0. -1.
    9900012    2    1    2    0    0 -0.15751542360E+02  0.88398716754E+01  0.49423977574E+01  0.72461502368E+02  0.69999911514E+02 0.  0.
        -12    1    1    2    0    0  0.15751542360E+02 -0.88398716754E+01 -0.49423977574E+01  0.18726497632E+02  0.00000000000E+00 0.  1.
         11    1    3    3    0    0 -0.12464455730E+02 -0.79154137506E+01 -0.66242823682E+01  0.16183249014E+02  0.51100000000E-03 0. -1.
        -11    1    3    3    0    0 -0.57005690297E+01 -0.37931235236E+01 -0.18530802806E+02  0.19755377147E+02  0.51100000000E-03 0.  1.
        -12    1    3    3    0    0  0.24134823997E+01  0.20548408950E+02  0.30097482931E+02  0.36522876207E+02  0.00000000000E+00 0.  1.
</event>
<event>
 7    1  0.2710146E-013  0.7246159E+02  0.7816164E-02  0.1226708E+00
        -11   -1    0    0    0    0  0.00000000000E+00  0.00000000000E+00  0.45593999997E+02  0.45594000000E+02  0.51100000000E-03 0.  1.
         11   -1    0    0    0    0 -0.00000000000E+00 -0.00000000000E+00 -0.45593999997E+02  0.45594000000E+02  0.51100000000E-03 0. -1.
    9900012    2    1    2    0    0 -0.16401757501E+01  0.13764844207E+02 -0.12590365887E+02  0.72461590154E+02  0.70000025872E+02 0.  0.
        -12    1    1    2    0    0  0.16401757501E+01 -0.13764844207E+02  0.12590365887E+02  0.18726409846E+02  0.00000000000E+00 0.  1.
         11    1    3    3    0    0  0.10480574716E+02  0.15786123093E+02 -0.15783913884E+02  0.24661225972E+02  0.51100000000E-03 0. -1.
        -11    1    3    3    0    0  0.12587084754E+01  0.17457484402E+02 -0.10576238685E+02  0.20450059503E+02  0.51100000000E-03 0.  1.
        -12    1    3    3    0    0 -0.13379458941E+02 -0.19478763289E+02  0.13769786682E+02  0.27350304680E+02  0.00000000000E+00 0.  1.
</event>
<event>
 7    1  0.2710146E-013  0.7246158E+02  0.7816164E-02  0.1226708E+00
        -11   -1    0    0    0    0  0.00000000000E+00  0.00000000000E+00  0.45593999997E+02  0.45594000000E+02  0.51100000000E-03 0.  1.
         11   -1    0    0    0    0 -0.00000000000E+00 -0.00000000000E+00 -0.45593999997E+02  0.45594000000E+02  0.51100000000E-03 0. -1.
    9900012    2    1    2    0    0 -0.42808683798E+01 -0.84438964367E+01 -0.16157155222E+02  0.72461577865E+02  0.70000009862E+02 0.  0.
        -12    1    1    2    0    0  0.42808683798E+01  0.84438964367E+01  0.16157155222E+02  0.18726422135E+02  0.00000000000E+00 0.  1.
         11    1    3    3    0    0 -0.74456483567E+00 -0.10740972638E+02 -0.15738699290E+01  0.10881173503E+02  0.51100000000E-03 0. -1.
        -11    1    3    3    0    0 -0.30540013123E+02 -0.33621730250E+01 -0.79090756267E+00  0.30734705856E+02  0.51100000000E-03 0.  1.
         12    1    3    3    0    0  0.27003709579E+02  0.56592492259E+01 -0.13792377731E+02  0.30845698505E+02  0.00000000000E+00 0. -1.
</event>
<event>
 7    1  0.2710146E-013  0.7246159E+02  0.7816164E-02  0.1226708E+00
        -11   -1    0    0    0    0  0.00000000000E+00  0.00000000000E+00  0.45593999997E+02  0.45594000000E+02  0.51100000000E-03 0. -1.
         11   -1    0    0    0    0 -0.00000000000E+00 -0.00000000000E+00 -0.45593999997E+02  0.45594000000E+02  0.51100000000E-03 0.  1.
    9900012    2    1    2    0    0 -0.14260708949E+01  0.15482153917E+02  0.10437806833E+02  0.72461586045E+02  0.70000020519E+02 0.  0.
        -12    1    1    2    0    0  0.14260708949E+01 -0.15482153917E+02 -0.10437806833E+02  0.18726413955E+02  0.00000000000E+00 0.  1.
         11    1    3    3    0    0 -0.83222816660E+01 -0.15262261825E+01 -0.12640028828E+02  0.15210524893E+02  0.51100000000E-03 0. -1.
        -11    1    3    3    0    0 -0.84509089820E+01 -0.11475380015E+02  0.20264174444E+02  0.24773755777E+02  0.51100000000E-03 0.  1.
         12    1    3    3    0    0  0.15347119753E+02  0.28483760115E+02  0.28136612168E+01  0.32477305376E+02  0.00000000000E+00 0. -1.
</event>
<event>
 7    1  0.2710146E-013  0.7246155E+02  0.7816164E-02  0.1226708E+00
        -11   -1    0    0    0    0  0.00000000000E+00  0.00000000000E+00  0.45593999997E+02  0.45594000000E+02  0.51100000000E-03 0. -1.
         11   -1    0    0    0    0 -0.00000000000E+00 -0.00000000000E+00 -0.45593999997E+02  0.45594000000E+02  0.51100000000E-03 0.  1.
    9900012    2    1    2    0    0 -0.68958466896E+01 -0.15966290292E+02  0.69429608169E+01  0.72461552602E+02  0.69999976952E+02 0.  0.
        -12    1    1    2    0    0  0.68958466896E+01  0.15966290292E+02 -0.69429608169E+01  0.18726447398E+02  0.00000000000E+00 0.  1.
         11    1    3    3    0    0  0.58651578793E+00 -0.32313309608E+01 -0.84794506089E+01  0.90932163417E+01  0.51100000000E-03 0. -1.
        -11    1    3    3    0    0  0.83506544553E+00 -0.28270899245E+01 -0.22813606845E+02  0.23003269969E+02  0.51100000000E-03 0.  1.
         12    1    3    3    0    0 -0.83174279231E+01 -0.99078694066E+01  0.38236018271E+02  0.40365066291E+02  0.00000000000E+00 0. -1.
</event>
<event>
 7    1  0.2710146E-013  0.7246156E+02  0.7816164E-02  0.1226708E+00
        -11   -1    0    0    0    0  0.00000000000E+00  0.00000000000E+00  0.45593999997E+02  0.45594000000E+02  0.51100000000E-03 0.  1.
         11   -1    0    0    0    0 -0.00000000000E+00 -0.00000000000E+00 -0.45593999997E+02  0.45594000000E+02  0.51100000000E-03 0. -1.
    9900012    2    1    2    0    0  0.76776810275E+01  0.16889671110E+02 -0.25439436956E+01  0.72461563455E+02  0.69999991090E+02 0.  0.
        -12    1    1    2    0    0 -0.76776810275E+01 -0.16889671110E+02  0.25439436956E+01  0.18726436545E+02  0.00000000000E+00 0.  1.
         11    1    3    3    0    0  0.17071500481E+02  0.21179316343E+02  0.13100854391E+02  0.30193243540E+02  0.51100000000E-03 0. -1.
        -11    1    3    3    0    0 -0.49123103139E+01  0.40304254061E+01  0.11712327955E+02  0.13324929567E+02  0.51100000000E-03 0.  1.
         12    1    3    3    0    0 -0.44815091393E+01 -0.83200706398E+01 -0.27357126041E+02  0.28943390348E+02  0.00000000000E+00 0. -1.
</event>
<event>
 7    1  0.2710146E-013  0.7246161E+02  0.7816164E-02  0.1226708E+00
        -11   -1    0    0    0    0  0.00000000000E+00  0.00000000000E+00  0.45593999997E+02  0.45594000000E+02  0.51100000000E-03 0.  1.
         11   -1    0    0    0    0 -0.00000000000E+00 -0.00000000000E+00 -0.45593999997E+02  0.45594000000E+02  0.51100000000E-03 0. -1.
    9900012    2    1    2    0    0 -0.66904551546E+01  0.12176165844E+02 -0.12556130203E+02  0.72461611920E+02  0.70000054226E+02 0.  0.
        -12    1    1    2    0    0  0.66904551546E+01 -0.12176165844E+02  0.12556130203E+02  0.18726388080E+02  0.00000000000E+00 0.  1.
         11    1    3    3    0    0 -0.21034424357E+01 -0.13221275339E+02  0.51899818599E+01  0.14358360061E+02  0.51100000000E-03 0. -1.
        -11    1    3    3    0    0 -0.68615485639E+01 -0.12339905883E+02  0.37561956890E+01  0.14610377552E+02  0.51100000000E-03 0.  1.
        -12    1    3    3    0    0  0.22745358450E+01  0.37737347066E+02 -0.21502307752E+02  0.43492874308E+02  0.00000000000E+00 0.  1.
</event>
<event>
 7    1  0.2710146E-013  0.7246155E+02  0.7816164E-02  0.1226708E+00
        -11   -1    0    0    0    0  0.00000000000E+00  0.00000000000E+00  0.45593999997E+02  0.45594000000E+02  0.51100000000E-03 0. -1.
         11   -1    0    0    0    0 -0.00000000000E+00 -0.00000000000E+00 -0.45593999997E+02  0.45594000000E+02  0.51100000000E-03 0.  1.
    9900012    2    1    2    0    0  0.82091432616E+01 -0.55088155432E+01 -0.15904171814E+02  0.72461554452E+02  0.69999979362E+02 0.  0.
        -12    1    1    2    0    0 -0.82091432616E+01  0.55088155432E+01  0.15904171814E+02  0.18726445548E+02  0.00000000000E+00 0.  1.
         11    1    3    3    0    0 -0.71123286712E+01  0.62651262830E+01 -0.29566828077E+02  0.31048902545E+02  0.51100000000E-03 0. -1.
        -11    1    3    3    0    0  0.79397753657E+01  0.32295594266E+01 -0.95320575158E+01  0.12819134436E+02  0.51100000000E-03 0.  1.
         12    1    3    3    0    0  0.73816965671E+01 -0.15003501253E+02  0.23194713779E+02  0.28593517471E+02  0.00000000000E+00 0. -1.
</event>
<event>
 7    1  0.2710146E-013  0.7246156E+02  0.7816164E-02  0.1226708E+00
        -11   -1    0    0    0    0  0.00000000000E+00  0.00000000000E+00  0.45593999997E+02  0.45594000000E+02  0.51100000000E-03 0.  1.
         11   -1    0    0    0    0 -0.00000000000E+00 -0.00000000000E+00 -0.45593999997E+02  0.45594000000E+02  0.51100000000E-03 0. -1.
    9900012    2    1    2    0    0 -0.10222168708E+01  0.52369613198E+01 -0.17950172586E+02  0.72461564486E+02  0.69999992434E+02 0.  0.
        -12    1    1    2    0    0  0.10222168708E+01 -0.52369613198E+01  0.17950172586E+02  0.18726435514E+02  0.00000000000E+00 0.  1.
         11    1    3    3    0    0 -0.16838821574E+02 -0.63590141006E+01 -0.17548611061E+02  0.25138351632E+02  0.51100000000E-03 0. -1.
        -11    1    3    3    0    0 -0.12438939551E+02  0.91119676705E+01 -0.87842457596E+01  0.17745933219E+02  0.51100000000E-03 0.  1.
        -12    1    3    3    0    0  0.28255544255E+02  0.24840077498E+01  0.83826842347E+01  0.29577279635E+02  0.00000000000E+00 0.  1.
</event>
<event>
 7    1  0.2710146E-013  0.7246157E+02  0.7816164E-02  0.1226708E+00
        -11   -1    0    0    0    0  0.00000000000E+00  0.00000000000E+00  0.45593999997E+02  0.45594000000E+02  0.51100000000E-03 0.  1.
         11   -1    0    0    0    0 -0.00000000000E+00 -0.00000000000E+00 -0.45593999997E+02  0.45594000000E+02  0.51100000000E-03 0. -1.
    9900012    2    1    2    0    0 -0.94490115549E+00 -0.18677862398E+02  0.96111639073E+00  0.72461571438E+02  0.70000001490E+02 0.  0.
        -12    1    1    2    0    0  0.94490115549E+00  0.18677862398E+02 -0.96111639073E+00  0.18726428562E+02  0.00000000000E+00 0.  1.
         11    1    3    3    0    0  0.12236249195E+02  0.13446017038E+01  0.97189017715E+01  0.15684093854E+02  0.51100000000E-03 0. -1.
        -11    1    3    3    0    0  0.50611249021E+01 -0.61814775024E+01  0.19107530763E+02  0.20710465506E+02  0.51100000000E-03 0.  1.
         12    1    3    3    0    0 -0.18242275253E+02 -0.13840986600E+02 -0.27865316143E+02  0.36067012078E+02  0.00000000000E+00 0. -1.
</event>
<event>
 7    1  0.2710146E-013  0.7246164E+02  0.7816164E-02  0.1226708E+00
        -11   -1    0    0    0    0  0.00000000000E+00  0.00000000000E+00  0.45593999997E+02  0.45594000000E+02  0.51100000000E-03 0.  1.
         11   -1    0    0    0    0 -0.00000000000E+00 -0.00000000000E+00 -0.45593999997E+02  0.45594000000E+02  0.51100000000E-03 0. -1.
    9900012    2    1    2    0    0  0.13813432202E+02  0.10058825998E+02 -0.76606530699E+01  0.72461641701E+02  0.70000093021E+02 0.  0.
        -12    1    1    2    0    0 -0.13813432202E+02 -0.10058825998E+02  0.76606530699E+01  0.18726358299E+02  0.00000000000E+00 0.  1.
         11    1    3    3    0    0  0.77521295454E+01  0.10556084582E+02  0.83833702197E+01  0.15550155327E+02  0.51100000000E-03 0. -1.
        -11    1    3    3    0    0  0.16756667381E+02 -0.84633512135E+01  0.14409897336E+02  0.23665573244E+02  0.51100000000E-03 0.  1.
        -12    1    3    3    0    0 -0.10695364724E+02  0.79660926299E+01 -0.30453920626E+02  0.33245913130E+02  0.00000000000E+00 0.  1.
</event>
<event>
 7    1  0.2710146E-013  0.7246165E+02  0.7816164E-02  0.1226708E+00
        -11   -1    0    0    0    0  0.00000000000E+00  0.00000000000E+00  0.45593999997E+02  0.45594000000E+02  0.51100000000E-03 0.  1.
         11   -1    0    0    0    0 -0.00000000000E+00 -0.00000000000E+00 -0.45593999997E+02  0.45594000000E+02  0.51100000000E-03 0. -1.
    9900012    2    1    2    0    0  0.85072904082E+01 -0.87087750535E+01 -0.14228827274E+02  0.72461647482E+02  0.70000100552E+02 0.  0.
        -12    1    1    2    0    0 -0.85072904082E+01  0.87087750535E+01  0.14228827274E+02  0.18726352518E+02  0.00000000000E+00 0.  1.
         11    1    3    3    0    0 -0.82927417595E+01 -0.85783436183E+01 -0.11933873748E+02  0.16875274457E+02  0.51100000000E-03 0. -1.
        -11    1    3    3    0    0 -0.11859432578E+02 -0.13435725842E+02  0.11302405519E+02  0.21187478395E+02  0.51100000000E-03 0.  1.
         12    1    3    3    0    0  0.28659464746E+02  0.13305294407E+02 -0.13597359046E+02  0.34398894630E+02  0.00000000000E+00 0. -1.
</event>
<event>
 7    1  0.2710146E-013  0.7246156E+02  0.7816164E-02  0.1226708E+00
        -11   -1    0    0    0    0  0.00000000000E+00  0.00000000000E+00  0.45593999997E+02  0.45594000000E+02  0.51100000000E-03 0. -1.
         11   -1    0    0    0    0 -0.00000000000E+00 -0.00000000000E+00 -0.45593999997E+02  0.45594000000E+02  0.51100000000E-03 0.  1.
    9900012    2    1    2    0    0 -0.43535271259E+01  0.11801786600E+02  0.13872423574E+02  0.72461561438E+02  0.69999988463E+02 0.  0.
        -12    1    1    2    0    0  0.43535271259E+01 -0.11801786600E+02 -0.13872423574E+02  0.18726438562E+02  0.00000000000E+00 0.  1.
         11    1    3    3    0    0  0.11316510971E+02  0.95382033085E+01 -0.15575084958E+01  0.14881753119E+02  0.51100000000E-03 0. -1.
        -11    1    3    3    0    0  0.18098781983E+02  0.43487491175E+01 -0.33061543327E+01  0.18905242260E+02  0.51100000000E-03 0.  1.
         12    1    3    3    0    0 -0.33768820081E+02 -0.20851658259E+01  0.18736086403E+02  0.38674566059E+02  0.00000000000E+00 0. -1.
</event>
<event>
 7    1  0.2710146E-013  0.7246147E+02  0.7816164E-02  0.1226708E+00
        -11   -1    0    0    0    0  0.00000000000E+00  0.00000000000E+00  0.45593999997E+02  0.45594000000E+02  0.51100000000E-03 0. -1.
         11   -1    0    0    0    0 -0.00000000000E+00 -0.00000000000E+00 -0.45593999997E+02  0.45594000000E+02  0.51100000000E-03 0.  1.
    9900012    2    1    2    0    0  0.13240377389E+02 -0.70731879515E+01 -0.11195767229E+02  0.72461473759E+02  0.69999874245E+02 0.  0.
        -12    1    1    2    0    0 -0.13240377389E+02  0.70731879515E+01  0.11195767229E+02  0.18726526241E+02  0.00000000000E+00 0.  1.
         11    1    3    3    0    0  0.21438414742E+02 -0.12533125084E+01 -0.23510701428E+02  0.31842259668E+02  0.51100000000E-03 0. -1.
        -11    1    3    3    0    0 -0.76932333673E+01  0.15182930095E+02  0.17703736412E+01  0.17112610234E+02  0.51100000000E-03 0.  1.
         12    1    3    3    0    0 -0.50480398516E+00 -0.21002805538E+02  0.10544560558E+02  0.23506603858E+02  0.00000000000E+00 0. -1.
</event>
<event>
 7    1  0.2710146E-013  0.7246159E+02  0.7816164E-02  0.1226708E+00
        -11   -1    0    0    0    0  0.00000000000E+00  0.00000000000E+00  0.45593999997E+02  0.45594000000E+02  0.51100000000E-03 0. -1.
         11   -1    0    0    0    0 -0.00000000000E+00 -0.00000000000E+00 -0.45593999997E+02  0.45594000000E+02  0.51100000000E-03 0.  1.
    9900012    2    1    2    0    0  0.51119615783E+01  0.11674700746E+02  0.13720343097E+02  0.72461585410E+02  0.70000019691E+02 0.  0.
        -12    1    1    2    0    0 -0.51119615783E+01 -0.11674700746E+02 -0.13720343097E+02  0.18726414590E+02  0.00000000000E+00 0.  1.
         11    1    3    3    0    0 -0.22149874094E+02  0.24558062928E+01  0.17837119076E+02  0.28544889632E+02  0.51100000000E-03 0. -1.
        -11    1    3    3    0    0  0.44427380556E+01 -0.88941909876E+01  0.76006568028E+01  0.12514573059E+02  0.51100000000E-03 0.  1.
        -12    1    3    3    0    0  0.22819097617E+02  0.18113085441E+02 -0.11717432782E+02  0.31402122719E+02  0.00000000000E+00 0.  1.
</event>
<event>
 7    1  0.2710146E-013  0.7246149E+02  0.7816164E-02  0.1226708E+00
        -11   -1    0    0    0    0  0.00000000000E+00  0.00000000000E+00  0.45593999997E+02  0.45594000000E+02  0.51100000000E-03 0.  1.
         11   -1    0    0    0    0 -0.00000000000E+00 -0.00000000000E+00 -0.45593999997E+02  0.45594000000E+02  0.51100000000E-03 0. -1.
    9900012    2    1    2    0    0 -0.15740129791E+02  0.88175432720E+01 -0.50180921035E+01  0.72461494625E+02  0.69999901427E+02 0.  0.
        -12    1    1    2    0    0  0.15740129791E+02 -0.88175432720E+01  0.50180921035E+01  0.18726505375E+02  0.00000000000E+00 0.  1.
         11    1    3    3    0    0  0.16278239798E+02  0.13976996713E+02  0.80510351371E+01  0.22916297587E+02  0.51100000000E-03 0.  1.
        -11    1    3    3    0    0 -0.19989768085E+02  0.14528842395E+02 -0.71683669245E+01  0.25730596068E+02  0.51100000000E-03 0. -1.
        -12    1    3    3    0    0 -0.12028601505E+02 -0.19688295836E+02 -0.59007603161E+01  0.23814600970E+02  0.00000000000E+00 0.  1.
</event>
<event>
 7    1  0.2710146E-013  0.7246152E+02  0.7816164E-02  0.1226708E+00
        -11   -1    0    0    0    0  0.00000000000E+00  0.00000000000E+00  0.45593999997E+02  0.45594000000E+02  0.51100000000E-03 0.  1.
         11   -1    0    0    0    0 -0.00000000000E+00 -0.00000000000E+00 -0.45593999997E+02  0.45594000000E+02  0.51100000000E-03 0. -1.
    9900012    2    1    2    0    0 -0.14178923996E+02  0.12057036795E+02 -0.20656720427E+01  0.72461520808E+02  0.69999935535E+02 0.  0.
        -12    1    1    2    0    0  0.14178923996E+02 -0.12057036795E+02  0.20656720427E+01  0.18726479192E+02  0.00000000000E+00 0.  1.
         11    1    3    3    0    0  0.52403298462E+01  0.29851695196E+00 -0.91964907953E+00  0.53287825963E+01  0.51100000000E-03 0. -1.
        -11    1    3    3    0    0 -0.14317172776E+02 -0.19624504189E+02  0.17804893818E+02  0.30118380519E+02  0.51100000000E-03 0.  1.
         12    1    3    3    0    0 -0.51020810657E+01  0.31383024031E+02 -0.18950916781E+02  0.37014357693E+02  0.00000000000E+00 0. -1.
</event>
<event>
 7    1  0.2710146E-013  0.7246151E+02  0.7816164E-02  0.1226708E+00
        -11   -1    0    0    0    0  0.00000000000E+00  0.00000000000E+00  0.45593999997E+02  0.45594000000E+02  0.51100000000E-03 0.  1.
         11   -1    0    0    0    0 -0.00000000000E+00 -0.00000000000E+00 -0.45593999997E+02  0.45594000000E+02  0.51100000000E-03 0. -1.
    9900012    2    1    2    0    0 -0.16543614164E+02 -0.58275355318E+01 -0.65597253282E+01  0.72461512440E+02  0.69999924633E+02 0.  0.
        -12    1    1    2    0    0  0.16543614164E+02  0.58275355318E+01  0.65597253282E+01  0.18726487560E+02  0.00000000000E+00 0.  1.
         11    1    3    3    0    0  0.43446934417E+01  0.86612217554E+01 -0.67429357533E+01  0.11805096621E+02  0.51100000000E-03 0. -1.
        -11    1    3    3    0    0 -0.34046859618E+01 -0.76072835039E+01 -0.26636516316E+02  0.27909974033E+02  0.51100000000E-03 0.  1.
        -12    1    3    3    0    0 -0.17483621643E+02 -0.68814737834E+01  0.26819726741E+02  0.32746441786E+02  0.00000000000E+00 0.  1.
</event>
<event>
 7    1  0.2710146E-013  0.7246157E+02  0.7816164E-02  0.1226708E+00
        -11   -1    0    0    0    0  0.00000000000E+00  0.00000000000E+00  0.45593999997E+02  0.45594000000E+02  0.51100000000E-03 0. -1.
         11   -1    0    0    0    0 -0.00000000000E+00 -0.00000000000E+00 -0.45593999997E+02  0.45594000000E+02  0.51100000000E-03 0.  1.
    9900012    2    1    2    0    0 -0.12466382638E+02 -0.20728070137E+01  0.13819263748E+02  0.72461567464E+02  0.69999996312E+02 0.  0.
        -12    1    1    2    0    0  0.12466382638E+02  0.20728070137E+01 -0.13819263748E+02  0.18726432536E+02  0.00000000000E+00 0.  1.
         11    1    3    3    0    0 -0.42566024336E+01 -0.85325491399E+01 -0.70555978715E+01  0.11861893638E+02  0.51100000000E-03 0. -1.
        -11    1    3    3    0    0 -0.26055073029E+01 -0.23079365013E+02  0.19790495345E+02  0.30514086320E+02  0.51100000000E-03 0.  1.
         12    1    3    3    0    0 -0.56042729019E+01  0.29539107139E+02  0.10843662750E+01  0.30085587505E+02  0.00000000000E+00 0. -1.
</event>
<event>
 7    1  0.2710146E-013  0.7246158E+02  0.7816164E-02  0.1226708E+00
        -11   -1    0    0    0    0  0.00000000000E+00  0.00000000000E+00  0.45593999997E+02  0.45594000000E+02  0.51100000000E-03 0.  1.
         11   -1    0    0    0    0 -0.00000000000E+00 -0.00000000000E+00 -0.45593999997E+02  0.45594000000E+02  0.51100000000E-03 0. -1.
    9900012    2    1    2    0    0  0.10295825292E+02 -0.14158925565E+02 -0.66482704060E+01  0.72461583071E+02  0.70000016644E+02 0.  0.
        -12    1    1    2    0    0 -0.10295825292E+02  0.14158925565E+02  0.66482704060E+01  0.18726416929E+02  0.00000000000E+00 0.  1.
         11    1    3    3    0    0 -0.22166041692E+02  0.87801544326E+01 -0.33660507634E+01  0.24078098225E+02  0.51100000000E-03 0. -1.
        -11    1    3    3    0    0 -0.48828477313E+01 -0.10861049596E+01 -0.23851943593E+00  0.50078655866E+01  0.51100000000E-03 0.  1.
        -12    1    3    3    0    0  0.37344714715E+02 -0.21852975038E+02 -0.30437002067E+01  0.43375619259E+02  0.00000000000E+00 0.  1.
</event>
<event>
 7    1  0.2710146E-013  0.7246155E+02  0.7816164E-02  0.1226708E+00
        -11   -1    0    0    0    0  0.00000000000E+00  0.00000000000E+00  0.45593999997E+02  0.45594000000E+02  0.51100000000E-03 0. -1.
         11   -1    0    0    0    0 -0.00000000000E+00 -0.00000000000E+00 -0.45593999997E+02  0.45594000000E+02  0.51100000000E-03 0.  1.
    9900012    2    1    2    0    0 -0.14481966505E+02  0.11862758568E+02  0.47708980063E+00  0.72461547870E+02  0.69999970789E+02 0.  0.
        -12    1    1    2    0    0  0.14481966505E+02 -0.11862758568E+02 -0.47708980063E+00  0.18726452130E+02  0.00000000000E+00 0.  1.
         11    1    3    3    0    0  0.10823108981E+00  0.43119083371E+01  0.92070129002E+01  0.10167268772E+02  0.51100000000E-03 0. -1.
        -11    1    3    3    0    0  0.11222927413E+02 -0.14762062492E+02  0.12264327661E+02  0.22232550955E+02  0.51100000000E-03 0.  1.
         12    1    3    3    0    0 -0.25813125008E+02  0.22312912722E+02 -0.20994250761E+02  0.40061728143E+02  0.00000000000E+00 0. -1.
</event>
<event>
 7    1  0.2710146E-013  0.7246176E+02  0.7816164E-02  0.1226708E+00
        -11   -1    0    0    0    0  0.00000000000E+00  0.00000000000E+00  0.45593999997E+02  0.45594000000E+02  0.51100000000E-03 0. -1.
         11   -1    0    0    0    0 -0.00000000000E+00 -0.00000000000E+00 -0.45593999997E+02  0.45594000000E+02  0.51100000000E-03 0.  1.
    9900012    2    1    2    0    0 -0.10271813843E+02 -0.31146611013E+01  0.15344731835E+02  0.72461759895E+02  0.70000246989E+02 0.  0.
        -12    1    1    2    0    0  0.10271813843E+02  0.31146611013E+01 -0.15344731835E+02  0.18726240105E+02  0.00000000000E+00 0.  1.
         11    1    3    3    0    0 -0.11169820145E+02 -0.46725127216E+01 -0.92480770810E+00  0.12143003202E+02  0.51100000000E-03 0. -1.
        -11    1    3    3    0    0 -0.20057313450E+02 -0.13015262487E+02 -0.78853050390E+01  0.25176793209E+02  0.51100000000E-03 0.  1.
         12    1    3    3    0    0  0.20955319752E+02  0.14573114108E+02  0.24154844582E+02  0.35141963484E+02  0.00000000000E+00 0. -1.
</event>
<event>
 7    1  0.2710146E-013  0.7246154E+02  0.7816164E-02  0.1226708E+00
        -11   -1    0    0    0    0  0.00000000000E+00  0.00000000000E+00  0.45593999997E+02  0.45594000000E+02  0.51100000000E-03 0. -1.
         11   -1    0    0    0    0 -0.00000000000E+00 -0.00000000000E+00 -0.45593999997E+02  0.45594000000E+02  0.51100000000E-03 0.  1.
    9900012    2    1    2    0    0  0.13132697876E+02  0.13274864079E+02  0.14109017760E+01  0.72461537076E+02  0.69999956726E+02 0.  0.
        -12    1    1    2    0    0 -0.13132697876E+02 -0.13274864079E+02 -0.14109017760E+01  0.18726462924E+02  0.00000000000E+00 0.  1.
         11    1    3    3    0    0  0.89380595176E+01 -0.39742734907E+01  0.18927592695E+02  0.21305809612E+02  0.51100000000E-03 0. -1.
        -11    1    3    3    0    0  0.74548180226E+01 -0.14116890926E+02 -0.96500308751E+01  0.18654329720E+02  0.51100000000E-03 0.  1.
         12    1    3    3    0    0 -0.32601796640E+01  0.31366028496E+02 -0.78666600439E+01  0.32501397744E+02  0.00000000000E+00 0. -1.
</event>
<event>
 8    1  0.2710146E-013  0.7246154E+02  0.7816164E-02  0.1226708E+00
        -11   -1    0    0    0    0  0.00000000000E+00  0.00000000000E+00  0.45593999997E+02  0.45594000000E+02  0.51100000000E-03 0. -1.
         11   -1    0    0    0    0 -0.00000000000E+00 -0.00000000000E+00 -0.45593999997E+02  0.45594000000E+02  0.51100000000E-03 0.  1.
    9900012    2    1    2    0    0 -0.32765660010E+01 -0.50352685760E+01  0.17736700245E+02  0.72461538776E+02  0.69999958942E+02 0.  0.
         23    2    3    3    0    0  0.22654663763E+01 -0.16632139520E+02  0.18623032898E+02  0.59577939739E+02  0.54045843007E+02 0.  0.
        -12    1    1    2    0    0  0.32765660010E+01  0.50352685760E+01 -0.17736700245E+02  0.18726461224E+02  0.00000000000E+00 0.  1.
         11    1    4    4    0    0  0.21261407121E+02 -0.15547516555E+02  0.27935072857E+02  0.38394543878E+02  0.51100000000E-03 0. -1.
        -11    1    4    4    0    0 -0.18995940745E+02 -0.10846229653E+01 -0.93120399591E+01  0.21183395862E+02  0.51100000000E-03 0.  1.
        -12    1    3    3    0    0 -0.55420323773E+01  0.11596870944E+02 -0.88633265323E+00  0.12883599037E+02  0.00000000000E+00 0.  1.
</event>
<event>
 7    1  0.2710146E-013  0.7246160E+02  0.7816164E-02  0.1226708E+00
        -11   -1    0    0    0    0  0.00000000000E+00  0.00000000000E+00  0.45593999997E+02  0.45594000000E+02  0.51100000000E-03 0.  1.
         11   -1    0    0    0    0 -0.00000000000E+00 -0.00000000000E+00 -0.45593999997E+02  0.45594000000E+02  0.51100000000E-03 0. -1.
    9900012    2    1    2    0    0  0.53112935409E+01  0.14994899623E+02 -0.98803484652E+01  0.72461597794E+02  0.70000035823E+02 0.  0.
        -12    1    1    2    0    0 -0.53112935409E+01 -0.14994899623E+02  0.98803484652E+01  0.18726402206E+02  0.00000000000E+00 0.  1.
         11    1    3    3    0    0 -0.95690424245E+00  0.30409266338E+02 -0.23022223266E+02  0.38153137608E+02  0.51100000000E-03 0. -1.
        -11    1    3    3    0    0 -0.10023449449E+02 -0.12454330809E+01  0.42052603578E+01  0.10940971499E+02  0.51100000000E-03 0.  1.
        -12    1    3    3    0    0  0.16291647232E+02 -0.14168933633E+02  0.89366144432E+01  0.23367488687E+02  0.00000000000E+00 0.  1.
</event>
<event>
 7    1  0.2710146E-013  0.7246159E+02  0.7816164E-02  0.1226708E+00
        -11   -1    0    0    0    0  0.00000000000E+00  0.00000000000E+00  0.45593999997E+02  0.45594000000E+02  0.51100000000E-03 0.  1.
         11   -1    0    0    0    0 -0.00000000000E+00 -0.00000000000E+00 -0.45593999997E+02  0.45594000000E+02  0.51100000000E-03 0. -1.
    9900012    2    1    2    0    0 -0.13006329613E+02 -0.93117212736E+01  0.97368213623E+01  0.72461589417E+02  0.70000024911E+02 0.  0.
        -12    1    1    2    0    0  0.13006329613E+02  0.93117212736E+01 -0.97368213623E+01  0.18726410583E+02  0.00000000000E+00 0.  1.
         11    1    3    3    0    0  0.61191191766E+01 -0.16046835431E+02  0.24670142760E+01  0.17350236498E+02  0.51100000000E-03 0. -1.
        -11    1    3    3    0    0 -0.91863310963E+01 -0.16804035001E+02  0.19016809312E+02  0.26988947886E+02  0.51100000000E-03 0.  1.
        -12    1    3    3    0    0 -0.99391176928E+01  0.23539149158E+02 -0.11747002225E+02  0.28122405034E+02  0.00000000000E+00 0.  1.
</event>
<event>
 7    1  0.2710146E-013  0.7246164E+02  0.7816164E-02  0.1226708E+00
        -11   -1    0    0    0    0  0.00000000000E+00  0.00000000000E+00  0.45593999997E+02  0.45594000000E+02  0.51100000000E-03 0.  1.
         11   -1    0    0    0    0 -0.00000000000E+00 -0.00000000000E+00 -0.45593999997E+02  0.45594000000E+02  0.51100000000E-03 0. -1.
    9900012    2    1    2    0    0 -0.11609312150E+02 -0.61665165739E+00 -0.14680605535E+02  0.72461639790E+02  0.70000090531E+02 0.  0.
        -12    1    1    2    0    0  0.11609312150E+02  0.61665165739E+00  0.14680605535E+02  0.18726360210E+02  0.00000000000E+00 0.  1.
         11    1    3    3    0    0 -0.87975047501E+01 -0.10183768180E+02 -0.28028598863E+02  0.31091921437E+02  0.51100000000E-03 0. -1.
        -11    1    3    3    0    0 -0.15689264217E+02 -0.73383981381E+01  0.95583215231E+01  0.19782987881E+02  0.51100000000E-03 0.  1.
        -12    1    3    3    0    0  0.12877456818E+02  0.16905514661E+02  0.37896718052E+01  0.21586730471E+02  0.00000000000E+00 0.  1.
</event>
<event>
 7    1  0.2710146E-013  0.7246194E+02  0.7816164E-02  0.1226707E+00
        -11   -1    0    0    0    0  0.00000000000E+00  0.00000000000E+00  0.45593999997E+02  0.45594000000E+02  0.51100000000E-03 0. -1.
         11   -1    0    0    0    0 -0.00000000000E+00 -0.00000000000E+00 -0.45593999997E+02  0.45594000000E+02  0.51100000000E-03 0.  1.
    9900012    2    1    2    0    0 -0.99569921351E+01 -0.15313299812E+02  0.41263116285E+01  0.72461940853E+02  0.70000482720E+02 0.  0.
        -12    1    1    2    0    0  0.99569921351E+01  0.15313299812E+02 -0.41263116285E+01  0.18726059147E+02  0.00000000000E+00 0.  1.
         11    1    3    3    0    0 -0.16228749064E+02 -0.71248370925E+01  0.60314888361E+01  0.18722031343E+02  0.51100000000E-03 0. -1.
        -11    1    3    3    0    0  0.32210653941E+01  0.18911640785E+02 -0.14157818212E+02  0.23842592901E+02  0.51100000000E-03 0.  1.
         12    1    3    3    0    0  0.30506915350E+01 -0.27100103505E+02  0.12252641004E+02  0.29897316609E+02  0.00000000000E+00 0. -1.
</event>
<event>
 7    1  0.2710146E-013  0.7246160E+02  0.7816164E-02  0.1226708E+00
        -11   -1    0    0    0    0  0.00000000000E+00  0.00000000000E+00  0.45593999997E+02  0.45594000000E+02  0.51100000000E-03 0.  1.
         11   -1    0    0    0    0 -0.00000000000E+00 -0.00000000000E+00 -0.45593999997E+02  0.45594000000E+02  0.51100000000E-03 0. -1.
    9900012    2    1    2    0    0 -0.17594843246E+02  0.63183203536E+01 -0.10855948835E+01  0.72461596256E+02  0.70000033819E+02 0.  0.
        -12    1    1    2    0    0  0.17594843246E+02 -0.63183203536E+01  0.10855948835E+01  0.18726403744E+02  0.00000000000E+00 0.  1.
         11    1    3    3    0    0 -0.59545847745E+01 -0.10451845143E+02  0.11933648305E+02  0.16944323795E+02  0.51100000000E-03 0. -1.
        -11    1    3    3    0    0 -0.17388975610E+00  0.63621905402E+00  0.18384409889E+02  0.18396237103E+02  0.51100000000E-03 0.  1.
         12    1    3    3    0    0 -0.11466368716E+02  0.16133946443E+02 -0.31403653078E+02  0.37121035357E+02  0.00000000000E+00 0. -1.
</event>
<event>
 7    1  0.2710146E-013  0.7246157E+02  0.7816164E-02  0.1226708E+00
        -11   -1    0    0    0    0  0.00000000000E+00  0.00000000000E+00  0.45593999997E+02  0.45594000000E+02  0.51100000000E-03 0.  1.
         11   -1    0    0    0    0 -0.00000000000E+00 -0.00000000000E+00 -0.45593999997E+02  0.45594000000E+02  0.51100000000E-03 0. -1.
    9900012    2    1    2    0    0 -0.12795747671E+02 -0.13098544197E+02 -0.39212367145E+01  0.72461571725E+02  0.70000001864E+02 0.  0.
        -12    1    1    2    0    0  0.12795747671E+02  0.13098544197E+02  0.39212367145E+01  0.18726428275E+02  0.00000000000E+00 0.  1.
         11    1    3    3    0    0 -0.14248432655E+02 -0.72356889493E+01  0.43289431607E+00  0.15986257393E+02  0.51100000000E-03 0. -1.
        -11    1    3    3    0    0  0.10012183856E+02 -0.25293204072E+02  0.11943648923E+02  0.29709270400E+02  0.51100000000E-03 0.  1.
         12    1    3    3    0    0 -0.85594988727E+01  0.19430348824E+02 -0.16297779953E+02  0.26766043932E+02  0.00000000000E+00 0. -1.
</event>
<event>
 7    1  0.2710146E-013  0.7246157E+02  0.7816164E-02  0.1226708E+00
        -11   -1    0    0    0    0  0.00000000000E+00  0.00000000000E+00  0.45593999997E+02  0.45594000000E+02  0.51100000000E-03 0. -1.
         11   -1    0    0    0    0 -0.00000000000E+00 -0.00000000000E+00 -0.45593999997E+02  0.45594000000E+02  0.51100000000E-03 0.  1.
    9900012    2    1    2    0    0 -0.97658090606E+01 -0.15265132334E+02  0.47205683092E+01  0.72461573300E+02  0.70000003915E+02 0.  0.
        -12    1    1    2    0    0  0.97658090606E+01  0.15265132334E+02 -0.47205683092E+01  0.18726426700E+02  0.00000000000E+00 0.  1.
         11    1    3    3    0    0 -0.28472543684E+01 -0.10886485688E+02  0.92079824384E+01  0.14539923278E+02  0.51100000000E-03 0. -1.
        -11    1    3    3    0    0  0.25177059219E+02 -0.41165990457E+01 -0.39870787491E+01  0.25821066900E+02  0.51100000000E-03 0.  1.
         12    1    3    3    0    0 -0.32095613911E+02 -0.26204760083E+00 -0.50033538006E+00  0.32100583122E+02  0.00000000000E+00 0. -1.
</event>
<event>
 7    1  0.2710146E-013  0.7246148E+02  0.7816164E-02  0.1226708E+00
        -11   -1    0    0    0    0  0.00000000000E+00  0.00000000000E+00  0.45593999997E+02  0.45594000000E+02  0.51100000000E-03 0.  1.
         11   -1    0    0    0    0 -0.00000000000E+00 -0.00000000000E+00 -0.45593999997E+02  0.45594000000E+02  0.51100000000E-03 0. -1.
    9900012    2    1    2    0    0  0.28916726184E+01 -0.18118245129E+02  0.37483075638E+01  0.72461484396E+02  0.69999888101E+02 0.  0.
        -12    1    1    2    0    0 -0.28916726184E+01  0.18118245129E+02 -0.37483075638E+01  0.18726515604E+02  0.00000000000E+00 0.  1.
         11    1    3    3    0    0  0.11420340501E+02 -0.13212348428E+01  0.32742689061E+02  0.34702356201E+02  0.51100000000E-03 0. -1.
        -11    1    3    3    0    0 -0.53884364513E+01  0.62481987455E+00 -0.26958696365E+01  0.60575044881E+01  0.51100000000E-03 0.  1.
        -12    1    3    3    0    0 -0.31402314312E+01 -0.17421830161E+02 -0.26298511861E+02  0.31701623707E+02  0.00000000000E+00 0.  1.
</event>
<event>
 7    1  0.2710146E-013  0.7246165E+02  0.7816164E-02  0.1226708E+00
        -11   -1    0    0    0    0  0.00000000000E+00  0.00000000000E+00  0.45593999997E+02  0.45594000000E+02  0.51100000000E-03 0. -1.
         11   -1    0    0    0    0 -0.00000000000E+00 -0.00000000000E+00 -0.45593999997E+02  0.45594000000E+02  0.51100000000E-03 0.  1.
    9900012    2    1    2    0    0 -0.14211036209E+02  0.98111826286E+01  0.72431504781E+01  0.72461652691E+02  0.70000107336E+02 0.  0.
        -12    1    1    2    0    0  0.14211036209E+02 -0.98111826286E+01 -0.72431504781E+01  0.18726347309E+02  0.00000000000E+00 0.  1.
         11    1    3    3    0    0  0.99842168100E+01 -0.60297373170E+01  0.17223004263E+02  0.20800821944E+02  0.51100000000E-03 0. -1.
        -11    1    3    3    0    0 -0.12917152864E+02 -0.12936736937E+02 -0.98194065023E+01  0.20751692582E+02  0.51100000000E-03 0.  1.
        -12    1    3    3    0    0 -0.11278100155E+02  0.28777656883E+02 -0.16044728289E+00  0.30909138165E+02  0.00000000000E+00 0.  1.
</event>
<event>
 7    1  0.2710146E-013  0.7246156E+02  0.7816164E-02  0.1226708E+00
        -11   -1    0    0    0    0  0.00000000000E+00  0.00000000000E+00  0.45593999997E+02  0.45594000000E+02  0.51100000000E-03 0.  1.
         11   -1    0    0    0    0 -0.00000000000E+00 -0.00000000000E+00 -0.45593999997E+02  0.45594000000E+02  0.51100000000E-03 0. -1.
    9900012    2    1    2    0    0 -0.50370197073E+01 -0.87284923359E+01 -0.15783581830E+02  0.72461558764E+02  0.69999984979E+02 0.  0.
        -12    1    1    2    0    0  0.50370197073E+01  0.87284923359E+01  0.15783581830E+02  0.18726441236E+02  0.00000000000E+00 0.  1.
         11    1    3    3    0    0  0.99768806390E+01 -0.13393161798E+02 -0.89817773157E+01  0.18962786036E+02  0.51100000000E-03 0. -1.
        -11    1    3    3    0    0  0.13260099558E+02 -0.13846871027E+02 -0.90584441694E+00  0.19193400738E+02  0.51100000000E-03 0.  1.
        -12    1    3    3    0    0 -0.28273999905E+02  0.18511540489E+02 -0.58959600975E+01  0.34305371990E+02  0.00000000000E+00 0.  1.
</event>
<event>
 7    1  0.2710146E-013  0.7246160E+02  0.7816164E-02  0.1226708E+00
        -11   -1    0    0    0    0  0.00000000000E+00  0.00000000000E+00  0.45593999997E+02  0.45594000000E+02  0.51100000000E-03 0.  1.
         11   -1    0    0    0    0 -0.00000000000E+00 -0.00000000000E+00 -0.45593999997E+02  0.45594000000E+02  0.51100000000E-03 0. -1.
    9900012    2    1    2    0    0 -0.12906515159E+02  0.11802885052E+02 -0.66926711730E+01  0.72461599477E+02  0.70000038016E+02 0.  0.
        -12    1    1    2    0    0  0.12906515159E+02 -0.11802885052E+02  0.66926711730E+01  0.18726400523E+02  0.00000000000E+00 0.  1.
         11    1    3    3    0    0 -0.25950595090E+02 -0.20759422308E+01 -0.34234639411E+01  0.26257627983E+02  0.51100000000E-03 0. -1.
        -11    1    3    3    0    0  0.47997841951E+01 -0.11623054211E+02 -0.12622453520E+02  0.17817397415E+02  0.51100000000E-03 0.  1.
        -12    1    3    3    0    0  0.82442957355E+01  0.25501881493E+02  0.93532462886E+01  0.28386574080E+02  0.00000000000E+00 0.  1.
</event>
<event>
 7    1  0.2710146E-013  0.7246139E+02  0.7816164E-02  0.1226708E+00
        -11   -1    0    0    0    0  0.00000000000E+00  0.00000000000E+00  0.45593999997E+02  0.45594000000E+02  0.51100000000E-03 0.  1.
         11   -1    0    0    0    0 -0.00000000000E+00 -0.00000000000E+00 -0.45593999997E+02  0.45594000000E+02  0.51100000000E-03 0. -1.
    9900012    2    1    2    0    0 -0.17196246440E+02  0.23141490241E+01 -0.70441331054E+01  0.72461388226E+02  0.69999762821E+02 0.  0.
        -12    1    1    2    0    0  0.17196246440E+02 -0.23141490241E+01  0.70441331054E+01  0.18726611774E+02  0.00000000000E+00 0.  1.
         11    1    3    3    0    0 -0.30492323341E+02  0.10066744350E+02 -0.62805368065E+01  0.32719508972E+02  0.51100000000E-03 0. -1.
        -11    1    3    3    0    0  0.87563228626E+01  0.82242569600E+01  0.13340443377E+02  0.17952131416E+02  0.51100000000E-03 0.  1.
        -12    1    3    3    0    0  0.45397540377E+01 -0.15976852286E+02 -0.14104039675E+02  0.21789747838E+02  0.00000000000E+00 0.  1.
</event>
<event>
 7    1  0.2710146E-013  0.7246156E+02  0.7816164E-02  0.1226708E+00
        -11   -1    0    0    0    0  0.00000000000E+00  0.00000000000E+00  0.45593999997E+02  0.45594000000E+02  0.51100000000E-03 0.  1.
         11   -1    0    0    0    0 -0.00000000000E+00 -0.00000000000E+00 -0.45593999997E+02  0.45594000000E+02  0.51100000000E-03 0. -1.
    9900012    2    1    2    0    0  0.35931829654E+01 -0.14744910263E+02 -0.10970691374E+02  0.72461563827E+02  0.69999991575E+02 0.  0.
        -12    1    1    2    0    0 -0.35931829654E+01  0.14744910263E+02  0.10970691374E+02  0.18726436173E+02  0.00000000000E+00 0.  1.
         11    1    3    3    0    0  0.24905100827E+02 -0.13418506559E+02 -0.54022979195E+01  0.28801131723E+02  0.51100000000E-03 0. -1.
        -11    1    3    3    0    0 -0.98699175747E+01 -0.75169258383E+01 -0.20434525737E+02  0.23905842159E+02  0.51100000000E-03 0.  1.
         12    1    3    3    0    0 -0.11442000287E+02  0.61905221339E+01  0.14866132282E+02  0.19754589945E+02  0.00000000000E+00 0. -1.
</event>
<event>
 7    1  0.2710146E-013  0.7246150E+02  0.7816164E-02  0.1226708E+00
        -11   -1    0    0    0    0  0.00000000000E+00  0.00000000000E+00  0.45593999997E+02  0.45594000000E+02  0.51100000000E-03 0.  1.
         11   -1    0    0    0    0 -0.00000000000E+00 -0.00000000000E+00 -0.45593999997E+02  0.45594000000E+02  0.51100000000E-03 0. -1.
    9900012    2    1    2    0    0 -0.17109160021E+02  0.21276497903E+00  0.76100788269E+01  0.72461496714E+02  0.69999904148E+02 0.  0.
        -12    1    1    2    0    0  0.17109160021E+02 -0.21276497903E+00 -0.76100788269E+01  0.18726503286E+02  0.00000000000E+00 0.  1.
         11    1    3    3    0    0 -0.28163401148E+02 -0.10663091949E+02  0.58076287125E+01  0.30669320920E+02  0.51100000000E-03 0. -1.
        -11    1    3    3    0    0  0.83534999821E+00 -0.36046155302E+01  0.17639917337E+02  0.18023810547E+02  0.51100000000E-03 0.  1.
         12    1    3    3    0    0  0.10218891129E+02  0.14480472458E+02 -0.15837467222E+02  0.23768365247E+02  0.00000000000E+00 0. -1.
</event>
<event>
 7    1  0.2710146E-013  0.7246150E+02  0.7816164E-02  0.1226708E+00
        -11   -1    0    0    0    0  0.00000000000E+00  0.00000000000E+00  0.45593999997E+02  0.45594000000E+02  0.51100000000E-03 0.  1.
         11   -1    0    0    0    0 -0.00000000000E+00 -0.00000000000E+00 -0.45593999997E+02  0.45594000000E+02  0.51100000000E-03 0. -1.
    9900012    2    1    2    0    0 -0.18104886916E+02  0.47838546437E+01 -0.98040193738E-01  0.72461499864E+02  0.69999908251E+02 0.  0.
        -12    1    1    2    0    0  0.18104886916E+02 -0.47838546437E+01  0.98040193738E-01  0.18726500136E+02  0.00000000000E+00 0.  1.
         11    1    3    3    0    0 -0.62324419867E+01 -0.10851741149E+01  0.12485372651E+02  0.13996623395E+02  0.51100000000E-03 0. -1.
        -11    1    3    3    0    0  0.55414972296E+01  0.34100461666E+01  0.20221849969E+02  0.21242876990E+02  0.51100000000E-03 0.  1.
         12    1    3    3    0    0 -0.17413942158E+02  0.24589825920E+01 -0.32805262813E+02  0.37221999478E+02  0.00000000000E+00 0. -1.
</event>
<event>
 7    1  0.2710146E-013  0.7246157E+02  0.7816164E-02  0.1226708E+00
        -11   -1    0    0    0    0  0.00000000000E+00  0.00000000000E+00  0.45593999997E+02  0.45594000000E+02  0.51100000000E-03 0. -1.
         11   -1    0    0    0    0 -0.00000000000E+00 -0.00000000000E+00 -0.45593999997E+02  0.45594000000E+02  0.51100000000E-03 0.  1.
    9900012    2    1    2    0    0 -0.95704670874E+01 -0.12862194732E+02  0.96772657342E+01  0.72461565057E+02  0.69999993177E+02 0.  0.
        -12    1    1    2    0    0  0.95704670874E+01  0.12862194732E+02 -0.96772657342E+01  0.18726434943E+02  0.00000000000E+00 0.  1.
         11    1    3    3    0    0 -0.51896761647E+01 -0.83079154650E+01  0.88924913016E+01  0.13229913071E+02  0.51100000000E-03 0. -1.
        -11    1    3    3    0    0 -0.26908368069E+02  0.11607228031E+01  0.16118273608E+02  0.31387996016E+02  0.51100000000E-03 0.  1.
        -12    1    3    3    0    0  0.22527577146E+02 -0.57150020703E+01 -0.15333499176E+02  0.27843655969E+02  0.00000000000E+00 0.  1.
</event>
<event>
 7    1  0.2710146E-013  0.7246148E+02  0.7816164E-02  0.1226708E+00
        -11   -1    0    0    0    0  0.00000000000E+00  0.00000000000E+00  0.45593999997E+02  0.45594000000E+02  0.51100000000E-03 0. -1.
         11   -1    0    0    0    0 -0.00000000000E+00 -0.00000000000E+00 -0.45593999997E+02  0.45594000000E+02  0.51100000000E-03 0.  1.
    9900012    2    1    2    0    0  0.55830186475E+01  0.10372493061E+01  0.17844786535E+02  0.72461484311E+02  0.69999887991E+02 0.  0.
        -12    1    1    2    0    0 -0.55830186475E+01 -0.10372493061E+01 -0.17844786535E+02  0.18726515689E+02  0.00000000000E+00 0.  1.
         11    1    3    3    0    0 -0.76357417786E+01  0.26937249137E+02  0.10603945276E+02  0.29939331978E+02  0.51100000000E-03 0. -1.
        -11    1    3    3    0    0  0.15364571421E+02  0.45922927179E+00  0.39573911245E+01  0.15872677507E+02  0.51100000000E-03 0.  1.
        -12    1    3    3    0    0 -0.21458109948E+01 -0.26359229103E+02  0.32834501353E+01  0.26649474827E+02  0.00000000000E+00 0.  1.
</event>
<event>
 7    1  0.2710146E-013  0.7246150E+02  0.7816164E-02  0.1226708E+00
        -11   -1    0    0    0    0  0.00000000000E+00  0.00000000000E+00  0.45593999997E+02  0.45594000000E+02  0.51100000000E-03 0.  1.
         11   -1    0    0    0    0 -0.00000000000E+00 -0.00000000000E+00 -0.45593999997E+02  0.45594000000E+02  0.51100000000E-03 0. -1.
    9900012    2    1    2    0    0 -0.44561384502E+01 -0.45506670326E+01 -0.17610110995E+02  0.72461501406E+02  0.69999910260E+02 0.  0.
        -12    1    1    2    0    0  0.44561384502E+01  0.45506670326E+01  0.17610110995E+02  0.18726498594E+02  0.00000000000E+00 0.  1.
         11    1    3    3    0    0 -0.86924860559E+01  0.27917478407E+01  0.46057001308E+01  0.10225734389E+02  0.51100000000E-03 0. -1.
        -11    1    3    3    0    0 -0.21180704400E+02  0.69539280727E+01  0.44355158420E+01  0.22730005621E+02  0.51100000000E-03 0.  1.
         12    1    3    3    0    0  0.25417052005E+02 -0.14296342946E+02 -0.26651326968E+02  0.39505761395E+02  0.00000000000E+00 0. -1.
</event>
<event>
 7    1  0.2710146E-013  0.7246153E+02  0.7816164E-02  0.1226708E+00
        -11   -1    0    0    0    0  0.00000000000E+00  0.00000000000E+00  0.45593999997E+02  0.45594000000E+02  0.51100000000E-03 0.  1.
         11   -1    0    0    0    0 -0.00000000000E+00 -0.00000000000E+00 -0.45593999997E+02  0.45594000000E+02  0.51100000000E-03 0. -1.
    9900012    2    1    2    0    0  0.95281811124E+01 -0.13164030748E+02 -0.93060564465E+01  0.72461531368E+02  0.69999949291E+02 0.  0.
        -12    1    1    2    0    0 -0.95281811124E+01  0.13164030748E+02  0.93060564465E+01  0.18726468632E+02  0.00000000000E+00 0.  1.
         11    1    3    3    0    0 -0.33314527316E+01 -0.71593497953E+01 -0.14702016849E+02  0.16688444100E+02  0.51100000000E-03 0.  1.
        -11    1    3    3    0    0  0.12523135496E+02 -0.28792259552E+02 -0.28736459269E+01  0.31529049683E+02  0.51100000000E-03 0. -1.
        -12    1    3    3    0    0  0.33649834812E+00  0.22787578599E+02  0.82696063294E+01  0.24244037585E+02  0.00000000000E+00 0.  1.
</event>
<event>
 7    1  0.2710146E-013  0.7246163E+02  0.7816164E-02  0.1226708E+00
        -11   -1    0    0    0    0  0.00000000000E+00  0.00000000000E+00  0.45593999997E+02  0.45594000000E+02  0.51100000000E-03 0.  1.
         11   -1    0    0    0    0 -0.00000000000E+00 -0.00000000000E+00 -0.45593999997E+02  0.45594000000E+02  0.51100000000E-03 0. -1.
    9900012    2    1    2    0    0  0.85956624425E+01 -0.54101751546E+01 -0.15732818003E+02  0.72461629013E+02  0.70000076492E+02 0.  0.
        -12    1    1    2    0    0 -0.85956624425E+01  0.54101751546E+01  0.15732818003E+02  0.18726370987E+02  0.00000000000E+00 0.  1.
         11    1    3    3    0    0 -0.30767594871E+01  0.47873483478E+01  0.21248531475E+01  0.60745497202E+01  0.51100000000E-03 0. -1.
        -11    1    3    3    0    0 -0.15188481105E+02  0.18906381160E+02 -0.84358630138E+01  0.25676935017E+02  0.51100000000E-03 0.  1.
         12    1    3    3    0    0  0.26860903034E+02 -0.29103904662E+02 -0.94218081364E+01  0.40710144276E+02  0.00000000000E+00 0. -1.
</event>
<event>
 7    1  0.2710146E-013  0.7246159E+02  0.7816164E-02  0.1226708E+00
        -11   -1    0    0    0    0  0.00000000000E+00  0.00000000000E+00  0.45593999997E+02  0.45594000000E+02  0.51100000000E-03 0. -1.
         11   -1    0    0    0    0 -0.00000000000E+00 -0.00000000000E+00 -0.45593999997E+02  0.45594000000E+02  0.51100000000E-03 0.  1.
    9900012    2    1    2    0    0 -0.14123413583E+02 -0.61549261241E+01  0.10645395503E+02  0.72461591582E+02  0.70000027731E+02 0.  0.
        -12    1    1    2    0    0  0.14123413583E+02  0.61549261241E+01 -0.10645395503E+02  0.18726408418E+02  0.00000000000E+00 0.  1.
         11    1    3    3    0    0 -0.34440483349E+01 -0.25558039435E+02  0.21044047862E+02  0.33285534386E+02  0.51100000000E-03 0. -1.
        -11    1    3    3    0    0 -0.21511460877E+01 -0.51972359025E+01  0.61429520984E+01  0.83291386867E+01  0.51100000000E-03 0.  1.
        -12    1    3    3    0    0 -0.85282191608E+01  0.24600349213E+02 -0.16541604458E+02  0.30846918509E+02  0.00000000000E+00 0.  1.
</event>
<event>
 7    1  0.2710146E-013  0.7246159E+02  0.7816164E-02  0.1226708E+00
        -11   -1    0    0    0    0  0.00000000000E+00  0.00000000000E+00  0.45593999997E+02  0.45594000000E+02  0.51100000000E-03 0.  1.
         11   -1    0    0    0    0 -0.00000000000E+00 -0.00000000000E+00 -0.45593999997E+02  0.45594000000E+02  0.51100000000E-03 0. -1.
    9900012    2    1    2    0    0 -0.46904125882E+01 -0.18909094056E+00 -0.18128507377E+02  0.72461588028E+02  0.70000023101E+02 0.  0.
        -12    1    1    2    0    0  0.46904125882E+01  0.18909094056E+00  0.18128507377E+02  0.18726411972E+02  0.00000000000E+00 0.  1.
         11    1    3    3    0    0  0.75049373312E+01 -0.66875097979E+01  0.31108254687E+01  0.10522552304E+02  0.51100000000E-03 0. -1.
        -11    1    3    3    0    0 -0.20992530913E+02 -0.19699409661E+02 -0.18382037755E+02  0.34156293819E+02  0.51100000000E-03 0.  1.
         12    1    3    3    0    0  0.87971809940E+01  0.26197828518E+02 -0.28572950905E+01  0.27782741905E+02  0.00000000000E+00 0. -1.
</event>
<event>
 7    1  0.2710146E-013  0.7246157E+02  0.7816164E-02  0.1226708E+00
        -11   -1    0    0    0    0  0.00000000000E+00  0.00000000000E+00  0.45593999997E+02  0.45594000000E+02  0.51100000000E-03 0.  1.
         11   -1    0    0    0    0 -0.00000000000E+00 -0.00000000000E+00 -0.45593999997E+02  0.45594000000E+02  0.51100000000E-03 0. -1.
    9900012    2    1    2    0    0  0.30344494923E+01  0.45911877779E+01 -0.17899509356E+02  0.72461566167E+02  0.69999994623E+02 0.  0.
        -12    1    1    2    0    0 -0.30344494923E+01 -0.45911877779E+01  0.17899509356E+02  0.18726433833E+02  0.00000000000E+00 0.  1.
         11    1    3    3    0    0 -0.69313881077E+01  0.12022866053E+02 -0.64123904746E+01  0.15287648645E+02  0.51100000000E-03 0. -1.
        -11    1    3    3    0    0  0.14753040428E+02  0.14680978089E+02 -0.23635983769E+02  0.31493539791E+02  0.51100000000E-03 0.  1.
         12    1    3    3    0    0 -0.47872028285E+01 -0.22112656363E+02  0.12148864888E+02  0.25680377732E+02  0.00000000000E+00 0. -1.
</event>
<event>
 7    1  0.2710146E-013  0.7246161E+02  0.7816164E-02  0.1226708E+00
        -11   -1    0    0    0    0  0.00000000000E+00  0.00000000000E+00  0.45593999997E+02  0.45594000000E+02  0.51100000000E-03 0. -1.
         11   -1    0    0    0    0 -0.00000000000E+00 -0.00000000000E+00 -0.45593999997E+02  0.45594000000E+02  0.51100000000E-03 0.  1.
    9900012    2    1    2    0    0 -0.40795247230E+01 -0.71627497162E+01  0.16814587439E+02  0.72461605360E+02  0.70000045680E+02 0.  0.
        -12    1    1    2    0    0  0.40795247230E+01  0.71627497162E+01 -0.16814587439E+02  0.18726394640E+02  0.00000000000E+00 0.  1.
         11    1    3    3    0    0  0.11671008304E+02  0.13621755206E+02  0.31480486364E+02  0.36232384295E+02  0.51100000000E-03 0. -1.
        -11    1    3    3    0    0 -0.19360716042E+01  0.14218959664E+01 -0.92039547137E+01  0.95122523111E+01  0.51100000000E-03 0.  1.
        -12    1    3    3    0    0 -0.13814461422E+02 -0.22206400889E+02 -0.54619442114E+01  0.26716968754E+02  0.00000000000E+00 0.  1.
</event>
<event>
 7    1  0.2710146E-013  0.7246167E+02  0.7816164E-02  0.1226708E+00
        -11   -1    0    0    0    0  0.00000000000E+00  0.00000000000E+00  0.45593999997E+02  0.45594000000E+02  0.51100000000E-03 0.  1.
         11   -1    0    0    0    0 -0.00000000000E+00 -0.00000000000E+00 -0.45593999997E+02  0.45594000000E+02  0.51100000000E-03 0. -1.
    9900012    2    1    2    0    0 -0.73990036905E+01  0.95191447465E+01 -0.14328852049E+02  0.72461671653E+02  0.70000132039E+02 0.  0.
        -12    1    1    2    0    0  0.73990036905E+01 -0.95191447465E+01  0.14328852049E+02  0.18726328347E+02  0.00000000000E+00 0.  1.
         11    1    3    3    0    0 -0.13685749307E+02  0.32801588175E+01 -0.31168735510E+02  0.34198673212E+02  0.51100000000E-03 0. -1.
        -11    1    3    3    0    0 -0.31126426668E+01 -0.27740682620E+00 -0.92567947324E+01  0.97700433928E+01  0.51100000000E-03 0.  1.
        -12    1    3    3    0    0  0.93993882833E+01  0.65163927551E+01  0.26096678193E+02  0.28492955048E+02  0.00000000000E+00 0.  1.
</event>
<event>
 7    1  0.2710146E-013  0.7246157E+02  0.7816164E-02  0.1226708E+00
        -11   -1    0    0    0    0  0.00000000000E+00  0.00000000000E+00  0.45593999997E+02  0.45594000000E+02  0.51100000000E-03 0.  1.
         11   -1    0    0    0    0 -0.00000000000E+00 -0.00000000000E+00 -0.45593999997E+02  0.45594000000E+02  0.51100000000E-03 0. -1.
    9900012    2    1    2    0    0  0.32143954133E+01  0.28554130356E+01 -0.18226174718E+02  0.72461570380E+02  0.70000000111E+02 0.  0.
        -12    1    1    2    0    0 -0.32143954133E+01 -0.28554130356E+01  0.18226174718E+02  0.18726429620E+02  0.00000000000E+00 0.  1.
         11    1    3    3    0    0  0.96422026245E+00  0.34115284334E+00 -0.12425625163E+02  0.12467648813E+02  0.51100000000E-03 0. -1.
        -11    1    3    3    0    0 -0.20664014972E+02 -0.56656340858E+01  0.16458052822E+02  0.27017927887E+02  0.51100000000E-03 0.  1.
         12    1    3    3    0    0  0.22914190123E+02  0.81798942781E+01 -0.22258602377E+02  0.32975993679E+02  0.00000000000E+00 0. -1.
</event>
<event>
 7    1  0.2710146E-013  0.7246167E+02  0.7816164E-02  0.1226708E+00
        -11   -1    0    0    0    0  0.00000000000E+00  0.00000000000E+00  0.45593999997E+02  0.45594000000E+02  0.51100000000E-03 0.  1.
         11   -1    0    0    0    0 -0.00000000000E+00 -0.00000000000E+00 -0.45593999997E+02  0.45594000000E+02  0.51100000000E-03 0. -1.
    9900012    2    1    2    0    0 -0.11803099473E+02 -0.11235986672E+02 -0.92257784583E+01  0.72461667155E+02  0.70000126179E+02 0.  0.
        -12    1    1    2    0    0  0.11803099473E+02  0.11235986672E+02  0.92257784583E+01  0.18726332845E+02  0.00000000000E+00 0.  1.
         11    1    3    3    0    0 -0.24516178246E+01 -0.43738654845E+01 -0.46897658122E+01  0.68654958210E+01  0.51100000000E-03 0. -1.
        -11    1    3    3    0    0  0.25572558973E+02 -0.13210319877E+02 -0.81543631960E+01  0.29915914880E+02  0.51100000000E-03 0.  1.
         12    1    3    3    0    0 -0.34924040622E+02  0.63481986898E+01  0.36183505498E+01  0.35680256454E+02  0.00000000000E+00 0. -1.
</event>
<event>
 7    1  0.2710146E-013  0.7246169E+02  0.7816164E-02  0.1226708E+00
        -11   -1    0    0    0    0  0.00000000000E+00  0.00000000000E+00  0.45593999997E+02  0.45594000000E+02  0.51100000000E-03 0. -1.
         11   -1    0    0    0    0 -0.00000000000E+00 -0.00000000000E+00 -0.45593999997E+02  0.45594000000E+02  0.51100000000E-03 0.  1.
    9900012    2    1    2    0    0 -0.40738346224E+01 -0.89176820455E+01  0.15954732900E+02  0.72461690072E+02  0.70000156033E+02 0.  0.
        -12    1    1    2    0    0  0.40738346224E+01  0.89176820455E+01 -0.15954732900E+02  0.18726309928E+02  0.00000000000E+00 0.  1.
         11    1    3    3    0    0 -0.18188883890E+02 -0.12500905025E+02  0.24618274502E+02  0.33063084601E+02  0.51100000000E-03 0. -1.
        -11    1    3    3    0    0  0.19245715627E+01 -0.15303284012E+02 -0.67565475271E+01  0.16838806727E+02  0.51100000000E-03 0.  1.
         12    1    3    3    0    0  0.12190477705E+02  0.18886506991E+02 -0.19069940744E+01  0.22559798744E+02  0.00000000000E+00 0. -1.
</event>
<event>
 7    1  0.2710146E-013  0.7246156E+02  0.7816164E-02  0.1226708E+00
        -11   -1    0    0    0    0  0.00000000000E+00  0.00000000000E+00  0.45593999997E+02  0.45594000000E+02  0.51100000000E-03 0.  1.
         11   -1    0    0    0    0 -0.00000000000E+00 -0.00000000000E+00 -0.45593999997E+02  0.45594000000E+02  0.51100000000E-03 0. -1.
    9900012    2    1    2    0    0 -0.95517487431E+01 -0.12779087507E+02 -0.98050336726E+01  0.72461557014E+02  0.69999982700E+02 0.  0.
        -12    1    1    2    0    0  0.95517487431E+01  0.12779087507E+02  0.98050336726E+01  0.18726442986E+02  0.00000000000E+00 0.  1.
         11    1    3    3    0    0 -0.83900342390E+01 -0.73205616009E+01 -0.52131824817E+01  0.12294737432E+02  0.51100000000E-03 0.  1.
        -11    1    3    3    0    0 -0.26909385984E+02 -0.16477913796E+02  0.11627439540E+01  0.31575127408E+02  0.51100000000E-03 0. -1.
        -12    1    3    3    0    0  0.25747671479E+02  0.11019387890E+02 -0.57545951449E+01  0.28591692174E+02  0.00000000000E+00 0.  1.
</event>
<event>
 7    1  0.2710146E-013  0.7246180E+02  0.7816164E-02  0.1226707E+00
        -11   -1    0    0    0    0  0.00000000000E+00  0.00000000000E+00  0.45593999997E+02  0.45594000000E+02  0.51100000000E-03 0.  1.
         11   -1    0    0    0    0 -0.00000000000E+00 -0.00000000000E+00 -0.45593999997E+02  0.45594000000E+02  0.51100000000E-03 0. -1.
    9900012    2    1    2    0    0  0.16332843237E+02  0.47915649797E+01 -0.78070206670E+01  0.72461803513E+02  0.70000303811E+02 0.  0.
        -12    1    1    2    0    0 -0.16332843237E+02 -0.47915649797E+01  0.78070206670E+01  0.18726196487E+02  0.00000000000E+00 0.  1.
         11    1    3    3    0    0 -0.54168199989E+01 -0.17759196380E+00 -0.83154399538E+01  0.99257251469E+01  0.51100000000E-03 0. -1.
        -11    1    3    3    0    0  0.13175799064E+02 -0.24228018190E+02  0.11909261972E+02  0.30040457176E+02  0.51100000000E-03 0.  1.
         12    1    3    3    0    0  0.85738641717E+01  0.29197175133E+02 -0.11400842685E+02  0.32495621190E+02  0.00000000000E+00 0. -1.
</event>
<event>
 7    1  0.2710146E-013  0.7246161E+02  0.7816164E-02  0.1226708E+00
        -11   -1    0    0    0    0  0.00000000000E+00  0.00000000000E+00  0.45593999997E+02  0.45594000000E+02  0.51100000000E-03 0.  1.
         11   -1    0    0    0    0 -0.00000000000E+00 -0.00000000000E+00 -0.45593999997E+02  0.45594000000E+02  0.51100000000E-03 0. -1.
    9900012    2    1    2    0    0 -0.46576041764E+01 -0.19681808069E+01 -0.18030821978E+02  0.72461613441E+02  0.70000056207E+02 0.  0.
        -12    1    1    2    0    0  0.46576041764E+01  0.19681808069E+01  0.18030821978E+02  0.18726386559E+02  0.00000000000E+00 0.  1.
         11    1    3    3    0    0  0.42959177131E+01 -0.56986537848E+01 -0.94455708659E+00  0.71987326876E+01  0.51100000000E-03 0. -1.
        -11    1    3    3    0    0  0.12463840548E+02 -0.18461839921E+02  0.98110624161E+01  0.24340168456E+02  0.51100000000E-03 0.  1.
         12    1    3    3    0    0 -0.21417362437E+02  0.22192312899E+02 -0.26897327307E+02  0.40922712298E+02  0.00000000000E+00 0. -1.
</event>
<event>
 7    1  0.2710146E-013  0.7246155E+02  0.7816164E-02  0.1226708E+00
        -11   -1    0    0    0    0  0.00000000000E+00  0.00000000000E+00  0.45593999997E+02  0.45594000000E+02  0.51100000000E-03 0.  1.
         11   -1    0    0    0    0 -0.00000000000E+00 -0.00000000000E+00 -0.45593999997E+02  0.45594000000E+02  0.51100000000E-03 0. -1.
    9900012    2    1    2    0    0  0.12098170455E+01  0.34058709793E+01 -0.18374336193E+02  0.72461552260E+02  0.69999976507E+02 0.  0.
        -12    1    1    2    0    0 -0.12098170455E+01 -0.34058709793E+01  0.18374336193E+02  0.18726447740E+02  0.00000000000E+00 0.  1.
         11    1    3    3    0    0 -0.25098926129E+01 -0.38762863117E+01  0.82768629935E+01  0.94779543032E+01  0.51100000000E-03 0. -1.
        -11    1    3    3    0    0  0.23820114729E+02  0.74817166339E+01  0.50245420747E+01  0.25468018628E+02  0.51100000000E-03 0.  1.
         12    1    3    3    0    0 -0.20100405071E+02 -0.19955934293E+00 -0.31675741261E+02  0.37515579329E+02  0.00000000000E+00 0. -1.
</event>
<event>
 7    1  0.2710146E-013  0.7246154E+02  0.7816164E-02  0.1226708E+00
        -11   -1    0    0    0    0  0.00000000000E+00  0.00000000000E+00  0.45593999997E+02  0.45594000000E+02  0.51100000000E-03 0. -1.
         11   -1    0    0    0    0 -0.00000000000E+00 -0.00000000000E+00 -0.45593999997E+02  0.45594000000E+02  0.51100000000E-03 0.  1.
    9900012    2    1    2    0    0  0.60169585162E+00  0.15151252420E+02 -0.10988993037E+02  0.72461535951E+02  0.69999955262E+02 0.  0.
        -12    1    1    2    0    0 -0.60169585162E+00 -0.15151252420E+02  0.10988993037E+02  0.18726464049E+02  0.00000000000E+00 0.  1.
         11    1    3    3    0    0 -0.15262766294E+02 -0.50601824850E+01  0.88854258906E+01  0.18371398293E+02  0.51100000000E-03 0. -1.
        -11    1    3    3    0    0  0.25900871325E+01 -0.12113531237E+02 -0.13934495957E+02  0.18644472860E+02  0.51100000000E-03 0.  1.
         12    1    3    3    0    0  0.13274375013E+02  0.32324966143E+02 -0.59399229713E+01  0.35445664798E+02  0.00000000000E+00 0. -1.
</event>
<event>
 7    1  0.2710146E-013  0.7246153E+02  0.7816164E-02  0.1226708E+00
        -11   -1    0    0    0    0  0.00000000000E+00  0.00000000000E+00  0.45593999997E+02  0.45594000000E+02  0.51100000000E-03 0. -1.
         11   -1    0    0    0    0 -0.00000000000E+00 -0.00000000000E+00 -0.45593999997E+02  0.45594000000E+02  0.51100000000E-03 0.  1.
    9900012    2    1    2    0    0  0.15589815366E+02  0.57953878751E+01 -0.86053278458E+01  0.72461533940E+02  0.69999952641E+02 0.  0.
        -12    1    1    2    0    0 -0.15589815366E+02 -0.57953878751E+01  0.86053278458E+01  0.18726466060E+02  0.00000000000E+00 0.  1.
         11    1    3    3    0    0  0.75365370046E+01  0.11529373184E+02  0.13006927626E+02  0.18944814662E+02  0.51100000000E-03 0. -1.
        -11    1    3    3    0    0  0.11798252913E+02  0.12186181652E+02  0.79597205687E+01  0.18736567104E+02  0.51100000000E-03 0.  1.
        -12    1    3    3    0    0 -0.37449745515E+01 -0.17920166961E+02 -0.29571976041E+02  0.34780152174E+02  0.00000000000E+00 0.  1.
</event>
<event>
 7    1  0.2710146E-013  0.7246166E+02  0.7816164E-02  0.1226708E+00
        -11   -1    0    0    0    0  0.00000000000E+00  0.00000000000E+00  0.45593999997E+02  0.45594000000E+02  0.51100000000E-03 0. -1.
         11   -1    0    0    0    0 -0.00000000000E+00 -0.00000000000E+00 -0.45593999997E+02  0.45594000000E+02  0.51100000000E-03 0.  1.
    9900012    2    1    2    0    0  0.11034445972E+02  0.12455720638E+01  0.15078637720E+02  0.72461661245E+02  0.70000118480E+02 0.  0.
        -12    1    1    2    0    0 -0.11034445972E+02 -0.12455720638E+01 -0.15078637720E+02  0.18726338755E+02  0.00000000000E+00 0.  1.
         11    1    3    3    0    0  0.11728287233E+02  0.17173998723E+02  0.28420183183E+02  0.35216555282E+02  0.51100000000E-03 0. -1.
        -11    1    3    3    0    0 -0.13107043826E+02 -0.11509195883E+02  0.13685967229E+01  0.17496549517E+02  0.51100000000E-03 0.  1.
        -12    1    3    3    0    0  0.12413202565E+02 -0.44192307761E+01 -0.14710142186E+02  0.19748556446E+02  0.00000000000E+00 0.  1.
</event>
<event>
 7    1  0.2710146E-013  0.7246150E+02  0.7816164E-02  0.1226708E+00
        -11   -1    0    0    0    0  0.00000000000E+00  0.00000000000E+00  0.45593999997E+02  0.45594000000E+02  0.51100000000E-03 0.  1.
         11   -1    0    0    0    0 -0.00000000000E+00 -0.00000000000E+00 -0.45593999997E+02  0.45594000000E+02  0.51100000000E-03 0. -1.
    9900012    2    1    2    0    0 -0.11441117501E+02 -0.26659919226E+01 -0.14583380384E+02  0.72461503637E+02  0.69999913166E+02 0.  0.
        -12    1    1    2    0    0  0.11441117501E+02  0.26659919226E+01  0.14583380384E+02  0.18726496363E+02  0.00000000000E+00 0.  1.
         11    1    3    3    0    0 -0.19992717844E+02  0.57714129007E+01 -0.31574232896E+01  0.21047263379E+02  0.51100000000E-03 0. -1.
        -11    1    3    3    0    0  0.11685616132E+02 -0.27169435524E+02 -0.66115872754E+00  0.29583255098E+02  0.51100000000E-03 0.  1.
         12    1    3    3    0    0 -0.31340157890E+01  0.18732030701E+02 -0.10764798367E+02  0.21830985159E+02  0.00000000000E+00 0. -1.
</event>
<event>
 7    1  0.2710146E-013  0.7246157E+02  0.7816164E-02  0.1226708E+00
        -11   -1    0    0    0    0  0.00000000000E+00  0.00000000000E+00  0.45593999997E+02  0.45594000000E+02  0.51100000000E-03 0.  1.
         11   -1    0    0    0    0 -0.00000000000E+00 -0.00000000000E+00 -0.45593999997E+02  0.45594000000E+02  0.51100000000E-03 0. -1.
    9900012    2    1    2    0    0 -0.13215003193E+02  0.27583770919E+01 -0.12978225357E+02  0.72461567158E+02  0.69999995914E+02 0.  0.
        -12    1    1    2    0    0  0.13215003193E+02 -0.27583770919E+01  0.12978225357E+02  0.18726432842E+02  0.00000000000E+00 0.  1.
         11    1    3    3    0    0  0.38396258404E+01  0.67850720286E+01 -0.97439807133E+01  0.12478985914E+02  0.51100000000E-03 0. -1.
        -11    1    3    3    0    0  0.74619564810E+01 -0.12228671553E+02 -0.23235305875E+02  0.27296531681E+02  0.51100000000E-03 0.  1.
        -12    1    3    3    0    0 -0.24516585514E+02  0.82019766160E+01  0.20001061231E+02  0.32686049563E+02  0.00000000000E+00 0.  1.
</event>
<event>
 7    1  0.2710146E-013  0.7246155E+02  0.7816164E-02  0.1226708E+00
        -11   -1    0    0    0    0  0.00000000000E+00  0.00000000000E+00  0.45593999997E+02  0.45594000000E+02  0.51100000000E-03 0. -1.
         11   -1    0    0    0    0 -0.00000000000E+00 -0.00000000000E+00 -0.45593999997E+02  0.45594000000E+02  0.51100000000E-03 0.  1.
    9900012    2    1    2    0    0 -0.14753283147E+02 -0.41210623748E+01  0.10772071138E+02  0.72461547177E+02  0.69999969886E+02 0.  0.
        -12    1    1    2    0    0  0.14753283147E+02  0.41210623748E+01 -0.10772071138E+02  0.18726452823E+02  0.00000000000E+00 0.  1.
         11    1    3    3    0    0  0.74744029392E+01  0.61559059185E+00 -0.11726535184E+02  0.13919672365E+02  0.51100000000E-03 0. -1.
        -11    1    3    3    0    0 -0.14293975125E+02 -0.24992334316E+02  0.23440626213E+01  0.28886486966E+02  0.51100000000E-03 0.  1.
        -12    1    3    3    0    0 -0.79337109611E+01  0.20255681349E+02  0.20154543700E+02  0.29655387846E+02  0.00000000000E+00 0.  1.
</event>
<event>
 7    1  0.2710146E-013  0.7246149E+02  0.7816164E-02  0.1226708E+00
        -11   -1    0    0    0    0  0.00000000000E+00  0.00000000000E+00  0.45593999997E+02  0.45594000000E+02  0.51100000000E-03 0.  1.
         11   -1    0    0    0    0 -0.00000000000E+00 -0.00000000000E+00 -0.45593999997E+02  0.45594000000E+02  0.51100000000E-03 0. -1.
    9900012    2    1    2    0    0  0.47970065553E+01  0.56253712477E+01 -0.17205407792E+02  0.72461491226E+02  0.69999896998E+02 0.  0.
        -12    1    1    2    0    0 -0.47970065553E+01 -0.56253712477E+01  0.17205407792E+02  0.18726508774E+02  0.00000000000E+00 0.  1.
         11    1    3    3    0    0  0.27311608367E+02  0.62894467314E+01 -0.99997635199E+00  0.28044269374E+02  0.51100000000E-03 0.  1.
        -11    1    3    3    0    0 -0.13143959557E+02 -0.17616051503E+02 -0.82165992633E+01  0.23464898191E+02  0.51100000000E-03 0. -1.
         12    1    3    3    0    0 -0.93706422543E+01  0.16951976020E+02 -0.79888321772E+01  0.20952323661E+02  0.00000000000E+00 0. -1.
</event>
<event>
 7    1  0.2710146E-013  0.7246107E+02  0.7816164E-02  0.1226709E+00
        -11   -1    0    0    0    0  0.00000000000E+00  0.00000000000E+00  0.45593999997E+02  0.45594000000E+02  0.51100000000E-03 0.  1.
         11   -1    0    0    0    0 -0.00000000000E+00 -0.00000000000E+00 -0.45593999997E+02  0.45594000000E+02  0.51100000000E-03 0. -1.
    9900012    2    1    2    0    0  0.17058655191E+02  0.21226863827E+01 -0.74292830673E+01  0.72461073897E+02  0.69999353347E+02 0.  0.
        -12    1    1    2    0    0 -0.17058655191E+02 -0.21226863827E+01  0.74292830673E+01  0.18726926103E+02  0.00000000000E+00 0.  1.
         11    1    3    3    0    0 -0.14740668684E+02 -0.11823740074E+02 -0.14941959555E+00  0.18897366723E+02  0.51100000000E-03 0. -1.
        -11    1    3    3    0    0 -0.86986459969E+01 -0.89208295700E+00  0.29642345265E+01  0.92330352957E+01  0.51100000000E-03 0.  1.
         12    1    3    3    0    0  0.40497969871E+02  0.14838509414E+02 -0.10244097998E+02  0.44330671878E+02  0.00000000000E+00 0. -1.
</event>
<event>
 7    1  0.2710146E-013  0.7246154E+02  0.7816164E-02  0.1226708E+00
        -11   -1    0    0    0    0  0.00000000000E+00  0.00000000000E+00  0.45593999997E+02  0.45594000000E+02  0.51100000000E-03 0.  1.
         11   -1    0    0    0    0 -0.00000000000E+00 -0.00000000000E+00 -0.45593999997E+02  0.45594000000E+02  0.51100000000E-03 0. -1.
    9900012    2    1    2    0    0 -0.18492976600E+02 -0.26042760554E+01 -0.13812633673E+01  0.72461539422E+02  0.69999959783E+02 0.  0.
        -12    1    1    2    0    0  0.18492976600E+02  0.26042760554E+01  0.13812633673E+01  0.18726460578E+02  0.00000000000E+00 0.  1.
         11    1    3    3    0    0 -0.15089331442E+02  0.14352609127E+02 -0.19989362225E+02  0.28866241781E+02  0.51100000000E-03 0. -1.
        -11    1    3    3    0    0 -0.89331524352E+01  0.62121507380E+01  0.16389437948E+02  0.19672460592E+02  0.51100000000E-03 0.  1.
        -12    1    3    3    0    0  0.55295072780E+01 -0.23169035921E+02  0.22186609098E+01  0.23922837049E+02  0.00000000000E+00 0.  1.
</event>
<event>
 7    1  0.2710146E-013  0.7246158E+02  0.7816164E-02  0.1226708E+00
        -11   -1    0    0    0    0  0.00000000000E+00  0.00000000000E+00  0.45593999997E+02  0.45594000000E+02  0.51100000000E-03 0.  1.
         11   -1    0    0    0    0 -0.00000000000E+00 -0.00000000000E+00 -0.45593999997E+02  0.45594000000E+02  0.51100000000E-03 0. -1.
    9900012    2    1    2    0    0 -0.13110278600E+02 -0.55726381018E+01 -0.12155046998E+02  0.72461578347E+02  0.70000010490E+02 0.  0.
        -12    1    1    2    0    0  0.13110278600E+02  0.55726381018E+01  0.12155046998E+02  0.18726421653E+02  0.00000000000E+00 0.  1.
         11    1    3    3    0    0 -0.21560271677E+01 -0.90927470715E+01 -0.36392556616E+02  0.37573190972E+02  0.51100000000E-03 0. -1.
        -11    1    3    3    0    0  0.42244300420E+01 -0.12891200414E+01 -0.14652290956E+01  0.46534434803E+01  0.51100000000E-03 0.  1.
        -12    1    3    3    0    0 -0.15178681474E+02  0.48092290112E+01  0.25702738714E+02  0.30234943895E+02  0.00000000000E+00 0.  1.
</event>
<event>
 7    1  0.2710146E-013  0.7246161E+02  0.7816164E-02  0.1226708E+00
        -11   -1    0    0    0    0  0.00000000000E+00  0.00000000000E+00  0.45593999997E+02  0.45594000000E+02  0.51100000000E-03 0. -1.
         11   -1    0    0    0    0 -0.00000000000E+00 -0.00000000000E+00 -0.45593999997E+02  0.45594000000E+02  0.51100000000E-03 0.  1.
    9900012    2    1    2    0    0  0.18073435393E+02 -0.32435969785E+01 -0.36752659918E+01  0.72461613046E+02  0.70000055691E+02 0.  0.
        -12    1    1    2    0    0 -0.18073435393E+02  0.32435969785E+01  0.36752659918E+01  0.18726386954E+02  0.00000000000E+00 0.  1.
         11    1    3    3    0    0  0.51090778271E+00 -0.96803177895E+01  0.19084082128E+02  0.21404947330E+02  0.51100000000E-03 0. -1.
        -11    1    3    3    0    0  0.21398119092E+02 -0.11180143083E+02 -0.30335313472E+01  0.24332640891E+02  0.51100000000E-03 0.  1.
        -12    1    3    3    0    0 -0.38355914817E+01  0.17616863894E+02 -0.19725816773E+02  0.26724024825E+02  0.00000000000E+00 0.  1.
</event>
<event>
 7    1  0.2710146E-013  0.7246149E+02  0.7816164E-02  0.1226708E+00
        -11   -1    0    0    0    0  0.00000000000E+00  0.00000000000E+00  0.45593999997E+02  0.45594000000E+02  0.51100000000E-03 0. -1.
         11   -1    0    0    0    0 -0.00000000000E+00 -0.00000000000E+00 -0.45593999997E+02  0.45594000000E+02  0.51100000000E-03 0.  1.
    9900012    2    1    2    0    0 -0.25011516130E+01 -0.20155630958E+01  0.18448957856E+02  0.72461486711E+02  0.69999891117E+02 0.  0.
        -12    1    1    2    0    0  0.25011516130E+01  0.20155630958E+01 -0.18448957856E+02  0.18726513289E+02  0.00000000000E+00 0.  1.
         11    1    3    3    0    0 -0.27695266738E+01 -0.11240600087E+02  0.53948418145E+01  0.12772066660E+02  0.51100000000E-03 0. -1.
        -11    1    3    3    0    0 -0.73416733724E+01  0.27833258986E+02 -0.86969538196E+01  0.30070375450E+02  0.51100000000E-03 0.  1.
         12    1    3    3    0    0  0.76100484331E+01 -0.18608221995E+02  0.21751069861E+02  0.29619044601E+02  0.00000000000E+00 0. -1.
</event>
<event>
 7    1  0.2710146E-013  0.7246161E+02  0.7816164E-02  0.1226708E+00
        -11   -1    0    0    0    0  0.00000000000E+00  0.00000000000E+00  0.45593999997E+02  0.45594000000E+02  0.51100000000E-03 0.  1.
         11   -1    0    0    0    0 -0.00000000000E+00 -0.00000000000E+00 -0.45593999997E+02  0.45594000000E+02  0.51100000000E-03 0. -1.
    9900012    2    1    2    0    0  0.26533401542E+01 -0.11518982676E+02 -0.14524137986E+02  0.72461607926E+02  0.70000049023E+02 0.  0.
        -12    1    1    2    0    0 -0.26533401542E+01  0.11518982676E+02  0.14524137986E+02  0.18726392074E+02  0.00000000000E+00 0.  1.
         11    1    3    3    0    0 -0.35496558279E+01  0.11684357279E+02  0.16483674943E+02  0.20514282864E+02  0.51100000000E-03 0. -1.
        -11    1    3    3    0    0 -0.12214162144E+02 -0.41543865831E+01 -0.27134372148E+01  0.13183604459E+02  0.51100000000E-03 0.  1.
         12    1    3    3    0    0  0.18417158126E+02 -0.19048953372E+02 -0.28294375714E+02  0.38763720604E+02  0.00000000000E+00 0. -1.
</event>
<event>
 7    1  0.2710146E-013  0.7246161E+02  0.7816164E-02  0.1226708E+00
        -11   -1    0    0    0    0  0.00000000000E+00  0.00000000000E+00  0.45593999997E+02  0.45594000000E+02  0.51100000000E-03 0.  1.
         11   -1    0    0    0    0 -0.00000000000E+00 -0.00000000000E+00 -0.45593999997E+02  0.45594000000E+02  0.51100000000E-03 0. -1.
    9900012    2    1    2    0    0  0.38081186503E+01  0.14971277690E+02 -0.10584744515E+02  0.72461608469E+02  0.70000049729E+02 0.  0.
        -12    1    1    2    0    0 -0.38081186503E+01 -0.14971277690E+02  0.10584744515E+02  0.18726391531E+02  0.00000000000E+00 0.  1.
         11    1    3    3    0    0 -0.16798927500E+02  0.17176547895E+02 -0.28585501828E+01  0.24195228293E+02  0.51100000000E-03 0. -1.
        -11    1    3    3    0    0  0.12841174193E+02  0.34047813865E+01 -0.25115537717E+02  0.28412647290E+02  0.51100000000E-03 0.  1.
         12    1    3    3    0    0  0.77658719569E+01 -0.56100515914E+01  0.17389343386E+02  0.19853732886E+02  0.00000000000E+00 0. -1.
</event>
<event>
 7    1  0.2710146E-013  0.7246162E+02  0.7816164E-02  0.1226708E+00
        -11   -1    0    0    0    0  0.00000000000E+00  0.00000000000E+00  0.45593999997E+02  0.45594000000E+02  0.51100000000E-03 0.  1.
         11   -1    0    0    0    0 -0.00000000000E+00 -0.00000000000E+00 -0.45593999997E+02  0.45594000000E+02  0.51100000000E-03 0. -1.
    9900012    2    1    2    0    0 -0.84187533656E+01  0.14622770726E+02  0.81225919122E+01  0.72461619375E+02  0.70000063937E+02 0.  0.
        -12    1    1    2    0    0  0.84187533656E+01 -0.14622770726E+02 -0.81225919122E+01  0.18726380625E+02  0.00000000000E+00 0.  1.
         11    1    3    3    0    0  0.52827971064E+01  0.67689458823E+01  0.10767452796E+02  0.13771877635E+02  0.51100000000E-03 0. -1.
        -11    1    3    3    0    0  0.43830458105E+01 -0.22593811531E+02 -0.34205058948E+01  0.23267816204E+02  0.51100000000E-03 0.  1.
         12    1    3    3    0    0 -0.18084596282E+02  0.30447636375E+02  0.77564501149E+00  0.35421925536E+02  0.00000000000E+00 0. -1.
</event>
<event>
 7    1  0.2710146E-013  0.7246160E+02  0.7816164E-02  0.1226708E+00
        -11   -1    0    0    0    0  0.00000000000E+00  0.00000000000E+00  0.45593999997E+02  0.45594000000E+02  0.51100000000E-03 0.  1.
         11   -1    0    0    0    0 -0.00000000000E+00 -0.00000000000E+00 -0.45593999997E+02  0.45594000000E+02  0.51100000000E-03 0. -1.
    9900012    2    1    2    0    0 -0.12637819063E+02  0.62954861826E+01 -0.12301649857E+02  0.72461596016E+02  0.70000033508E+02 0.  0.
        -12    1    1    2    0    0  0.12637819063E+02 -0.62954861826E+01  0.12301649857E+02  0.18726403984E+02  0.00000000000E+00 0.  1.
         11    1    3    3    0    0  0.11451561236E+02  0.10126377733E+02  0.16392764933E+02  0.22414382061E+02  0.51100000000E-03 0. -1.
        -11    1    3    3    0    0  0.82770393187E+01  0.68742027056E+00 -0.52179057736E+01  0.98085915113E+01  0.51100000000E-03 0.  1.
        -12    1    3    3    0    0 -0.32366419618E+02 -0.45183118210E+01 -0.23476509017E+02  0.40238622444E+02  0.00000000000E+00 0.  1.
</event>
<event>
 7    1  0.2710146E-013  0.7246150E+02  0.7816164E-02  0.1226708E+00
        -11   -1    0    0    0    0  0.00000000000E+00  0.00000000000E+00  0.45593999997E+02  0.45594000000E+02  0.51100000000E-03 0. -1.
         11   -1    0    0    0    0 -0.00000000000E+00 -0.00000000000E+00 -0.45593999997E+02  0.45594000000E+02  0.51100000000E-03 0.  1.
    9900012    2    1    2    0    0 -0.16773649016E+02 -0.70789163182E+01  0.43835430673E+01  0.72461499863E+02  0.69999908250E+02 0.  0.
        -12    1    1    2    0    0  0.16773649016E+02  0.70789163182E+01 -0.43835430673E+01  0.18726500137E+02  0.00000000000E+00 0.  1.
         11    1    3    3    0    0 -0.13873438481E+02 -0.28176065893E+02  0.10817193994E+02  0.33217084018E+02  0.51100000000E-03 0. -1.
        -11    1    3    3    0    0  0.11930966603E+02  0.27082715914E+01  0.47275776624E+01  0.13116123280E+02  0.51100000000E-03 0.  1.
        -12    1    3    3    0    0 -0.14831177137E+02  0.18388877983E+02 -0.11161228589E+02  0.26128292565E+02  0.00000000000E+00 0.  1.
</event>
<event>
 7    1  0.2710146E-013  0.7246150E+02  0.7816164E-02  0.1226708E+00
        -11   -1    0    0    0    0  0.00000000000E+00  0.00000000000E+00  0.45593999997E+02  0.45594000000E+02  0.51100000000E-03 0. -1.
         11   -1    0    0    0    0 -0.00000000000E+00 -0.00000000000E+00 -0.45593999997E+02  0.45594000000E+02  0.51100000000E-03 0.  1.
    9900012    2    1    2    0    0 -0.10465667076E+02  0.79213205949E+01 -0.13356802397E+02  0.72461503328E+02  0.69999912764E+02 0.  0.
        -12    1    1    2    0    0  0.10465667076E+02 -0.79213205949E+01  0.13356802397E+02  0.18726496672E+02  0.00000000000E+00 0.  1.
         11    1    3    3    0    0 -0.11926633598E+02  0.15472919973E+02 -0.65628795942E+01  0.20608911429E+02  0.51100000000E-03 0. -1.
        -11    1    3    3    0    0  0.33871370735E+00  0.21908146812E+02 -0.23047687133E+01  0.22031649570E+02  0.51100000000E-03 0.  1.
         12    1    3    3    0    0  0.11222528142E+01 -0.29459746190E+02 -0.44891540895E+01  0.29820942329E+02  0.00000000000E+00 0. -1.
</event>
<event>
 7    1  0.2710146E-013  0.7246156E+02  0.7816164E-02  0.1226708E+00
        -11   -1    0    0    0    0  0.00000000000E+00  0.00000000000E+00  0.45593999997E+02  0.45594000000E+02  0.51100000000E-03 0. -1.
         11   -1    0    0    0    0 -0.00000000000E+00 -0.00000000000E+00 -0.45593999997E+02  0.45594000000E+02  0.51100000000E-03 0.  1.
    9900012    2    1    2    0    0 -0.15282372283E+02  0.69911038120E+01  0.82615519626E+01  0.72461556773E+02  0.69999982386E+02 0.  0.
        -12    1    1    2    0    0  0.15282372283E+02 -0.69911038120E+01 -0.82615519626E+01  0.18726443227E+02  0.00000000000E+00 0.  1.
         11    1    3    3    0    0  0.82321224324E+01 -0.12472504836E+02  0.12443116552E+02  0.19446397261E+02  0.51100000000E-03 0. -1.
        -11    1    3    3    0    0  0.10758801653E+02  0.43798053119E+01  0.74555467581E+01  0.13802886847E+02  0.51100000000E-03 0.  1.
        -12    1    3    3    0    0 -0.34273296369E+02  0.15083803336E+02 -0.11637111347E+02  0.39212272665E+02  0.00000000000E+00 0.  1.
</event>
<event>
 7    1  0.2710146E-013  0.7246179E+02  0.7816164E-02  0.1226707E+00
        -11   -1    0    0    0    0  0.00000000000E+00  0.00000000000E+00  0.45593999997E+02  0.45594000000E+02  0.51100000000E-03 0.  1.
         11   -1    0    0    0    0 -0.00000000000E+00 -0.00000000000E+00 -0.45593999997E+02  0.45594000000E+02  0.51100000000E-03 0. -1.
    9900012    2    1    2    0    0 -0.34477106616E-01 -0.35077031459E+01 -0.18394724696E+02  0.72461786644E+02  0.70000281834E+02 0.  0.
        -12    1    1    2    0    0  0.34477106616E-01  0.35077031459E+01  0.18394724696E+02  0.18726213356E+02  0.00000000000E+00 0.  1.
         11    1    3    3    0    0  0.16336039536E+02 -0.16480940361E+02 -0.28370458122E+01  0.23378118233E+02  0.51100000000E-03 0. -1.
        -11    1    3    3    0    0  0.61930917848E+01  0.11324466139E+02  0.89679219172E+01  0.15716919004E+02  0.51100000000E-03 0.  1.
         12    1    3    3    0    0 -0.22563608427E+02  0.16487710763E+01 -0.24525600801E+02  0.33366749407E+02  0.00000000000E+00 0. -1.
</event>
<event>
 7    1  0.2710146E-013  0.7246152E+02  0.7816164E-02  0.1226708E+00
        -11   -1    0    0    0    0  0.00000000000E+00  0.00000000000E+00  0.45593999997E+02  0.45594000000E+02  0.51100000000E-03 0.  1.
         11   -1    0    0    0    0 -0.00000000000E+00 -0.00000000000E+00 -0.45593999997E+02  0.45594000000E+02  0.51100000000E-03 0. -1.
    9900012    2    1    2    0    0  0.29427096975E+01  0.55823116744E+01  0.17631203417E+02  0.72461519340E+02  0.69999933622E+02 0.  0.
        -12    1    1    2    0    0 -0.29427096975E+01 -0.55823116744E+01 -0.17631203417E+02  0.18726480660E+02  0.00000000000E+00 0.  1.
         11    1    3    3    0    0 -0.14452793665E+02 -0.15226266280E+02  0.30758339708E+02  0.37239735383E+02  0.51100000000E-03 0. -1.
        -11    1    3    3    0    0  0.81359766772E+00  0.42856309679E+01  0.42329405461E+01  0.60783517409E+01  0.51100000000E-03 0.  1.
         12    1    3    3    0    0  0.16581905694E+02  0.16522946986E+02 -0.17360076837E+02  0.29143432217E+02  0.00000000000E+00 0. -1.
</event>
<event>
 7    1  0.2710146E-013  0.7246162E+02  0.7816164E-02  0.1226708E+00
        -11   -1    0    0    0    0  0.00000000000E+00  0.00000000000E+00  0.45593999997E+02  0.45594000000E+02  0.51100000000E-03 0.  1.
         11   -1    0    0    0    0 -0.00000000000E+00 -0.00000000000E+00 -0.45593999997E+02  0.45594000000E+02  0.51100000000E-03 0. -1.
    9900012    2    1    2    0    0  0.39916544593E+01 -0.12932212809E+02 -0.12942254736E+02  0.72461617778E+02  0.70000061856E+02 0.  0.
        -12    1    1    2    0    0 -0.39916544593E+01  0.12932212809E+02  0.12942254736E+02  0.18726382222E+02  0.00000000000E+00 0.  1.
         11    1    3    3    0    0 -0.15963054914E+02 -0.31836715114E+02  0.57484463947E-01  0.35614587687E+02  0.51100000000E-03 0. -1.
        -11    1    3    3    0    0  0.47599813559E+00 -0.35746184946E+01  0.13135078297E+01  0.38379388592E+01  0.51100000000E-03 0.  1.
        -12    1    3    3    0    0  0.19478711237E+02  0.22479120799E+02 -0.14313247030E+02  0.33009091231E+02  0.00000000000E+00 0.  1.
</event>
<event>
 7    1  0.2710146E-013  0.7246156E+02  0.7816164E-02  0.1226708E+00
        -11   -1    0    0    0    0  0.00000000000E+00  0.00000000000E+00  0.45593999997E+02  0.45594000000E+02  0.51100000000E-03 0. -1.
         11   -1    0    0    0    0 -0.00000000000E+00 -0.00000000000E+00 -0.45593999997E+02  0.45594000000E+02  0.51100000000E-03 0.  1.
    9900012    2    1    2    0    0 -0.18394625903E+02  0.34797090614E+01 -0.45706055645E+00  0.72461560360E+02  0.69999987058E+02 0.  0.
        -12    1    1    2    0    0  0.18394625903E+02 -0.34797090614E+01  0.45706055645E+00  0.18726439640E+02  0.00000000000E+00 0.  1.
         11    1    3    3    0    0  0.17135380765E+02  0.11367524522E+02  0.12806460024E+02  0.24224931503E+02  0.51100000000E-03 0. -1.
        -11    1    3    3    0    0  0.40365303595E+01 -0.43576814324E+01 -0.47626165736E+01  0.76135065310E+01  0.51100000000E-03 0.  1.
         12    1    3    3    0    0 -0.39566537027E+02 -0.35301340282E+01 -0.85009040065E+01  0.40623122326E+02  0.00000000000E+00 0. -1.
</event>
<event>
 7    1  0.2710146E-013  0.7246161E+02  0.7816164E-02  0.1226708E+00
        -11   -1    0    0    0    0  0.00000000000E+00  0.00000000000E+00  0.45593999997E+02  0.45594000000E+02  0.51100000000E-03 0.  1.
         11   -1    0    0    0    0 -0.00000000000E+00 -0.00000000000E+00 -0.45593999997E+02  0.45594000000E+02  0.51100000000E-03 0. -1.
    9900012    2    1    2    0    0 -0.25459796227E+01  0.17113583210E+02 -0.71638567887E+01  0.72461612559E+02  0.70000055057E+02 0.  0.
        -12    1    1    2    0    0  0.25459796227E+01 -0.17113583210E+02  0.71638567887E+01  0.18726387441E+02  0.00000000000E+00 0.  1.
         11    1    3    3    0    0 -0.19105106779E+01 -0.83966086036E+00 -0.14184730362E+02  0.14337421565E+02  0.51100000000E-03 0. -1.
        -11    1    3    3    0    0 -0.62966490045E+01  0.11005236240E+02 -0.23289130299E+02  0.26516911655E+02  0.51100000000E-03 0.  1.
        -12    1    3    3    0    0  0.56611800597E+01  0.69480078302E+01  0.30310003872E+02  0.31607279339E+02  0.00000000000E+00 0.  1.
</event>
<event>
 7    1  0.2710146E-013  0.7246173E+02  0.7816164E-02  0.1226708E+00
        -11   -1    0    0    0    0  0.00000000000E+00  0.00000000000E+00  0.45593999997E+02  0.45594000000E+02  0.51100000000E-03 0. -1.
         11   -1    0    0    0    0 -0.00000000000E+00 -0.00000000000E+00 -0.45593999997E+02  0.45594000000E+02  0.51100000000E-03 0.  1.
    9900012    2    1    2    0    0  0.56920348592E+01 -0.17300417033E+02  0.43554032355E+01  0.72461728943E+02  0.70000206669E+02 0.  0.
        -12    1    1    2    0    0 -0.56920348592E+01  0.17300417033E+02 -0.43554032355E+01  0.18726271057E+02  0.00000000000E+00 0.  1.
         11    1    3    3    0    0 -0.90873237220E+01  0.82294316848E+01  0.20198946938E+02  0.23628382424E+02  0.51100000000E-03 0. -1.
        -11    1    3    3    0    0  0.27934670572E+01  0.71817821122E+01 -0.11332298950E+02  0.13704103482E+02  0.51100000000E-03 0.  1.
         12    1    3    3    0    0  0.11985891524E+02 -0.32711630830E+02 -0.45112447531E+01  0.35129243037E+02  0.00000000000E+00 0. -1.
</event>
<event>
 7    1  0.2710146E-013  0.7246157E+02  0.7816164E-02  0.1226708E+00
        -11   -1    0    0    0    0  0.00000000000E+00  0.00000000000E+00  0.45593999997E+02  0.45594000000E+02  0.51100000000E-03 0. -1.
         11   -1    0    0    0    0 -0.00000000000E+00 -0.00000000000E+00 -0.45593999997E+02  0.45594000000E+02  0.51100000000E-03 0.  1.
    9900012    2    1    2    0    0  0.18199488117E+02 -0.32495589887E+00 -0.43991269306E+01  0.72461567296E+02  0.69999996095E+02 0.  0.
        -12    1    1    2    0    0 -0.18199488117E+02  0.32495589887E+00  0.43991269306E+01  0.18726432704E+02  0.00000000000E+00 0.  1.
         11    1    3    3    0    0  0.33290508560E+01 -0.25000677414E+01 -0.76945735951E+01  0.87486788365E+01  0.51100000000E-03 0. -1.
        -11    1    3    3    0    0  0.16971518145E+02  0.91302102688E+01 -0.26656013642E+02  0.32892799079E+02  0.51100000000E-03 0.  1.
         12    1    3    3    0    0 -0.21010808844E+01 -0.69550984263E+01  0.29951460306E+02  0.30820089381E+02  0.00000000000E+00 0. -1.
</event>
<event>
 7    1  0.2710146E-013  0.7246155E+02  0.7816164E-02  0.1226708E+00
        -11   -1    0    0    0    0  0.00000000000E+00  0.00000000000E+00  0.45593999997E+02  0.45594000000E+02  0.51100000000E-03 0.  1.
         11   -1    0    0    0    0 -0.00000000000E+00 -0.00000000000E+00 -0.45593999997E+02  0.45594000000E+02  0.51100000000E-03 0. -1.
    9900012    2    1    2    0    0 -0.15732914808E+02 -0.44628095296E+01  0.91235256432E+01  0.72461548190E+02  0.69999971204E+02 0.  0.
        -12    1    1    2    0    0  0.15732914808E+02  0.44628095296E+01 -0.91235256432E+01  0.18726451810E+02  0.00000000000E+00 0.  1.
         11    1    3    3    0    0  0.59471984596E+01 -0.17741403756E+02  0.58687031542E+00  0.18720870540E+02  0.51100000000E-03 0. -1.
        -11    1    3    3    0    0 -0.94266846155E+01 -0.11401460972E+02  0.19162241722E+02  0.24208411828E+02  0.51100000000E-03 0.  1.
        -12    1    3    3    0    0 -0.12253428652E+02  0.24680055198E+02 -0.10625586395E+02  0.29532265822E+02  0.00000000000E+00 0.  1.
</event>
<event>
 7    1  0.2710146E-013  0.7246157E+02  0.7816164E-02  0.1226708E+00
        -11   -1    0    0    0    0  0.00000000000E+00  0.00000000000E+00  0.45593999997E+02  0.45594000000E+02  0.51100000000E-03 0. -1.
         11   -1    0    0    0    0 -0.00000000000E+00 -0.00000000000E+00 -0.45593999997E+02  0.45594000000E+02  0.51100000000E-03 0.  1.
    9900012    2    1    2    0    0 -0.32344906778E+01 -0.12245588350E+02  0.13793577708E+02  0.72461570817E+02  0.70000000680E+02 0.  0.
        -12    1    1    2    0    0  0.32344906778E+01  0.12245588350E+02 -0.13793577708E+02  0.18726429183E+02  0.00000000000E+00 0.  1.
         11    1    3    3    0    0  0.14634539503E+02  0.63654547892E+01 -0.10171833161E+02  0.18924982200E+02  0.51100000000E-03 0. -1.
        -11    1    3    3    0    0 -0.14110705986E+02  0.97790368132E+01  0.16812743755E+01  0.17250167194E+02  0.51100000000E-03 0.  1.
        -12    1    3    3    0    0 -0.37583241946E+01 -0.28390079952E+02  0.22284136493E+02  0.36286421423E+02  0.00000000000E+00 0.  1.
</event>
<event>
 7    1  0.2710146E-013  0.7246156E+02  0.7816164E-02  0.1226708E+00
        -11   -1    0    0    0    0  0.00000000000E+00  0.00000000000E+00  0.45593999997E+02  0.45594000000E+02  0.51100000000E-03 0. -1.
         11   -1    0    0    0    0 -0.00000000000E+00 -0.00000000000E+00 -0.45593999997E+02  0.45594000000E+02  0.51100000000E-03 0.  1.
    9900012    2    1    2    0    0  0.53405238536E+01 -0.17344600969E+02 -0.46176870727E+01  0.72461563828E+02  0.69999991576E+02 0.  0.
        -12    1    1    2    0    0 -0.53405238536E+01  0.17344600969E+02  0.46176870727E+01  0.18726436172E+02  0.00000000000E+00 0.  1.
         11    1    3    3    0    0 -0.14921918567E+02 -0.67301539784E+01  0.85598157819E+01  0.18472386764E+02  0.51100000000E-03 0. -1.
        -11    1    3    3    0    0  0.24376693939E+01 -0.23638646401E+02  0.62608015157E+01  0.24574895150E+02  0.51100000000E-03 0.  1.
        -12    1    3    3    0    0  0.17824773027E+02  0.13024199410E+02 -0.19438304370E+02  0.29414281914E+02  0.00000000000E+00 0.  1.
</event>
<event>
 7    1  0.2710146E-013  0.7246160E+02  0.7816164E-02  0.1226708E+00
        -11   -1    0    0    0    0  0.00000000000E+00  0.00000000000E+00  0.45593999997E+02  0.45594000000E+02  0.51100000000E-03 0.  1.
         11   -1    0    0    0    0 -0.00000000000E+00 -0.00000000000E+00 -0.45593999997E+02  0.45594000000E+02  0.51100000000E-03 0. -1.
    9900012    2    1    2    0    0 -0.14869886972E+02  0.61391527473E+01  0.95851696109E+01  0.72461595874E+02  0.70000033323E+02 0.  0.
        -12    1    1    2    0    0  0.14869886972E+02 -0.61391527473E+01 -0.95851696109E+01  0.18726404126E+02  0.00000000000E+00 0.  1.
         11    1    3    3    0    0  0.65799230413E+01  0.79761530723E+01  0.77565837796E+00  0.10368994707E+02  0.51100000000E-03 0. -1.
        -11    1    3    3    0    0  0.83567925017E+01 -0.14001863762E+02  0.21930257196E+02  0.27328087212E+02  0.51100000000E-03 0.  1.
         12    1    3    3    0    0 -0.29806602515E+02  0.12164863437E+02 -0.13120745963E+02  0.34764513955E+02  0.00000000000E+00 0. -1.
</event>
<event>
 7    1  0.2710146E-013  0.7246156E+02  0.7816164E-02  0.1226708E+00
        -11   -1    0    0    0    0  0.00000000000E+00  0.00000000000E+00  0.45593999997E+02  0.45594000000E+02  0.51100000000E-03 0. -1.
         11   -1    0    0    0    0 -0.00000000000E+00 -0.00000000000E+00 -0.45593999997E+02  0.45594000000E+02  0.51100000000E-03 0.  1.
    9900012    2    1    2    0    0 -0.36505275013E+01  0.62646789768E+01  0.17265773499E+02  0.72461561784E+02  0.69999988914E+02 0.  0.
        -12    1    1    2    0    0  0.36505275013E+01 -0.62646789768E+01 -0.17265773499E+02  0.18726438216E+02  0.00000000000E+00 0.  1.
         11    1    3    3    0    0  0.73027910872E+01 -0.55964734167E+01  0.16785065624E+02  0.19141308749E+02  0.51100000000E-03 0. -1.
        -11    1    3    3    0    0 -0.17185729761E+02 -0.85192849349E+01  0.17562723335E+02  0.26007244653E+02  0.51100000000E-03 0.  1.
         12    1    3    3    0    0  0.62324111722E+01  0.20380437328E+02 -0.17082015460E+02  0.27313008382E+02  0.00000000000E+00 0. -1.
</event>
<event>
 7    1  0.2710146E-013  0.7246152E+02  0.7816164E-02  0.1226708E+00
        -11   -1    0    0    0    0  0.00000000000E+00  0.00000000000E+00  0.45593999997E+02  0.45594000000E+02  0.51100000000E-03 0. -1.
         11   -1    0    0    0    0 -0.00000000000E+00 -0.00000000000E+00 -0.45593999997E+02  0.45594000000E+02  0.51100000000E-03 0.  1.
    9900012    2    1    2    0    0  0.27879137873E+01  0.18229859626E+02  0.32528361544E+01  0.72461516392E+02  0.69999929783E+02 0.  0.
        -12    1    1    2    0    0 -0.27879137873E+01 -0.18229859626E+02 -0.32528361544E+01  0.18726483608E+02  0.00000000000E+00 0.  1.
         11    1    3    3    0    0 -0.18963168687E+02  0.32649533714E+02  0.44323146101E+00  0.37759638145E+02  0.51100000000E-03 0. -1.
        -11    1    3    3    0    0 -0.20073326438E+01  0.35070124961E+01 -0.20723574436E+01  0.45412758808E+01  0.51100000000E-03 0.  1.
        -12    1    3    3    0    0  0.23758415118E+02 -0.17926686585E+02  0.48819621371E+01  0.30160602367E+02  0.00000000000E+00 0.  1.
</event>
<event>
 7    1  0.2710146E-013  0.7246157E+02  0.7816164E-02  0.1226708E+00
        -11   -1    0    0    0    0  0.00000000000E+00  0.00000000000E+00  0.45593999997E+02  0.45594000000E+02  0.51100000000E-03 0.  1.
         11   -1    0    0    0    0 -0.00000000000E+00 -0.00000000000E+00 -0.45593999997E+02  0.45594000000E+02  0.51100000000E-03 0. -1.
    9900012    2    1    2    0    0 -0.13904755202E+02 -0.72760706577E+01 -0.10217423367E+02  0.72461570503E+02  0.70000000271E+02 0.  0.
        -12    1    1    2    0    0  0.13904755202E+02  0.72760706577E+01  0.10217423367E+02  0.18726429497E+02  0.00000000000E+00 0.  1.
         11    1    3    3    0    0 -0.14887046669E+02 -0.10296626046E+02 -0.49074090598E+01  0.18754394962E+02  0.51100000000E-03 0. -1.
        -11    1    3    3    0    0 -0.14960444368E+02 -0.19737133368E+02  0.23686976528E+01  0.24879309840E+02  0.51100000000E-03 0.  1.
         12    1    3    3    0    0  0.15942735835E+02  0.22757688757E+02 -0.76787119605E+01  0.28827865700E+02  0.00000000000E+00 0. -1.
</event>
<event>
 7    1  0.2710146E-013  0.7246159E+02  0.7816164E-02  0.1226708E+00
        -11   -1    0    0    0    0  0.00000000000E+00  0.00000000000E+00  0.45593999997E+02  0.45594000000E+02  0.51100000000E-03 0. -1.
         11   -1    0    0    0    0 -0.00000000000E+00 -0.00000000000E+00 -0.45593999997E+02  0.45594000000E+02  0.51100000000E-03 0.  1.
    9900012    2    1    2    0    0 -0.75075686301E+01  0.17136932305E+02  0.80032413845E+00  0.72461586721E+02  0.70000021398E+02 0.  0.
        -12    1    1    2    0    0  0.75075686301E+01 -0.17136932305E+02 -0.80032413845E+00  0.18726413279E+02  0.00000000000E+00 0.  1.
         11    1    3    3    0    0 -0.15539414577E+02  0.10048033523E+02  0.20624517773E+01  0.18619615750E+02  0.51100000000E-03 0. -1.
        -11    1    3    3    0    0 -0.18147478353E+02 -0.11169646425E+02  0.34222186355E+01  0.21582482538E+02  0.51100000000E-03 0.  1.
         12    1    3    3    0    0  0.26179324301E+02  0.18258545207E+02 -0.46843462744E+01  0.32259488433E+02  0.00000000000E+00 0. -1.
</event>
<event>
 7    1  0.2737055E-013  0.7246159E+02  0.7816164E-02  0.1226708E+00
        -11   -1    0    0    0    0  0.00000000000E+00  0.00000000000E+00  0.45593999997E+02  0.45594000000E+02  0.51100000000E-03 0. -1.
         11   -1    0    0    0    0 -0.00000000000E+00 -0.00000000000E+00 -0.45593999997E+02  0.45594000000E+02  0.51100000000E-03 0.  1.
    9900012    2    1    2    0    0 -0.13330490348E+02 -0.23850467983E+01  0.12933992698E+02  0.72461585814E+02  0.70000020217E+02 0.  0.
        -12    1    1    2    0    0  0.13330490348E+02  0.23850467983E+01 -0.12933992698E+02  0.18726414186E+02  0.00000000000E+00 0.  1.
         11    1    3    3    0    0  0.72486375117E+01  0.65641322588E+01  0.24165370121E+01  0.10073243245E+02  0.51100000000E-03 0. -1.
        -11    1    3    3    0    0 -0.64429449090E+01 -0.24222890107E+02 -0.15193219081E+02  0.29310302805E+02  0.51100000000E-03 0.  1.
         12    1    3    3    0    0 -0.14136182951E+02  0.15273711050E+02  0.25710674767E+02  0.33078039764E+02  0.00000000000E+00 0. -1.
</event>
<event>
 7    1  0.2710146E-013  0.7246154E+02  0.7816164E-02  0.1226708E+00
        -11   -1    0    0    0    0  0.00000000000E+00  0.00000000000E+00  0.45593999997E+02  0.45594000000E+02  0.51100000000E-03 0.  1.
         11   -1    0    0    0    0 -0.00000000000E+00 -0.00000000000E+00 -0.45593999997E+02  0.45594000000E+02  0.51100000000E-03 0. -1.
    9900012    2    1    2    0    0 -0.56956055653E+01 -0.17475117561E+02 -0.35861833332E+01  0.72461538310E+02  0.69999958334E+02 0.  0.
        -12    1    1    2    0    0  0.56956055653E+01  0.17475117561E+02  0.35861833332E+01  0.18726461690E+02  0.00000000000E+00 0.  1.
         11    1    3    3    0    0 -0.46611379493E+01 -0.71757055761E+01  0.81095049915E+01  0.11789021544E+02  0.51100000000E-03 0. -1.
        -11    1    3    3    0    0 -0.67979893423E+00  0.43498458940E+01  0.22785431054E+02  0.23206877309E+02  0.51100000000E-03 0.  1.
         12    1    3    3    0    0 -0.35466868183E+00 -0.14649257879E+02 -0.34481119378E+02  0.37465639456E+02  0.00000000000E+00 0. -1.
</event>
<event>
 7    1  0.2710146E-013  0.7246169E+02  0.7816164E-02  0.1226708E+00
        -11   -1    0    0    0    0  0.00000000000E+00  0.00000000000E+00  0.45593999997E+02  0.45594000000E+02  0.51100000000E-03 0.  1.
         11   -1    0    0    0    0 -0.00000000000E+00 -0.00000000000E+00 -0.45593999997E+02  0.45594000000E+02  0.51100000000E-03 0. -1.
    9900012    2    1    2    0    0 -0.17372389406E+02 -0.41511451653E+01 -0.56251970798E+01  0.72461687976E+02  0.70000153301E+02 0.  0.
        -12    1    1    2    0    0  0.17372389406E+02  0.41511451653E+01  0.56251970798E+01  0.18726312024E+02  0.00000000000E+00 0.  1.
         11    1    3    3    0    0  0.11531952977E+02  0.12493611844E+02 -0.13281561864E+02  0.21574896574E+02  0.51100000000E-03 0. -1.
        -11    1    3    3    0    0 -0.23645805550E+01 -0.92169182381E+01 -0.13237317279E+02  0.16302435156E+02  0.51100000000E-03 0.  1.
        -12    1    3    3    0    0 -0.26539761828E+02 -0.74278387715E+01  0.20893682064E+02  0.34584356245E+02  0.00000000000E+00 0.  1.
</event>
<event>
 7    1  0.2710146E-013  0.7246159E+02  0.7816164E-02  0.1226708E+00
        -11   -1    0    0    0    0  0.00000000000E+00  0.00000000000E+00  0.45593999997E+02  0.45594000000E+02  0.51100000000E-03 0.  1.
         11   -1    0    0    0    0 -0.00000000000E+00 -0.00000000000E+00 -0.45593999997E+02  0.45594000000E+02  0.51100000000E-03 0. -1.
    9900012    2    1    2    0    0 -0.13458592838E+02 -0.13009836508E+02 -0.53754477254E+00  0.72461587596E+02  0.70000022539E+02 0.  0.
        -12    1    1    2    0    0  0.13458592838E+02  0.13009836508E+02  0.53754477254E+00  0.18726412404E+02  0.00000000000E+00 0.  1.
         11    1    3    3    0    0 -0.10573398179E+02 -0.45880917491E+01 -0.10652429619E+02  0.15694635771E+02  0.51100000000E-03 0. -1.
        -11    1    3    3    0    0 -0.26256129350E+02 -0.16469255188E+02  0.35794900134E+01  0.31199894934E+02  0.51100000000E-03 0.  1.
         12    1    3    3    0    0  0.23370934691E+02  0.80475104288E+01  0.65353948333E+01  0.25567056891E+02  0.00000000000E+00 0. -1.
</event>
<event>
 7    1  0.2710146E-013  0.7246154E+02  0.7816164E-02  0.1226708E+00
        -11   -1    0    0    0    0  0.00000000000E+00  0.00000000000E+00  0.45593999997E+02  0.45594000000E+02  0.51100000000E-03 0. -1.
         11   -1    0    0    0    0 -0.00000000000E+00 -0.00000000000E+00 -0.45593999997E+02  0.45594000000E+02  0.51100000000E-03 0.  1.
    9900012    2    1    2    0    0  0.16831284517E+02  0.71464742136E+01  0.40393162407E+01  0.72461539900E+02  0.69999960405E+02 0.  0.
        -12    1    1    2    0    0 -0.16831284517E+02 -0.71464742136E+01 -0.40393162407E+01  0.18726460100E+02  0.00000000000E+00 0.  1.
         11    1    3    3    0    0  0.29112642798E+02 -0.15394651486E+02 -0.38422264370E+01  0.33155753186E+02  0.51100000000E-03 0. -1.
        -11    1    3    3    0    0  0.78782066812E+01  0.29029105738E+01 -0.33013127475E+01  0.90217346686E+01  0.51100000000E-03 0.  1.
        -12    1    3    3    0    0 -0.20159564962E+02  0.19638215126E+02  0.11182855425E+02  0.30284052045E+02  0.00000000000E+00 0.  1.
</event>
<event>
 7    1  0.2710146E-013  0.7246152E+02  0.7816164E-02  0.1226708E+00
        -11   -1    0    0    0    0  0.00000000000E+00  0.00000000000E+00  0.45593999997E+02  0.45594000000E+02  0.51100000000E-03 0.  1.
         11   -1    0    0    0    0 -0.00000000000E+00 -0.00000000000E+00 -0.45593999997E+02  0.45594000000E+02  0.51100000000E-03 0. -1.
    9900012    2    1    2    0    0  0.76728729707E+01  0.14232993963E+02 -0.94461653488E+01  0.72461517774E+02  0.69999931582E+02 0.  0.
        -12    1    1    2    0    0 -0.76728729707E+01 -0.14232993963E+02  0.94461653488E+01  0.18726482226E+02  0.00000000000E+00 0.  1.
         11    1    3    3    0    0 -0.39500459452E+01  0.59280993707E+01 -0.20047184099E+02  0.21275215996E+02  0.51100000000E-03 0. -1.
        -11    1    3    3    0    0 -0.15377663076E+02 -0.85621919422E+01 -0.96951125023E-01  0.17600938961E+02  0.51100000000E-03 0.  1.
         12    1    3    3    0    0  0.27000581992E+02  0.16867086535E+02  0.10697969875E+02  0.33585362816E+02  0.00000000000E+00 0. -1.
</event>
<event>
 7    1  0.2710146E-013  0.7246152E+02  0.7816164E-02  0.1226708E+00
        -11   -1    0    0    0    0  0.00000000000E+00  0.00000000000E+00  0.45593999997E+02  0.45594000000E+02  0.51100000000E-03 0.  1.
         11   -1    0    0    0    0 -0.00000000000E+00 -0.00000000000E+00 -0.45593999997E+02  0.45594000000E+02  0.51100000000E-03 0. -1.
    9900012    2    1    2    0    0  0.10593544440E+02 -0.24251390523E+01  0.15250458828E+02  0.72461522016E+02  0.69999937108E+02 0.  0.
        -12    1    1    2    0    0 -0.10593544440E+02  0.24251390523E+01 -0.15250458828E+02  0.18726477984E+02  0.00000000000E+00 0.  1.
         11    1    3    3    0    0  0.31920036902E+02 -0.93663311349E+01  0.12381111859E+02  0.35495194687E+02  0.51100000000E-03 0. -1.
        -11    1    3    3    0    0  0.71454908808E+01  0.14325824580E+01  0.32124879778E+01  0.79643211698E+01  0.51100000000E-03 0.  1.
        -12    1    3    3    0    0 -0.28471983343E+02  0.55086096246E+01 -0.34314100801E+00  0.29002006159E+02  0.00000000000E+00 0.  1.
</event>
<event>
 7    1  0.2710146E-013  0.7246162E+02  0.7816164E-02  0.1226708E+00
        -11   -1    0    0    0    0  0.00000000000E+00  0.00000000000E+00  0.45593999997E+02  0.45594000000E+02  0.51100000000E-03 0. -1.
         11   -1    0    0    0    0 -0.00000000000E+00 -0.00000000000E+00 -0.45593999997E+02  0.45594000000E+02  0.51100000000E-03 0.  1.
    9900012    2    1    2    0    0 -0.16956932064E+02  0.67417316521E+01 -0.42058231619E+01  0.72461616495E+02  0.70000060185E+02 0.  0.
        -12    1    1    2    0    0  0.16956932064E+02 -0.67417316521E+01  0.42058231619E+01  0.18726383505E+02  0.00000000000E+00 0.  1.
         11    1    3    3    0    0  0.92412545701E+00  0.25979067793E+02 -0.12687915746E+02  0.28926617111E+02  0.51100000000E-03 0. -1.
        -11    1    3    3    0    0 -0.17937594542E+02  0.44625244952E+01  0.70791628045E+01  0.19793584039E+02  0.51100000000E-03 0.  1.
        -12    1    3    3    0    0  0.56537021179E-01 -0.23699860636E+02  0.14029297796E+01  0.23741415345E+02  0.00000000000E+00 0.  1.
</event>
<event>
 7    1  0.2710146E-013  0.7246217E+02  0.7816164E-02  0.1226706E+00
        -11   -1    0    0    0    0  0.00000000000E+00  0.00000000000E+00  0.45593999997E+02  0.45594000000E+02  0.51100000000E-03 0.  1.
         11   -1    0    0    0    0 -0.00000000000E+00 -0.00000000000E+00 -0.45593999997E+02  0.45594000000E+02  0.51100000000E-03 0. -1.
    9900012    2    1    2    0    0  0.16634535723E+02 -0.76297763131E+01 -0.39668153935E+01  0.72462165181E+02  0.70000774946E+02 0.  0.
        -12    1    1    2    0    0 -0.16634535723E+02  0.76297763131E+01  0.39668153935E+01  0.18725834819E+02  0.00000000000E+00 0.  1.
         11    1    3    3    0    0 -0.37745681783E+01 -0.38675409171E+00  0.78132121054E+01  0.86858060838E+01  0.51100000000E-03 0. -1.
        -11    1    3    3    0    0  0.33700253410E+02 -0.13983409865E+02  0.95879166911E+01  0.37724938411E+02  0.51100000000E-03 0.  1.
         12    1    3    3    0    0 -0.13291149509E+02  0.67403876439E+01 -0.21367944190E+02  0.26051420686E+02  0.00000000000E+00 0. -1.
</event>
<event>
 7    1  0.2710146E-013  0.7246160E+02  0.7816164E-02  0.1226708E+00
        -11   -1    0    0    0    0  0.00000000000E+00  0.00000000000E+00  0.45593999997E+02  0.45594000000E+02  0.51100000000E-03 0.  1.
         11   -1    0    0    0    0 -0.00000000000E+00 -0.00000000000E+00 -0.45593999997E+02  0.45594000000E+02  0.51100000000E-03 0. -1.
    9900012    2    1    2    0    0 -0.71164506528E+01 -0.34880300939E+01 -0.16966668618E+02  0.72461599710E+02  0.70000038319E+02 0.  0.
        -12    1    1    2    0    0  0.71164506528E+01  0.34880300939E+01  0.16966668618E+02  0.18726400290E+02  0.00000000000E+00 0.  1.
         11    1    3    3    0    0  0.19368924946E+02 -0.46859898122E+01 -0.26465155871E+02  0.33128812681E+02  0.51100000000E-03 0. -1.
        -11    1    3    3    0    0  0.21098498792E+01  0.70181959089E+01 -0.25532898009E+01  0.77605302265E+01  0.51100000000E-03 0.  1.
        -12    1    3    3    0    0 -0.28595225478E+02 -0.58202361906E+01  0.12051777054E+02  0.31572256803E+02  0.00000000000E+00 0.  1.
</event>
<event>
 7    1  0.2710146E-013  0.7246160E+02  0.7816164E-02  0.1226708E+00
        -11   -1    0    0    0    0  0.00000000000E+00  0.00000000000E+00  0.45593999997E+02  0.45594000000E+02  0.51100000000E-03 0.  1.
         11   -1    0    0    0    0 -0.00000000000E+00 -0.00000000000E+00 -0.45593999997E+02  0.45594000000E+02  0.51100000000E-03 0. -1.
    9900012    2    1    2    0    0 -0.17138309581E+02 -0.74702543433E+01 -0.10730961179E+01  0.72461604444E+02  0.70000044486E+02 0.  0.
        -12    1    1    2    0    0  0.17138309581E+02  0.74702543433E+01  0.10730961179E+01  0.18726395556E+02  0.00000000000E+00 0.  1.
         11    1    3    3    0    0 -0.37448857983E+02  0.39796272078E+01  0.35651799370E+01  0.37828096769E+02  0.51100000000E-03 0. -1.
        -11    1    3    3    0    0 -0.40944993536E+01  0.18305992995E+01 -0.51694858920E+01  0.68439464785E+01  0.51100000000E-03 0.  1.
        -12    1    3    3    0    0  0.24405047755E+02 -0.13280480851E+02  0.53120983705E+00  0.27789561196E+02  0.00000000000E+00 0.  1.
</event>
<event>
 7    1  0.2710146E-013  0.7246159E+02  0.7816164E-02  0.1226708E+00
        -11   -1    0    0    0    0  0.00000000000E+00  0.00000000000E+00  0.45593999997E+02  0.45594000000E+02  0.51100000000E-03 0.  1.
         11   -1    0    0    0    0 -0.00000000000E+00 -0.00000000000E+00 -0.45593999997E+02  0.45594000000E+02  0.51100000000E-03 0. -1.
    9900012    2    1    2    0    0 -0.13286206508E+02 -0.60230670343E+01 -0.11742138686E+02  0.72461589752E+02  0.70000025347E+02 0.  0.
        -12    1    1    2    0    0  0.13286206508E+02  0.60230670343E+01  0.11742138686E+02  0.18726410248E+02  0.00000000000E+00 0.  1.
         11    1    3    3    0    0  0.15047657950E+02  0.29657822163E+01 -0.19054649984E+02  0.24460326249E+02  0.51100000000E-03 0. -1.
        -11    1    3    3    0    0 -0.11651540980E+02  0.90402982688E+01 -0.10115677950E+02  0.17883297813E+02  0.51100000000E-03 0.  1.
        -12    1    3    3    0    0 -0.16682323477E+02 -0.18029147519E+02  0.17428189248E+02  0.30117965690E+02  0.00000000000E+00 0.  1.
</event>
<event>
 7    1  0.2710146E-013  0.7246156E+02  0.7816164E-02  0.1226708E+00
        -11   -1    0    0    0    0  0.00000000000E+00  0.00000000000E+00  0.45593999997E+02  0.45594000000E+02  0.51100000000E-03 0.  1.
         11   -1    0    0    0    0 -0.00000000000E+00 -0.00000000000E+00 -0.45593999997E+02  0.45594000000E+02  0.51100000000E-03 0. -1.
    9900012    2    1    2    0    0 -0.20828070909E+01 -0.13569518342E+02 -0.12736149575E+02  0.72461563622E+02  0.69999991308E+02 0.  0.
        -12    1    1    2    0    0  0.20828070909E+01  0.13569518342E+02  0.12736149575E+02  0.18726436378E+02  0.00000000000E+00 0.  1.
         11    1    3    3    0    0 -0.37923718873E+01 -0.11800323456E+02 -0.15501176172E+02  0.19847321764E+02  0.51100000000E-03 0. -1.
        -11    1    3    3    0    0 -0.16824029210E+02 -0.19773347566E+02 -0.30156548390E+01  0.26136706127E+02  0.51100000000E-03 0.  1.
         12    1    3    3    0    0  0.18533594006E+02  0.18004152680E+02  0.57806814358E+01  0.26477535731E+02  0.00000000000E+00 0. -1.
</event>
<event>
 7    1  0.2710146E-013  0.7246159E+02  0.7816164E-02  0.1226708E+00
        -11   -1    0    0    0    0  0.00000000000E+00  0.00000000000E+00  0.45593999997E+02  0.45594000000E+02  0.51100000000E-03 0.  1.
         11   -1    0    0    0    0 -0.00000000000E+00 -0.00000000000E+00 -0.45593999997E+02  0.45594000000E+02  0.51100000000E-03 0. -1.
    9900012    2    1    2    0    0  0.75257127335E+01  0.16660081150E+02  0.40600133059E+01  0.72461591799E+02  0.70000028013E+02 0.  0.
        -12    1    1    2    0    0 -0.75257127335E+01 -0.16660081150E+02 -0.40600133059E+01  0.18726408201E+02  0.00000000000E+00 0.  1.
         11    1    3    3    0    0  0.11696289204E+02 -0.42491251899E+01  0.18981921241E+02  0.22697391486E+02  0.51100000000E-03 0. -1.
        -11    1    3    3    0    0  0.65335922576E+01  0.22465478025E+02  0.77481061819E+01  0.24645865380E+02  0.51100000000E-03 0.  1.
         12    1    3    3    0    0 -0.10704168728E+02 -0.15562716847E+01 -0.22670014117E+02  0.25118334932E+02  0.00000000000E+00 0. -1.
</event>
<event>
 7    1  0.2710146E-013  0.7246165E+02  0.7816164E-02  0.1226708E+00
        -11   -1    0    0    0    0  0.00000000000E+00  0.00000000000E+00  0.45593999997E+02  0.45594000000E+02  0.51100000000E-03 0.  1.
         11   -1    0    0    0    0 -0.00000000000E+00 -0.00000000000E+00 -0.45593999997E+02  0.45594000000E+02  0.51100000000E-03 0. -1.
    9900012    2    1    2    0    0  0.18568012505E+02 -0.70303690226E+00 -0.23261149614E+01  0.72461650647E+02  0.70000104674E+02 0.  0.
        -12    1    1    2    0    0 -0.18568012505E+02  0.70303690226E+00  0.23261149614E+01  0.18726349353E+02  0.00000000000E+00 0.  1.
         11    1    3    3    0    0 -0.71786996883E+01  0.18520162467E+01 -0.17394012219E+01  0.76150646920E+01  0.51100000000E-03 0. -1.
        -11    1    3    3    0    0  0.18234195805E+02  0.27489629588E+01  0.28720298427E+02  0.34130605562E+02  0.51100000000E-03 0.  1.
         12    1    3    3    0    0  0.75125163881E+01 -0.53040161078E+01 -0.29307012167E+02  0.30715980393E+02  0.00000000000E+00 0. -1.
</event>
<event>
 7    1  0.2710146E-013  0.7246157E+02  0.7816164E-02  0.1226708E+00
        -11   -1    0    0    0    0  0.00000000000E+00  0.00000000000E+00  0.45593999997E+02  0.45594000000E+02  0.51100000000E-03 0.  1.
         11   -1    0    0    0    0 -0.00000000000E+00 -0.00000000000E+00 -0.45593999997E+02  0.45594000000E+02  0.51100000000E-03 0. -1.
    9900012    2    1    2    0    0 -0.66555779270E+01  0.70393273048E+01 -0.16025928007E+02  0.72461569082E+02  0.69999998421E+02 0.  0.
        -12    1    1    2    0    0  0.66555779270E+01 -0.70393273048E+01  0.16025928007E+02  0.18726430918E+02  0.00000000000E+00 0.  1.
         11    1    3    3    0    0 -0.85380738254E+01 -0.89742273275E+01 -0.80143542438E+01  0.14753485520E+02  0.51100000000E-03 0. -1.
        -11    1    3    3    0    0  0.18439376329E+02  0.12771911219E+02  0.16574626139E+02  0.27889972167E+02  0.51100000000E-03 0.  1.
         12    1    3    3    0    0 -0.16556880431E+02  0.32416434134E+01 -0.24586199901E+02  0.29818111396E+02  0.00000000000E+00 0. -1.
</event>
<event>
 7    1  0.2710146E-013  0.7246157E+02  0.7816164E-02  0.1226708E+00
        -11   -1    0    0    0    0  0.00000000000E+00  0.00000000000E+00  0.45593999997E+02  0.45594000000E+02  0.51100000000E-03 0.  1.
         11   -1    0    0    0    0 -0.00000000000E+00 -0.00000000000E+00 -0.45593999997E+02  0.45594000000E+02  0.51100000000E-03 0. -1.
    9900012    2    1    2    0    0  0.15632076056E+02  0.92858424322E+01 -0.44822329384E+01  0.72461572588E+02  0.70000002988E+02 0.  0.
        -12    1    1    2    0    0 -0.15632076056E+02 -0.92858424322E+01  0.44822329384E+01  0.18726427412E+02  0.00000000000E+00 0.  1.
         11    1    3    3    0    0 -0.86844681029E+01 -0.56371841799E+01 -0.18882005737E+02  0.21534344026E+02  0.51100000000E-03 0.  1.
        -11    1    3    3    0    0  0.17528680543E+02  0.92812952035E+00  0.26107114613E+02  0.31459458032E+02  0.51100000000E-03 0. -1.
         12    1    3    3    0    0  0.67878636164E+01  0.13994897092E+02 -0.11707341815E+02  0.19467770531E+02  0.00000000000E+00 0. -1.
</event>
<event>
 7    1  0.2710146E-013  0.7246156E+02  0.7816164E-02  0.1226708E+00
        -11   -1    0    0    0    0  0.00000000000E+00  0.00000000000E+00  0.45593999997E+02  0.45594000000E+02  0.51100000000E-03 0.  1.
         11   -1    0    0    0    0 -0.00000000000E+00 -0.00000000000E+00 -0.45593999997E+02  0.45594000000E+02  0.51100000000E-03 0. -1.
    9900012    2    1    2    0    0  0.10927484176E+01 -0.12592375946E+02 -0.13817291858E+02  0.72461559191E+02  0.69999985536E+02 0.  0.
        -12    1    1    2    0    0 -0.10927484176E+01  0.12592375946E+02  0.13817291858E+02  0.18726440809E+02  0.00000000000E+00 0.  1.
         11    1    3    3    0    0 -0.82868813385E+01  0.24642548575E+02 -0.13921068516E+02  0.29491079184E+02  0.51100000000E-03 0. -1.
        -11    1    3    3    0    0 -0.46835136252E+01 -0.64849914378E+01  0.39818748688E+01  0.89356444400E+01  0.51100000000E-03 0.  1.
        -12    1    3    3    0    0  0.14063143381E+02 -0.30749933083E+02 -0.38780982115E+01  0.34034835567E+02  0.00000000000E+00 0.  1.
</event>
<event>
 7    1  0.2710146E-013  0.7246160E+02  0.7816164E-02  0.1226708E+00
        -11   -1    0    0    0    0  0.00000000000E+00  0.00000000000E+00  0.45593999997E+02  0.45594000000E+02  0.51100000000E-03 0.  1.
         11   -1    0    0    0    0 -0.00000000000E+00 -0.00000000000E+00 -0.45593999997E+02  0.45594000000E+02  0.51100000000E-03 0. -1.
    9900012    2    1    2    0    0 -0.89082526723E+01 -0.12718013951E+02 -0.10467731344E+02  0.72461595005E+02  0.70000032191E+02 0.  0.
        -12    1    1    2    0    0  0.89082526723E+01  0.12718013951E+02  0.10467731344E+02  0.18726404995E+02  0.00000000000E+00 0.  1.
         11    1    3    3    0    0 -0.21061368861E+02 -0.12333939452E+02 -0.47178392660E+00  0.24411675506E+02  0.51100000000E-03 0. -1.
        -11    1    3    3    0    0 -0.25631130367E+01 -0.78678989231E+01  0.15560828442E+02  0.17624209598E+02  0.51100000000E-03 0.  1.
         12    1    3    3    0    0  0.14716229225E+02  0.74838244243E+01 -0.25556775860E+02  0.30425709901E+02  0.00000000000E+00 0. -1.
</event>
<event>
 7    1  0.2710146E-013  0.7246154E+02  0.7816164E-02  0.1226708E+00
        -11   -1    0    0    0    0  0.00000000000E+00  0.00000000000E+00  0.45593999997E+02  0.45594000000E+02  0.51100000000E-03 0.  1.
         11   -1    0    0    0    0 -0.00000000000E+00 -0.00000000000E+00 -0.45593999997E+02  0.45594000000E+02  0.51100000000E-03 0. -1.
    9900012    2    1    2    0    0  0.16879354871E+02  0.52004864728E+01 -0.62227531270E+01  0.72461539126E+02  0.69999959397E+02 0.  0.
        -12    1    1    2    0    0 -0.16879354871E+02 -0.52004864728E+01  0.62227531270E+01  0.18726460874E+02  0.00000000000E+00 0.  1.
         11    1    3    3    0    0  0.33695831819E+01  0.11161311683E+02  0.27007346874E+02  0.29416419815E+02  0.51100000000E-03 0.  1.
        -11    1    3    3    0    0 -0.44832033462E+01 -0.28610450762E+01 -0.19467989481E+02  0.20181360358E+02  0.51100000000E-03 0. -1.
        -12    1    3    3    0    0  0.17992975035E+02 -0.30997801338E+01 -0.13762110520E+02  0.22863758953E+02  0.00000000000E+00 0.  1.
</event>
<event>
 7    1  0.2710146E-013  0.7246157E+02  0.7816164E-02  0.1226708E+00
        -11   -1    0    0    0    0  0.00000000000E+00  0.00000000000E+00  0.45593999997E+02  0.45594000000E+02  0.51100000000E-03 0.  1.
         11   -1    0    0    0    0 -0.00000000000E+00 -0.00000000000E+00 -0.45593999997E+02  0.45594000000E+02  0.51100000000E-03 0. -1.
    9900012    2    1    2    0    0 -0.16311058303E+02 -0.72854998198E+01  0.56169453609E+01  0.72461569327E+02  0.69999998740E+02 0.  0.
        -12    1    1    2    0    0  0.16311058303E+02  0.72854998198E+01 -0.56169453609E+01  0.18726430673E+02  0.00000000000E+00 0.  1.
         11    1    3    3    0    0 -0.17509943652E+02 -0.52896409644E+01 -0.25078094408E+02  0.31040123190E+02  0.51100000000E-03 0. -1.
        -11    1    3    3    0    0  0.37679167157E+01  0.87850901168E+01  0.86377103453E+00  0.95979740257E+01  0.51100000000E-03 0.  1.
        -12    1    3    3    0    0 -0.25690313665E+01 -0.10780948972E+02  0.29831268735E+02  0.31823472111E+02  0.00000000000E+00 0.  1.
</event>
<event>
 7    1  0.2710146E-013  0.7246159E+02  0.7816164E-02  0.1226708E+00
        -11   -1    0    0    0    0  0.00000000000E+00  0.00000000000E+00  0.45593999997E+02  0.45594000000E+02  0.51100000000E-03 0.  1.
         11   -1    0    0    0    0 -0.00000000000E+00 -0.00000000000E+00 -0.45593999997E+02  0.45594000000E+02  0.51100000000E-03 0. -1.
    9900012    2    1    2    0    0 -0.10677800642E+02  0.71780925138E+01 -0.13606542550E+02  0.72461589804E+02  0.70000025414E+02 0.  0.
        -12    1    1    2    0    0  0.10677800642E+02 -0.71780925138E+01  0.13606542550E+02  0.18726410196E+02  0.00000000000E+00 0.  1.
         11    1    3    3    0    0 -0.27009388226E+01  0.54124691437E+01 -0.40143024805E+01  0.72597876980E+01  0.51100000000E-03 0. -1.
        -11    1    3    3    0    0  0.58614511245E+01  0.26801477069E+02 -0.20851868917E+02  0.34459776841E+02  0.51100000000E-03 0.  1.
         12    1    3    3    0    0 -0.13838312944E+02 -0.25035853699E+02  0.11259628848E+02  0.30742025264E+02  0.00000000000E+00 0. -1.
</event>
<event>
 7    1  0.2710146E-013  0.7246148E+02  0.7816164E-02  0.1226708E+00
        -11   -1    0    0    0    0  0.00000000000E+00  0.00000000000E+00  0.45593999997E+02  0.45594000000E+02  0.51100000000E-03 0.  1.
         11   -1    0    0    0    0 -0.00000000000E+00 -0.00000000000E+00 -0.45593999997E+02  0.45594000000E+02  0.51100000000E-03 0. -1.
    9900012    2    1    2    0    0 -0.35128849414E+01 -0.91001556387E+01 -0.15985282271E+02  0.72461482904E+02  0.69999886157E+02 0.  0.
        -12    1    1    2    0    0  0.35128849414E+01  0.91001556387E+01  0.15985282271E+02  0.18726517096E+02  0.00000000000E+00 0.  1.
         11    1    3    3    0    0 -0.23343904702E+01 -0.47156325330E+00 -0.16412895642E+02  0.16584778998E+02  0.51100000000E-03 0. -1.
        -11    1    3    3    0    0  0.12255314034E+02  0.18102131467E+02 -0.10207309334E+02  0.24126107225E+02  0.51100000000E-03 0.  1.
         12    1    3    3    0    0 -0.13433808505E+02 -0.26730723853E+02  0.10634922705E+02  0.31750596681E+02  0.00000000000E+00 0. -1.
</event>
<event>
 7    1  0.2710146E-013  0.7246159E+02  0.7816164E-02  0.1226708E+00
        -11   -1    0    0    0    0  0.00000000000E+00  0.00000000000E+00  0.45593999997E+02  0.45594000000E+02  0.51100000000E-03 0.  1.
         11   -1    0    0    0    0 -0.00000000000E+00 -0.00000000000E+00 -0.45593999997E+02  0.45594000000E+02  0.51100000000E-03 0. -1.
    9900012    2    1    2    0    0 -0.28309379417E+01  0.18504976255E+02  0.47961925799E+00  0.72461591095E+02  0.70000027097E+02 0.  0.
        -12    1    1    2    0    0  0.28309379417E+01 -0.18504976255E+02 -0.47961925799E+00  0.18726408905E+02  0.00000000000E+00 0.  1.
         11    1    3    3    0    0 -0.21388674234E+02  0.17889301330E+02 -0.20836390488E+02  0.34808873242E+02  0.51100000000E-03 0. -1.
        -11    1    3    3    0    0  0.51177627892E+01  0.12133372035E+02  0.71671234562E+01  0.14992593898E+02  0.51100000000E-03 0.  1.
        -12    1    3    3    0    0  0.13439973503E+02 -0.11517697109E+02  0.14148886289E+02  0.22660123956E+02  0.00000000000E+00 0.  1.
</event>
<event>
 7    1  0.2710146E-013  0.7246156E+02  0.7816164E-02  0.1226708E+00
        -11   -1    0    0    0    0  0.00000000000E+00  0.00000000000E+00  0.45593999997E+02  0.45594000000E+02  0.51100000000E-03 0. -1.
         11   -1    0    0    0    0 -0.00000000000E+00 -0.00000000000E+00 -0.45593999997E+02  0.45594000000E+02  0.51100000000E-03 0.  1.
    9900012    2    1    2    0    0 -0.91374986671E+01 -0.10420406543E+02 -0.12593685327E+02  0.72461557078E+02  0.69999982783E+02 0.  0.
        -12    1    1    2    0    0  0.91374986671E+01  0.10420406543E+02  0.12593685327E+02  0.18726442922E+02  0.00000000000E+00 0.  1.
         11    1    3    3    0    0  0.73328003999E+01 -0.20995575521E+02 -0.40453117688E+01  0.22604174410E+02  0.51100000000E-03 0. -1.
        -11    1    3    3    0    0 -0.20704184460E+02 -0.11563667702E+02 -0.12756517911E+02  0.26927874301E+02  0.51100000000E-03 0.  1.
        -12    1    3    3    0    0  0.42338853931E+01  0.22138836680E+02  0.42081443530E+01  0.22929508368E+02  0.00000000000E+00 0.  1.
</event>
<event>
 7    1  0.2710146E-013  0.7246155E+02  0.7816164E-02  0.1226708E+00
        -11   -1    0    0    0    0  0.00000000000E+00  0.00000000000E+00  0.45593999997E+02  0.45594000000E+02  0.51100000000E-03 0.  1.
         11   -1    0    0    0    0 -0.00000000000E+00 -0.00000000000E+00 -0.45593999997E+02  0.45594000000E+02  0.51100000000E-03 0. -1.
    9900012    2    1    2    0    0  0.34903487019E+01  0.13357827875E+02 -0.12651709559E+02  0.72461552009E+02  0.69999976180E+02 0.  0.
        -12    1    1    2    0    0 -0.34903487019E+01 -0.13357827875E+02  0.12651709559E+02  0.18726447991E+02  0.00000000000E+00 0.  1.
         11    1    3    3    0    0 -0.24755321868E+02 -0.40279893252E+01 -0.17253547303E+01  0.25140157279E+02  0.51100000000E-03 0. -1.
        -11    1    3    3    0    0 -0.53975864476E+01 -0.24854112175E+01  0.18310577360E+01  0.62180367539E+01  0.51100000000E-03 0.  1.
        -12    1    3    3    0    0  0.33643257017E+02  0.19871228418E+02 -0.12757412565E+02  0.41103357976E+02  0.00000000000E+00 0.  1.
</event>
<event>
 7    1  0.2710146E-013  0.7246156E+02  0.7816164E-02  0.1226708E+00
        -11   -1    0    0    0    0  0.00000000000E+00  0.00000000000E+00  0.45593999997E+02  0.45594000000E+02  0.51100000000E-03 0.  1.
         11   -1    0    0    0    0 -0.00000000000E+00 -0.00000000000E+00 -0.45593999997E+02  0.45594000000E+02  0.51100000000E-03 0. -1.
    9900012    2    1    2    0    0 -0.13489778484E+01 -0.20731188312E+01 -0.18562382128E+02  0.72461558982E+02  0.69999985263E+02 0.  0.
        -12    1    1    2    0    0  0.13489778484E+01  0.20731188312E+01  0.18562382128E+02  0.18726441018E+02  0.00000000000E+00 0.  1.
         11    1    3    3    0    0 -0.11403602228E+02 -0.13086720879E+01  0.94681560983E+01  0.14879541209E+02  0.51100000000E-03 0. -1.
        -11    1    3    3    0    0 -0.16483131257E+02 -0.53120749194E+01  0.17837422656E+01  0.17409580487E+02  0.51100000000E-03 0.  1.
         12    1    3    3    0    0  0.26537755637E+02  0.45476281761E+01 -0.29814280492E+02  0.40172437287E+02  0.00000000000E+00 0. -1.
</event>
<event>
 7    1  0.2710146E-013  0.7246158E+02  0.7816164E-02  0.1226708E+00
        -11   -1    0    0    0    0  0.00000000000E+00  0.00000000000E+00  0.45593999997E+02  0.45594000000E+02  0.51100000000E-03 0. -1.
         11   -1    0    0    0    0 -0.00000000000E+00 -0.00000000000E+00 -0.45593999997E+02  0.45594000000E+02  0.51100000000E-03 0.  1.
    9900012    2    1    2    0    0  0.32237635979E+01 -0.62537828416E+01  0.17354427968E+02  0.72461584922E+02  0.70000019056E+02 0.  0.
        -12    1    1    2    0    0 -0.32237635979E+01  0.62537828416E+01 -0.17354427968E+02  0.18726415078E+02  0.00000000000E+00 0.  1.
         11    1    3    3    0    0 -0.15735655945E+02 -0.99717343649E+01  0.26102307471E+02  0.32068314734E+02  0.51100000000E-03 0. -1.
        -11    1    3    3    0    0  0.14391215661E+02  0.44028654426E+01  0.11930692085E+02  0.19205044291E+02  0.51100000000E-03 0.  1.
        -12    1    3    3    0    0  0.45682038819E+01 -0.68491391939E+00 -0.20678571588E+02  0.21188225898E+02  0.00000000000E+00 0.  1.
</event>
<event>
 7    1  0.2710146E-013  0.7246155E+02  0.7816164E-02  0.1226708E+00
        -11   -1    0    0    0    0  0.00000000000E+00  0.00000000000E+00  0.45593999997E+02  0.45594000000E+02  0.51100000000E-03 0. -1.
         11   -1    0    0    0    0 -0.00000000000E+00 -0.00000000000E+00 -0.45593999997E+02  0.45594000000E+02  0.51100000000E-03 0.  1.
    9900012    2    1    2    0    0 -0.17450648653E+02 -0.19832832148E+01 -0.64978077756E+01  0.72461546609E+02  0.69999969145E+02 0.  0.
        -12    1    1    2    0    0  0.17450648653E+02  0.19832832148E+01  0.64978077756E+01  0.18726453391E+02  0.00000000000E+00 0.  1.
         11    1    3    3    0    0 -0.16457712274E+02  0.10818083158E+02 -0.15966453496E+02  0.25353793680E+02  0.51100000000E-03 0.  1.
        -11    1    3    3    0    0  0.20202433682E+02  0.19795341018E+01  0.45704722887E+01  0.20807356851E+02  0.51100000000E-03 0. -1.
         12    1    3    3    0    0 -0.21195370061E+02 -0.14780900474E+02  0.48981734317E+01  0.26300396077E+02  0.00000000000E+00 0. -1.
</event>
<event>
 7    1  0.2710146E-013  0.7246158E+02  0.7816164E-02  0.1226708E+00
        -11   -1    0    0    0    0  0.00000000000E+00  0.00000000000E+00  0.45593999997E+02  0.45594000000E+02  0.51100000000E-03 0. -1.
         11   -1    0    0    0    0 -0.00000000000E+00 -0.00000000000E+00 -0.45593999997E+02  0.45594000000E+02  0.51100000000E-03 0.  1.
    9900012    2    1    2    0    0  0.43693841400E+01 -0.18194466240E+02  0.74082743860E+00  0.72461576294E+02  0.70000007816E+02 0.  0.
        -12    1    1    2    0    0 -0.43693841400E+01  0.18194466240E+02 -0.74082743860E+00  0.18726423706E+02  0.00000000000E+00 0.  1.
         11    1    3    3    0    0 -0.29429249307E+01 -0.66547052512E+01 -0.18089428338E+02  0.19498033926E+02  0.51100000000E-03 0. -1.
        -11    1    3    3    0    0 -0.75352641100E+01  0.10816164544E+02 -0.76669294359E+01  0.15249636975E+02  0.51100000000E-03 0.  1.
         12    1    3    3    0    0  0.14847573181E+02 -0.22355925533E+02  0.26497185212E+02  0.37713905392E+02  0.00000000000E+00 0. -1.
</event>
<event>
 7    1  0.2710146E-013  0.7246151E+02  0.7816164E-02  0.1226708E+00
        -11   -1    0    0    0    0  0.00000000000E+00  0.00000000000E+00  0.45593999997E+02  0.45594000000E+02  0.51100000000E-03 0. -1.
         11   -1    0    0    0    0 -0.00000000000E+00 -0.00000000000E+00 -0.45593999997E+02  0.45594000000E+02  0.51100000000E-03 0.  1.
    9900012    2    1    2    0    0  0.51230514664E+01 -0.10606840330E+02  0.14557844426E+02  0.72461506670E+02  0.69999917118E+02 0.  0.
        -12    1    1    2    0    0 -0.51230514664E+01  0.10606840330E+02 -0.14557844426E+02  0.18726493330E+02  0.00000000000E+00 0.  1.
         11    1    3    3    0    0 -0.23562364995E+01 -0.19571204734E+01 -0.12648292593E+02  0.13013895526E+02  0.51100000000E-03 0.  1.
        -11    1    3    3    0    0 -0.54301936591E+01 -0.22064589996E+02 -0.40362574304E+01  0.23078659172E+02  0.51100000000E-03 0. -1.
         12    1    3    3    0    0  0.12909481625E+02  0.13414870139E+02  0.31242394449E+02  0.36368951973E+02  0.00000000000E+00 0. -1.
</event>
<event>
 7    1  0.2710146E-013  0.7246161E+02  0.7816164E-02  0.1226708E+00
        -11   -1    0    0    0    0  0.00000000000E+00  0.00000000000E+00  0.45593999997E+02  0.45594000000E+02  0.51100000000E-03 0. -1.
         11   -1    0    0    0    0 -0.00000000000E+00 -0.00000000000E+00 -0.45593999997E+02  0.45594000000E+02  0.51100000000E-03 0.  1.
    9900012    2    1    2    0    0 -0.37302059711E+01  0.15831922692E+02  0.92797287483E+01  0.72461612779E+02  0.70000055344E+02 0.  0.
        -12    1    1    2    0    0  0.37302059711E+01 -0.15831922692E+02 -0.92797287483E+01  0.18726387221E+02  0.00000000000E+00 0.  1.
         11    1    3    3    0    0  0.35196881300E+01 -0.17189461599E+02 -0.10422078064E+01  0.17577030237E+02  0.51100000000E-03 0. -1.
        -11    1    3    3    0    0  0.16243014567E+02  0.44257658193E+01  0.20153955354E+01  0.16955375099E+02  0.51100000000E-03 0.  1.
         12    1    3    3    0    0 -0.23492908669E+02  0.28595618472E+02  0.83065410193E+01  0.37929207442E+02  0.00000000000E+00 0. -1.
</event>
<event>
 7    1  0.2710146E-013  0.7246159E+02  0.7816164E-02  0.1226708E+00
        -11   -1    0    0    0    0  0.00000000000E+00  0.00000000000E+00  0.45593999997E+02  0.45594000000E+02  0.51100000000E-03 0.  1.
         11   -1    0    0    0    0 -0.00000000000E+00 -0.00000000000E+00 -0.45593999997E+02  0.45594000000E+02  0.51100000000E-03 0. -1.
    9900012    2    1    2    0    0 -0.12060743629E+01  0.16926832895E+02 -0.79187120337E+01  0.72461593844E+02  0.70000030678E+02 0.  0.
        -12    1    1    2    0    0  0.12060743629E+01 -0.16926832895E+02  0.79187120337E+01  0.18726406156E+02  0.00000000000E+00 0.  1.
         11    1    3    3    0    0  0.51422559099E+01 -0.72085726433E+00  0.14530318168E+01  0.53920063762E+01  0.51100000000E-03 0. -1.
        -11    1    3    3    0    0  0.78105224603E+01  0.28266119259E+02  0.18048087193E+02  0.34434157615E+02  0.51100000000E-03 0.  1.
         12    1    3    3    0    0 -0.14158852733E+02 -0.10618429100E+02 -0.27419831043E+02  0.32635429853E+02  0.00000000000E+00 0. -1.
</event>
<event>
 7    1  0.2710146E-013  0.7246146E+02  0.7816164E-02  0.1226708E+00
        -11   -1    0    0    0    0  0.00000000000E+00  0.00000000000E+00  0.45593999997E+02  0.45594000000E+02  0.51100000000E-03 0.  1.
         11   -1    0    0    0    0 -0.00000000000E+00 -0.00000000000E+00 -0.45593999997E+02  0.45594000000E+02  0.51100000000E-03 0. -1.
    9900012    2    1    2    0    0 -0.94065480819E+01  0.16192543369E+02 -0.41090138502E-01  0.72461460118E+02  0.69999856474E+02 0.  0.
        -12    1    1    2    0    0  0.94065480819E+01 -0.16192543369E+02  0.41090138502E-01  0.18726539882E+02  0.00000000000E+00 0.  1.
         11    1    3    3    0    0 -0.76618664577E+01  0.44697253585E+01 -0.52039300344E+01  0.10284139753E+02  0.51100000000E-03 0. -1.
        -11    1    3    3    0    0 -0.28000498486E+02 -0.23658441217E+01 -0.85558868348E+01  0.29373939703E+02  0.51100000000E-03 0.  1.
         12    1    3    3    0    0  0.26255816862E+02  0.14088662132E+02  0.13718726731E+02  0.32803380662E+02  0.00000000000E+00 0. -1.
</event>
<event>
 7    1  0.2710146E-013  0.7246160E+02  0.7816164E-02  0.1226708E+00
        -11   -1    0    0    0    0  0.00000000000E+00  0.00000000000E+00  0.45593999997E+02  0.45594000000E+02  0.51100000000E-03 0.  1.
         11   -1    0    0    0    0 -0.00000000000E+00 -0.00000000000E+00 -0.45593999997E+02  0.45594000000E+02  0.51100000000E-03 0. -1.
    9900012    2    1    2    0    0  0.14229271952E+02  0.11775166799E+02  0.30904990638E+01  0.72461603713E+02  0.70000043534E+02 0.  0.
        -12    1    1    2    0    0 -0.14229271952E+02 -0.11775166799E+02 -0.30904990638E+01  0.18726396287E+02  0.00000000000E+00 0.  1.
         11    1    3    3    0    0  0.70154251117E+01  0.31381208452E+02 -0.92769314565E+01  0.33467265962E+02  0.51100000000E-03 0. -1.
        -11    1    3    3    0    0 -0.19568573962E+01  0.41372735831E+01 -0.60434328526E+01  0.75808577665E+01  0.51100000000E-03 0.  1.
        -12    1    3    3    0    0  0.91707042367E+01 -0.23743315237E+02  0.18410863373E+02  0.31413479985E+02  0.00000000000E+00 0.  1.
</event>
<event>
 7    1  0.2710146E-013  0.7246156E+02  0.7816164E-02  0.1226708E+00
        -11   -1    0    0    0    0  0.00000000000E+00  0.00000000000E+00  0.45593999997E+02  0.45594000000E+02  0.51100000000E-03 0.  1.
         11   -1    0    0    0    0 -0.00000000000E+00 -0.00000000000E+00 -0.45593999997E+02  0.45594000000E+02  0.51100000000E-03 0. -1.
    9900012    2    1    2    0    0 -0.22312357359E+01 -0.17100061997E+02 -0.72999281510E+01  0.72461561891E+02  0.69999989054E+02 0.  0.
        -12    1    1    2    0    0  0.22312357359E+01  0.17100061997E+02  0.72999281510E+01  0.18726438109E+02  0.00000000000E+00 0.  1.
         11    1    3    3    0    0 -0.23535310589E+02 -0.14258749576E+02 -0.17403112730E+02  0.32559040480E+02  0.51100000000E-03 0. -1.
        -11    1    3    3    0    0  0.10078525592E+02 -0.10560700643E+02  0.18752884943E+02  0.23765011470E+02  0.51100000000E-03 0.  1.
        -12    1    3    3    0    0  0.11225549261E+02  0.77193882223E+01 -0.86497003643E+01  0.16137509942E+02  0.00000000000E+00 0.  1.
</event>
<event>
 7    1  0.2710146E-013  0.7246159E+02  0.7816164E-02  0.1226708E+00
        -11   -1    0    0    0    0  0.00000000000E+00  0.00000000000E+00  0.45593999997E+02  0.45594000000E+02  0.51100000000E-03 0.  1.
         11   -1    0    0    0    0 -0.00000000000E+00 -0.00000000000E+00 -0.45593999997E+02  0.45594000000E+02  0.51100000000E-03 0. -1.
    9900012    2    1    2    0    0 -0.18764527928E+01  0.12794307514E+02 -0.13544854472E+02  0.72461589172E+02  0.70000024591E+02 0.  0.
        -12    1    1    2    0    0  0.18764527928E+01 -0.12794307514E+02  0.13544854472E+02  0.18726410828E+02  0.00000000000E+00 0.  1.
         11    1    3    3    0    0 -0.45388106934E+01 -0.53459703587E+01 -0.16604670788E+01  0.72067574378E+01  0.51100000000E-03 0. -1.
        -11    1    3    3    0    0 -0.29544950799E+01  0.10171602933E+02  0.24974819815E+02  0.27128069825E+02  0.51100000000E-03 0.  1.
         12    1    3    3    0    0  0.56168529806E+01  0.79686749397E+01 -0.36859207207E+02  0.38126761909E+02  0.00000000000E+00 0. -1.
</event>
<event>
 7    1  0.2710146E-013  0.7246153E+02  0.7816164E-02  0.1226708E+00
        -11   -1    0    0    0    0  0.00000000000E+00  0.00000000000E+00  0.45593999997E+02  0.45594000000E+02  0.51100000000E-03 0.  1.
         11   -1    0    0    0    0 -0.00000000000E+00 -0.00000000000E+00 -0.45593999997E+02  0.45594000000E+02  0.51100000000E-03 0. -1.
    9900012    2    1    2    0    0  0.15294589917E+00 -0.95996647454E+01 -0.16078053822E+02  0.72461527551E+02  0.69999944319E+02 0.  0.
        -12    1    1    2    0    0 -0.15294589917E+00  0.95996647454E+01  0.16078053822E+02  0.18726472449E+02  0.00000000000E+00 0.  1.
         11    1    3    3    0    0  0.17507301347E+02  0.10830658535E+02 -0.93213850936E+01  0.22598605822E+02  0.51100000000E-03 0. -1.
        -11    1    3    3    0    0 -0.19387379684E+02  0.41821715701E+01 -0.13823507488E+02  0.24175409192E+02  0.51100000000E-03 0.  1.
         12    1    3    3    0    0  0.20330242358E+01 -0.24612494850E+02  0.70668387596E+01  0.25687512537E+02  0.00000000000E+00 0. -1.
</event>
<event>
 7    1  0.2710146E-013  0.7246158E+02  0.7816164E-02  0.1226708E+00
        -11   -1    0    0    0    0  0.00000000000E+00  0.00000000000E+00  0.45593999997E+02  0.45594000000E+02  0.51100000000E-03 0.  1.
         11   -1    0    0    0    0 -0.00000000000E+00 -0.00000000000E+00 -0.45593999997E+02  0.45594000000E+02  0.51100000000E-03 0. -1.
    9900012    2    1    2    0    0  0.61948644821E+01 -0.42455655369E+01 -0.17154522420E+02  0.72461579837E+02  0.70000012431E+02 0.  0.
        -12    1    1    2    0    0 -0.61948644821E+01  0.42455655369E+01  0.17154522420E+02  0.18726420163E+02  0.00000000000E+00 0.  1.
         11    1    3    3    0    0 -0.12855102761E+02  0.14861668915E+02 -0.25824869016E+02  0.32450681501E+02  0.51100000000E-03 0. -1.
        -11    1    3    3    0    0  0.10479317792E+02 -0.72732199407E+01 -0.10066931106E+02  0.16249890210E+02  0.51100000000E-03 0.  1.
        -12    1    3    3    0    0  0.85706494517E+01 -0.11834014511E+02  0.18737277702E+02  0.23761008126E+02  0.00000000000E+00 0.  1.
</event>
<event>
 7    1  0.2710146E-013  0.7246156E+02  0.7816164E-02  0.1226708E+00
        -11   -1    0    0    0    0  0.00000000000E+00  0.00000000000E+00  0.45593999997E+02  0.45594000000E+02  0.51100000000E-03 0.  1.
         11   -1    0    0    0    0 -0.00000000000E+00 -0.00000000000E+00 -0.45593999997E+02  0.45594000000E+02  0.51100000000E-03 0. -1.
    9900012    2    1    2    0    0  0.95738414347E+01 -0.55338005236E+01 -0.15112853336E+02  0.72461555489E+02  0.69999980713E+02 0.  0.
        -12    1    1    2    0    0 -0.95738414347E+01  0.55338005236E+01  0.15112853336E+02  0.18726444511E+02  0.00000000000E+00 0.  1.
         11    1    3    3    0    0  0.81284715955E+01  0.22103966922E+02  0.25153308496E+01  0.23685107002E+02  0.51100000000E-03 0. -1.
        -11    1    3    3    0    0 -0.10920232246E+02 -0.14930016422E+01 -0.16487685618E+02  0.19832405389E+02  0.51100000000E-03 0.  1.
        -12    1    3    3    0    0  0.12365602086E+02 -0.26144765803E+02 -0.11404985681E+01  0.28944043098E+02  0.00000000000E+00 0.  1.
</event>
<event>
 7    1  0.2710146E-013  0.7246143E+02  0.7816164E-02  0.1226708E+00
        -11   -1    0    0    0    0  0.00000000000E+00  0.00000000000E+00  0.45593999997E+02  0.45594000000E+02  0.51100000000E-03 0. -1.
         11   -1    0    0    0    0 -0.00000000000E+00 -0.00000000000E+00 -0.45593999997E+02  0.45594000000E+02  0.51100000000E-03 0.  1.
    9900012    2    1    2    0    0 -0.88899854403E+01 -0.11813790716E+02  0.11492912314E+02  0.72461427285E+02  0.69999813703E+02 0.  0.
        -12    1    1    2    0    0  0.88899854403E+01  0.11813790716E+02 -0.11492912314E+02  0.18726572715E+02  0.00000000000E+00 0.  1.
         11    1    3    3    0    0  0.53540021064E+01 -0.24447998655E+01  0.11044684331E+01  0.59885086390E+01  0.51100000000E-03 0. -1.
        -11    1    3    3    0    0  0.11177596344E+01  0.23040314263E+02 -0.10084422425E+02  0.25175405535E+02  0.51100000000E-03 0.  1.
         12    1    3    3    0    0 -0.15361747181E+02 -0.32409305114E+02  0.20472866305E+02  0.41297513111E+02  0.00000000000E+00 0. -1.
</event>
<event>
 7    1  0.2710146E-013  0.7246156E+02  0.7816164E-02  0.1226708E+00
        -11   -1    0    0    0    0  0.00000000000E+00  0.00000000000E+00  0.45593999997E+02  0.45594000000E+02  0.51100000000E-03 0. -1.
         11   -1    0    0    0    0 -0.00000000000E+00 -0.00000000000E+00 -0.45593999997E+02  0.45594000000E+02  0.51100000000E-03 0.  1.
    9900012    2    1    2    0    0  0.17201298451E+02 -0.29322353995E+01  0.67968383557E+01  0.72461556545E+02  0.69999982089E+02 0.  0.
        -12    1    1    2    0    0 -0.17201298451E+02  0.29322353995E+01 -0.67968383557E+01  0.18726443455E+02  0.00000000000E+00 0.  1.
         11    1    3    3    0    0 -0.92952900266E+01  0.35392640535E+01 -0.12927214530E+02  0.16310784239E+02  0.51100000000E-03 0. -1.
        -11    1    3    3    0    0 -0.10708226853E+02  0.68302644803E+01  0.20450269554E+01  0.12864710285E+02  0.51100000000E-03 0.  1.
         12    1    3    3    0    0  0.37204815330E+02 -0.13301763933E+02  0.17679025930E+02  0.43286062022E+02  0.00000000000E+00 0. -1.
</event>
<event>
 7    1  0.2710146E-013  0.7246155E+02  0.7816164E-02  0.1226708E+00
        -11   -1    0    0    0    0  0.00000000000E+00  0.00000000000E+00  0.45593999997E+02  0.45594000000E+02  0.51100000000E-03 0.  1.
         11   -1    0    0    0    0 -0.00000000000E+00 -0.00000000000E+00 -0.45593999997E+02  0.45594000000E+02  0.51100000000E-03 0. -1.
    9900012    2    1    2    0    0  0.17070350412E+02  0.34658167859E+01  0.68753989327E+01  0.72461551868E+02  0.69999975996E+02 0.  0.
        -12    1    1    2    0    0 -0.17070350412E+02 -0.34658167859E+01 -0.68753989327E+01  0.18726448132E+02  0.00000000000E+00 0.  1.
         11    1    3    3    0    0 -0.23588717253E+01  0.17438545859E+01 -0.21387742073E+01  0.36303801460E+01  0.51100000000E-03 0. -1.
        -11    1    3    3    0    0 -0.24234102312E+02 -0.24405071343E+01  0.40257237303E+01  0.24687127045E+02  0.51100000000E-03 0.  1.
         12    1    3    3    0    0  0.43663324449E+02  0.41624693343E+01  0.49884494097E+01  0.44144044676E+02  0.00000000000E+00 0. -1.
</event>
<event>
 7    1  0.2710146E-013  0.7246160E+02  0.7816164E-02  0.1226708E+00
        -11   -1    0    0    0    0  0.00000000000E+00  0.00000000000E+00  0.45593999997E+02  0.45594000000E+02  0.51100000000E-03 0. -1.
         11   -1    0    0    0    0 -0.00000000000E+00 -0.00000000000E+00 -0.45593999997E+02  0.45594000000E+02  0.51100000000E-03 0.  1.
    9900012    2    1    2    0    0  0.12824384967E+01 -0.42039754538E+01  0.18203298050E+02  0.72461598370E+02  0.70000036574E+02 0.  0.
        -12    1    1    2    0    0 -0.12824384967E+01  0.42039754538E+01 -0.18203298050E+02  0.18726401630E+02  0.00000000000E+00 0.  1.
         11    1    3    3    0    0 -0.18800221583E+02 -0.14672445349E+02  0.94217123500E+01  0.25641716946E+02  0.51100000000E-03 0. -1.
        -11    1    3    3    0    0 -0.61685618011E+01 -0.10626911968E+02  0.30254602241E+01  0.12654478358E+02  0.51100000000E-03 0.  1.
        -12    1    3    3    0    0  0.26251221881E+02  0.21095381863E+02  0.57561254754E+01  0.34165403066E+02  0.00000000000E+00 0.  1.
</event>
<event>
 7    1  0.2710146E-013  0.7246154E+02  0.7816164E-02  0.1226708E+00
        -11   -1    0    0    0    0  0.00000000000E+00  0.00000000000E+00  0.45593999997E+02  0.45594000000E+02  0.51100000000E-03 0.  1.
         11   -1    0    0    0    0 -0.00000000000E+00 -0.00000000000E+00 -0.45593999997E+02  0.45594000000E+02  0.51100000000E-03 0. -1.
    9900012    2    1    2    0    0  0.11314881054E+01 -0.16820430449E+02 -0.81531059340E+01  0.72461540585E+02  0.69999961299E+02 0.  0.
        -12    1    1    2    0    0 -0.11314881054E+01  0.16820430449E+02  0.81531059340E+01  0.18726459415E+02  0.00000000000E+00 0.  1.
         11    1    3    3    0    0 -0.10971964417E+02 -0.65098036625E+01 -0.23754939021E+02  0.26964025572E+02  0.51100000000E-03 0. -1.
        -11    1    3    3    0    0 -0.13520372311E+02 -0.32167761658E+01 -0.13536494341E+01  0.13963541219E+02  0.51100000000E-03 0.  1.
        -12    1    3    3    0    0  0.25623824833E+02 -0.70938506211E+01  0.16955482521E+02  0.31533973794E+02  0.00000000000E+00 0.  1.
</event>
<event>
 7    1  0.2710146E-013  0.7246139E+02  0.7816164E-02  0.1226708E+00
        -11   -1    0    0    0    0  0.00000000000E+00  0.00000000000E+00  0.45593999997E+02  0.45594000000E+02  0.51100000000E-03 0.  1.
         11   -1    0    0    0    0 -0.00000000000E+00 -0.00000000000E+00 -0.45593999997E+02  0.45594000000E+02  0.51100000000E-03 0. -1.
    9900012    2    1    2    0    0 -0.92887648405E+00  0.16030332282E+01 -0.18634735862E+02  0.72461390384E+02  0.69999765633E+02 0.  0.
        -12    1    1    2    0    0  0.92887648405E+00 -0.16030332282E+01  0.18634735862E+02  0.18726609616E+02  0.00000000000E+00 0.  1.
         11    1    3    3    0    0  0.17418170431E+02 -0.25230112901E+01  0.13423118644E+01  0.17651063666E+02  0.51100000000E-03 0. -1.
        -11    1    3    3    0    0 -0.18173027093E+02  0.85972863472E+01  0.11403050078E+02  0.23112805922E+02  0.51100000000E-03 0.  1.
         12    1    3    3    0    0 -0.17401982236E+00 -0.44712418289E+01 -0.31380097804E+02  0.31697520796E+02  0.00000000000E+00 0. -1.
</event>
<event>
 7    1  0.2710146E-013  0.7246147E+02  0.7816164E-02  0.1226708E+00
        -11   -1    0    0    0    0  0.00000000000E+00  0.00000000000E+00  0.45593999997E+02  0.45594000000E+02  0.51100000000E-03 0.  1.
         11   -1    0    0    0    0 -0.00000000000E+00 -0.00000000000E+00 -0.45593999997E+02  0.45594000000E+02  0.51100000000E-03 0. -1.
    9900012    2    1    2    0    0 -0.28703693049E+00 -0.16314142862E+02 -0.91896347542E+01  0.72461467100E+02  0.69999865570E+02 0.  0.
        -12    1    1    2    0    0  0.28703693049E+00  0.16314142862E+02  0.91896347542E+01  0.18726532900E+02  0.00000000000E+00 0.  1.
         11    1    3    3    0    0  0.29001818002E+02 -0.21064141615E+02 -0.11640909520E+02  0.37687057249E+02  0.51100000000E-03 0. -1.
        -11    1    3    3    0    0 -0.75166298028E+00 -0.35512740956E+01  0.34909024779E+01  0.50361637493E+01  0.51100000000E-03 0.  1.
         12    1    3    3    0    0 -0.28537191952E+02  0.83012728483E+01 -0.10396277118E+01  0.29738246102E+02  0.00000000000E+00 0. -1.
</event>
<event>
 7    1  0.2710146E-013  0.7246151E+02  0.7816164E-02  0.1226708E+00
        -11   -1    0    0    0    0  0.00000000000E+00  0.00000000000E+00  0.45593999997E+02  0.45594000000E+02  0.51100000000E-03 0. -1.
         11   -1    0    0    0    0 -0.00000000000E+00 -0.00000000000E+00 -0.45593999997E+02  0.45594000000E+02  0.51100000000E-03 0.  1.
    9900012    2    1    2    0    0 -0.67108044951E+01  0.72996490690E+01  0.15885896059E+02  0.72461508949E+02  0.69999920086E+02 0.  0.
        -12    1    1    2    0    0  0.67108044951E+01 -0.72996490690E+01 -0.15885896059E+02  0.18726491051E+02  0.00000000000E+00 0.  1.
         11    1    3    3    0    0 -0.13948292140E+02  0.11777228620E+02 -0.23979753337E+02  0.30137792520E+02  0.51100000000E-03 0.  1.
        -11    1    3    3    0    0 -0.23270397499E+01  0.83755789542E+00  0.14338583864E+02  0.14550312874E+02  0.51100000000E-03 0. -1.
        -12    1    3    3    0    0  0.95645273951E+01 -0.53151374464E+01  0.25527065532E+02  0.27773403555E+02  0.00000000000E+00 0.  1.
</event>
<event>
 7    1  0.2710146E-013  0.7246156E+02  0.7816164E-02  0.1226708E+00
        -11   -1    0    0    0    0  0.00000000000E+00  0.00000000000E+00  0.45593999997E+02  0.45594000000E+02  0.51100000000E-03 0.  1.
         11   -1    0    0    0    0 -0.00000000000E+00 -0.00000000000E+00 -0.45593999997E+02  0.45594000000E+02  0.51100000000E-03 0. -1.
    9900012    2    1    2    0    0  0.12762165528E+02  0.11380545858E+02 -0.76347832292E+01  0.72461558588E+02  0.69999984751E+02 0.  0.
        -12    1    1    2    0    0 -0.12762165528E+02 -0.11380545858E+02  0.76347832292E+01  0.18726441412E+02  0.00000000000E+00 0.  1.
         11    1    3    3    0    0  0.29756749893E+01 -0.10829093503E+02  0.83555825622E+01  0.13997845118E+02  0.51100000000E-03 0. -1.
        -11    1    3    3    0    0 -0.63296472022E+01 -0.72407472147E+01  0.11558014667E+02  0.15035975433E+02  0.51100000000E-03 0.  1.
         12    1    3    3    0    0  0.16116137741E+02  0.29450386575E+02 -0.27548380458E+02  0.43427738037E+02  0.00000000000E+00 0. -1.
</event>
<event>
 7    1  0.2710146E-013  0.7246154E+02  0.7816164E-02  0.1226708E+00
        -11   -1    0    0    0    0  0.00000000000E+00  0.00000000000E+00  0.45593999997E+02  0.45594000000E+02  0.51100000000E-03 0.  1.
         11   -1    0    0    0    0 -0.00000000000E+00 -0.00000000000E+00 -0.45593999997E+02  0.45594000000E+02  0.51100000000E-03 0. -1.
    9900012    2    1    2    0    0  0.58068686648E+01  0.85220308998E+01 -0.15631235872E+02  0.72461540932E+02  0.69999961750E+02 0.  0.
        -12    1    1    2    0    0 -0.58068686648E+01 -0.85220308998E+01  0.15631235872E+02  0.18726459068E+02  0.00000000000E+00 0.  1.
         11    1    3    3    0    0  0.22890503614E+01 -0.13291804575E+02  0.46218819737E+01  0.14257405573E+02  0.51100000000E-03 0. -1.
        -11    1    3    3    0    0  0.50980995464E+01  0.71375838153E+01  0.16450867232E+02  0.18643142295E+02  0.51100000000E-03 0.  1.
         12    1    3    3    0    0 -0.15802812430E+01  0.14676251660E+02 -0.36703985078E+02  0.39560993064E+02  0.00000000000E+00 0. -1.
</event>
<event>
 7    1  0.2710146E-013  0.7246158E+02  0.7816164E-02  0.1226708E+00
        -11   -1    0    0    0    0  0.00000000000E+00  0.00000000000E+00  0.45593999997E+02  0.45594000000E+02  0.51100000000E-03 0.  1.
         11   -1    0    0    0    0 -0.00000000000E+00 -0.00000000000E+00 -0.45593999997E+02  0.45594000000E+02  0.51100000000E-03 0. -1.
    9900012    2    1    2    0    0 -0.31911953462E+01 -0.52574667073E+01 -0.17687678511E+02  0.72461584031E+02  0.70000017895E+02 0.  0.
        -12    1    1    2    0    0  0.31911953462E+01  0.52574667073E+01  0.17687678511E+02  0.18726415969E+02  0.00000000000E+00 0.  1.
         11    1    3    3    0    0 -0.94609581418E+01 -0.11381016932E+02 -0.77782057159E+00  0.14820333346E+02  0.51100000000E-03 0. -1.
        -11    1    3    3    0    0 -0.16786991746E+02 -0.98761108865E+01  0.70772338298E+01  0.20722642136E+02  0.51100000000E-03 0.  1.
         12    1    3    3    0    0  0.23056754542E+02  0.15999661112E+02 -0.23987091770E+02  0.36918608550E+02  0.00000000000E+00 0. -1.
</event>
<event>
 7    1  0.2710146E-013  0.7246149E+02  0.7816164E-02  0.1226708E+00
        -11   -1    0    0    0    0  0.00000000000E+00  0.00000000000E+00  0.45593999997E+02  0.45594000000E+02  0.51100000000E-03 0. -1.
         11   -1    0    0    0    0 -0.00000000000E+00 -0.00000000000E+00 -0.45593999997E+02  0.45594000000E+02  0.51100000000E-03 0.  1.
    9900012    2    1    2    0    0  0.16902004480E+02  0.78556972412E+01  0.18145085280E+01  0.72461490026E+02  0.69999895436E+02 0.  0.
        -12    1    1    2    0    0 -0.16902004480E+02 -0.78556972412E+01 -0.18145085280E+01  0.18726509974E+02  0.00000000000E+00 0.  1.
         11    1    3    3    0    0  0.36840066263E+02 -0.67527712495E+01 -0.16855778217E+01  0.37491753422E+02  0.51100000000E-03 0. -1.
        -11    1    3    3    0    0 -0.13919826799E+02 -0.40031078066E+01  0.50716872796E+01  0.15346284969E+02  0.51100000000E-03 0.  1.
        -12    1    3    3    0    0 -0.60182349839E+01  0.18611576297E+02 -0.15716009299E+01  0.19623451635E+02  0.00000000000E+00 0.  1.
</event>
<event>
 7    1  0.2710146E-013  0.7246155E+02  0.7816164E-02  0.1226708E+00
        -11   -1    0    0    0    0  0.00000000000E+00  0.00000000000E+00  0.45593999997E+02  0.45594000000E+02  0.51100000000E-03 0.  1.
         11   -1    0    0    0    0 -0.00000000000E+00 -0.00000000000E+00 -0.45593999997E+02  0.45594000000E+02  0.51100000000E-03 0. -1.
    9900012    2    1    2    0    0 -0.10676396189E+02 -0.10174919257E+02 -0.11539740539E+02  0.72461547341E+02  0.69999970099E+02 0.  0.
        -12    1    1    2    0    0  0.10676396189E+02  0.10174919257E+02  0.11539740539E+02  0.18726452659E+02  0.00000000000E+00 0.  1.
         11    1    3    3    0    0 -0.25001560354E+02 -0.91623159798E+01 -0.33165963104E+01  0.26833297703E+02  0.51100000000E-03 0.  1.
        -11    1    3    3    0    0  0.65918150339E+01  0.10130194417E+02  0.14676977477E+02  0.19012799175E+02  0.51100000000E-03 0. -1.
         12    1    3    3    0    0  0.77333491307E+01 -0.11142797694E+02 -0.22900121706E+02  0.26615450463E+02  0.00000000000E+00 0. -1.
</event>
<event>
 7    1  0.2710146E-013  0.7246155E+02  0.7816164E-02  0.1226708E+00
        -11   -1    0    0    0    0  0.00000000000E+00  0.00000000000E+00  0.45593999997E+02  0.45594000000E+02  0.51100000000E-03 0. -1.
         11   -1    0    0    0    0 -0.00000000000E+00 -0.00000000000E+00 -0.45593999997E+02  0.45594000000E+02  0.51100000000E-03 0.  1.
    9900012    2    1    2    0    0  0.16398689309E+01  0.16234659910E+02  0.91883842865E+01  0.72461554574E+02  0.69999979521E+02 0.  0.
        -12    1    1    2    0    0 -0.16398689309E+01 -0.16234659910E+02 -0.91883842865E+01  0.18726445426E+02  0.00000000000E+00 0.  1.
         11    1    3    3    0    0  0.17763622108E+02 -0.43099775807E+01  0.27964951218E+02  0.33408990916E+02  0.51100000000E-03 0. -1.
        -11    1    3    3    0    0  0.30749249416E+01  0.91613878982E+01  0.33369076234E+00  0.96694126711E+01  0.51100000000E-03 0.  1.
         12    1    3    3    0    0 -0.19198678119E+02  0.11383249593E+02 -0.19110257694E+02  0.29383150987E+02  0.00000000000E+00 0. -1.
</event>
<event>
 7    1  0.2710146E-013  0.7246160E+02  0.7816164E-02  0.1226708E+00
        -11   -1    0    0    0    0  0.00000000000E+00  0.00000000000E+00  0.45593999997E+02  0.45594000000E+02  0.51100000000E-03 0.  1.
         11   -1    0    0    0    0 -0.00000000000E+00 -0.00000000000E+00 -0.45593999997E+02  0.45594000000E+02  0.51100000000E-03 0. -1.
    9900012    2    1    2    0    0  0.12349464656E+02 -0.53905391776E+01 -0.13004270563E+02  0.72461595038E+02  0.70000032234E+02 0.  0.
        -12    1    1    2    0    0 -0.12349464656E+02  0.53905391776E+01  0.13004270563E+02  0.18726404962E+02  0.00000000000E+00 0.  1.
         11    1    3    3    0    0  0.47451140255E+01  0.66069347532E+01  0.19362618735E+01  0.83616268903E+01  0.51100000000E-03 0. -1.
        -11    1    3    3    0    0 -0.12690677467E+01  0.18121475484E+02  0.12783591777E+02  0.22213028286E+02  0.51100000000E-03 0.  1.
         12    1    3    3    0    0  0.88734183773E+01 -0.30118949415E+02 -0.27724124213E+02  0.41886939862E+02  0.00000000000E+00 0. -1.
</event>
<event>
 7    1  0.2710146E-013  0.7246154E+02  0.7816164E-02  0.1226708E+00
        -11   -1    0    0    0    0  0.00000000000E+00  0.00000000000E+00  0.45593999997E+02  0.45594000000E+02  0.51100000000E-03 0. -1.
         11   -1    0    0    0    0 -0.00000000000E+00 -0.00000000000E+00 -0.45593999997E+02  0.45594000000E+02  0.51100000000E-03 0.  1.
    9900012    2    1    2    0    0 -0.14512725287E+02  0.11611775785E+02  0.22864557419E+01  0.72461537119E+02  0.69999956784E+02 0.  0.
        -12    1    1    2    0    0  0.14512725287E+02 -0.11611775785E+02 -0.22864557419E+01  0.18726462881E+02  0.00000000000E+00 0.  1.
         11    1    3    3    0    0 -0.25854466772E+02 -0.90142254730E+01 -0.11603733720E+02  0.29738129555E+02  0.51100000000E-03 0. -1.
        -11    1    3    3    0    0  0.85390504978E+01  0.58082413900E+01 -0.10062410544E+02  0.14418847307E+02  0.51100000000E-03 0.  1.
        -12    1    3    3    0    0  0.28026909863E+01  0.14817759868E+02  0.23952600006E+02  0.28304560257E+02  0.00000000000E+00 0.  1.
</event>
<event>
 7    1  0.2710146E-013  0.7246161E+02  0.7816164E-02  0.1226708E+00
        -11   -1    0    0    0    0  0.00000000000E+00  0.00000000000E+00  0.45593999997E+02  0.45594000000E+02  0.51100000000E-03 0.  1.
         11   -1    0    0    0    0 -0.00000000000E+00 -0.00000000000E+00 -0.45593999997E+02  0.45594000000E+02  0.51100000000E-03 0. -1.
    9900012    2    1    2    0    0  0.17103731192E+02  0.52031012569E+01 -0.55738469646E+01  0.72461610776E+02  0.70000052735E+02 0.  0.
        -12    1    1    2    0    0 -0.17103731192E+02 -0.52031012569E+01  0.55738469646E+01  0.18726389224E+02  0.00000000000E+00 0.  1.
         11    1    3    3    0    0  0.75479351353E+01  0.36636408484E+02 -0.68015377406E+01  0.38019188147E+02  0.51100000000E-03 0. -1.
        -11    1    3    3    0    0  0.18629972626E+01 -0.41160562571E+01 -0.34436180829E+01  0.56807731582E+01  0.51100000000E-03 0.  1.
        -12    1    3    3    0    0  0.76927987940E+01 -0.27317250970E+02  0.46713088589E+01  0.28761649471E+02  0.00000000000E+00 0.  1.
</event>
<event>
 7    1  0.2710146E-013  0.7246136E+02  0.7816164E-02  0.1226709E+00
        -11   -1    0    0    0    0  0.00000000000E+00  0.00000000000E+00  0.45593999997E+02  0.45594000000E+02  0.51100000000E-03 0. -1.
         11   -1    0    0    0    0 -0.00000000000E+00 -0.00000000000E+00 -0.45593999997E+02  0.45594000000E+02  0.51100000000E-03 0.  1.
    9900012    2    1    2    0    0  0.50294820572E+01 -0.16681436770E+02  0.68644651942E+01  0.72461363760E+02  0.69999730950E+02 0.  0.
        -12    1    1    2    0    0 -0.50294820572E+01  0.16681436770E+02 -0.68644651942E+01  0.18726636240E+02  0.00000000000E+00 0.  1.
         11    1    3    3    0    0  0.17981949877E+02  0.76679934031E+00 -0.11052722160E+02  0.21121107216E+02  0.51100000000E-03 0. -1.
        -11    1    3    3    0    0  0.54508744426E+01 -0.91755002679E+01 -0.11486530526E+02  0.15679356528E+02  0.51100000000E-03 0.  1.
         12    1    3    3    0    0 -0.18403342263E+02 -0.82727358421E+01  0.29403717880E+02  0.35660900016E+02  0.00000000000E+00 0. -1.
</event>
<event>
 7    1  0.2710146E-013  0.7246154E+02  0.7816164E-02  0.1226708E+00
        -11   -1    0    0    0    0  0.00000000000E+00  0.00000000000E+00  0.45593999997E+02  0.45594000000E+02  0.51100000000E-03 0.  1.
         11   -1    0    0    0    0 -0.00000000000E+00 -0.00000000000E+00 -0.45593999997E+02  0.45594000000E+02  0.51100000000E-03 0. -1.
    9900012    2    1    2    0    0  0.96458569410E+01  0.12029520023E+02  0.10626769281E+02  0.72461544557E+02  0.69999966472E+02 0.  0.
        -12    1    1    2    0    0 -0.96458569410E+01 -0.12029520023E+02 -0.10626769281E+02  0.18726455443E+02  0.00000000000E+00 0.  1.
         11    1    3    3    0    0 -0.35044087716E+00 -0.42317826942E+01 -0.45635136375E+00  0.42707201275E+01  0.51100000000E-03 0. -1.
        -11    1    3    3    0    0 -0.30397709083E+01 -0.11189292865E+01  0.35419703280E+02  0.35567507512E+02  0.51100000000E-03 0.  1.
         12    1    3    3    0    0  0.13036068726E+02  0.17380232004E+02 -0.24336582635E+02  0.32623316917E+02  0.00000000000E+00 0. -1.
</event>
<event>
 7    1  0.2710146E-013  0.7246156E+02  0.7816164E-02  0.1226708E+00
        -11   -1    0    0    0    0  0.00000000000E+00  0.00000000000E+00  0.45593999997E+02  0.45594000000E+02  0.51100000000E-03 0. -1.
         11   -1    0    0    0    0 -0.00000000000E+00 -0.00000000000E+00 -0.45593999997E+02  0.45594000000E+02  0.51100000000E-03 0.  1.
    9900012    2    1    2    0    0 -0.79236747431E-02 -0.28454225349E+01  0.18509001410E+02  0.72461558123E+02  0.69999984144E+02 0.  0.
        -12    1    1    2    0    0  0.79236747431E-02  0.28454225349E+01 -0.18509001410E+02  0.18726441877E+02  0.00000000000E+00 0.  1.
         11    1    3    3    0    0 -0.93344252658E+01  0.10895993822E+02  0.54411039966E+01  0.15344699065E+02  0.51100000000E-03 0. -1.
        -11    1    3    3    0    0 -0.85529345285E+01  0.51885266281E+01  0.26134373753E+02  0.27983548548E+02  0.51100000000E-03 0.  1.
        -12    1    3    3    0    0  0.17879436120E+02 -0.18929942985E+02 -0.13066476339E+02  0.29133310511E+02  0.00000000000E+00 0.  1.
</event>
<event>
 7    1  0.2710146E-013  0.7246156E+02  0.7816164E-02  0.1226708E+00
        -11   -1    0    0    0    0  0.00000000000E+00  0.00000000000E+00  0.45593999997E+02  0.45594000000E+02  0.51100000000E-03 0.  1.
         11   -1    0    0    0    0 -0.00000000000E+00 -0.00000000000E+00 -0.45593999997E+02  0.45594000000E+02  0.51100000000E-03 0. -1.
    9900012    2    1    2    0    0 -0.10203394342E+02  0.24465370126E+01 -0.15510793856E+02  0.72461560790E+02  0.69999987618E+02 0.  0.
        -12    1    1    2    0    0  0.10203394342E+02 -0.24465370126E+01  0.15510793856E+02  0.18726439210E+02  0.00000000000E+00 0.  1.
         11    1    3    3    0    0  0.60924618670E+01 -0.18008882352E+01  0.91082167671E+01  0.11104994506E+02  0.51100000000E-03 0. -1.
        -11    1    3    3    0    0 -0.11445374478E+02  0.14239802677E+02  0.12810866499E+02  0.22313378900E+02  0.51100000000E-03 0.  1.
         12    1    3    3    0    0 -0.48504817311E+01 -0.99923774292E+01 -0.37429877122E+02  0.39043187384E+02  0.00000000000E+00 0. -1.
</event>
<event>
 7    1  0.2710146E-013  0.7246169E+02  0.7816164E-02  0.1226708E+00
        -11   -1    0    0    0    0  0.00000000000E+00  0.00000000000E+00  0.45593999997E+02  0.45594000000E+02  0.51100000000E-03 0. -1.
         11   -1    0    0    0    0 -0.00000000000E+00 -0.00000000000E+00 -0.45593999997E+02  0.45594000000E+02  0.51100000000E-03 0.  1.
    9900012    2    1    2    0    0 -0.58200727002E+01 -0.15564890923E+02 -0.86334091728E+01  0.72461686171E+02  0.70000150950E+02 0.  0.
        -12    1    1    2    0    0  0.58200727002E+01  0.15564890923E+02  0.86334091728E+01  0.18726313829E+02  0.00000000000E+00 0.  1.
         11    1    3    3    0    0 -0.81049115589E+01  0.93598917145E+01  0.20493569560E+02  0.23943340574E+02  0.51100000000E-03 0. -1.
        -11    1    3    3    0    0  0.99881583248E+01 -0.14150764753E+02 -0.90655436356E+00  0.17344431120E+02  0.51100000000E-03 0.  1.
        -12    1    3    3    0    0 -0.77033194661E+01 -0.10774017885E+02 -0.28220424369E+02  0.31173914476E+02  0.00000000000E+00 0.  1.
</event>
<event>
 7    1  0.2710146E-013  0.7246156E+02  0.7816164E-02  0.1226708E+00
        -11   -1    0    0    0    0  0.00000000000E+00  0.00000000000E+00  0.45593999997E+02  0.45594000000E+02  0.51100000000E-03 0. -1.
         11   -1    0    0    0    0 -0.00000000000E+00 -0.00000000000E+00 -0.45593999997E+02  0.45594000000E+02  0.51100000000E-03 0.  1.
    9900012    2    1    2    0    0  0.98519807840E+01  0.10298588623E+02  0.12147303156E+02  0.72461563421E+02  0.69999991046E+02 0.  0.
        -12    1    1    2    0    0 -0.98519807840E+01 -0.10298588623E+02 -0.12147303156E+02  0.18726436579E+02  0.00000000000E+00 0.  1.
         11    1    3    3    0    0 -0.17559629999E+02  0.23903787504E+02  0.16470774801E+01  0.29705967872E+02  0.51100000000E-03 0. -1.
        -11    1    3    3    0    0 -0.27374343446E+01  0.50162202233E+01  0.32879420220E+01  0.65929185587E+01  0.51100000000E-03 0.  1.
        -12    1    3    3    0    0  0.30149045128E+02 -0.18621419104E+02  0.72122836536E+01  0.36162676990E+02  0.00000000000E+00 0.  1.
</event>
<event>
 7    1  0.2710146E-013  0.7246159E+02  0.7816164E-02  0.1226708E+00
        -11   -1    0    0    0    0  0.00000000000E+00  0.00000000000E+00  0.45593999997E+02  0.45594000000E+02  0.51100000000E-03 0.  1.
         11   -1    0    0    0    0 -0.00000000000E+00 -0.00000000000E+00 -0.45593999997E+02  0.45594000000E+02  0.51100000000E-03 0. -1.
    9900012    2    1    2    0    0  0.79854120195E+01 -0.11277452947E+02 -0.12638460904E+02  0.72461589662E+02  0.70000025231E+02 0.  0.
        -12    1    1    2    0    0 -0.79854120195E+01  0.11277452947E+02  0.12638460904E+02  0.18726410338E+02  0.00000000000E+00 0.  1.
         11    1    3    3    0    0  0.67611416704E+01 -0.36306457355E+02 -0.44889054464E+01  0.37202448236E+02  0.51100000000E-03 0. -1.
        -11    1    3    3    0    0  0.40039306392E+01  0.87747377440E+01 -0.14644979270E+02  0.17535760637E+02  0.51100000000E-03 0.  1.
        -12    1    3    3    0    0 -0.27796602902E+01  0.16254266664E+02  0.64954238122E+01  0.17723380789E+02  0.00000000000E+00 0.  1.
</event>
<event>
 7    1  0.2710146E-013  0.7246178E+02  0.7816164E-02  0.1226707E+00
        -11   -1    0    0    0    0  0.00000000000E+00  0.00000000000E+00  0.45593999997E+02  0.45594000000E+02  0.51100000000E-03 0.  1.
         11   -1    0    0    0    0 -0.00000000000E+00 -0.00000000000E+00 -0.45593999997E+02  0.45594000000E+02  0.51100000000E-03 0. -1.
    9900012    2    1    2    0    0  0.16749251487E+02 -0.83740176460E+01  0.98820885247E-01  0.72461778746E+02  0.70000271546E+02 0.  0.
        -12    1    1    2    0    0 -0.16749251487E+02  0.83740176460E+01 -0.98820885247E-01  0.18726221254E+02  0.00000000000E+00 0.  1.
         11    1    3    3    0    0 -0.28564107843E+01 -0.10801435749E+02  0.49179708397E+00  0.11183557638E+02  0.51100000000E-03 0. -1.
        -11    1    3    3    0    0  0.30049172367E+02 -0.15586933224E+02  0.13285203542E+02  0.36364844021E+02  0.51100000000E-03 0.  1.
         12    1    3    3    0    0 -0.10443510096E+02  0.18014351327E+02 -0.13678179741E+02  0.24913377087E+02  0.00000000000E+00 0. -1.
</event>
<event>
 7    1  0.2710146E-013  0.7246157E+02  0.7816164E-02  0.1226708E+00
        -11   -1    0    0    0    0  0.00000000000E+00  0.00000000000E+00  0.45593999997E+02  0.45594000000E+02  0.51100000000E-03 0.  1.
         11   -1    0    0    0    0 -0.00000000000E+00 -0.00000000000E+00 -0.45593999997E+02  0.45594000000E+02  0.51100000000E-03 0. -1.
    9900012    2    1    2    0    0  0.19226930667E+01 -0.18602500865E+02  0.96396155912E+00  0.72461574581E+02  0.70000005585E+02 0.  0.
        -12    1    1    2    0    0 -0.19226930667E+01  0.18602500865E+02 -0.96396155912E+00  0.18726425419E+02  0.00000000000E+00 0.  1.
         11    1    3    3    0    0  0.14820423923E+02 -0.77332942167E+01 -0.25623153450E+02  0.30594032060E+02  0.51100000000E-03 0. -1.
        -11    1    3    3    0    0 -0.13279541947E+02 -0.46808194428E+01 -0.49075386624E+00  0.14088901469E+02  0.51100000000E-03 0.  1.
        -12    1    3    3    0    0  0.38181109120E+00 -0.61883872057E+01  0.27077868875E+02  0.27778641053E+02  0.00000000000E+00 0.  1.
</event>
<event>
 7    1  0.2710146E-013  0.7246209E+02  0.7816164E-02  0.1226707E+00
        -11   -1    0    0    0    0  0.00000000000E+00  0.00000000000E+00  0.45593999997E+02  0.45594000000E+02  0.51100000000E-03 0.  1.
         11   -1    0    0    0    0 -0.00000000000E+00 -0.00000000000E+00 -0.45593999997E+02  0.45594000000E+02  0.51100000000E-03 0. -1.
    9900012    2    1    2    0    0 -0.58701306981E+01  0.57079820430E+01 -0.16841030846E+02  0.72462087115E+02  0.70000673252E+02 0.  0.
        -12    1    1    2    0    0  0.58701306981E+01 -0.57079820430E+01  0.16841030846E+02  0.18725912885E+02  0.00000000000E+00 0.  1.
         11    1    3    3    0    0 -0.26262351160E+02  0.22608930031E+01 -0.24327125862E+02  0.35869649825E+02  0.51100000000E-03 0. -1.
        -11    1    3    3    0    0  0.32609455808E+01 -0.77574127886E+01 -0.74608901004E+01  0.11246159371E+02  0.51100000000E-03 0.  1.
        -12    1    3    3    0    0  0.17131274881E+02  0.11204501828E+02  0.14946985116E+02  0.25346277919E+02  0.00000000000E+00 0.  1.
</event>
<event>
 7    1  0.2710146E-013  0.7246152E+02  0.7816164E-02  0.1226708E+00
        -11   -1    0    0    0    0  0.00000000000E+00  0.00000000000E+00  0.45593999997E+02  0.45594000000E+02  0.51100000000E-03 0.  1.
         11   -1    0    0    0    0 -0.00000000000E+00 -0.00000000000E+00 -0.45593999997E+02  0.45594000000E+02  0.51100000000E-03 0. -1.
    9900012    2    1    2    0    0  0.70545684015E+01 -0.57632595931E+01 -0.16361503634E+02  0.72461524154E+02  0.69999939893E+02 0.  0.
        -12    1    1    2    0    0 -0.70545684015E+01  0.57632595931E+01  0.16361503634E+02  0.18726475846E+02  0.00000000000E+00 0.  1.
         11    1    3    3    0    0 -0.20184985191E+01  0.99817086092E+01 -0.74962837022E+01  0.12645280251E+02  0.51100000000E-03 0. -1.
        -11    1    3    3    0    0  0.85701249230E+01  0.18623183744E+02  0.73935002717E+01  0.21792977321E+02  0.51100000000E-03 0.  1.
        -12    1    3    3    0    0  0.50294199769E+00 -0.34368151947E+02 -0.16258720203E+02  0.38023266581E+02  0.00000000000E+00 0.  1.
</event>
<event>
 7    1  0.2710146E-013  0.7246148E+02  0.7816164E-02  0.1226708E+00
        -11   -1    0    0    0    0  0.00000000000E+00  0.00000000000E+00  0.45593999997E+02  0.45594000000E+02  0.51100000000E-03 0.  1.
         11   -1    0    0    0    0 -0.00000000000E+00 -0.00000000000E+00 -0.45593999997E+02  0.45594000000E+02  0.51100000000E-03 0. -1.
    9900012    2    1    2    0    0  0.12503663191E+02  0.82592721633E+00 -0.13916129244E+02  0.72461483984E+02  0.69999887565E+02 0.  0.
        -12    1    1    2    0    0 -0.12503663191E+02 -0.82592721633E+00  0.13916129244E+02  0.18726516016E+02  0.00000000000E+00 0.  1.
         11    1    3    3    0    0 -0.65242997360E+01 -0.81184724188E+01 -0.91343691780E+01  0.13853258895E+02  0.51100000000E-03 0. -1.
        -11    1    3    3    0    0  0.50722265812E+01 -0.22974070005E+02 -0.31109528289E+01  0.23732117538E+02  0.51100000000E-03 0.  1.
        -12    1    3    3    0    0  0.13955736346E+02  0.31918469640E+02 -0.16708072369E+01  0.34876107551E+02  0.00000000000E+00 0.  1.
</event>
<event>
 7    1  0.2710146E-013  0.7246157E+02  0.7816164E-02  0.1226708E+00
        -11   -1    0    0    0    0  0.00000000000E+00  0.00000000000E+00  0.45593999997E+02  0.45594000000E+02  0.51100000000E-03 0.  1.
         11   -1    0    0    0    0 -0.00000000000E+00 -0.00000000000E+00 -0.45593999997E+02  0.45594000000E+02  0.51100000000E-03 0. -1.
    9900012    2    1    2    0    0  0.40917487085E+01 -0.11643175071E+02 -0.14084508328E+02  0.72461566595E+02  0.69999995182E+02 0.  0.
        -12    1    1    2    0    0 -0.40917487085E+01  0.11643175071E+02  0.14084508328E+02  0.18726433405E+02  0.00000000000E+00 0.  1.
         11    1    3    3    0    0  0.17645841498E+02  0.11611552129E+02 -0.29299311669E+02  0.36119987950E+02  0.51100000000E-03 0. -1.
        -11    1    3    3    0    0 -0.75316111130E+01  0.37988728992E+00  0.78003012724E+01  0.10849616607E+02  0.51100000000E-03 0.  1.
        -12    1    3    3    0    0 -0.60224816765E+01 -0.23634614490E+02  0.74145020686E+01  0.25491962038E+02  0.00000000000E+00 0.  1.
</event>
<event>
 7    1  0.2710146E-013  0.7246158E+02  0.7816164E-02  0.1226708E+00
        -11   -1    0    0    0    0  0.00000000000E+00  0.00000000000E+00  0.45593999997E+02  0.45594000000E+02  0.51100000000E-03 0.  1.
         11   -1    0    0    0    0 -0.00000000000E+00 -0.00000000000E+00 -0.45593999997E+02  0.45594000000E+02  0.51100000000E-03 0. -1.
    9900012    2    1    2    0    0  0.11931802596E+02 -0.13378495533E+02 -0.54154058853E+01  0.72461583449E+02  0.70000017136E+02 0.  0.
        -12    1    1    2    0    0 -0.11931802596E+02  0.13378495533E+02  0.54154058853E+01  0.18726416551E+02  0.00000000000E+00 0.  1.
         11    1    3    3    0    0 -0.55540219437E+01 -0.30265781465E+01 -0.28732784252E+01  0.69471623126E+01  0.51100000000E-03 0. -1.
        -11    1    3    3    0    0 -0.62457735816E+01 -0.32335419599E+02  0.11644562517E+01  0.32953679718E+02  0.51100000000E-03 0.  1.
         12    1    3    3    0    0  0.23731598122E+02  0.21983502212E+02 -0.37065837118E+01  0.32560741419E+02  0.00000000000E+00 0. -1.
</event>
<event>
 7    1  0.2710146E-013  0.7246159E+02  0.7816164E-02  0.1226708E+00
        -11   -1    0    0    0    0  0.00000000000E+00  0.00000000000E+00  0.45593999997E+02  0.45594000000E+02  0.51100000000E-03 0. -1.
         11   -1    0    0    0    0 -0.00000000000E+00 -0.00000000000E+00 -0.45593999997E+02  0.45594000000E+02  0.51100000000E-03 0.  1.
    9900012    2    1    2    0    0  0.15294436941E+02  0.34638088069E+01 -0.10235269711E+02  0.72461587668E+02  0.70000022632E+02 0.  0.
        -12    1    1    2    0    0 -0.15294436941E+02 -0.34638088069E+01  0.10235269711E+02  0.18726412332E+02  0.00000000000E+00 0.  1.
         11    1    3    3    0    0 -0.47401701038E+01 -0.81405325743E+01 -0.20629676715E+02  0.22678647332E+02  0.51100000000E-03 0. -1.
        -11    1    3    3    0    0 -0.37667811043E+01 -0.13545021210E+02  0.30566175178E+01  0.14387465043E+02  0.51100000000E-03 0.  1.
         12    1    3    3    0    0  0.23801388149E+02  0.25149362591E+02  0.73377894867E+01  0.35395475292E+02  0.00000000000E+00 0. -1.
</event>
<event>
 7    1  0.2710146E-013  0.7246158E+02  0.7816164E-02  0.1226708E+00
        -11   -1    0    0    0    0  0.00000000000E+00  0.00000000000E+00  0.45593999997E+02  0.45594000000E+02  0.51100000000E-03 0.  1.
         11   -1    0    0    0    0 -0.00000000000E+00 -0.00000000000E+00 -0.45593999997E+02  0.45594000000E+02  0.51100000000E-03 0. -1.
    9900012    2    1    2    0    0 -0.16387146840E+02  0.44402084149E+01 -0.79009296378E+01  0.72461582257E+02  0.70000015584E+02 0.  0.
        -12    1    1    2    0    0  0.16387146840E+02 -0.44402084149E+01  0.79009296378E+01  0.18726417743E+02  0.00000000000E+00 0.  1.
         11    1    3    3    0    0  0.12889041978E+02  0.17634958503E+01 -0.83900357341E+00  0.13036151578E+02  0.51100000000E-03 0. -1.
        -11    1    3    3    0    0 -0.62264120362E+01 -0.10677262189E+02  0.18668431383E+02  0.22389338205E+02  0.51100000000E-03 0.  1.
         12    1    3    3    0    0 -0.23049776782E+02  0.13353974753E+02 -0.25730357447E+02  0.37036092474E+02  0.00000000000E+00 0. -1.
</event>
<event>
 7    1  0.2710146E-013  0.7246159E+02  0.7816164E-02  0.1226708E+00
        -11   -1    0    0    0    0  0.00000000000E+00  0.00000000000E+00  0.45593999997E+02  0.45594000000E+02  0.51100000000E-03 0.  1.
         11   -1    0    0    0    0 -0.00000000000E+00 -0.00000000000E+00 -0.45593999997E+02  0.45594000000E+02  0.51100000000E-03 0. -1.
    9900012    2    1    2    0    0 -0.37810020876E+01 -0.17978160358E+02 -0.36287897852E+01  0.72461592391E+02  0.70000028785E+02 0.  0.
        -12    1    1    2    0    0  0.37810020876E+01  0.17978160358E+02  0.36287897852E+01  0.18726407609E+02  0.00000000000E+00 0.  1.
         11    1    3    3    0    0 -0.18624166546E+02 -0.28555803575E+02 -0.26660393073E+01  0.34196509518E+02  0.51100000000E-03 0. -1.
        -11    1    3    3    0    0 -0.10316543950E+02  0.52195275455E+01 -0.42791752965E+01  0.12328255690E+02  0.51100000000E-03 0.  1.
        -12    1    3    3    0    0  0.25159708408E+02  0.53581156720E+01  0.33164248187E+01  0.25936827183E+02  0.00000000000E+00 0.  1.
</event>
<event>
 7    1  0.2710146E-013  0.7246157E+02  0.7816164E-02  0.1226708E+00
        -11   -1    0    0    0    0  0.00000000000E+00  0.00000000000E+00  0.45593999997E+02  0.45594000000E+02  0.51100000000E-03 0. -1.
         11   -1    0    0    0    0 -0.00000000000E+00 -0.00000000000E+00 -0.45593999997E+02  0.45594000000E+02  0.51100000000E-03 0.  1.
    9900012    2    1    2    0    0  0.14196954494E+02 -0.78376186094E+01  0.93646941519E+01  0.72461567373E+02  0.69999996195E+02 0.  0.
        -12    1    1    2    0    0 -0.14196954494E+02  0.78376186094E+01 -0.93646941519E+01  0.18726432627E+02  0.00000000000E+00 0.  1.
         11    1    3    3    0    0  0.22203439262E+02  0.69769087375E+01  0.20799171647E+02  0.31213386745E+02  0.51100000000E-03 0. -1.
        -11    1    3    3    0    0 -0.28407719165E+01 -0.17660138197E+02  0.89687228592E+01  0.20009709048E+02  0.51100000000E-03 0.  1.
        -12    1    3    3    0    0 -0.51657128520E+01  0.28456108497E+01 -0.20403200354E+02  0.21238471581E+02  0.00000000000E+00 0.  1.
</event>
<event>
 7    1  0.2710146E-013  0.7246153E+02  0.7816164E-02  0.1226708E+00
        -11   -1    0    0    0    0  0.00000000000E+00  0.00000000000E+00  0.45593999997E+02  0.45594000000E+02  0.51100000000E-03 0.  1.
         11   -1    0    0    0    0 -0.00000000000E+00 -0.00000000000E+00 -0.45593999997E+02  0.45594000000E+02  0.51100000000E-03 0. -1.
    9900012    2    1    2    0    0 -0.98245211883E+01  0.10322229696E+02 -0.12149532183E+02  0.72461527435E+02  0.69999944168E+02 0.  0.
        -12    1    1    2    0    0  0.98245211883E+01 -0.10322229696E+02  0.12149532183E+02  0.18726472565E+02  0.00000000000E+00 0.  1.
         11    1    3    3    0    0 -0.35998266352E+02  0.64276161043E+01 -0.53604490586E+01  0.36958406939E+02  0.51100000000E-03 0. -1.
        -11    1    3    3    0    0  0.12636173121E+00 -0.45471587912E+01 -0.67284472649E+01  0.81218608223E+01  0.51100000000E-03 0.  1.
        -12    1    3    3    0    0  0.26047383432E+02  0.84417723825E+01 -0.60635859154E-01  0.27381259674E+02  0.00000000000E+00 0.  1.
</event>
<event>
 7    1  0.2710146E-013  0.7246157E+02  0.7816164E-02  0.1226708E+00
        -11   -1    0    0    0    0  0.00000000000E+00  0.00000000000E+00  0.45593999997E+02  0.45594000000E+02  0.51100000000E-03 0.  1.
         11   -1    0    0    0    0 -0.00000000000E+00 -0.00000000000E+00 -0.45593999997E+02  0.45594000000E+02  0.51100000000E-03 0. -1.
    9900012    2    1    2    0    0  0.18059296075E+02 -0.33257905220E+01 -0.36715457564E+01  0.72461566662E+02  0.69999995268E+02 0.  0.
        -12    1    1    2    0    0 -0.18059296075E+02  0.33257905220E+01  0.36715457564E+01  0.18726433338E+02  0.00000000000E+00 0.  1.
         11    1    3    3    0    0  0.66514855980E+01  0.12856932622E+02  0.82610542553E+01  0.16666973174E+02  0.51100000000E-03 0. -1.
        -11    1    3    3    0    0  0.19538004904E+02  0.12600693370E+02 -0.11368629663E+02  0.25879660927E+02  0.51100000000E-03 0.  1.
        -12    1    3    3    0    0 -0.81301944270E+01 -0.28783416513E+02 -0.56397034899E+00  0.29914932561E+02  0.00000000000E+00 0.  1.
</event>
<event>
 7    1  0.2710146E-013  0.7246158E+02  0.7816164E-02  0.1226708E+00
        -11   -1    0    0    0    0  0.00000000000E+00  0.00000000000E+00  0.45593999997E+02  0.45594000000E+02  0.51100000000E-03 0. -1.
         11   -1    0    0    0    0 -0.00000000000E+00 -0.00000000000E+00 -0.45593999997E+02  0.45594000000E+02  0.51100000000E-03 0.  1.
    9900012    2    1    2    0    0  0.11480295181E+02  0.66537093585E+01  0.13213999113E+02  0.72461580208E+02  0.70000012914E+02 0.  0.
        -12    1    1    2    0    0 -0.11480295181E+02 -0.66537093585E+01 -0.13213999113E+02  0.18726419792E+02  0.00000000000E+00 0.  1.
         11    1    3    3    0    0  0.29572370808E+01 -0.15602770875E+02  0.47224209781E+01  0.16567829377E+02  0.51100000000E-03 0. -1.
        -11    1    3    3    0    0  0.76841350864E+01 -0.12634819818E+02  0.14231347040E+02  0.20523543620E+02  0.51100000000E-03 0.  1.
        -12    1    3    3    0    0  0.83892301359E+00  0.34891300051E+02 -0.57397689054E+01  0.35370207211E+02  0.00000000000E+00 0.  1.
</event>
<event>
 7    1  0.2710146E-013  0.7246157E+02  0.7816164E-02  0.1226708E+00
        -11   -1    0    0    0    0  0.00000000000E+00  0.00000000000E+00  0.45593999997E+02  0.45594000000E+02  0.51100000000E-03 0.  1.
         11   -1    0    0    0    0 -0.00000000000E+00 -0.00000000000E+00 -0.45593999997E+02  0.45594000000E+02  0.51100000000E-03 0. -1.
    9900012    2    1    2    0    0 -0.17766788046E+02 -0.53925116888E+01 -0.24374366880E+01  0.72461573822E+02  0.70000004596E+02 0.  0.
        -12    1    1    2    0    0  0.17766788046E+02  0.53925116888E+01  0.24374366880E+01  0.18726426178E+02  0.00000000000E+00 0.  1.
         11    1    3    3    0    0 -0.16072645985E+02  0.76556060678E+01  0.24707912091E+01  0.17973398752E+02  0.51100000000E-03 0. -1.
        -11    1    3    3    0    0 -0.24777750185E+02 -0.17869789241E+02 -0.86063875585E+00  0.30561527630E+02  0.51100000000E-03 0.  1.
         12    1    3    3    0    0  0.23083608124E+02  0.48216714841E+01 -0.40475891412E+01  0.23926647441E+02  0.00000000000E+00 0. -1.
</event>
<event>
 7    1  0.2710146E-013  0.7246157E+02  0.7816164E-02  0.1226708E+00
        -11   -1    0    0    0    0  0.00000000000E+00  0.00000000000E+00  0.45593999997E+02  0.45594000000E+02  0.51100000000E-03 0.  1.
         11   -1    0    0    0    0 -0.00000000000E+00 -0.00000000000E+00 -0.45593999997E+02  0.45594000000E+02  0.51100000000E-03 0. -1.
    9900012    2    1    2    0    0 -0.15559793957E+02  0.57963594335E+01  0.86587585155E+01  0.72461572960E+02  0.70000003472E+02 0.  0.
        -12    1    1    2    0    0  0.15559793957E+02 -0.57963594335E+01 -0.86587585155E+01  0.18726427040E+02  0.00000000000E+00 0.  1.
         11    1    3    3    0    0 -0.25714977196E+02 -0.57031559497E+01 -0.44795898351E+01  0.26718023230E+02  0.51100000000E-03 0. -1.
        -11    1    3    3    0    0  0.10648377578E+02 -0.11168795648E+02  0.16760310988E+02  0.22782404745E+02  0.51100000000E-03 0.  1.
         12    1    3    3    0    0 -0.49319433917E+00  0.22668311031E+02 -0.36219626372E+01  0.22961144985E+02  0.00000000000E+00 0. -1.
</event>
<event>
 7    1  0.2710146E-013  0.7246157E+02  0.7816164E-02  0.1226708E+00
        -11   -1    0    0    0    0  0.00000000000E+00  0.00000000000E+00  0.45593999997E+02  0.45594000000E+02  0.51100000000E-03 0. -1.
         11   -1    0    0    0    0 -0.00000000000E+00 -0.00000000000E+00 -0.45593999997E+02  0.45594000000E+02  0.51100000000E-03 0.  1.
    9900012    2    1    2    0    0 -0.12234704103E+02  0.13912132288E+02 -0.27283010766E+01  0.72461573858E+02  0.70000004642E+02 0.  0.
        -12    1    1    2    0    0  0.12234704103E+02 -0.13912132288E+02  0.27283010766E+01  0.18726426142E+02  0.00000000000E+00 0.  1.
         11    1    3    3    0    0  0.16848468580E+01  0.13552380550E+02  0.83125567219E+01  0.15987630438E+02  0.51100000000E-03 0. -1.
        -11    1    3    3    0    0  0.78241901083E+01  0.19886578094E+02 -0.16175057529E+02  0.26801612367E+02  0.51100000000E-03 0.  1.
         12    1    3    3    0    0 -0.21743741070E+02 -0.19526826356E+02  0.51341997309E+01  0.29672331053E+02  0.00000000000E+00 0. -1.
</event>
<event>
 7    1  0.2710146E-013  0.7246155E+02  0.7816164E-02  0.1226708E+00
        -11   -1    0    0    0    0  0.00000000000E+00  0.00000000000E+00  0.45593999997E+02  0.45594000000E+02  0.51100000000E-03 0.  1.
         11   -1    0    0    0    0 -0.00000000000E+00 -0.00000000000E+00 -0.45593999997E+02  0.45594000000E+02  0.51100000000E-03 0. -1.
    9900012    2    1    2    0    0 -0.10254938168E+01  0.10945546788E+02 -0.15159924754E+02  0.72461549439E+02  0.69999972833E+02 0.  0.
        -12    1    1    2    0    0  0.10254938168E+01 -0.10945546788E+02  0.15159924754E+02  0.18726450561E+02  0.00000000000E+00 0.  1.
         11    1    3    3    0    0 -0.10812323512E+02 -0.13160718988E+02 -0.16197786085E+02  0.23504874778E+02  0.51100000000E-03 0. -1.
        -11    1    3    3    0    0 -0.10273508826E+02  0.20876723532E+02 -0.10570082949E+02  0.25556001699E+02  0.51100000000E-03 0.  1.
        -12    1    3    3    0    0  0.20060338521E+02  0.32295422451E+01  0.11607944280E+02  0.23400672963E+02  0.00000000000E+00 0.  1.
</event>
<event>
 7    1  0.2710146E-013  0.7246175E+02  0.7816164E-02  0.1226708E+00
        -11   -1    0    0    0    0  0.00000000000E+00  0.00000000000E+00  0.45593999997E+02  0.45594000000E+02  0.51100000000E-03 0. -1.
         11   -1    0    0    0    0 -0.00000000000E+00 -0.00000000000E+00 -0.45593999997E+02  0.45594000000E+02  0.51100000000E-03 0.  1.
    9900012    2    1    2    0    0 -0.28462744064E+01  0.18269192060E+02  0.29678118345E+01  0.72461746675E+02  0.70000229768E+02 0.  0.
        -12    1    1    2    0    0  0.28462744064E+01 -0.18269192060E+02 -0.29678118345E+01  0.18726253325E+02  0.00000000000E+00 0.  1.
         11    1    3    3    0    0  0.18909528209E+02  0.26205959071E+01  0.19513746147E+02  0.27298792445E+02  0.51100000000E-03 0. -1.
        -11    1    3    3    0    0  0.30650952018E+01 -0.71212325778E+01 -0.61994407147E+01  0.99267228963E+01  0.51100000000E-03 0.  1.
         12    1    3    3    0    0 -0.24820897817E+02  0.22769828730E+02 -0.10346493598E+02  0.35236231334E+02  0.00000000000E+00 0. -1.
</event>
<event>
 7    1  0.2710146E-013  0.7246156E+02  0.7816164E-02  0.1226708E+00
        -11   -1    0    0    0    0  0.00000000000E+00  0.00000000000E+00  0.45593999997E+02  0.45594000000E+02  0.51100000000E-03 0. -1.
         11   -1    0    0    0    0 -0.00000000000E+00 -0.00000000000E+00 -0.45593999997E+02  0.45594000000E+02  0.51100000000E-03 0.  1.
    9900012    2    1    2    0    0  0.15527090150E+02  0.64485389429E+00  0.10448606385E+02  0.72461555050E+02  0.69999980142E+02 0.  0.
        -12    1    1    2    0    0 -0.15527090150E+02 -0.64485389429E+00 -0.10448606385E+02  0.18726444950E+02  0.00000000000E+00 0.  1.
         11    1    3    3    0    0  0.26429957739E+02 -0.46101959409E+01  0.24283489048E+02  0.36186798881E+02  0.51100000000E-03 0. -1.
        -11    1    3    3    0    0  0.76746531307E+01  0.29342822333E+01  0.50808986730E+01  0.96605302384E+01  0.51100000000E-03 0.  1.
        -12    1    3    3    0    0 -0.18577520719E+02  0.23207676018E+01 -0.18915781336E+02  0.26614225931E+02  0.00000000000E+00 0.  1.
</event>
<event>
 7    1  0.2710146E-013  0.7246161E+02  0.7816164E-02  0.1226708E+00
        -11   -1    0    0    0    0  0.00000000000E+00  0.00000000000E+00  0.45593999997E+02  0.45594000000E+02  0.51100000000E-03 0.  1.
         11   -1    0    0    0    0 -0.00000000000E+00 -0.00000000000E+00 -0.45593999997E+02  0.45594000000E+02  0.51100000000E-03 0. -1.
    9900012    2    1    2    0    0  0.24326080499E+01 -0.16668304320E+02 -0.81809389963E+01  0.72461609165E+02  0.70000050636E+02 0.  0.
        -12    1    1    2    0    0 -0.24326080499E+01  0.16668304320E+02  0.81809389963E+01  0.18726390835E+02  0.00000000000E+00 0.  1.
         11    1    3    3    0    0 -0.12234510501E+02 -0.39806941970E+01  0.32332004613E+01  0.13265849350E+02  0.51100000000E-03 0. -1.
        -11    1    3    3    0    0  0.28697957596E+01 -0.22805741476E+01  0.21978986844E+02  0.22282562893E+02  0.51100000000E-03 0.  1.
         12    1    3    3    0    0  0.11797322791E+02 -0.10407035976E+02 -0.33393126302E+02  0.36913196922E+02  0.00000000000E+00 0. -1.
</event>
<event>
 7    1  0.2710146E-013  0.7246156E+02  0.7816164E-02  0.1226708E+00
        -11   -1    0    0    0    0  0.00000000000E+00  0.00000000000E+00  0.45593999997E+02  0.45594000000E+02  0.51100000000E-03 0. -1.
         11   -1    0    0    0    0 -0.00000000000E+00 -0.00000000000E+00 -0.45593999997E+02  0.45594000000E+02  0.51100000000E-03 0.  1.
    9900012    2    1    2    0    0  0.75089105284E+00 -0.11560452622E+02  0.14712971247E+02  0.72461563470E+02  0.69999991110E+02 0.  0.
        -12    1    1    2    0    0 -0.75089105284E+00  0.11560452622E+02 -0.14712971247E+02  0.18726436530E+02  0.00000000000E+00 0.  1.
         11    1    3    3    0    0 -0.21894771806E+02 -0.24110901762E+02 -0.51518673072E+01  0.32973600853E+02  0.51100000000E-03 0. -1.
        -11    1    3    3    0    0 -0.23095631936E+00 -0.48646783239E+01  0.66481396746E+00  0.49153243930E+01  0.51100000000E-03 0.  1.
        -12    1    3    3    0    0  0.22876619179E+02  0.17415127464E+02  0.19200024587E+02  0.34572638224E+02  0.00000000000E+00 0.  1.
</event>
<event>
 7    1  0.2710146E-013  0.7246146E+02  0.7816164E-02  0.1226708E+00
        -11   -1    0    0    0    0  0.00000000000E+00  0.00000000000E+00  0.45593999997E+02  0.45594000000E+02  0.51100000000E-03 0.  1.
         11   -1    0    0    0    0 -0.00000000000E+00 -0.00000000000E+00 -0.45593999997E+02  0.45594000000E+02  0.51100000000E-03 0. -1.
    9900012    2    1    2    0    0  0.17982065689E+02  0.49544395364E+01  0.16679580528E+01  0.72461461568E+02  0.69999858364E+02 0.  0.
        -12    1    1    2    0    0 -0.17982065689E+02 -0.49544395364E+01 -0.16679580528E+01  0.18726538432E+02  0.00000000000E+00 0.  1.
         11    1    3    3    0    0  0.19508191820E+02 -0.37076210416E+01  0.33407208543E+01  0.20136445018E+02  0.51100000000E-03 0. -1.
        -11    1    3    3    0    0  0.19553893921E+02 -0.10808805875E+02  0.49275419049E+01  0.22879373274E+02  0.51100000000E-03 0.  1.
        -12    1    3    3    0    0 -0.21080020051E+02  0.19470866453E+02 -0.66003047065E+01  0.29445643277E+02  0.00000000000E+00 0.  1.
</event>
<event>
 7    1  0.2710146E-013  0.7246152E+02  0.7816164E-02  0.1226708E+00
        -11   -1    0    0    0    0  0.00000000000E+00  0.00000000000E+00  0.45593999997E+02  0.45594000000E+02  0.51100000000E-03 0.  1.
         11   -1    0    0    0    0 -0.00000000000E+00 -0.00000000000E+00 -0.45593999997E+02  0.45594000000E+02  0.51100000000E-03 0. -1.
    9900012    2    1    2    0    0  0.28405983109E+01 -0.14776927279E+02 -0.11146951524E+02  0.72461518568E+02  0.69999932616E+02 0.  0.
        -12    1    1    2    0    0 -0.28405983109E+01  0.14776927279E+02  0.11146951524E+02  0.18726481432E+02  0.00000000000E+00 0.  1.
         11    1    3    3    0    0 -0.20809680124E+02 -0.21882860396E+02 -0.45485123383E+01  0.30538358351E+02  0.51100000000E-03 0. -1.
        -11    1    3    3    0    0  0.44898686401E+01 -0.52529273291E+01  0.11089384870E+02  0.13066239818E+02  0.51100000000E-03 0.  1.
         12    1    3    3    0    0  0.19160409795E+02  0.12358860447E+02 -0.17687824056E+02  0.28856920398E+02  0.00000000000E+00 0. -1.
</event>
<event>
 7    1  0.2710146E-013  0.7246148E+02  0.7816164E-02  0.1226708E+00
        -11   -1    0    0    0    0  0.00000000000E+00  0.00000000000E+00  0.45593999997E+02  0.45594000000E+02  0.51100000000E-03 0.  1.
         11   -1    0    0    0    0 -0.00000000000E+00 -0.00000000000E+00 -0.45593999997E+02  0.45594000000E+02  0.51100000000E-03 0. -1.
    9900012    2    1    2    0    0  0.13207320524E+02 -0.10835775377E+02  0.76704195814E+01  0.72461476564E+02  0.69999877899E+02 0.  0.
        -12    1    1    2    0    0 -0.13207320524E+02  0.10835775377E+02 -0.76704195814E+01  0.18726523436E+02  0.00000000000E+00 0.  1.
         11    1    3    3    0    0  0.15036295945E+02 -0.19442723129E+01 -0.13195354815E+00  0.15162051397E+02  0.51100000000E-03 0. -1.
        -11    1    3    3    0    0  0.19468753018E+02  0.13571408029E+02 -0.41973751886E+01  0.24100485860E+02  0.51100000000E-03 0.  1.
         12    1    3    3    0    0 -0.21297728439E+02 -0.22462911093E+02  0.11999748318E+02  0.33198939307E+02  0.00000000000E+00 0. -1.
</event>
<event>
 7    1  0.2710146E-013  0.7246157E+02  0.7816164E-02  0.1226708E+00
        -11   -1    0    0    0    0  0.00000000000E+00  0.00000000000E+00  0.45593999997E+02  0.45594000000E+02  0.51100000000E-03 0.  1.
         11   -1    0    0    0    0 -0.00000000000E+00 -0.00000000000E+00 -0.45593999997E+02  0.45594000000E+02  0.51100000000E-03 0. -1.
    9900012    2    1    2    0    0 -0.97449487624E+01  0.37910582552E+01 -0.15535224376E+02  0.72461565596E+02  0.69999993879E+02 0.  0.
        -12    1    1    2    0    0  0.97449487624E+01 -0.37910582552E+01  0.15535224376E+02  0.18726434404E+02  0.00000000000E+00 0.  1.
         11    1    3    3    0    0 -0.13947536941E+02 -0.26948343721E+01 -0.11839441250E+02  0.18492384605E+02  0.51100000000E-03 0. -1.
        -11    1    3    3    0    0 -0.14394643653E+02 -0.52955765727E+01  0.17595988877E+02  0.23342401804E+02  0.51100000000E-03 0.  1.
         12    1    3    3    0    0  0.18597231832E+02  0.11781469200E+02 -0.21291772003E+02  0.30626779187E+02  0.00000000000E+00 0. -1.
</event>
<event>
 7    1  0.2710146E-013  0.7246160E+02  0.7816164E-02  0.1226708E+00
        -11   -1    0    0    0    0  0.00000000000E+00  0.00000000000E+00  0.45593999997E+02  0.45594000000E+02  0.51100000000E-03 0.  1.
         11   -1    0    0    0    0 -0.00000000000E+00 -0.00000000000E+00 -0.45593999997E+02  0.45594000000E+02  0.51100000000E-03 0. -1.
    9900012    2    1    2    0    0  0.10186202307E+02  0.99404395264E+01 -0.12169921567E+02  0.72461600283E+02  0.70000039066E+02 0.  0.
        -12    1    1    2    0    0 -0.10186202307E+02 -0.99404395264E+01  0.12169921567E+02  0.18726399717E+02  0.00000000000E+00 0.  1.
         11    1    3    3    0    0  0.28313216562E+02 -0.53204709755E+01 -0.27002662412E+02  0.39485306394E+02  0.51100000000E-03 0. -1.
        -11    1    3    3    0    0  0.83718502966E+00 -0.27009579356E+01  0.35103252926E+01  0.45075976378E+01  0.51100000000E-03 0.  1.
        -12    1    3    3    0    0 -0.18964199285E+02  0.17961868437E+02  0.11322415552E+02  0.28468696251E+02  0.00000000000E+00 0.  1.
</event>
<event>
 7    1  0.2710146E-013  0.7246150E+02  0.7816164E-02  0.1226708E+00
        -11   -1    0    0    0    0  0.00000000000E+00  0.00000000000E+00  0.45593999997E+02  0.45594000000E+02  0.51100000000E-03 0. -1.
         11   -1    0    0    0    0 -0.00000000000E+00 -0.00000000000E+00 -0.45593999997E+02  0.45594000000E+02  0.51100000000E-03 0.  1.
    9900012    2    1    2    0    0  0.50303186554E+01 -0.16105650538E+02  0.81231553961E+01  0.72461501699E+02  0.69999910642E+02 0.  0.
        -12    1    1    2    0    0 -0.50303186554E+01  0.16105650538E+02 -0.81231553961E+01  0.18726498301E+02  0.00000000000E+00 0.  1.
         11    1    3    3    0    0 -0.25370125513E+02 -0.21737577477E+02  0.11056806976E+02  0.35191171107E+02  0.51100000000E-03 0. -1.
        -11    1    3    3    0    0  0.51547476719E+01 -0.68188291190E+01 -0.31797931063E+01  0.91202488220E+01  0.51100000000E-03 0.  1.
        -12    1    3    3    0    0  0.25245696496E+02  0.12450756059E+02  0.24614152639E+00  0.28150081770E+02  0.00000000000E+00 0.  1.
</event>
<event>
 7    1  0.2710146E-013  0.7246163E+02  0.7816164E-02  0.1226708E+00
        -11   -1    0    0    0    0  0.00000000000E+00  0.00000000000E+00  0.45593999997E+02  0.45594000000E+02  0.51100000000E-03 0. -1.
         11   -1    0    0    0    0 -0.00000000000E+00 -0.00000000000E+00 -0.45593999997E+02  0.45594000000E+02  0.51100000000E-03 0.  1.
    9900012    2    1    2    0    0 -0.11324512318E+02 -0.14790510821E+02  0.19165507863E+01  0.72461629382E+02  0.70000076973E+02 0.  0.
        -12    1    1    2    0    0  0.11324512318E+02  0.14790510821E+02 -0.19165507863E+01  0.18726370618E+02  0.00000000000E+00 0.  1.
         11    1    3    3    0    0 -0.18557034733E+02 -0.14925518652E+02  0.22931975963E+02  0.33060704272E+02  0.51100000000E-03 0. -1.
        -11    1    3    3    0    0 -0.40110802140E+01 -0.23750204984E+01  0.73961345510E+01  0.87425564573E+01  0.51100000000E-03 0.  1.
        -12    1    3    3    0    0  0.11243602629E+02  0.25100283290E+01 -0.28411559728E+02  0.30658368653E+02  0.00000000000E+00 0.  1.
</event>
<event>
 7    1  0.2710146E-013  0.7246156E+02  0.7816164E-02  0.1226708E+00
        -11   -1    0    0    0    0  0.00000000000E+00  0.00000000000E+00  0.45593999997E+02  0.45594000000E+02  0.51100000000E-03 0.  1.
         11   -1    0    0    0    0 -0.00000000000E+00 -0.00000000000E+00 -0.45593999997E+02  0.45594000000E+02  0.51100000000E-03 0. -1.
    9900012    2    1    2    0    0  0.16388573430E+02  0.87024940422E+01 -0.25220878507E+01  0.72461556965E+02  0.69999982636E+02 0.  0.
        -12    1    1    2    0    0 -0.16388573430E+02 -0.87024940422E+01  0.25220878507E+01  0.18726443035E+02  0.00000000000E+00 0.  1.
         11    1    3    3    0    0  0.19645073366E+02  0.32560920611E+02 -0.35740725827E+01  0.38195764866E+02  0.51100000000E-03 0. -1.
        -11    1    3    3    0    0  0.54274118830E+01  0.27429776901E+01  0.15605858818E+01  0.62782286445E+01  0.51100000000E-03 0.  1.
        -12    1    3    3    0    0 -0.86839118196E+01 -0.26601404259E+02 -0.50860114978E+00  0.27987563455E+02  0.00000000000E+00 0.  1.
</event>
<event>
 7    1  0.2710146E-013  0.7246160E+02  0.7816164E-02  0.1226708E+00
        -11   -1    0    0    0    0  0.00000000000E+00  0.00000000000E+00  0.45593999997E+02  0.45594000000E+02  0.51100000000E-03 0. -1.
         11   -1    0    0    0    0 -0.00000000000E+00 -0.00000000000E+00 -0.45593999997E+02  0.45594000000E+02  0.51100000000E-03 0.  1.
    9900012    2    1    2    0    0 -0.70234662874E+01  0.97699388323E+01  0.14349121516E+02  0.72461599605E+02  0.70000038183E+02 0.  0.
        -12    1    1    2    0    0  0.70234662874E+01 -0.97699388323E+01 -0.14349121516E+02  0.18726400395E+02  0.00000000000E+00 0.  1.
         11    1    3    3    0    0 -0.83736609259E+01 -0.29237365829E+01  0.20894537403E+02  0.22699077657E+02  0.51100000000E-03 0. -1.
        -11    1    3    3    0    0  0.38343332399E+01  0.11016417761E+02  0.19943663670E+02  0.23104399852E+02  0.51100000000E-03 0.  1.
        -12    1    3    3    0    0 -0.24841386014E+01  0.16772576541E+01 -0.26489079558E+02  0.26658122096E+02  0.00000000000E+00 0.  1.
</event>
<event>
 7    1  0.2710146E-013  0.7246163E+02  0.7816164E-02  0.1226708E+00
        -11   -1    0    0    0    0  0.00000000000E+00  0.00000000000E+00  0.45593999997E+02  0.45594000000E+02  0.51100000000E-03 0.  1.
         11   -1    0    0    0    0 -0.00000000000E+00 -0.00000000000E+00 -0.45593999997E+02  0.45594000000E+02  0.51100000000E-03 0. -1.
    9900012    2    1    2    0    0  0.82481578870E+01  0.29806329564E+01 -0.16545718534E+02  0.72461626001E+02  0.70000072568E+02 0.  0.
        -12    1    1    2    0    0 -0.82481578870E+01 -0.29806329564E+01  0.16545718534E+02  0.18726373999E+02  0.00000000000E+00 0.  1.
         11    1    3    3    0    0 -0.51407463487E+01 -0.70839151354E+01 -0.92673212587E+01  0.12747249517E+02  0.51100000000E-03 0. -1.
        -11    1    3    3    0    0  0.32960814985E+02  0.11128351844E+02 -0.15962395198E+02  0.38276018601E+02  0.51100000000E-03 0.  1.
         12    1    3    3    0    0 -0.19571910749E+02 -0.10638037525E+01  0.86839979229E+01  0.21438357883E+02  0.00000000000E+00 0. -1.
</event>
<event>
 7    1  0.2710146E-013  0.7246156E+02  0.7816164E-02  0.1226708E+00
        -11   -1    0    0    0    0  0.00000000000E+00  0.00000000000E+00  0.45593999997E+02  0.45594000000E+02  0.51100000000E-03 0.  1.
         11   -1    0    0    0    0 -0.00000000000E+00 -0.00000000000E+00 -0.45593999997E+02  0.45594000000E+02  0.51100000000E-03 0. -1.
    9900012    2    1    2    0    0  0.11839349088E+01 -0.10162561938E+00 -0.18688699951E+02  0.72461560522E+02  0.69999987270E+02 0.  0.
        -12    1    1    2    0    0 -0.11839349088E+01  0.10162561938E+00  0.18688699951E+02  0.18726439478E+02  0.00000000000E+00 0.  1.
         11    1    3    3    0    0  0.54462022104E+01  0.11950730197E+02  0.34751986500E+01  0.13585215371E+02  0.51100000000E-03 0. -1.
        -11    1    3    3    0    0 -0.10642182622E+02 -0.38930913785E+00  0.15573171386E+02  0.18866141096E+02  0.51100000000E-03 0.  1.
         12    1    3    3    0    0  0.63799153202E+01 -0.11663046679E+02 -0.37737069987E+02  0.40010204055E+02  0.00000000000E+00 0. -1.
</event>
<event>
 7    1  0.2710146E-013  0.7246163E+02  0.7816164E-02  0.1226708E+00
        -11   -1    0    0    0    0  0.00000000000E+00  0.00000000000E+00  0.45593999997E+02  0.45594000000E+02  0.51100000000E-03 0. -1.
         11   -1    0    0    0    0 -0.00000000000E+00 -0.00000000000E+00 -0.45593999997E+02  0.45594000000E+02  0.51100000000E-03 0.  1.
    9900012    2    1    2    0    0  0.60734028973E+00 -0.30840004092E+01  0.18460684818E+02  0.72461633436E+02  0.70000082253E+02 0.  0.
        -12    1    1    2    0    0 -0.60734028973E+00  0.30840004092E+01 -0.18460684818E+02  0.18726366564E+02  0.00000000000E+00 0.  1.
         11    1    3    3    0    0 -0.26272405527E+01 -0.28374935986E+01  0.55781334837E+01  0.67874395958E+01  0.51100000000E-03 0. -1.
        -11    1    3    3    0    0 -0.12656391658E+02 -0.19800399707E+02 -0.15167093243E+02  0.27969283081E+02  0.51100000000E-03 0.  1.
         12    1    3    3    0    0  0.15890972501E+02  0.19553892897E+02  0.28049644577E+02  0.37704910759E+02  0.00000000000E+00 0. -1.
</event>
<event>
 7    1  0.2710146E-013  0.7246159E+02  0.7816164E-02  0.1226708E+00
        -11   -1    0    0    0    0  0.00000000000E+00  0.00000000000E+00  0.45593999997E+02  0.45594000000E+02  0.51100000000E-03 0.  1.
         11   -1    0    0    0    0 -0.00000000000E+00 -0.00000000000E+00 -0.45593999997E+02  0.45594000000E+02  0.51100000000E-03 0. -1.
    9900012    2    1    2    0    0  0.17438572788E+02 -0.43918681886E+01 -0.52236069716E+01  0.72461590925E+02  0.70000026875E+02 0.  0.
        -12    1    1    2    0    0 -0.17438572788E+02  0.43918681886E+01  0.52236069716E+01  0.18726409075E+02  0.00000000000E+00 0.  1.
         11    1    3    3    0    0  0.24978483359E+02 -0.53625475088E+01 -0.74661263139E+01  0.26616246713E+02  0.51100000000E-03 0. -1.
        -11    1    3    3    0    0 -0.87285100866E+00 -0.79825846439E+01  0.21852226219E+02  0.23280964703E+02  0.51100000000E-03 0.  1.
         12    1    3    3    0    0 -0.66670595627E+01  0.89532639641E+01 -0.19609706877E+02  0.22564379509E+02  0.00000000000E+00 0. -1.
</event>
<event>
 7    1  0.2710146E-013  0.7246156E+02  0.7816164E-02  0.1226708E+00
        -11   -1    0    0    0    0  0.00000000000E+00  0.00000000000E+00  0.45593999997E+02  0.45594000000E+02  0.51100000000E-03 0. -1.
         11   -1    0    0    0    0 -0.00000000000E+00 -0.00000000000E+00 -0.45593999997E+02  0.45594000000E+02  0.51100000000E-03 0.  1.
    9900012    2    1    2    0    0  0.12445544330E+02  0.13797302516E+02 -0.23286077126E+01  0.72461560289E+02  0.69999986966E+02 0.  0.
        -12    1    1    2    0    0 -0.12445544330E+02 -0.13797302516E+02  0.23286077126E+01  0.18726439711E+02  0.00000000000E+00 0.  1.
         11    1    3    3    0    0  0.27246005852E+02  0.20315965226E+02 -0.81909951194E+00  0.33996385135E+02  0.51100000000E-03 0. -1.
        -11    1    3    3    0    0  0.34506147464E+01  0.11219401461E+02 -0.50332215407E+01  0.12771649487E+02  0.51100000000E-03 0.  1.
         12    1    3    3    0    0 -0.18251076269E+02 -0.17738064171E+02  0.35237133401E+01  0.25693525667E+02  0.00000000000E+00 0. -1.
</event>
<event>
 7    1  0.2710146E-013  0.7246152E+02  0.7816164E-02  0.1226708E+00
        -11   -1    0    0    0    0  0.00000000000E+00  0.00000000000E+00  0.45593999997E+02  0.45594000000E+02  0.51100000000E-03 0. -1.
         11   -1    0    0    0    0 -0.00000000000E+00 -0.00000000000E+00 -0.45593999997E+02  0.45594000000E+02  0.51100000000E-03 0.  1.
    9900012    2    1    2    0    0  0.99832448374E+01  0.85325129571E+01  0.13349603826E+02  0.72461524700E+02  0.69999940605E+02 0.  0.
        -12    1    1    2    0    0 -0.99832448374E+01 -0.85325129571E+01 -0.13349603826E+02  0.18726475300E+02  0.00000000000E+00 0.  1.
         11    1    3    3    0    0  0.16676356849E+02 -0.11198835398E+01  0.29081026396E+02  0.33541930675E+02  0.51100000000E-03 0. -1.
        -11    1    3    3    0    0 -0.89136779746E+00 -0.12438231670E+02 -0.32272728874E+01  0.12880971787E+02  0.51100000000E-03 0.  1.
         12    1    3    3    0    0 -0.58017442143E+01  0.22090628167E+02 -0.12504149682E+02  0.26038622238E+02  0.00000000000E+00 0. -1.
</event>
<event>
 7    1  0.2710146E-013  0.7246158E+02  0.7816164E-02  0.1226708E+00
        -11   -1    0    0    0    0  0.00000000000E+00  0.00000000000E+00  0.45593999997E+02  0.45594000000E+02  0.51100000000E-03 0.  1.
         11   -1    0    0    0    0 -0.00000000000E+00 -0.00000000000E+00 -0.45593999997E+02  0.45594000000E+02  0.51100000000E-03 0. -1.
    9900012    2    1    2    0    0  0.10076919548E+02 -0.79217728065E+01 -0.13652103456E+02  0.72461582276E+02  0.70000015609E+02 0.  0.
        -12    1    1    2    0    0 -0.10076919548E+02  0.79217728065E+01  0.13652103456E+02  0.18726417724E+02  0.00000000000E+00 0.  1.
         11    1    3    3    0    0 -0.19679767481E+01  0.33270061711E+01  0.38034274137E+01  0.54229109246E+01  0.51100000000E-03 0. -1.
        -11    1    3    3    0    0 -0.37185851082E+01 -0.18932209269E+01  0.22603185638E+02  0.22985129148E+02  0.51100000000E-03 0.  1.
         12    1    3    3    0    0  0.15763481404E+02 -0.93555580507E+01 -0.40058716508E+02  0.44053542204E+02  0.00000000000E+00 0. -1.
</event>
<event>
 7    1  0.2710146E-013  0.7246166E+02  0.7816164E-02  0.1226708E+00
        -11   -1    0    0    0    0  0.00000000000E+00  0.00000000000E+00  0.45593999997E+02  0.45594000000E+02  0.51100000000E-03 0.  1.
         11   -1    0    0    0    0 -0.00000000000E+00 -0.00000000000E+00 -0.45593999997E+02  0.45594000000E+02  0.51100000000E-03 0. -1.
    9900012    2    1    2    0    0  0.14685356480E+02  0.10350822073E+02 -0.52798417427E+01  0.72461656488E+02  0.70000112283E+02 0.  0.
        -12    1    1    2    0    0 -0.14685356480E+02 -0.10350822073E+02  0.52798417427E+01  0.18726343512E+02  0.00000000000E+00 0.  1.
         11    1    3    3    0    0  0.88778492254E+00 -0.29044337767E+02 -0.34772758377E+01  0.29265221098E+02  0.51100000000E-03 0. -1.
        -11    1    3    3    0    0  0.92518907447E+00  0.13548904792E+02 -0.42201821908E+01  0.14221066552E+02  0.51100000000E-03 0.  1.
        -12    1    3    3    0    0  0.12872382483E+02  0.25846255048E+02  0.24176162858E+01  0.28975368838E+02  0.00000000000E+00 0.  1.
</event>
<event>
 7    1  0.2710146E-013  0.7246162E+02  0.7816164E-02  0.1226708E+00
        -11   -1    0    0    0    0  0.00000000000E+00  0.00000000000E+00  0.45593999997E+02  0.45594000000E+02  0.51100000000E-03 0.  1.
         11   -1    0    0    0    0 -0.00000000000E+00 -0.00000000000E+00 -0.45593999997E+02  0.45594000000E+02  0.51100000000E-03 0. -1.
    9900012    2    1    2    0    0  0.79987503646E+01 -0.16190341760E+02 -0.49568199136E+01  0.72461621884E+02  0.70000067205E+02 0.  0.
        -12    1    1    2    0    0 -0.79987503646E+01  0.16190341760E+02  0.49568199136E+01  0.18726378116E+02  0.00000000000E+00 0.  1.
         11    1    3    3    0    0  0.52555195798E+01 -0.26842684802E+02 -0.85396992654E+01  0.28654435560E+02  0.51100000000E-03 0. -1.
        -11    1    3    3    0    0  0.21787718004E+02  0.11616231157E+00  0.25512072515E+00  0.21789521251E+02  0.51100000000E-03 0.  1.
        -12    1    3    3    0    0 -0.19044487219E+02  0.10536180730E+02  0.33277586267E+01  0.22017665073E+02  0.00000000000E+00 0.  1.
</event>
<event>
 7    1  0.2710146E-013  0.7246150E+02  0.7816164E-02  0.1226708E+00
        -11   -1    0    0    0    0  0.00000000000E+00  0.00000000000E+00  0.45593999997E+02  0.45594000000E+02  0.51100000000E-03 0.  1.
         11   -1    0    0    0    0 -0.00000000000E+00 -0.00000000000E+00 -0.45593999997E+02  0.45594000000E+02  0.51100000000E-03 0. -1.
    9900012    2    1    2    0    0  0.17733015958E+02 -0.38150720200E+01 -0.46548099779E+01  0.72461497779E+02  0.69999905536E+02 0.  0.
        -12    1    1    2    0    0 -0.17733015958E+02  0.38150720200E+01  0.46548099779E+01  0.18726502221E+02  0.00000000000E+00 0.  1.
         11    1    3    3    0    0  0.25072954111E+01  0.31982065783E+01 -0.62891786643E+01  0.74879118671E+01  0.51100000000E-03 0. -1.
        -11    1    3    3    0    0 -0.22668957718E+02 -0.42499559494E+01 -0.10141735999E+02  0.25195209444E+02  0.51100000000E-03 0.  1.
         12    1    3    3    0    0  0.37894678265E+02 -0.27633226490E+01  0.11776104685E+02  0.39778376468E+02  0.00000000000E+00 0. -1.
</event>
<event>
 7    1  0.2710146E-013  0.7246157E+02  0.7816164E-02  0.1226708E+00
        -11   -1    0    0    0    0  0.00000000000E+00  0.00000000000E+00  0.45593999997E+02  0.45594000000E+02  0.51100000000E-03 0.  1.
         11   -1    0    0    0    0 -0.00000000000E+00 -0.00000000000E+00 -0.45593999997E+02  0.45594000000E+02  0.51100000000E-03 0. -1.
    9900012    2    1    2    0    0  0.15548555697E+02  0.89161513683E+01 -0.54243765168E+01  0.72461569479E+02  0.69999998938E+02 0.  0.
        -12    1    1    2    0    0 -0.15548555697E+02 -0.89161513683E+01  0.54243765168E+01  0.18726430521E+02  0.00000000000E+00 0.  1.
         11    1    3    3    0    0  0.16493265201E+02  0.22447149567E+02 -0.51539528247E+01  0.28327822907E+02  0.51100000000E-03 0. -1.
        -11    1    3    3    0    0 -0.11137519053E+02  0.10708774220E+02 -0.70427015252E+01  0.16980041843E+02  0.51100000000E-03 0.  1.
         12    1    3    3    0    0  0.10192809549E+02 -0.24239772419E+02  0.67722778331E+01  0.27153704729E+02  0.00000000000E+00 0. -1.
</event>
<event>
 7    1  0.2710146E-013  0.7246163E+02  0.7816164E-02  0.1226708E+00
        -11   -1    0    0    0    0  0.00000000000E+00  0.00000000000E+00  0.45593999997E+02  0.45594000000E+02  0.51100000000E-03 0.  1.
         11   -1    0    0    0    0 -0.00000000000E+00 -0.00000000000E+00 -0.45593999997E+02  0.45594000000E+02  0.51100000000E-03 0. -1.
    9900012    2    1    2    0    0  0.30478067942E+01 -0.92139785605E+01 -0.16015322069E+02  0.72461626402E+02  0.70000073091E+02 0.  0.
        -12    1    1    2    0    0 -0.30478067942E+01  0.92139785605E+01  0.16015322069E+02  0.18726373598E+02  0.00000000000E+00 0.  1.
         11    1    3    3    0    0  0.95048780667E+01  0.99342019113E+00 -0.18688552951E+02  0.20990273995E+02  0.51100000000E-03 0. -1.
        -11    1    3    3    0    0 -0.41888642863E+01  0.66884423783E+01 -0.20922655089E+02  0.22361559464E+02  0.51100000000E-03 0.  1.
        -12    1    3    3    0    0 -0.22682069862E+01 -0.16895841130E+02  0.23595885971E+02  0.29109792943E+02  0.00000000000E+00 0.  1.
</event>
<event>
 7    1  0.2710146E-013  0.7246156E+02  0.7816164E-02  0.1226708E+00
        -11   -1    0    0    0    0  0.00000000000E+00  0.00000000000E+00  0.45593999997E+02  0.45594000000E+02  0.51100000000E-03 0.  1.
         11   -1    0    0    0    0 -0.00000000000E+00 -0.00000000000E+00 -0.45593999997E+02  0.45594000000E+02  0.51100000000E-03 0. -1.
    9900012    2    1    2    0    0  0.42310597312E+01  0.17574556296E+02  0.48900563579E+01  0.72461560225E+02  0.69999986883E+02 0.  0.
        -12    1    1    2    0    0 -0.42310597312E+01 -0.17574556296E+02 -0.48900563579E+01  0.18726439775E+02  0.00000000000E+00 0.  1.
         11    1    3    3    0    0 -0.89317049247E+00  0.10552380512E+01  0.49584052545E+01  0.51475298739E+01  0.51100000000E-03 0. -1.
        -11    1    3    3    0    0  0.77819970153E+01 -0.12788695483E+02  0.24678188936E+02  0.28863873945E+02  0.51100000000E-03 0.  1.
         12    1    3    3    0    0 -0.26577667917E+01  0.29308013728E+02 -0.24746537832E+02  0.38450156406E+02  0.00000000000E+00 0. -1.
</event>
<event>
 7    1  0.2710146E-013  0.7246157E+02  0.7816164E-02  0.1226708E+00
        -11   -1    0    0    0    0  0.00000000000E+00  0.00000000000E+00  0.45593999997E+02  0.45594000000E+02  0.51100000000E-03 0.  1.
         11   -1    0    0    0    0 -0.00000000000E+00 -0.00000000000E+00 -0.45593999997E+02  0.45594000000E+02  0.51100000000E-03 0. -1.
    9900012    2    1    2    0    0  0.14815335306E+02 -0.11225447494E+02 -0.22746840789E+01  0.72461574305E+02  0.70000005224E+02 0.  0.
        -12    1    1    2    0    0 -0.14815335306E+02  0.11225447494E+02  0.22746840789E+01  0.18726425695E+02  0.00000000000E+00 0.  1.
         11    1    3    3    0    0  0.12094602332E+02 -0.13031666613E+02 -0.23866680258E+02  0.29761084777E+02  0.51100000000E-03 0. -1.
        -11    1    3    3    0    0  0.45558016916E+00 -0.80353681206E+01 -0.80513232301E+01  0.11384133702E+02  0.51100000000E-03 0.  1.
        -12    1    3    3    0    0  0.22651528045E+01  0.98415872399E+01  0.29643319409E+02  0.31316355826E+02  0.00000000000E+00 0.  1.
</event>
<event>
 7    1  0.2710146E-013  0.7246138E+02  0.7816164E-02  0.1226709E+00
        -11   -1    0    0    0    0  0.00000000000E+00  0.00000000000E+00  0.45593999997E+02  0.45594000000E+02  0.51100000000E-03 0. -1.
         11   -1    0    0    0    0 -0.00000000000E+00 -0.00000000000E+00 -0.45593999997E+02  0.45594000000E+02  0.51100000000E-03 0.  1.
    9900012    2    1    2    0    0 -0.14997067392E+02  0.79542213632E+01 -0.79059775593E+01  0.72461383941E+02  0.69999757240E+02 0.  0.
        -12    1    1    2    0    0  0.14997067392E+02 -0.79542213632E+01  0.79059775593E+01  0.18726616059E+02  0.00000000000E+00 0.  1.
         11    1    3    3    0    0 -0.56558262048E+01  0.14891420706E+02  0.23973453713E+02  0.28783142009E+02  0.51100000000E-03 0. -1.
        -11    1    3    3    0    0  0.88590351019E+01  0.10865519813E+01 -0.49708370549E+01  0.10216277181E+02  0.51100000000E-03 0.  1.
        -12    1    3    3    0    0 -0.18200276289E+02 -0.80237513236E+01 -0.26908594218E+02  0.33461964752E+02  0.00000000000E+00 0.  1.
</event>
<event>
 7    1  0.2710146E-013  0.7246153E+02  0.7816164E-02  0.1226708E+00
        -11   -1    0    0    0    0  0.00000000000E+00  0.00000000000E+00  0.45593999997E+02  0.45594000000E+02  0.51100000000E-03 0. -1.
         11   -1    0    0    0    0 -0.00000000000E+00 -0.00000000000E+00 -0.45593999997E+02  0.45594000000E+02  0.51100000000E-03 0.  1.
    9900012    2    1    2    0    0  0.21196697971E+01  0.41882085973E+01  0.18128610327E+02  0.72461532002E+02  0.69999950117E+02 0.  0.
        -12    1    1    2    0    0 -0.21196697971E+01 -0.41882085973E+01 -0.18128610327E+02  0.18726467998E+02  0.00000000000E+00 0.  1.
         11    1    3    3    0    0 -0.24147852137E+02 -0.10891809024E+02  0.13312785130E+02  0.29647605550E+02  0.51100000000E-03 0. -1.
        -11    1    3    3    0    0  0.13277725297E+01  0.29073990550E+01 -0.10597559604E+02  0.11069065858E+02  0.51100000000E-03 0.  1.
        -12    1    3    3    0    0  0.24939749405E+02  0.12172618566E+02  0.15413384800E+02  0.31744860594E+02  0.00000000000E+00 0.  1.
</event>
<event>
 7    1  0.2710146E-013  0.7246181E+02  0.7816164E-02  0.1226707E+00
        -11   -1    0    0    0    0  0.00000000000E+00  0.00000000000E+00  0.45593999997E+02  0.45594000000E+02  0.51100000000E-03 0. -1.
         11   -1    0    0    0    0 -0.00000000000E+00 -0.00000000000E+00 -0.45593999997E+02  0.45594000000E+02  0.51100000000E-03 0.  1.
    9900012    2    1    2    0    0 -0.58110716218E+00  0.10903454864E+02  0.15213389726E+02  0.72461808704E+02  0.70000310572E+02 0.  0.
        -12    1    1    2    0    0  0.58110716218E+00 -0.10903454864E+02 -0.15213389726E+02  0.18726191296E+02  0.00000000000E+00 0.  1.
         11    1    3    3    0    0 -0.54662760339E+01  0.38723988162E+01  0.57160315635E+01  0.88061718906E+01  0.51100000000E-03 0. -1.
        -11    1    3    3    0    0  0.32705674444E+02  0.63323774207E+01 -0.23794994265E+01  0.33397936499E+02  0.51100000000E-03 0.  1.
         12    1    3    3    0    0 -0.27820505572E+02  0.69867862684E+00  0.11876857589E+02  0.30257700314E+02  0.00000000000E+00 0. -1.
</event>
<event>
 7    1  0.2710146E-013  0.7246149E+02  0.7816164E-02  0.1226708E+00
        -11   -1    0    0    0    0  0.00000000000E+00  0.00000000000E+00  0.45593999997E+02  0.45594000000E+02  0.51100000000E-03 0.  1.
         11   -1    0    0    0    0 -0.00000000000E+00 -0.00000000000E+00 -0.45593999997E+02  0.45594000000E+02  0.51100000000E-03 0. -1.
    9900012    2    1    2    0    0  0.56716286792E+01 -0.31938551484E+01 -0.17558869808E+02  0.72461494946E+02  0.69999901845E+02 0.  0.
        -12    1    1    2    0    0 -0.56716286792E+01  0.31938551484E+01  0.17558869808E+02  0.18726505054E+02  0.00000000000E+00 0.  1.
         11    1    3    3    0    0 -0.10833723595E+02  0.66678359047E+01  0.65287712007E+01  0.14298757157E+02  0.51100000000E-03 0. -1.
        -11    1    3    3    0    0 -0.14193951435E+02  0.10558677990E+01 -0.21088402847E+02  0.25442166752E+02  0.51100000000E-03 0.  1.
         12    1    3    3    0    0  0.30699303709E+02 -0.10917558852E+02 -0.29992381623E+01  0.32720571038E+02  0.00000000000E+00 0. -1.
</event>
<event>
 7    1  0.2710146E-013  0.7246147E+02  0.7816164E-02  0.1226708E+00
        -11   -1    0    0    0    0  0.00000000000E+00  0.00000000000E+00  0.45593999997E+02  0.45594000000E+02  0.51100000000E-03 0. -1.
         11   -1    0    0    0    0 -0.00000000000E+00 -0.00000000000E+00 -0.45593999997E+02  0.45594000000E+02  0.51100000000E-03 0.  1.
    9900012    2    1    2    0    0  0.65230958503E+01  0.65557428492E+01  0.16283563785E+02  0.72461468199E+02  0.69999867001E+02 0.  0.
        -12    1    1    2    0    0 -0.65230958503E+01 -0.65557428492E+01 -0.16283563785E+02  0.18726531801E+02  0.00000000000E+00 0.  1.
         11    1    3    3    0    0  0.29057885802E+02 -0.73421242047E+00 -0.14801594883E+02  0.32618813689E+02  0.51100000000E-03 0. -1.
        -11    1    3    3    0    0 -0.38514861971E+00 -0.91881493175E+00  0.30271998606E+00  0.10412492445E+01  0.51100000000E-03 0.  1.
        -12    1    3    3    0    0 -0.22149641332E+02  0.82087702014E+01  0.30782438681E+02  0.38801405265E+02  0.00000000000E+00 0.  1.
</event>
<event>
 7    1  0.2710146E-013  0.7246167E+02  0.7816164E-02  0.1226708E+00
        -11   -1    0    0    0    0  0.00000000000E+00  0.00000000000E+00  0.45593999997E+02  0.45594000000E+02  0.51100000000E-03 0. -1.
         11   -1    0    0    0    0 -0.00000000000E+00 -0.00000000000E+00 -0.45593999997E+02  0.45594000000E+02  0.51100000000E-03 0.  1.
    9900012    2    1    2    0    0 -0.17465389940E+02  0.63944283583E+01  0.21787344177E+01  0.72461669781E+02  0.70000129600E+02 0.  0.
        -12    1    1    2    0    0  0.17465389940E+02 -0.63944283583E+01 -0.21787344177E+01  0.18726330219E+02  0.00000000000E+00 0.  1.
         11    1    3    3    0    0 -0.28214571624E+02  0.91966763108E+01 -0.68673557318E+01  0.30459833914E+02  0.51100000000E-03 0. -1.
        -11    1    3    3    0    0 -0.43987904590E+01 -0.94499732098E+01 -0.11567644817E+02  0.15571183579E+02  0.51100000000E-03 0.  1.
        -12    1    3    3    0    0  0.15147972142E+02  0.66477252574E+01  0.20613734966E+02  0.26430652288E+02  0.00000000000E+00 0.  1.
</event>
<event>
 7    1  0.2710146E-013  0.7246149E+02  0.7816164E-02  0.1226708E+00
        -11   -1    0    0    0    0  0.00000000000E+00  0.00000000000E+00  0.45593999997E+02  0.45594000000E+02  0.51100000000E-03 0. -1.
         11   -1    0    0    0    0 -0.00000000000E+00 -0.00000000000E+00 -0.45593999997E+02  0.45594000000E+02  0.51100000000E-03 0.  1.
    9900012    2    1    2    0    0  0.23004148889E+01  0.17710271552E+02  0.56335067332E+01  0.72461494046E+02  0.69999900673E+02 0.  0.
        -12    1    1    2    0    0 -0.23004148889E+01 -0.17710271552E+02 -0.56335067332E+01  0.18726505954E+02  0.00000000000E+00 0.  1.
         11    1    3    3    0    0  0.11110174721E+02  0.10646894776E+02  0.15187789374E+02  0.21620853291E+02  0.51100000000E-03 0. -1.
        -11    1    3    3    0    0 -0.73775023782E+01 -0.12050491832E+02  0.14391559442E+02  0.20168264134E+02  0.51100000000E-03 0.  1.
        -12    1    3    3    0    0 -0.14322574538E+01  0.19113868608E+02 -0.23945842083E+02  0.30672376622E+02  0.00000000000E+00 0.  1.
</event>
<event>
 7    1  0.2710146E-013  0.7246147E+02  0.7816164E-02  0.1226708E+00
        -11   -1    0    0    0    0  0.00000000000E+00  0.00000000000E+00  0.45593999997E+02  0.45594000000E+02  0.51100000000E-03 0. -1.
         11   -1    0    0    0    0 -0.00000000000E+00 -0.00000000000E+00 -0.45593999997E+02  0.45594000000E+02  0.51100000000E-03 0.  1.
    9900012    2    1    2    0    0 -0.14192905438E+02  0.73871797398E+01  0.97300492112E+01  0.72461472107E+02  0.69999872093E+02 0.  0.
        -12    1    1    2    0    0  0.14192905438E+02 -0.73871797398E+01 -0.97300492112E+01  0.18726527893E+02  0.00000000000E+00 0.  1.
         11    1    3    3    0    0  0.14141712759E+02 -0.97148521977E+00  0.27911821584E+02  0.31304977363E+02  0.51100000000E-03 0. -1.
        -11    1    3    3    0    0 -0.92605252357E+01 -0.50093770904E+01  0.15347106890E+01  0.10639855433E+02  0.51100000000E-03 0.  1.
        -12    1    3    3    0    0 -0.19074092961E+02  0.13368042050E+02 -0.19716483062E+02  0.30516639311E+02  0.00000000000E+00 0.  1.
</event>
<event>
 7    1  0.2710146E-013  0.7246145E+02  0.7816164E-02  0.1226708E+00
        -11   -1    0    0    0    0  0.00000000000E+00  0.00000000000E+00  0.45593999997E+02  0.45594000000E+02  0.51100000000E-03 0.  1.
         11   -1    0    0    0    0 -0.00000000000E+00 -0.00000000000E+00 -0.45593999997E+02  0.45594000000E+02  0.51100000000E-03 0. -1.
    9900012    2    1    2    0    0  0.11358153660E+02  0.63983663285E+01 -0.13443836733E+02  0.72461454875E+02  0.69999849644E+02 0.  0.
        -12    1    1    2    0    0 -0.11358153660E+02 -0.63983663285E+01  0.13443836733E+02  0.18726545125E+02  0.00000000000E+00 0.  1.
         11    1    3    3    0    0  0.30296325808E+02 -0.15859287861E+02 -0.18187437114E+02  0.38731992435E+02  0.51100000000E-03 0. -1.
        -11    1    3    3    0    0  0.20562939842E+01  0.52007739755E+01  0.36084311497E+01  0.66556119566E+01  0.51100000000E-03 0.  1.
        -12    1    3    3    0    0 -0.20994466132E+02  0.17056880214E+02  0.11351692315E+01  0.27073850483E+02  0.00000000000E+00 0.  1.
</event>
<event>
 7    1  0.2710146E-013  0.7246156E+02  0.7816164E-02  0.1226708E+00
        -11   -1    0    0    0    0  0.00000000000E+00  0.00000000000E+00  0.45593999997E+02  0.45594000000E+02  0.51100000000E-03 0.  1.
         11   -1    0    0    0    0 -0.00000000000E+00 -0.00000000000E+00 -0.45593999997E+02  0.45594000000E+02  0.51100000000E-03 0. -1.
    9900012    2    1    2    0    0 -0.14955536165E+02  0.41401439526E+01  0.10481917812E+02  0.72461562673E+02  0.69999990072E+02 0.  0.
        -12    1    1    2    0    0  0.14955536165E+02 -0.41401439526E+01 -0.10481917812E+02  0.18726437327E+02  0.00000000000E+00 0.  1.
         11    1    3    3    0    0  0.20205532605E+01 -0.27474507881E+02 -0.37681723021E+01  0.27805221480E+02  0.51100000000E-03 0. -1.
        -11    1    3    3    0    0 -0.69166109512E+01  0.55364885153E+01  0.14162218210E+02  0.16705108112E+02  0.51100000000E-03 0.  1.
        -12    1    3    3    0    0 -0.10059478475E+02  0.26078163319E+02  0.87871903717E-01  0.27951233081E+02  0.00000000000E+00 0.  1.
</event>
<event>
 7    1  0.2710146E-013  0.7246168E+02  0.7816164E-02  0.1226708E+00
        -11   -1    0    0    0    0  0.00000000000E+00  0.00000000000E+00  0.45593999997E+02  0.45594000000E+02  0.51100000000E-03 0.  1.
         11   -1    0    0    0    0 -0.00000000000E+00 -0.00000000000E+00 -0.45593999997E+02  0.45594000000E+02  0.51100000000E-03 0. -1.
    9900012    2    1    2    0    0 -0.30554455294E+01  0.58179567566E+01 -0.17535412371E+02  0.72461680147E+02  0.70000143104E+02 0.  0.
        -12    1    1    2    0    0  0.30554455294E+01 -0.58179567566E+01  0.17535412371E+02  0.18726319853E+02  0.00000000000E+00 0.  1.
         11    1    3    3    0    0 -0.22208169023E+01  0.51182343989E+01 -0.78844184250E+01  0.96587993683E+01  0.51100000000E-03 0. -1.
        -11    1    3    3    0    0  0.73711725306E+01  0.26931356181E+02 -0.18997702557E+02  0.33771953348E+02  0.51100000000E-03 0.  1.
        -12    1    3    3    0    0 -0.82058011577E+01 -0.26231633823E+02  0.93467086111E+01  0.29030927431E+02  0.00000000000E+00 0.  1.
</event>
<event>
 7    1  0.2710146E-013  0.7246159E+02  0.7816164E-02  0.1226708E+00
        -11   -1    0    0    0    0  0.00000000000E+00  0.00000000000E+00  0.45593999997E+02  0.45594000000E+02  0.51100000000E-03 0.  1.
         11   -1    0    0    0    0 -0.00000000000E+00 -0.00000000000E+00 -0.45593999997E+02  0.45594000000E+02  0.51100000000E-03 0. -1.
    9900012    2    1    2    0    0 -0.43390486362E+00  0.14926144468E+02 -0.11300466612E+02  0.72461585294E+02  0.70000019540E+02 0.  0.
        -12    1    1    2    0    0  0.43390486362E+00 -0.14926144468E+02  0.11300466612E+02  0.18726414706E+02  0.00000000000E+00 0.  1.
         11    1    3    3    0    0 -0.91931764094E+01 -0.68160559225E+01 -0.86921465705E+01  0.14371030690E+02  0.51100000000E-03 0. -1.
        -11    1    3    3    0    0  0.38001433877E+01  0.12275568892E+02 -0.27854398947E+02  0.30675694325E+02  0.51100000000E-03 0.  1.
        -12    1    3    3    0    0  0.49591281581E+01  0.94666314980E+01  0.25246078905E+02  0.27414860279E+02  0.00000000000E+00 0.  1.
</event>
<event>
 7    1  0.3844767E-013  0.7246148E+02  0.7816164E-02  0.1226708E+00
        -11   -1    0    0    0    0  0.00000000000E+00  0.00000000000E+00  0.45593999997E+02  0.45594000000E+02  0.51100000000E-03 0. -1.
         11   -1    0    0    0    0 -0.00000000000E+00 -0.00000000000E+00 -0.45593999997E+02  0.45594000000E+02  0.51100000000E-03 0.  1.
    9900012    2    1    2    0    0 -0.16882439856E+02 -0.10952186104E+01  0.80290902528E+01  0.72461479512E+02  0.69999881739E+02 0.  0.
        -12    1    1    2    0    0  0.16882439856E+02  0.10952186104E+01 -0.80290902528E+01  0.18726520488E+02  0.00000000000E+00 0.  1.
         11    1    3    3    0    0 -0.94976279432E+00  0.79983953419E+01  0.12656987482E+02  0.15002523448E+02  0.51100000000E-03 0. -1.
        -11    1    3    3    0    0 -0.37543262656E+01  0.67726303447E+01 -0.26624943389E+02  0.27728164350E+02  0.51100000000E-03 0.  1.
         12    1    3    3    0    0 -0.12178350796E+02 -0.15866244297E+02  0.21997046160E+02  0.29730791714E+02  0.00000000000E+00 0. -1.
</event>
<event>
 7    1  0.2710146E-013  0.7246156E+02  0.7816164E-02  0.1226708E+00
        -11   -1    0    0    0    0  0.00000000000E+00  0.00000000000E+00  0.45593999997E+02  0.45594000000E+02  0.51100000000E-03 0.  1.
         11   -1    0    0    0    0 -0.00000000000E+00 -0.00000000000E+00 -0.45593999997E+02  0.45594000000E+02  0.51100000000E-03 0. -1.
    9900012    2    1    2    0    0 -0.25754812825E+01 -0.55811553440E+01 -0.17688903196E+02  0.72461556261E+02  0.69999981719E+02 0.  0.
        -12    1    1    2    0    0  0.25754812825E+01  0.55811553440E+01  0.17688903196E+02  0.18726443739E+02  0.00000000000E+00 0.  1.
         11    1    3    3    0    0  0.27671586748E+01 -0.15149693744E+02 -0.62229266629E+01  0.16610093443E+02  0.51100000000E-03 0. -1.
        -11    1    3    3    0    0 -0.28547164233E+02  0.78191468090E+01 -0.13420665271E+02  0.32499136898E+02  0.51100000000E-03 0.  1.
        -12    1    3    3    0    0  0.23204524275E+02  0.17493915914E+01  0.19546887378E+01  0.23352325920E+02  0.00000000000E+00 0.  1.
</event>
<event>
 7    1  0.2710146E-013  0.7246156E+02  0.7816164E-02  0.1226708E+00
        -11   -1    0    0    0    0  0.00000000000E+00  0.00000000000E+00  0.45593999997E+02  0.45594000000E+02  0.51100000000E-03 0. -1.
         11   -1    0    0    0    0 -0.00000000000E+00 -0.00000000000E+00 -0.45593999997E+02  0.45594000000E+02  0.51100000000E-03 0.  1.
    9900012    2    1    2    0    0 -0.12669160302E+02  0.67015883856E+01  0.12052409290E+02  0.72461562022E+02  0.69999989224E+02 0.  0.
        -12    1    1    2    0    0  0.12669160302E+02 -0.67015883856E+01 -0.12052409290E+02  0.18726437978E+02  0.00000000000E+00 0.  1.
         11    1    3    3    0    0  0.39624770898E+01  0.51081705767E+01 -0.62467604880E+01  0.89898080171E+01  0.51100000000E-03 0. -1.
        -11    1    3    3    0    0  0.49119480004E+01 -0.13560034757E+01 -0.19341617201E+02  0.20001603305E+02  0.51100000000E-03 0.  1.
         12    1    3    3    0    0 -0.21543585393E+02  0.29494212846E+01  0.37640786978E+02  0.43470150700E+02  0.00000000000E+00 0. -1.
</event>
<event>
 7    1  0.2710146E-013  0.7246158E+02  0.7816164E-02  0.1226708E+00
        -11   -1    0    0    0    0  0.00000000000E+00  0.00000000000E+00  0.45593999997E+02  0.45594000000E+02  0.51100000000E-03 0. -1.
         11   -1    0    0    0    0 -0.00000000000E+00 -0.00000000000E+00 -0.45593999997E+02  0.45594000000E+02  0.51100000000E-03 0.  1.
    9900012    2    1    2    0    0  0.12111350938E+02 -0.78331581855E+01  0.11943009411E+02  0.72461583833E+02  0.70000017636E+02 0.  0.
        -12    1    1    2    0    0 -0.12111350938E+02  0.78331581855E+01 -0.11943009411E+02  0.18726416167E+02  0.00000000000E+00 0.  1.
         11    1    3    3    0    0  0.11381704216E+02  0.16990957492E+02  0.87504213414E+01  0.22244228494E+02  0.51100000000E-03 0. -1.
        -11    1    3    3    0    0 -0.85490034760E+01  0.81326686557E+01  0.98111124125E+01  0.15345477735E+02  0.51100000000E-03 0.  1.
         12    1    3    3    0    0  0.92786501978E+01 -0.32956784334E+02 -0.66185243434E+01  0.34871877604E+02  0.00000000000E+00 0. -1.
</event>
<event>
 7    1  0.2710146E-013  0.7246152E+02  0.7816164E-02  0.1226708E+00
        -11   -1    0    0    0    0  0.00000000000E+00  0.00000000000E+00  0.45593999997E+02  0.45594000000E+02  0.51100000000E-03 0.  1.
         11   -1    0    0    0    0 -0.00000000000E+00 -0.00000000000E+00 -0.45593999997E+02  0.45594000000E+02  0.51100000000E-03 0. -1.
    9900012    2    1    2    0    0 -0.18601981616E+02 -0.83544854842E-01 -0.21541293431E+01  0.72461522141E+02  0.69999937271E+02 0.  0.
        -12    1    1    2    0    0  0.18601981616E+02  0.83544854842E-01  0.21541293431E+01  0.18726477859E+02  0.00000000000E+00 0.  1.
         11    1    3    3    0    0 -0.24440942030E+01 -0.97964313153E+01  0.12778681159E+01  0.10177259463E+02  0.51100000000E-03 0. -1.
        -11    1    3    3    0    0 -0.11819395876E+02  0.28837062443E+02  0.15692061835E+02  0.34892908938E+02  0.51100000000E-03 0.  1.
         12    1    3    3    0    0 -0.43384915365E+01 -0.19124175983E+02 -0.19124059295E+02  0.27391353740E+02  0.00000000000E+00 0. -1.
</event>
<event>
 7    1  0.2710146E-013  0.7246143E+02  0.7816164E-02  0.1226708E+00
        -11   -1    0    0    0    0  0.00000000000E+00  0.00000000000E+00  0.45593999997E+02  0.45594000000E+02  0.51100000000E-03 0.  1.
         11   -1    0    0    0    0 -0.00000000000E+00 -0.00000000000E+00 -0.45593999997E+02  0.45594000000E+02  0.51100000000E-03 0. -1.
    9900012    2    1    2    0    0 -0.78318031536E+01  0.14595075147E+02 -0.87367729291E+01  0.72461426357E+02  0.69999812495E+02 0.  0.
        -12    1    1    2    0    0  0.78318031536E+01 -0.14595075147E+02  0.87367729291E+01  0.18726573643E+02  0.00000000000E+00 0.  1.
         11    1    3    3    0    0  0.98777079449E+01 -0.68022886461E+01  0.11251560985E+02  0.16444995285E+02  0.51100000000E-03 0. -1.
        -11    1    3    3    0    0  0.39069207809E+01  0.18463756664E+01  0.11992047995E+02  0.12746856415E+02  0.51100000000E-03 0.  1.
         12    1    3    3    0    0 -0.21616431879E+02  0.19550988127E+02 -0.31980381909E+02  0.43269574657E+02  0.00000000000E+00 0. -1.
</event>
<event>
 7    1  0.2710146E-013  0.7246156E+02  0.7816164E-02  0.1226708E+00
        -11   -1    0    0    0    0  0.00000000000E+00  0.00000000000E+00  0.45593999997E+02  0.45594000000E+02  0.51100000000E-03 0.  1.
         11   -1    0    0    0    0 -0.00000000000E+00 -0.00000000000E+00 -0.45593999997E+02  0.45594000000E+02  0.51100000000E-03 0. -1.
    9900012    2    1    2    0    0  0.53355939733E+01  0.16553826247E+02 -0.69413188517E+01  0.72461557896E+02  0.69999983849E+02 0.  0.
        -12    1    1    2    0    0 -0.53355939733E+01 -0.16553826247E+02  0.69413188517E+01  0.18726442104E+02  0.00000000000E+00 0.  1.
         11    1    3    3    0    0  0.60079865516E+01 -0.12326810197E+02 -0.16622214612E+02  0.21548646614E+02  0.51100000000E-03 0. -1.
        -11    1    3    3    0    0  0.41202777221E+01 -0.91250102034E+01 -0.31799655187E+01  0.10504983612E+02  0.51100000000E-03 0.  1.
        -12    1    3    3    0    0 -0.47926703004E+01  0.38005646648E+02  0.12860861279E+02  0.40407927670E+02  0.00000000000E+00 0.  1.
</event>
<event>
 7    1  0.2710146E-013  0.7246157E+02  0.7816164E-02  0.1226708E+00
        -11   -1    0    0    0    0  0.00000000000E+00  0.00000000000E+00  0.45593999997E+02  0.45594000000E+02  0.51100000000E-03 0. -1.
         11   -1    0    0    0    0 -0.00000000000E+00 -0.00000000000E+00 -0.45593999997E+02  0.45594000000E+02  0.51100000000E-03 0.  1.
    9900012    2    1    2    0    0  0.14826004019E+02  0.45783890032E+01  0.10483657555E+02  0.72461571703E+02  0.70000001835E+02 0.  0.
        -12    1    1    2    0    0 -0.14826004019E+02 -0.45783890032E+01 -0.10483657555E+02  0.18726428297E+02  0.00000000000E+00 0.  1.
         11    1    3    3    0    0  0.34568389477E+02  0.82900871413E+01  0.20200980519E+02  0.40887390599E+02  0.51100000000E-03 0. -1.
        -11    1    3    3    0    0 -0.11550228829E+02 -0.12960103665E+02 -0.33699773217E+01  0.17684140364E+02  0.51100000000E-03 0.  1.
        -12    1    3    3    0    0 -0.81921566289E+01  0.92484055274E+01 -0.63473456421E+01  0.13890040739E+02  0.00000000000E+00 0.  1.
</event>
<event>
 7    1  0.2710146E-013  0.7246160E+02  0.7816164E-02  0.1226708E+00
        -11   -1    0    0    0    0  0.00000000000E+00  0.00000000000E+00  0.45593999997E+02  0.45594000000E+02  0.51100000000E-03 0.  1.
         11   -1    0    0    0    0 -0.00000000000E+00 -0.00000000000E+00 -0.45593999997E+02  0.45594000000E+02  0.51100000000E-03 0. -1.
    9900012    2    1    2    0    0  0.60419923848E+01  0.21405995990E+01 -0.17595178475E+02  0.72461597671E+02  0.70000035663E+02 0.  0.
        -12    1    1    2    0    0 -0.60419923848E+01 -0.21405995990E+01  0.17595178475E+02  0.18726402329E+02  0.00000000000E+00 0.  1.
         11    1    3    3    0    0  0.22591283189E+02  0.79979625228E+01 -0.26981801994E+02  0.36088102191E+02  0.51100000000E-03 0. -1.
        -11    1    3    3    0    0  0.20081235456E+01  0.10848608327E+01 -0.90352942369E+01  0.93191214934E+01  0.51100000000E-03 0.  1.
        -12    1    3    3    0    0 -0.18557414350E+02 -0.69422237565E+01  0.18421917756E+02  0.27054373987E+02  0.00000000000E+00 0.  1.
</event>
<event>
 7    1  0.2710146E-013  0.7246158E+02  0.7816164E-02  0.1226708E+00
        -11   -1    0    0    0    0  0.00000000000E+00  0.00000000000E+00  0.45593999997E+02  0.45594000000E+02  0.51100000000E-03 0.  1.
         11   -1    0    0    0    0 -0.00000000000E+00 -0.00000000000E+00 -0.45593999997E+02  0.45594000000E+02  0.51100000000E-03 0. -1.
    9900012    2    1    2    0    0  0.10282389400E+02  0.10434499637E+02 -0.11665010910E+02  0.72461580321E+02  0.70000013062E+02 0.  0.
        -12    1    1    2    0    0 -0.10282389400E+02 -0.10434499637E+02  0.11665010910E+02  0.18726419679E+02  0.00000000000E+00 0.  1.
         11    1    3    3    0    0  0.36755722018E+01 -0.69867756201E+01 -0.12020406558E+02  0.14381065283E+02  0.51100000000E-03 0. -1.
        -11    1    3    3    0    0  0.24391187666E+02  0.12455112254E+02  0.17812254742E+02  0.32670112891E+02  0.51100000000E-03 0.  1.
         12    1    3    3    0    0 -0.17784370468E+02  0.49661630031E+01 -0.17456859094E+02  0.25410402148E+02  0.00000000000E+00 0. -1.
</event>
<event>
 7    1  0.2710146E-013  0.7246155E+02  0.7816164E-02  0.1226708E+00
        -11   -1    0    0    0    0  0.00000000000E+00  0.00000000000E+00  0.45593999997E+02  0.45594000000E+02  0.51100000000E-03 0.  1.
         11   -1    0    0    0    0 -0.00000000000E+00 -0.00000000000E+00 -0.45593999997E+02  0.45594000000E+02  0.51100000000E-03 0. -1.
    9900012    2    1    2    0    0 -0.10904641901E+02  0.33685600651E+01 -0.14846596863E+02  0.72461552117E+02  0.69999976321E+02 0.  0.
        -12    1    1    2    0    0  0.10904641901E+02 -0.33685600651E+01  0.14846596863E+02  0.18726447883E+02  0.00000000000E+00 0.  1.
         11    1    3    3    0    0  0.12928955204E+02 -0.58038296875E+01  0.34150186451E+01  0.14577540064E+02  0.51100000000E-03 0. -1.
        -11    1    3    3    0    0 -0.10477868355E+02 -0.13920225153E+02  0.91117474730E+01  0.19661697176E+02  0.51100000000E-03 0.  1.
         12    1    3    3    0    0 -0.13355728749E+02  0.23092614906E+02 -0.27373362981E+02  0.38222314877E+02  0.00000000000E+00 0. -1.
</event>
<event>
 7    1  0.2710146E-013  0.7246161E+02  0.7816164E-02  0.1226708E+00
        -11   -1    0    0    0    0  0.00000000000E+00  0.00000000000E+00  0.45593999997E+02  0.45594000000E+02  0.51100000000E-03 0. -1.
         11   -1    0    0    0    0 -0.00000000000E+00 -0.00000000000E+00 -0.45593999997E+02  0.45594000000E+02  0.51100000000E-03 0.  1.
    9900012    2    1    2    0    0  0.11640370067E+02 -0.95052004798E+01  0.11172754881E+02  0.72461614789E+02  0.70000057962E+02 0.  0.
        -12    1    1    2    0    0 -0.11640370067E+02  0.95052004798E+01 -0.11172754881E+02  0.18726385211E+02  0.00000000000E+00 0.  1.
         11    1    3    3    0    0  0.15715455440E+02 -0.10208713935E+02 -0.18389584103E+01  0.18830165910E+02  0.51100000000E-03 0. -1.
        -11    1    3    3    0    0  0.15694263376E+02  0.18130857488E+02 -0.56325811112E+00  0.23986561990E+02  0.51100000000E-03 0.  1.
         12    1    3    3    0    0 -0.19769348750E+02 -0.17427344032E+02  0.13574971403E+02  0.29644886888E+02  0.00000000000E+00 0. -1.
</event>
<event>
 7    1  0.2710146E-013  0.7246157E+02  0.7816164E-02  0.1226708E+00
        -11   -1    0    0    0    0  0.00000000000E+00  0.00000000000E+00  0.45593999997E+02  0.45594000000E+02  0.51100000000E-03 0.  1.
         11   -1    0    0    0    0 -0.00000000000E+00 -0.00000000000E+00 -0.45593999997E+02  0.45594000000E+02  0.51100000000E-03 0. -1.
    9900012    2    1    2    0    0  0.16255614877E+02 -0.88025733104E+01  0.29914554375E+01  0.72461571682E+02  0.70000001808E+02 0.  0.
        -12    1    1    2    0    0 -0.16255614877E+02  0.88025733104E+01 -0.29914554375E+01  0.18726428318E+02  0.00000000000E+00 0.  1.
         11    1    3    3    0    0 -0.52178246958E+01  0.27083628759E+01 -0.19980709612E+02  0.20827618224E+02  0.51100000000E-03 0. -1.
        -11    1    3    3    0    0  0.26263535701E+01  0.14115549779E+02  0.58095028032E+01  0.15488602316E+02  0.51100000000E-03 0.  1.
        -12    1    3    3    0    0  0.18847086003E+02 -0.25626485965E+02  0.17162662247E+02  0.36145351141E+02  0.00000000000E+00 0.  1.
</event>
<event>
 7    1  0.2710146E-013  0.7246154E+02  0.7816164E-02  0.1226708E+00
        -11   -1    0    0    0    0  0.00000000000E+00  0.00000000000E+00  0.45593999997E+02  0.45594000000E+02  0.51100000000E-03 0.  1.
         11   -1    0    0    0    0 -0.00000000000E+00 -0.00000000000E+00 -0.45593999997E+02  0.45594000000E+02  0.51100000000E-03 0. -1.
    9900012    2    1    2    0    0 -0.85046188937E+01  0.10698728441E+02 -0.12801918633E+02  0.72461536013E+02  0.69999955342E+02 0.  0.
        -12    1    1    2    0    0  0.85046188937E+01 -0.10698728441E+02  0.12801918633E+02  0.18726463987E+02  0.00000000000E+00 0.  1.
         11    1    3    3    0    0  0.16855470578E+02  0.15806218480E+02 -0.19370052690E+02  0.30151987870E+02  0.51100000000E-03 0. -1.
        -11    1    3    3    0    0  0.12968714653E+01  0.10593281464E+02  0.34475897229E+01  0.11215407390E+02  0.51100000000E-03 0.  1.
        -12    1    3    3    0    0 -0.26656960937E+02 -0.15700771503E+02  0.31205443345E+01  0.31094140752E+02  0.00000000000E+00 0.  1.
</event>
<event>
 7    1  0.2710146E-013  0.7246160E+02  0.7816164E-02  0.1226708E+00
        -11   -1    0    0    0    0  0.00000000000E+00  0.00000000000E+00  0.45593999997E+02  0.45594000000E+02  0.51100000000E-03 0.  1.
         11   -1    0    0    0    0 -0.00000000000E+00 -0.00000000000E+00 -0.45593999997E+02  0.45594000000E+02  0.51100000000E-03 0. -1.
    9900012    2    1    2    0    0 -0.46912650079E+01  0.73123104990E+01 -0.16589159977E+02  0.72461599359E+02  0.70000037862E+02 0.  0.
        -12    1    1    2    0    0  0.46912650079E+01 -0.73123104990E+01  0.16589159977E+02  0.18726400641E+02  0.00000000000E+00 0.  1.
         11    1    3    3    0    0  0.16486605163E+02 -0.27578324292E+01  0.32064491975E+01  0.17020432023E+02  0.51100000000E-03 0. -1.
        -11    1    3    3    0    0 -0.11030348329E+02  0.24988236807E+02  0.17119905212E+01  0.27368074005E+02  0.51100000000E-03 0.  1.
         12    1    3    3    0    0 -0.10147521842E+02 -0.14918093878E+02 -0.21507599696E+02  0.28073093331E+02  0.00000000000E+00 0. -1.
</event>
<event>
 7    1  0.2710146E-013  0.7246162E+02  0.7816164E-02  0.1226708E+00
        -11   -1    0    0    0    0  0.00000000000E+00  0.00000000000E+00  0.45593999997E+02  0.45594000000E+02  0.51100000000E-03 0.  1.
         11   -1    0    0    0    0 -0.00000000000E+00 -0.00000000000E+00 -0.45593999997E+02  0.45594000000E+02  0.51100000000E-03 0. -1.
    9900012    2    1    2    0    0 -0.29011303832E+00  0.18576862564E+01 -0.18631750146E+02  0.72461620817E+02  0.70000065815E+02 0.  0.
        -12    1    1    2    0    0  0.29011303832E+00 -0.18576862564E+01  0.18631750146E+02  0.18726379183E+02  0.00000000000E+00 0.  1.
         11    1    3    3    0    0 -0.15981475127E+02  0.51327009989E+01 -0.50853492967E+01  0.17538898041E+02  0.51100000000E-03 0. -1.
        -11    1    3    3    0    0 -0.16076554048E+02  0.76490893954E+01  0.19824294577E+01  0.17913519628E+02  0.51100000000E-03 0.  1.
         12    1    3    3    0    0  0.31767916137E+02 -0.10924104138E+02 -0.15528830307E+02  0.37009203147E+02  0.00000000000E+00 0. -1.
</event>
<event>
 7    1  0.2710146E-013  0.7246146E+02  0.7816164E-02  0.1226708E+00
        -11   -1    0    0    0    0  0.00000000000E+00  0.00000000000E+00  0.45593999997E+02  0.45594000000E+02  0.51100000000E-03 0.  1.
         11   -1    0    0    0    0 -0.00000000000E+00 -0.00000000000E+00 -0.45593999997E+02  0.45594000000E+02  0.51100000000E-03 0. -1.
    9900012    2    1    2    0    0  0.12935445495E+02 -0.13026196608E+02  0.36980782659E+01  0.72461459180E+02  0.69999855253E+02 0.  0.
        -12    1    1    2    0    0 -0.12935445495E+02  0.13026196608E+02 -0.36980782659E+01  0.18726540820E+02  0.00000000000E+00 0.  1.
         11    1    3    3    0    0 -0.15957983968E+02 -0.91879409757E+01 -0.40975704823E+01  0.18864400224E+02  0.51100000000E-03 0. -1.
        -11    1    3    3    0    0 -0.99287816889E+01 -0.92267607476E+01  0.44244066313E+01  0.14257951957E+02  0.51100000000E-03 0.  1.
        -12    1    3    3    0    0  0.38822211151E+02  0.53885051156E+01  0.33712421168E+01  0.39339106999E+02  0.00000000000E+00 0.  1.
</event>
<event>
 7    1  0.2710146E-013  0.7246156E+02  0.7816164E-02  0.1226708E+00
        -11   -1    0    0    0    0  0.00000000000E+00  0.00000000000E+00  0.45593999997E+02  0.45594000000E+02  0.51100000000E-03 0.  1.
         11   -1    0    0    0    0 -0.00000000000E+00 -0.00000000000E+00 -0.45593999997E+02  0.45594000000E+02  0.51100000000E-03 0. -1.
    9900012    2    1    2    0    0  0.17377799747E+01  0.16581855554E+02 -0.85265260834E+01  0.72461562541E+02  0.69999989899E+02 0.  0.
        -12    1    1    2    0    0 -0.17377799747E+01 -0.16581855554E+02  0.85265260834E+01  0.18726437459E+02  0.00000000000E+00 0.  1.
         11    1    3    3    0    0 -0.10161320464E+02  0.78155050964E+01  0.53666916005E+01  0.13897335445E+02  0.51100000000E-03 0. -1.
        -11    1    3    3    0    0 -0.16914304384E+02  0.55142242761E+01  0.10512240214E+02  0.20664161167E+02  0.51100000000E-03 0.  1.
         12    1    3    3    0    0  0.28813404823E+02  0.32521261818E+01 -0.24405457898E+02  0.37900065928E+02  0.00000000000E+00 0. -1.
</event>
<event>
 7    1  0.2710146E-013  0.7246171E+02  0.7816164E-02  0.1226708E+00
        -11   -1    0    0    0    0  0.00000000000E+00  0.00000000000E+00  0.45593999997E+02  0.45594000000E+02  0.51100000000E-03 0. -1.
         11   -1    0    0    0    0 -0.00000000000E+00 -0.00000000000E+00 -0.45593999997E+02  0.45594000000E+02  0.51100000000E-03 0.  1.
    9900012    2    1    2    0    0  0.12985636871E+02 -0.81748437532E+01  0.10734020218E+02  0.72461707645E+02  0.70000178924E+02 0.  0.
        -12    1    1    2    0    0 -0.12985636871E+02  0.81748437532E+01 -0.10734020218E+02  0.18726292355E+02  0.00000000000E+00 0.  1.
         11    1    3    3    0    0 -0.17046813400E+02 -0.17624063350E+02 -0.43012870840E+01  0.24893825076E+02  0.51100000000E-03 0.  1.
        -11    1    3    3    0    0 -0.22289435931E+01  0.95991608396E+01  0.11451170728E+02  0.15107659966E+02  0.51100000000E-03 0. -1.
         12    1    3    3    0    0  0.32261393864E+02 -0.14994124299E+00  0.35841365748E+01  0.32460222603E+02  0.00000000000E+00 0. -1.
</event>
<event>
 7    1  0.2710146E-013  0.7246157E+02  0.7816164E-02  0.1226708E+00
        -11   -1    0    0    0    0  0.00000000000E+00  0.00000000000E+00  0.45593999997E+02  0.45594000000E+02  0.51100000000E-03 0.  1.
         11   -1    0    0    0    0 -0.00000000000E+00 -0.00000000000E+00 -0.45593999997E+02  0.45594000000E+02  0.51100000000E-03 0. -1.
    9900012    2    1    2    0    0  0.43508435370E+01  0.15455765107E+02  0.96368479955E+01  0.72461565373E+02  0.69999993590E+02 0.  0.
        -12    1    1    2    0    0 -0.43508435370E+01 -0.15455765107E+02 -0.96368479955E+01  0.18726434627E+02  0.00000000000E+00 0.  1.
         11    1    3    3    0    0 -0.10648237006E+02  0.21353154773E+02 -0.13381395108E+02  0.27356971787E+02  0.51100000000E-03 0. -1.
        -11    1    3    3    0    0 -0.68499403998E+01  0.74125774909E+01 -0.83291503808E+00  0.10127276843E+02  0.51100000000E-03 0.  1.
        -12    1    3    3    0    0  0.21849020943E+02 -0.13309967156E+02  0.23851158141E+02  0.34977316743E+02  0.00000000000E+00 0.  1.
</event>
<event>
 7    1  0.2710146E-013  0.7246156E+02  0.7816164E-02  0.1226708E+00
        -11   -1    0    0    0    0  0.00000000000E+00  0.00000000000E+00  0.45593999997E+02  0.45594000000E+02  0.51100000000E-03 0.  1.
         11   -1    0    0    0    0 -0.00000000000E+00 -0.00000000000E+00 -0.45593999997E+02  0.45594000000E+02  0.51100000000E-03 0. -1.
    9900012    2    1    2    0    0 -0.14587263289E+02 -0.24838616130E+01 -0.11477011738E+02  0.72461558341E+02  0.69999984428E+02 0.  0.
        -12    1    1    2    0    0  0.14587263289E+02  0.24838616130E+01  0.11477011738E+02  0.18726441659E+02  0.00000000000E+00 0.  1.
         11    1    3    3    0    0  0.75173333603E+01 -0.61466000888E+01 -0.96615346210E+01  0.13698037998E+02  0.51100000000E-03 0. -1.
        -11    1    3    3    0    0 -0.39797632986E+02 -0.89061019919E+00 -0.53180270244E+01  0.40161252340E+02  0.51100000000E-03 0.  1.
         12    1    3    3    0    0  0.17693036337E+02  0.45533486750E+01  0.35025499072E+01  0.18602268002E+02  0.00000000000E+00 0. -1.
</event>
<event>
 7    1  0.2710146E-013  0.7246152E+02  0.7816164E-02  0.1226708E+00
        -11   -1    0    0    0    0  0.00000000000E+00  0.00000000000E+00  0.45593999997E+02  0.45594000000E+02  0.51100000000E-03 0. -1.
         11   -1    0    0    0    0 -0.00000000000E+00 -0.00000000000E+00 -0.45593999997E+02  0.45594000000E+02  0.51100000000E-03 0.  1.
    9900012    2    1    2    0    0  0.10918425884E+02 -0.13455384770E+02  0.71008151879E+01  0.72461521970E+02  0.69999937048E+02 0.  0.
        -12    1    1    2    0    0 -0.10918425884E+02  0.13455384770E+02 -0.71008151879E+01  0.18726478030E+02  0.00000000000E+00 0.  1.
         11    1    3    3    0    0  0.30276932772E+02 -0.14000792091E+02  0.50936349230E+01  0.33744035832E+02  0.51100000000E-03 0.  1.
        -11    1    3    3    0    0 -0.37828054360E+01 -0.89921805870E+01  0.13856790967E+02  0.16946373796E+02  0.51100000000E-03 0. -1.
        -12    1    3    3    0    0 -0.15575701452E+02  0.95375879081E+01 -0.11849610702E+02  0.21771112342E+02  0.00000000000E+00 0.  1.
</event>
<event>
 7    1  0.2710146E-013  0.7246154E+02  0.7816164E-02  0.1226708E+00
        -11   -1    0    0    0    0  0.00000000000E+00  0.00000000000E+00  0.45593999997E+02  0.45594000000E+02  0.51100000000E-03 0. -1.
         11   -1    0    0    0    0 -0.00000000000E+00 -0.00000000000E+00 -0.45593999997E+02  0.45594000000E+02  0.51100000000E-03 0.  1.
    9900012    2    1    2    0    0 -0.17225883535E+02  0.54660456817E+00  0.73246478278E+01  0.72461539953E+02  0.69999960474E+02 0.  0.
        -12    1    1    2    0    0  0.17225883535E+02 -0.54660456817E+00 -0.73246478278E+01  0.18726460047E+02  0.00000000000E+00 0.  1.
         11    1    3    3    0    0  0.72044816300E+01  0.11698990146E+02  0.20647015946E+02  0.24800608737E+02  0.51100000000E-03 0. -1.
        -11    1    3    3    0    0  0.43754955714E+00 -0.19309119441E+02 -0.30871822273E+01  0.19559249413E+02  0.51100000000E-03 0.  1.
         12    1    3    3    0    0 -0.24867914722E+02  0.81567338633E+01 -0.10235185891E+02  0.28101681803E+02  0.00000000000E+00 0. -1.
</event>
<event>
 7    1  0.2710146E-013  0.7246159E+02  0.7816164E-02  0.1226708E+00
        -11   -1    0    0    0    0  0.00000000000E+00  0.00000000000E+00  0.45593999997E+02  0.45594000000E+02  0.51100000000E-03 0.  1.
         11   -1    0    0    0    0 -0.00000000000E+00 -0.00000000000E+00 -0.45593999997E+02  0.45594000000E+02  0.51100000000E-03 0. -1.
    9900012    2    1    2    0    0  0.16268658389E+02  0.77122022333E+01 -0.51508545353E+01  0.72461585194E+02  0.70000019409E+02 0.  0.
        -12    1    1    2    0    0 -0.16268658389E+02 -0.77122022333E+01  0.51508545353E+01  0.18726414806E+02  0.00000000000E+00 0.  1.
         11    1    3    3    0    0 -0.15982327401E+02 -0.89301754711E+01 -0.24403327286E+02  0.30507461481E+02  0.51100000000E-03 0. -1.
        -11    1    3    3    0    0  0.14900431587E+02  0.88214883602E+01  0.45470874084E+01  0.17903003171E+02  0.51100000000E-03 0.  1.
        -12    1    3    3    0    0  0.17350554202E+02  0.78208893442E+01  0.14705385343E+02  0.24051120542E+02  0.00000000000E+00 0.  1.
</event>
<event>
 7    1  0.2710146E-013  0.7246155E+02  0.7816164E-02  0.1226708E+00
        -11   -1    0    0    0    0  0.00000000000E+00  0.00000000000E+00  0.45593999997E+02  0.45594000000E+02  0.51100000000E-03 0.  1.
         11   -1    0    0    0    0 -0.00000000000E+00 -0.00000000000E+00 -0.45593999997E+02  0.45594000000E+02  0.51100000000E-03 0. -1.
    9900012    2    1    2    0    0  0.37743404041E+01  0.62229883952E+01 -0.17254236126E+02  0.72461550941E+02  0.69999974789E+02 0.  0.
        -12    1    1    2    0    0 -0.37743404041E+01 -0.62229883952E+01  0.17254236126E+02  0.18726449059E+02  0.00000000000E+00 0.  1.
         11    1    3    3    0    0 -0.11834490612E+02 -0.15212957821E+01 -0.12709375622E+01  0.11999366294E+02  0.51100000000E-03 0. -1.
        -11    1    3    3    0    0 -0.91578117797E+01 -0.18813710139E+02 -0.11489461038E+02  0.23871089649E+02  0.51100000000E-03 0.  1.
         12    1    3    3    0    0  0.24766642796E+02  0.26557994317E+02 -0.44938375258E+01  0.36591094999E+02  0.00000000000E+00 0. -1.
</event>
<event>
 7    1  0.2710146E-013  0.7246159E+02  0.7816164E-02  0.1226708E+00
        -11   -1    0    0    0    0  0.00000000000E+00  0.00000000000E+00  0.45593999997E+02  0.45594000000E+02  0.51100000000E-03 0. -1.
         11   -1    0    0    0    0 -0.00000000000E+00 -0.00000000000E+00 -0.45593999997E+02  0.45594000000E+02  0.51100000000E-03 0.  1.
    9900012    2    1    2    0    0  0.14408705808E+02 -0.91644703920E+01  0.76863688361E+01  0.72461585860E+02  0.70000020278E+02 0.  0.
        -12    1    1    2    0    0 -0.14408705808E+02  0.91644703920E+01 -0.76863688361E+01  0.18726414140E+02  0.00000000000E+00 0.  1.
         11    1    3    3    0    0 -0.20386017536E+02  0.39567625890E+01  0.21541925825E+02  0.29921568302E+02  0.51100000000E-03 0. -1.
        -11    1    3    3    0    0  0.85459485991E+01  0.33829393574E+01 -0.37761213250E+01  0.99366296437E+01  0.51100000000E-03 0.  1.
        -12    1    3    3    0    0  0.26248774745E+02 -0.16504172338E+02 -0.10079435664E+02  0.32603387914E+02  0.00000000000E+00 0.  1.
</event>
<event>
 7    1  0.2710146E-013  0.7246158E+02  0.7816164E-02  0.1226708E+00
        -11   -1    0    0    0    0  0.00000000000E+00  0.00000000000E+00  0.45593999997E+02  0.45594000000E+02  0.51100000000E-03 0.  1.
         11   -1    0    0    0    0 -0.00000000000E+00 -0.00000000000E+00 -0.45593999997E+02  0.45594000000E+02  0.51100000000E-03 0. -1.
    9900012    2    1    2    0    0  0.76047434984E+01  0.12422214234E+02 -0.11770104826E+02  0.72461577550E+02  0.70000009452E+02 0.  0.
        -12    1    1    2    0    0 -0.76047434984E+01 -0.12422214234E+02  0.11770104826E+02  0.18726422450E+02  0.00000000000E+00 0.  1.
         11    1    3    3    0    0 -0.10720051876E+02  0.26204991097E+02 -0.16432743787E+02  0.32736159506E+02  0.51100000000E-03 0. -1.
        -11    1    3    3    0    0  0.12969458478E+01 -0.50703566804E+01 -0.12798150461E+02  0.13826902794E+02  0.51100000000E-03 0.  1.
        -12    1    3    3    0    0  0.17027849527E+02 -0.87124201828E+01  0.17460789421E+02  0.25898515250E+02  0.00000000000E+00 0.  1.
</event>
<event>
 7    1  0.2710146E-013  0.7246196E+02  0.7816164E-02  0.1226707E+00
        -11   -1    0    0    0    0  0.00000000000E+00  0.00000000000E+00  0.45593999997E+02  0.45594000000E+02  0.51100000000E-03 0. -1.
         11   -1    0    0    0    0 -0.00000000000E+00 -0.00000000000E+00 -0.45593999997E+02  0.45594000000E+02  0.51100000000E-03 0.  1.
    9900012    2    1    2    0    0  0.14106652074E+02 -0.11680788059E+02 -0.39020765471E+01  0.72461958138E+02  0.70000505237E+02 0.  0.
        -12    1    1    2    0    0 -0.14106652074E+02  0.11680788059E+02  0.39020765471E+01  0.18726041862E+02  0.00000000000E+00 0.  1.
         11    1    3    3    0    0  0.23653933739E+02  0.21385622867E+02 -0.28299058143E+01  0.32013463010E+02  0.51100000000E-03 0. -1.
        -11    1    3    3    0    0 -0.83603612269E+00 -0.10695027004E+02  0.93933619743E+01  0.14258955377E+02  0.51100000000E-03 0.  1.
        -12    1    3    3    0    0 -0.87112455430E+01 -0.22371383922E+02 -0.10465532707E+02  0.26189539751E+02  0.00000000000E+00 0.  1.
</event>
<event>
 7    1  0.2710146E-013  0.7246169E+02  0.7816164E-02  0.1226708E+00
        -11   -1    0    0    0    0  0.00000000000E+00  0.00000000000E+00  0.45593999997E+02  0.45594000000E+02  0.51100000000E-03 0.  1.
         11   -1    0    0    0    0 -0.00000000000E+00 -0.00000000000E+00 -0.45593999997E+02  0.45594000000E+02  0.51100000000E-03 0. -1.
    9900012    2    1    2    0    0  0.11074826627E+02  0.10160398525E+02 -0.11170912585E+02  0.72461687736E+02  0.70000152990E+02 0.  0.
        -12    1    1    2    0    0 -0.11074826627E+02 -0.10160398525E+02  0.11170912585E+02  0.18726312264E+02  0.00000000000E+00 0.  1.
         11    1    3    3    0    0  0.17355207344E+02 -0.19559916967E+02 -0.12320225007E+02  0.28906426935E+02  0.51100000000E-03 0. -1.
        -11    1    3    3    0    0 -0.83369786213E+01  0.67716486255E+01  0.13628545116E+02  0.17352166432E+02  0.51100000000E-03 0.  1.
        -12    1    3    3    0    0  0.20565979047E+01  0.22948666866E+02 -0.12479232695E+02  0.26203094369E+02  0.00000000000E+00 0.  1.
</event>
<event>
 7    1  0.2710146E-013  0.7246166E+02  0.7816164E-02  0.1226708E+00
        -11   -1    0    0    0    0  0.00000000000E+00  0.00000000000E+00  0.45593999997E+02  0.45594000000E+02  0.51100000000E-03 0.  1.
         11   -1    0    0    0    0 -0.00000000000E+00 -0.00000000000E+00 -0.45593999997E+02  0.45594000000E+02  0.51100000000E-03 0. -1.
    9900012    2    1    2    0    0  0.13267046765E+01 -0.13088547771E+02 -0.13326875187E+02  0.72461659452E+02  0.70000116144E+02 0.  0.
        -12    1    1    2    0    0 -0.13267046765E+01  0.13088547771E+02  0.13326875187E+02  0.18726340548E+02  0.00000000000E+00 0.  1.
         11    1    3    3    0    0 -0.24090985453E+01 -0.29113148908E+02 -0.27362494957E+02  0.40026058083E+02  0.51100000000E-03 0. -1.
        -11    1    3    3    0    0 -0.54646493391E+00 -0.62953768801E+01  0.15567598470E+01  0.65079870520E+01  0.51100000000E-03 0.  1.
        -12    1    3    3    0    0  0.42822681558E+01  0.22319978017E+02  0.12478859922E+02  0.25927614317E+02  0.00000000000E+00 0.  1.
</event>
<event>
 7    1  0.2710146E-013  0.7246158E+02  0.7816164E-02  0.1226708E+00
        -11   -1    0    0    0    0  0.00000000000E+00  0.00000000000E+00  0.45593999997E+02  0.45594000000E+02  0.51100000000E-03 0. -1.
         11   -1    0    0    0    0 -0.00000000000E+00 -0.00000000000E+00 -0.45593999997E+02  0.45594000000E+02  0.51100000000E-03 0.  1.
    9900012    2    1    2    0    0  0.13858486409E+02 -0.11358112787E+02  0.54419216900E+01  0.72461577936E+02  0.70000009955E+02 0.  0.
        -12    1    1    2    0    0 -0.13858486409E+02  0.11358112787E+02 -0.54419216900E+01  0.18726422064E+02  0.00000000000E+00 0.  1.
         11    1    3    3    0    0  0.58019371010E+01 -0.45475418481E+01 -0.15359804152E+02  0.17037200322E+02  0.51100000000E-03 0. -1.
        -11    1    3    3    0    0 -0.18370908494E+02  0.60291389506E+01 -0.15377538972E+00  0.19335574533E+02  0.51100000000E-03 0.  1.
         12    1    3    3    0    0  0.26427457802E+02 -0.12839709890E+02  0.20955501232E+02  0.36088803081E+02  0.00000000000E+00 0. -1.
</event>
<event>
 7    1  0.2710146E-013  0.7246157E+02  0.7816164E-02  0.1226708E+00
        -11   -1    0    0    0    0  0.00000000000E+00  0.00000000000E+00  0.45593999997E+02  0.45594000000E+02  0.51100000000E-03 0. -1.
         11   -1    0    0    0    0 -0.00000000000E+00 -0.00000000000E+00 -0.45593999997E+02  0.45594000000E+02  0.51100000000E-03 0.  1.
    9900012    2    1    2    0    0 -0.78117844905E+01 -0.88696023968E+01  0.14525336035E+02  0.72461569199E+02  0.69999998574E+02 0.  0.
        -12    1    1    2    0    0  0.78117844905E+01  0.88696023968E+01 -0.14525336035E+02  0.18726430801E+02  0.00000000000E+00 0.  1.
         11    1    3    3    0    0 -0.50742737862E+01 -0.21875463589E+02  0.13540984890E+02  0.26222937169E+02  0.51100000000E-03 0. -1.
        -11    1    3    3    0    0 -0.21430479724E+02  0.67782437851E+01 -0.89250390434E+01  0.24184010672E+02  0.51100000000E-03 0.  1.
         12    1    3    3    0    0  0.18692969020E+02  0.62276174075E+01  0.99093901887E+01  0.22054621358E+02  0.00000000000E+00 0. -1.
</event>
<event>
 7    1  0.2710146E-013  0.7246129E+02  0.7816164E-02  0.1226709E+00
        -11   -1    0    0    0    0  0.00000000000E+00  0.00000000000E+00  0.45593999997E+02  0.45594000000E+02  0.51100000000E-03 0.  1.
         11   -1    0    0    0    0 -0.00000000000E+00 -0.00000000000E+00 -0.45593999997E+02  0.45594000000E+02  0.51100000000E-03 0. -1.
    9900012    2    1    2    0    0 -0.15591639801E+01  0.51456319852E+01 -0.17938254814E+02  0.72461294294E+02  0.69999640457E+02 0.  0.
        -12    1    1    2    0    0  0.15591639801E+01 -0.51456319852E+01  0.17938254814E+02  0.18726705706E+02  0.00000000000E+00 0.  1.
         11    1    3    3    0    0 -0.27331926380E+01 -0.48846573567E+01 -0.21202602569E+02  0.21928989385E+02  0.51100000000E-03 0. -1.
        -11    1    3    3    0    0 -0.19792460604E+02  0.16016154501E+02 -0.70393547069E+01  0.26416116609E+02  0.51100000000E-03 0.  1.
         12    1    3    3    0    0  0.20966489262E+02 -0.59858651593E+01  0.10303702462E+02  0.24116188300E+02  0.00000000000E+00 0. -1.
</event>
<event>
 7    1  0.2710146E-013  0.7246195E+02  0.7816164E-02  0.1226707E+00
        -11   -1    0    0    0    0  0.00000000000E+00  0.00000000000E+00  0.45593999997E+02  0.45594000000E+02  0.51100000000E-03 0.  1.
         11   -1    0    0    0    0 -0.00000000000E+00 -0.00000000000E+00 -0.45593999997E+02  0.45594000000E+02  0.51100000000E-03 0. -1.
    9900012    2    1    2    0    0  0.56978124687E+01 -0.16482207827E+02 -0.68217703291E+01  0.72461954176E+02  0.70000500075E+02 0.  0.
        -12    1    1    2    0    0 -0.56978124687E+01  0.16482207827E+02  0.68217703291E+01  0.18726045824E+02  0.00000000000E+00 0.  1.
         11    1    3    3    0    0  0.25499095837E+02  0.14432445781E+01  0.16512030228E+02  0.30412727368E+02  0.51100000000E-03 0.  1.
        -11    1    3    3    0    0 -0.32600371680E+00 -0.15263085148E+02 -0.11406168567E+02  0.19056986338E+02  0.51100000000E-03 0. -1.
        -12    1    3    3    0    0 -0.19475279652E+02 -0.26623672573E+01 -0.11927631991E+02  0.22992240470E+02  0.00000000000E+00 0.  1.
</event>
<event>
 7    1  0.2710146E-013  0.7246162E+02  0.7816164E-02  0.1226708E+00
        -11   -1    0    0    0    0  0.00000000000E+00  0.00000000000E+00  0.45593999997E+02  0.45594000000E+02  0.51100000000E-03 0.  1.
         11   -1    0    0    0    0 -0.00000000000E+00 -0.00000000000E+00 -0.45593999997E+02  0.45594000000E+02  0.51100000000E-03 0. -1.
    9900012    2    1    2    0    0 -0.73957837123E+01  0.10011528271E+02 -0.13991031248E+02  0.72461621001E+02  0.70000066055E+02 0.  0.
        -12    1    1    2    0    0  0.73957837123E+01 -0.10011528271E+02  0.13991031248E+02  0.18726378999E+02  0.00000000000E+00 0.  1.
         11    1    3    3    0    0  0.21217792295E+02  0.97278610236E+01 -0.22550497162E+02  0.32455368007E+02  0.51100000000E-03 0. -1.
        -11    1    3    3    0    0  0.24292143887E+01  0.56366318911E+01  0.56991207706E+01  0.83757196372E+01  0.51100000000E-03 0.  1.
        -12    1    3    3    0    0 -0.31042790396E+02 -0.53529646438E+01  0.28603451434E+01  0.31630533356E+02  0.00000000000E+00 0.  1.
</event>
<event>
 7    1  0.2710146E-013  0.7246106E+02  0.7816164E-02  0.1226709E+00
        -11   -1    0    0    0    0  0.00000000000E+00  0.00000000000E+00  0.45593999997E+02  0.45594000000E+02  0.51100000000E-03 0.  1.
         11   -1    0    0    0    0 -0.00000000000E+00 -0.00000000000E+00 -0.45593999997E+02  0.45594000000E+02  0.51100000000E-03 0. -1.
    9900012    2    1    2    0    0  0.16975919046E+02 -0.47555194598E+01  0.63167712144E+01  0.72461057073E+02  0.69999331431E+02 0.  0.
        -12    1    1    2    0    0 -0.16975919046E+02  0.47555194598E+01 -0.63167712144E+01  0.18726942927E+02  0.00000000000E+00 0.  1.
         11    1    3    3    0    0 -0.84477036191E+01  0.48778900978E+00 -0.22771468609E+02  0.24292826460E+02  0.51100000000E-03 0. -1.
        -11    1    3    3    0    0 -0.46132154350E+01  0.12404848727E+01 -0.13005840660E+01  0.49509674351E+01  0.51100000000E-03 0.  1.
        -12    1    3    3    0    0  0.30036838101E+02 -0.64837933423E+01  0.30388823890E+02  0.43217263178E+02  0.00000000000E+00 0.  1.
</event>
<event>
 7    1  0.2710146E-013  0.7246156E+02  0.7816164E-02  0.1226708E+00
        -11   -1    0    0    0    0  0.00000000000E+00  0.00000000000E+00  0.45593999997E+02  0.45594000000E+02  0.51100000000E-03 0. -1.
         11   -1    0    0    0    0 -0.00000000000E+00 -0.00000000000E+00 -0.45593999997E+02  0.45594000000E+02  0.51100000000E-03 0.  1.
    9900012    2    1    2    0    0 -0.15101661740E+02 -0.10279370064E+02 -0.41175284076E+01  0.72461556761E+02  0.69999982370E+02 0.  0.
        -12    1    1    2    0    0  0.15101661740E+02  0.10279370064E+02  0.41175284076E+01  0.18726443239E+02  0.00000000000E+00 0.  1.
         11    1    3    3    0    0 -0.75373835227E+01 -0.71610263818E+01  0.59835495171E+01  0.11995637303E+02  0.51100000000E-03 0. -1.
        -11    1    3    3    0    0 -0.27063591067E+02  0.15624897775E+02  0.91033341315E+00  0.31263462685E+02  0.51100000000E-03 0.  1.
         12    1    3    3    0    0  0.19499312850E+02 -0.18743241457E+02 -0.11011411338E+02  0.29202456773E+02  0.00000000000E+00 0. -1.
</event>
<event>
 7    1  0.2710146E-013  0.7246149E+02  0.7816164E-02  0.1226708E+00
        -11   -1    0    0    0    0  0.00000000000E+00  0.00000000000E+00  0.45593999997E+02  0.45594000000E+02  0.51100000000E-03 0.  1.
         11   -1    0    0    0    0 -0.00000000000E+00 -0.00000000000E+00 -0.45593999997E+02  0.45594000000E+02  0.51100000000E-03 0. -1.
    9900012    2    1    2    0    0  0.73492505925E+01  0.14905865304E+02  0.86305272326E+01  0.72461486575E+02  0.69999890940E+02 0.  0.
        -12    1    1    2    0    0 -0.73492505925E+01 -0.14905865304E+02 -0.86305272326E+01  0.18726513425E+02  0.00000000000E+00 0.  1.
         11    1    3    3    0    0  0.21606745922E+02  0.48761029586E+01  0.56775278656E+01  0.22866179661E+02  0.51100000000E-03 0. -1.
        -11    1    3    3    0    0  0.60029189452E+01  0.71237419609E+01  0.20575653570E+02  0.22586284676E+02  0.51100000000E-03 0.  1.
         12    1    3    3    0    0 -0.20260414274E+02  0.29060203849E+01 -0.17622654203E+02  0.27009022237E+02  0.00000000000E+00 0. -1.
</event>
<event>
 7    1  0.2710146E-013  0.7246165E+02  0.7816164E-02  0.1226708E+00
        -11   -1    0    0    0    0  0.00000000000E+00  0.00000000000E+00  0.45593999997E+02  0.45594000000E+02  0.51100000000E-03 0.  1.
         11   -1    0    0    0    0 -0.00000000000E+00 -0.00000000000E+00 -0.45593999997E+02  0.45594000000E+02  0.51100000000E-03 0. -1.
    9900012    2    1    2    0    0 -0.12203333818E+02  0.84881208018E+01 -0.11388883265E+02  0.72461649233E+02  0.70000102832E+02 0.  0.
        -12    1    1    2    0    0  0.12203333818E+02 -0.84881208018E+01  0.11388883265E+02  0.18726350767E+02  0.00000000000E+00 0.  1.
         11    1    3    3    0    0  0.11427259718E+02  0.17067003529E+02  0.11922960737E+02  0.23749144555E+02  0.51100000000E-03 0. -1.
        -11    1    3    3    0    0 -0.85692524142E+01  0.36011507979E+01  0.77525698653E+01  0.12103830542E+02  0.51100000000E-03 0.  1.
        -12    1    3    3    0    0 -0.15061341122E+02 -0.12180033525E+02 -0.31064413867E+02  0.36608674136E+02  0.00000000000E+00 0.  1.
</event>
<event>
 7    1  0.2710146E-013  0.7246165E+02  0.7816164E-02  0.1226708E+00
        -11   -1    0    0    0    0  0.00000000000E+00  0.00000000000E+00  0.45593999997E+02  0.45594000000E+02  0.51100000000E-03 0.  1.
         11   -1    0    0    0    0 -0.00000000000E+00 -0.00000000000E+00 -0.45593999997E+02  0.45594000000E+02  0.51100000000E-03 0. -1.
    9900012    2    1    2    0    0  0.33153627944E+01 -0.43056960623E+01 -0.17920530935E+02  0.72461652838E+02  0.70000107528E+02 0.  0.
        -12    1    1    2    0    0 -0.33153627944E+01  0.43056960623E+01  0.17920530935E+02  0.18726347162E+02  0.00000000000E+00 0.  1.
         11    1    3    3    0    0 -0.28694748292E+01 -0.19735056589E+01 -0.24477877324E+01  0.42567916822E+01  0.51100000000E-03 0. -1.
        -11    1    3    3    0    0 -0.20872188187E+02  0.20107264571E+02  0.18026380247E+01  0.29037903374E+02  0.51100000000E-03 0.  1.
         12    1    3    3    0    0  0.27057025811E+02 -0.22439454975E+02 -0.17275381228E+02  0.39166957781E+02  0.00000000000E+00 0. -1.
</event>
<event>
 7    1  0.2710146E-013  0.7246162E+02  0.7816164E-02  0.1226708E+00
        -11   -1    0    0    0    0  0.00000000000E+00  0.00000000000E+00  0.45593999997E+02  0.45594000000E+02  0.51100000000E-03 0. -1.
         11   -1    0    0    0    0 -0.00000000000E+00 -0.00000000000E+00 -0.45593999997E+02  0.45594000000E+02  0.51100000000E-03 0.  1.
    9900012    2    1    2    0    0 -0.97603840061E+01  0.13373526864E+02  0.87499196979E+01  0.72461617236E+02  0.70000061150E+02 0.  0.
        -12    1    1    2    0    0  0.97603840061E+01 -0.13373526864E+02 -0.87499196979E+01  0.18726382764E+02  0.00000000000E+00 0.  1.
         11    1    3    3    0    0  0.15369844868E+01 -0.72622348987E+01  0.20928142359E+01  0.77124735801E+01  0.51100000000E-03 0. -1.
        -11    1    3    3    0    0  0.19600909580E+02  0.20061529006E+02  0.16219918320E+02  0.32399789397E+02  0.51100000000E-03 0.  1.
         12    1    3    3    0    0 -0.30898278073E+02  0.57423275664E+00 -0.95628128579E+01  0.32349354258E+02  0.00000000000E+00 0. -1.
</event>
<event>
 7    1  0.2710146E-013  0.7246160E+02  0.7816164E-02  0.1226708E+00
        -11   -1    0    0    0    0  0.00000000000E+00  0.00000000000E+00  0.45593999997E+02  0.45594000000E+02  0.51100000000E-03 0.  1.
         11   -1    0    0    0    0 -0.00000000000E+00 -0.00000000000E+00 -0.45593999997E+02  0.45594000000E+02  0.51100000000E-03 0. -1.
    9900012    2    1    2    0    0 -0.17625009218E+02 -0.39766439281E+01 -0.49217206169E+01  0.72461602036E+02  0.70000041349E+02 0.  0.
        -12    1    1    2    0    0  0.17625009218E+02  0.39766439281E+01  0.49217206169E+01  0.18726397964E+02  0.00000000000E+00 0.  1.
         11    1    3    3    0    0  0.75517513774E+01  0.55993005568E+01 -0.27495701605E+02  0.29058470755E+02  0.51100000000E-03 0. -1.
        -11    1    3    3    0    0 -0.31559272055E+01  0.50555568317E+01 -0.29539345784E+01  0.66516359762E+01  0.51100000000E-03 0.  1.
        -12    1    3    3    0    0 -0.22020833390E+02 -0.14631501317E+02  0.25527915566E+02  0.36751495305E+02  0.00000000000E+00 0.  1.
</event>
<event>
 7    1  0.2710146E-013  0.7246149E+02  0.7816164E-02  0.1226708E+00
        -11   -1    0    0    0    0  0.00000000000E+00  0.00000000000E+00  0.45593999997E+02  0.45594000000E+02  0.51100000000E-03 0.  1.
         11   -1    0    0    0    0 -0.00000000000E+00 -0.00000000000E+00 -0.45593999997E+02  0.45594000000E+02  0.51100000000E-03 0. -1.
    9900012    2    1    2    0    0  0.11952977878E+02 -0.41957454350E+01 -0.13791450928E+02  0.72461492621E+02  0.69999898816E+02 0.  0.
        -12    1    1    2    0    0 -0.11952977878E+02  0.41957454350E+01  0.13791450928E+02  0.18726507379E+02  0.00000000000E+00 0.  1.
         11    1    3    3    0    0 -0.14702590955E+02  0.12754743388E+02  0.70999771237E+00  0.19477005845E+02  0.51100000000E-03 0. -1.
        -11    1    3    3    0    0  0.44892662385E+01  0.83574164850E+01 -0.16767791603E+02  0.19265480974E+02  0.51100000000E-03 0.  1.
         12    1    3    3    0    0  0.22166302595E+02 -0.25307905308E+02  0.22663429627E+01  0.33719005801E+02  0.00000000000E+00 0. -1.
</event>
<event>
 7    1  0.2710146E-013  0.7246181E+02  0.7816164E-02  0.1226707E+00
        -11   -1    0    0    0    0  0.00000000000E+00  0.00000000000E+00  0.45593999997E+02  0.45594000000E+02  0.51100000000E-03 0. -1.
         11   -1    0    0    0    0 -0.00000000000E+00 -0.00000000000E+00 -0.45593999997E+02  0.45594000000E+02  0.51100000000E-03 0.  1.
    9900012    2    1    2    0    0  0.25659193277E+01 -0.80738132529E+01  0.16700297370E+02  0.72461806188E+02  0.70000307295E+02 0.  0.
        -12    1    1    2    0    0 -0.25659193277E+01  0.80738132529E+01 -0.16700297370E+02  0.18726193812E+02  0.00000000000E+00 0.  1.
         11    1    3    3    0    0 -0.20451276980E+02  0.97344271847E+01  0.17372327209E+02  0.28544904198E+02  0.51100000000E-03 0. -1.
        -11    1    3    3    0    0  0.81433296472E+01  0.58073951612E+01 -0.10334786969E+02  0.14382193096E+02  0.51100000000E-03 0.  1.
        -12    1    3    3    0    0  0.14873866660E+02 -0.23615635599E+02  0.96627571290E+01  0.29534708895E+02  0.00000000000E+00 0.  1.
</event>
<event>
 7    1  0.3447053E-013  0.7246155E+02  0.7816164E-02  0.1226708E+00
        -11   -1    0    0    0    0  0.00000000000E+00  0.00000000000E+00  0.45593999997E+02  0.45594000000E+02  0.51100000000E-03 0. -1.
         11   -1    0    0    0    0 -0.00000000000E+00 -0.00000000000E+00 -0.45593999997E+02  0.45594000000E+02  0.51100000000E-03 0.  1.
    9900012    2    1    2    0    0  0.19225035330E+01  0.11601218018E+02  0.14573801519E+02  0.72461548920E+02  0.69999972157E+02 0.  0.
        -12    1    1    2    0    0 -0.19225035330E+01 -0.11601218018E+02 -0.14573801519E+02  0.18726451080E+02  0.00000000000E+00 0.  1.
         11    1    3    3    0    0 -0.16105076473E+02  0.59178469961E+01  0.21368647806E+02  0.27404625715E+02  0.51100000000E-03 0. -1.
        -11    1    3    3    0    0 -0.12705081688E+02 -0.22706201227E+00 -0.51710621421E+01  0.13718984722E+02  0.51100000000E-03 0.  1.
        -12    1    3    3    0    0  0.30732661694E+02  0.59104330340E+01 -0.16237841453E+01  0.31337938484E+02  0.00000000000E+00 0.  1.
</event>
<event>
 7    1  0.2710146E-013  0.7246153E+02  0.7816164E-02  0.1226708E+00
        -11   -1    0    0    0    0  0.00000000000E+00  0.00000000000E+00  0.45593999997E+02  0.45594000000E+02  0.51100000000E-03 0. -1.
         11   -1    0    0    0    0 -0.00000000000E+00 -0.00000000000E+00 -0.45593999997E+02  0.45594000000E+02  0.51100000000E-03 0.  1.
    9900012    2    1    2    0    0  0.11178398578E+02  0.12106982153E+02  0.88963551178E+01  0.72461528202E+02  0.69999945167E+02 0.  0.
        -12    1    1    2    0    0 -0.11178398578E+02 -0.12106982153E+02 -0.88963551178E+01  0.18726471798E+02  0.00000000000E+00 0.  1.
         11    1    3    3    0    0  0.19827669945E+02  0.18854431828E+02  0.54980694143E+01  0.27907971308E+02  0.51100000000E-03 0. -1.
        -11    1    3    3    0    0  0.14513490990E+02  0.49041129281E+01 -0.67098811066E+01  0.16724659909E+02  0.51100000000E-03 0.  1.
        -12    1    3    3    0    0 -0.23162762358E+02 -0.11651562603E+02  0.10108166810E+02  0.27828896985E+02  0.00000000000E+00 0.  1.
</event>
<event>
 7    1  0.2710146E-013  0.7246156E+02  0.7816164E-02  0.1226708E+00
        -11   -1    0    0    0    0  0.00000000000E+00  0.00000000000E+00  0.45593999997E+02  0.45594000000E+02  0.51100000000E-03 0.  1.
         11   -1    0    0    0    0 -0.00000000000E+00 -0.00000000000E+00 -0.45593999997E+02  0.45594000000E+02  0.51100000000E-03 0. -1.
    9900012    2    1    2    0    0 -0.14547440076E+02  0.51149660388E+01 -0.10624907592E+02  0.72461560090E+02  0.69999986707E+02 0.  0.
        -12    1    1    2    0    0  0.14547440076E+02 -0.51149660388E+01  0.10624907592E+02  0.18726439910E+02  0.00000000000E+00 0.  1.
         11    1    3    3    0    0  0.14401959186E+02  0.14617747765E+02 -0.39711961516E+01  0.20901324772E+02  0.51100000000E-03 0. -1.
        -11    1    3    3    0    0  0.47104538117E+01  0.34464791725E+01  0.10199891063E+02  0.11751781642E+02  0.51100000000E-03 0.  1.
        -12    1    3    3    0    0 -0.33659853073E+02 -0.12949260898E+02 -0.16853602504E+02  0.39808453676E+02  0.00000000000E+00 0.  1.
</event>
<event>
 7    1  0.2710146E-013  0.7246152E+02  0.7816164E-02  0.1226708E+00
        -11   -1    0    0    0    0  0.00000000000E+00  0.00000000000E+00  0.45593999997E+02  0.45594000000E+02  0.51100000000E-03 0.  1.
         11   -1    0    0    0    0 -0.00000000000E+00 -0.00000000000E+00 -0.45593999997E+02  0.45594000000E+02  0.51100000000E-03 0. -1.
    9900012    2    1    2    0    0 -0.14716222250E+02 -0.17889378313E+01 -0.11441739189E+02  0.72461524316E+02  0.69999940105E+02 0.  0.
        -12    1    1    2    0    0  0.14716222250E+02  0.17889378313E+01  0.11441739189E+02  0.18726475684E+02  0.00000000000E+00 0.  1.
         11    1    3    3    0    0 -0.92973925539E+01 -0.24758008307E+02 -0.15069783757E+01  0.26489082047E+02  0.51100000000E-03 0. -1.
        -11    1    3    3    0    0 -0.21610123753E+02  0.10735034511E+02 -0.21067571353E+01  0.24221412850E+02  0.51100000000E-03 0.  1.
         12    1    3    3    0    0  0.16191294056E+02  0.12234035965E+02 -0.78280036777E+01  0.21751029419E+02  0.00000000000E+00 0. -1.
</event>
<event>
 7    1  0.2710146E-013  0.7246156E+02  0.7816164E-02  0.1226708E+00
        -11   -1    0    0    0    0  0.00000000000E+00  0.00000000000E+00  0.45593999997E+02  0.45594000000E+02  0.51100000000E-03 0.  1.
         11   -1    0    0    0    0 -0.00000000000E+00 -0.00000000000E+00 -0.45593999997E+02  0.45594000000E+02  0.51100000000E-03 0. -1.
    9900012    2    1    2    0    0 -0.10962071545E+02  0.85626915717E+01 -0.12537664225E+02  0.72461555497E+02  0.69999980723E+02 0.  0.
        -12    1    1    2    0    0  0.10962071545E+02 -0.85626915717E+01  0.12537664225E+02  0.18726444503E+02  0.00000000000E+00 0.  1.
         11    1    3    3    0    0  0.74997630643E+01 -0.62006260260E+01 -0.10230494267E+02  0.14119391713E+02  0.51100000000E-03 0. -1.
        -11    1    3    3    0    0  0.99218087066E+01 -0.14293315121E+02 -0.33056939242E+01  0.17710696139E+02  0.51100000000E-03 0.  1.
         12    1    3    3    0    0 -0.28383643316E+02  0.29056632719E+02  0.99852396586E+00  0.40631467644E+02  0.00000000000E+00 0. -1.
</event>
<event>
 7    1  0.2710146E-013  0.7246169E+02  0.7816164E-02  0.1226708E+00
        -11   -1    0    0    0    0  0.00000000000E+00  0.00000000000E+00  0.45593999997E+02  0.45594000000E+02  0.51100000000E-03 0.  1.
         11   -1    0    0    0    0 -0.00000000000E+00 -0.00000000000E+00 -0.45593999997E+02  0.45594000000E+02  0.51100000000E-03 0. -1.
    9900012    2    1    2    0    0 -0.10423327351E+02 -0.77988628964E+01 -0.13461296908E+02  0.72461694172E+02  0.70000161373E+02 0.  0.
        -12    1    1    2    0    0  0.10423327351E+02  0.77988628964E+01  0.13461296908E+02  0.18726305828E+02  0.00000000000E+00 0.  1.
         11    1    3    3    0    0 -0.95217295735E+01 -0.67686185168E+01 -0.31051662473E+02  0.33176547037E+02  0.51100000000E-03 0. -1.
        -11    1    3    3    0    0  0.84254562112E+00  0.12339837790E+02 -0.47021109042E+01  0.13232207942E+02  0.51100000000E-03 0.  1.
        -12    1    3    3    0    0 -0.17441433983E+01 -0.13370082170E+02  0.22292476470E+02  0.26052939192E+02  0.00000000000E+00 0.  1.
</event>
<event>
 7    1  0.2710146E-013  0.7246158E+02  0.7816164E-02  0.1226708E+00
        -11   -1    0    0    0    0  0.00000000000E+00  0.00000000000E+00  0.45593999997E+02  0.45594000000E+02  0.51100000000E-03 0.  1.
         11   -1    0    0    0    0 -0.00000000000E+00 -0.00000000000E+00 -0.45593999997E+02  0.45594000000E+02  0.51100000000E-03 0. -1.
    9900012    2    1    2    0    0 -0.15754747378E+02  0.81802336981E+01  0.59624360799E+01  0.72461576628E+02  0.70000008250E+02 0.  0.
        -12    1    1    2    0    0  0.15754747378E+02 -0.81802336981E+01 -0.59624360799E+01  0.18726423372E+02  0.00000000000E+00 0.  1.
         11    1    3    3    0    0  0.13674202878E+02  0.42688319655E+01  0.27815210930E+01  0.14592587521E+02  0.51100000000E-03 0. -1.
        -11    1    3    3    0    0  0.68060470524E+01 -0.11383279029E+02  0.11631546783E+02  0.17640697230E+02  0.51100000000E-03 0.  1.
         12    1    3    3    0    0 -0.36234997309E+02  0.15294680762E+02 -0.84506317957E+01  0.40228291877E+02  0.00000000000E+00 0. -1.
</event>
<event>
 7    1  0.2710146E-013  0.7246183E+02  0.7816164E-02  0.1226707E+00
        -11   -1    0    0    0    0  0.00000000000E+00  0.00000000000E+00  0.45593999997E+02  0.45594000000E+02  0.51100000000E-03 0.  1.
         11   -1    0    0    0    0 -0.00000000000E+00 -0.00000000000E+00 -0.45593999997E+02  0.45594000000E+02  0.51100000000E-03 0. -1.
    9900012    2    1    2    0    0 -0.15502288941E+02 -0.77874439464E+01 -0.70501118086E+01  0.72461833223E+02  0.70000342513E+02 0.  0.
        -12    1    1    2    0    0  0.15502288941E+02  0.77874439464E+01  0.70501118086E+01  0.18726166777E+02  0.00000000000E+00 0.  1.
         11    1    3    3    0    0 -0.15132939086E+01 -0.95013506797E+01 -0.85041493906E+01  0.12840805283E+02  0.51100000000E-03 0. -1.
        -11    1    3    3    0    0 -0.10281501415E+02 -0.27829608813E+02 -0.14567750204E+01  0.29703848097E+02  0.51100000000E-03 0.  1.
         12    1    3    3    0    0 -0.37074936174E+01  0.29543515547E+02  0.29108126024E+01  0.29917179843E+02  0.00000000000E+00 0. -1.
</event>
<event>
 7    1  0.2710146E-013  0.7246156E+02  0.7816164E-02  0.1226708E+00
        -11   -1    0    0    0    0  0.00000000000E+00  0.00000000000E+00  0.45593999997E+02  0.45594000000E+02  0.51100000000E-03 0. -1.
         11   -1    0    0    0    0 -0.00000000000E+00 -0.00000000000E+00 -0.45593999997E+02  0.45594000000E+02  0.51100000000E-03 0.  1.
    9900012    2    1    2    0    0 -0.14901240433E+02 -0.89969746130E+01  0.69055773048E+01  0.72461561028E+02  0.69999987929E+02 0.  0.
        -12    1    1    2    0    0  0.14901240433E+02  0.89969746130E+01 -0.69055773048E+01  0.18726438972E+02  0.00000000000E+00 0.  1.
         11    1    3    3    0    0 -0.31744449709E+02 -0.16277946501E+02  0.11326617672E+01  0.35692640033E+02  0.51100000000E-03 0. -1.
        -11    1    3    3    0    0 -0.80647098368E+01  0.31299708270E+01 -0.42037083864E+01  0.96180781130E+01  0.51100000000E-03 0.  1.
        -12    1    3    3    0    0  0.24907919112E+02  0.41510010615E+01  0.99766239240E+01  0.27150842882E+02  0.00000000000E+00 0.  1.
</event>
<event>
 7    1  0.2710146E-013  0.7246156E+02  0.7816164E-02  0.1226708E+00
        -11   -1    0    0    0    0  0.00000000000E+00  0.00000000000E+00  0.45593999997E+02  0.45594000000E+02  0.51100000000E-03 0. -1.
         11   -1    0    0    0    0 -0.00000000000E+00 -0.00000000000E+00 -0.45593999997E+02  0.45594000000E+02  0.51100000000E-03 0.  1.
    9900012    2    1    2    0    0 -0.12602777227E+02  0.87573738526E+01  0.10731160881E+02  0.72461564021E+02  0.69999991827E+02 0.  0.
        -12    1    1    2    0    0  0.12602777227E+02 -0.87573738526E+01 -0.10731160881E+02  0.18726435979E+02  0.00000000000E+00 0.  1.
         11    1    3    3    0    0  0.85784100091E+01 -0.63389422531E+00 -0.22628023958E+01  0.88944485561E+01  0.51100000000E-03 0. -1.
        -11    1    3    3    0    0  0.12846694799E+02 -0.55241744849E+01 -0.12297765520E+02  0.18622274513E+02  0.51100000000E-03 0.  1.
         12    1    3    3    0    0 -0.34027882035E+02  0.14915442563E+02  0.25291728797E+02  0.44944840952E+02  0.00000000000E+00 0. -1.
</event>
<event>
 7    1  0.2710146E-013  0.7246163E+02  0.7816164E-02  0.1226708E+00
        -11   -1    0    0    0    0  0.00000000000E+00  0.00000000000E+00  0.45593999997E+02  0.45594000000E+02  0.51100000000E-03 0. -1.
         11   -1    0    0    0    0 -0.00000000000E+00 -0.00000000000E+00 -0.45593999997E+02  0.45594000000E+02  0.51100000000E-03 0.  1.
    9900012    2    1    2    0    0 -0.16144768375E+02  0.23879141810E+00  0.94850680028E+01  0.72461626025E+02  0.70000072600E+02 0.  0.
        -12    1    1    2    0    0  0.16144768375E+02 -0.23879141810E+00 -0.94850680028E+01  0.18726373975E+02  0.00000000000E+00 0.  1.
         11    1    3    3    0    0 -0.80595304052E+01  0.70378671137E+01  0.67906375388E+01  0.12672819825E+02  0.51100000000E-03 0. -1.
        -11    1    3    3    0    0 -0.14944383090E+02 -0.79256841993E+01  0.28456893592E+02  0.33105072861E+02  0.51100000000E-03 0.  1.
        -12    1    3    3    0    0  0.68591451202E+01  0.11266085037E+01 -0.25762463128E+02  0.26683733340E+02  0.00000000000E+00 0.  1.
</event>
<event>
 7    1  0.2710146E-013  0.7246164E+02  0.7816164E-02  0.1226708E+00
        -11   -1    0    0    0    0  0.00000000000E+00  0.00000000000E+00  0.45593999997E+02  0.45594000000E+02  0.51100000000E-03 0.  1.
         11   -1    0    0    0    0 -0.00000000000E+00 -0.00000000000E+00 -0.45593999997E+02  0.45594000000E+02  0.51100000000E-03 0. -1.
    9900012    2    1    2    0    0 -0.65154681863E+01 -0.16593863854E+02 -0.57331567205E+01  0.72461635449E+02  0.70000084876E+02 0.  0.
        -12    1    1    2    0    0  0.65154681863E+01  0.16593863854E+02  0.57331567205E+01  0.18726364551E+02  0.00000000000E+00 0.  1.
         11    1    3    3    0    0 -0.43053662603E+01  0.12491578520E+02  0.20972128336E+02  0.24787212020E+02  0.51100000000E-03 0.  1.
        -11    1    3    3    0    0 -0.18070756643E+01  0.48669369056E+01 -0.15543086345E+01  0.54192686676E+01  0.51100000000E-03 0. -1.
         12    1    3    3    0    0 -0.40302626176E+00 -0.33952379280E+02 -0.25150976422E+02  0.42255154761E+02  0.00000000000E+00 0. -1.
</event>
<event>
 7    1  0.2710146E-013  0.7246156E+02  0.7816164E-02  0.1226708E+00
        -11   -1    0    0    0    0  0.00000000000E+00  0.00000000000E+00  0.45593999997E+02  0.45594000000E+02  0.51100000000E-03 0.  1.
         11   -1    0    0    0    0 -0.00000000000E+00 -0.00000000000E+00 -0.45593999997E+02  0.45594000000E+02  0.51100000000E-03 0. -1.
    9900012    2    1    2    0    0 -0.29900660801E+01 -0.14351642006E+02  0.11652014276E+02  0.72461559865E+02  0.69999986414E+02 0.  0.
        -12    1    1    2    0    0  0.29900660801E+01  0.14351642006E+02 -0.11652014276E+02  0.18726440135E+02  0.00000000000E+00 0.  1.
         11    1    3    3    0    0  0.19811161524E+02 -0.89153738093E+01 -0.18274513911E+02  0.28388798320E+02  0.51100000000E-03 0. -1.
        -11    1    3    3    0    0  0.16114464048E+01 -0.36435429626E+01 -0.14831928294E+01  0.42511205659E+01  0.51100000000E-03 0.  1.
        -12    1    3    3    0    0 -0.24412674009E+02 -0.17927252345E+01  0.31409721016E+02  0.39821640980E+02  0.00000000000E+00 0.  1.
</event>
<event>
 7    1  0.2710146E-013  0.7246162E+02  0.7816164E-02  0.1226708E+00
        -11   -1    0    0    0    0  0.00000000000E+00  0.00000000000E+00  0.45593999997E+02  0.45594000000E+02  0.51100000000E-03 0. -1.
         11   -1    0    0    0    0 -0.00000000000E+00 -0.00000000000E+00 -0.45593999997E+02  0.45594000000E+02  0.51100000000E-03 0.  1.
    9900012    2    1    2    0    0 -0.81789410509E+01  0.16504424618E+02  0.33743222821E+01  0.72461623961E+02  0.70000069910E+02 0.  0.
        -12    1    1    2    0    0  0.81789410509E+01 -0.16504424618E+02 -0.33743222821E+01  0.18726376039E+02  0.00000000000E+00 0.  1.
         11    1    3    3    0    0 -0.11829457536E+02  0.80346444730E+00 -0.30384524398E+01  0.12239845351E+02  0.51100000000E-03 0. -1.
        -11    1    3    3    0    0  0.23827320027E+00 -0.21913166831E+02  0.10874454519E-01  0.21914464930E+02  0.51100000000E-03 0.  1.
         12    1    3    3    0    0  0.34122432849E+01  0.37614127002E+02  0.64019002674E+01  0.38307313680E+02  0.00000000000E+00 0. -1.
</event>
<event>
 7    1  0.2710146E-013  0.7246164E+02  0.7816164E-02  0.1226708E+00
        -11   -1    0    0    0    0  0.00000000000E+00  0.00000000000E+00  0.45593999997E+02  0.45594000000E+02  0.51100000000E-03 0. -1.
         11   -1    0    0    0    0 -0.00000000000E+00 -0.00000000000E+00 -0.45593999997E+02  0.45594000000E+02  0.51100000000E-03 0.  1.
    9900012    2    1    2    0    0 -0.10737089039E+02 -0.15061936191E+02  0.29205364184E+01  0.72461640615E+02  0.70000091605E+02 0.  0.
        -12    1    1    2    0    0  0.10737089039E+02  0.15061936191E+02 -0.29205364184E+01  0.18726359385E+02  0.00000000000E+00 0.  1.
         11    1    3    3    0    0 -0.12042307089E+02 -0.14303350196E+02  0.13651357902E+02  0.23150865204E+02  0.51100000000E-03 0. -1.
        -11    1    3    3    0    0 -0.96710898219E+01 -0.57157131142E+01  0.16255107260E+02  0.19759247634E+02  0.51100000000E-03 0.  1.
        -12    1    3    3    0    0  0.10976307872E+02  0.49571271192E+01 -0.26985928744E+02  0.29551527777E+02  0.00000000000E+00 0.  1.
</event>
<event>
 7    1  0.2710146E-013  0.7246158E+02  0.7816164E-02  0.1226708E+00
        -11   -1    0    0    0    0  0.00000000000E+00  0.00000000000E+00  0.45593999997E+02  0.45594000000E+02  0.51100000000E-03 0. -1.
         11   -1    0    0    0    0 -0.00000000000E+00 -0.00000000000E+00 -0.45593999997E+02  0.45594000000E+02  0.51100000000E-03 0.  1.
    9900012    2    1    2    0    0  0.17329057486E+02 -0.34281707889E+01 -0.62153221236E+01  0.72461579696E+02  0.70000012248E+02 0.  0.
        -12    1    1    2    0    0 -0.17329057486E+02  0.34281707889E+01  0.62153221236E+01  0.18726420304E+02  0.00000000000E+00 0.  1.
         11    1    3    3    0    0  0.67907284649E+01  0.20570256948E+02  0.18639989493E+02  0.28577940313E+02  0.51100000000E-03 0. -1.
        -11    1    3    3    0    0 -0.22344822071E+01 -0.29565952735E+01  0.43330033701E+01  0.57016913991E+01  0.51100000000E-03 0.  1.
        -12    1    3    3    0    0  0.12772811228E+02 -0.21041832464E+02 -0.29188314986E+02  0.38181947984E+02  0.00000000000E+00 0.  1.
</event>
<event>
 7    1  0.2710146E-013  0.7246152E+02  0.7816164E-02  0.1226708E+00
        -11   -1    0    0    0    0  0.00000000000E+00  0.00000000000E+00  0.45593999997E+02  0.45594000000E+02  0.51100000000E-03 0. -1.
         11   -1    0    0    0    0 -0.00000000000E+00 -0.00000000000E+00 -0.45593999997E+02  0.45594000000E+02  0.51100000000E-03 0.  1.
    9900012    2    1    2    0    0 -0.45818622533E+01  0.14181198921E+02  0.11339363451E+02  0.72461520672E+02  0.69999935358E+02 0.  0.
        -12    1    1    2    0    0  0.45818622533E+01 -0.14181198921E+02 -0.11339363451E+02  0.18726479328E+02  0.00000000000E+00 0.  1.
         11    1    3    3    0    0  0.24666835778E+01 -0.13741145045E+02 -0.62277245138E+01  0.15286861938E+02  0.51100000000E-03 0. -1.
        -11    1    3    3    0    0  0.13532060411E+02 -0.58423558563E+00 -0.60345961041E+01  0.14828160391E+02  0.51100000000E-03 0.  1.
        -12    1    3    3    0    0 -0.20580606242E+02  0.28506579552E+02  0.23601684068E+02  0.42346498343E+02  0.00000000000E+00 0.  1.
</event>
<event>
 7    1  0.2710146E-013  0.7246161E+02  0.7816164E-02  0.1226708E+00
        -11   -1    0    0    0    0  0.00000000000E+00  0.00000000000E+00  0.45593999997E+02  0.45594000000E+02  0.51100000000E-03 0.  1.
         11   -1    0    0    0    0 -0.00000000000E+00 -0.00000000000E+00 -0.45593999997E+02  0.45594000000E+02  0.51100000000E-03 0. -1.
    9900012    2    1    2    0    0  0.16045991003E+02 -0.83092996308E+01  0.49152229512E+01  0.72461609416E+02  0.70000050964E+02 0.  0.
        -12    1    1    2    0    0 -0.16045991003E+02  0.83092996308E+01 -0.49152229512E+01  0.18726390584E+02  0.00000000000E+00 0.  1.
         11    1    3    3    0    0  0.24693825153E+00 -0.83919141185E+01 -0.31816755636E+01  0.89782103297E+01  0.51100000000E-03 0. -1.
        -11    1    3    3    0    0  0.12440426003E+02 -0.17720707923E+02  0.28762250491E+02  0.36000760298E+02  0.51100000000E-03 0.  1.
         12    1    3    3    0    0  0.33586267489E+01  0.17803322410E+02 -0.20665351977E+02  0.27482638789E+02  0.00000000000E+00 0. -1.
</event>
<event>
 7    1  0.2710146E-013  0.7246158E+02  0.7816164E-02  0.1226708E+00
        -11   -1    0    0    0    0  0.00000000000E+00  0.00000000000E+00  0.45593999997E+02  0.45594000000E+02  0.51100000000E-03 0. -1.
         11   -1    0    0    0    0 -0.00000000000E+00 -0.00000000000E+00 -0.45593999997E+02  0.45594000000E+02  0.51100000000E-03 0.  1.
    9900012    2    1    2    0    0  0.81636497046E+01  0.16728694852E+02  0.20455652100E+01  0.72461581629E+02  0.70000014766E+02 0.  0.
        -12    1    1    2    0    0 -0.81636497046E+01 -0.16728694852E+02 -0.20455652100E+01  0.18726418371E+02  0.00000000000E+00 0.  1.
         11    1    3    3    0    0 -0.72601007932E+01  0.16531165240E+02  0.32284538165E+01  0.18341521257E+02  0.51100000000E-03 0. -1.
        -11    1    3    3    0    0  0.27596251574E+02  0.11830227518E+02 -0.13834813338E+02  0.33059180940E+02  0.51100000000E-03 0.  1.
         12    1    3    3    0    0 -0.12172501077E+02 -0.11632697906E+02  0.12651924732E+02  0.21060879432E+02  0.00000000000E+00 0. -1.
</event>
<event>
 7    1  0.2710146E-013  0.7246147E+02  0.7816164E-02  0.1226708E+00
        -11   -1    0    0    0    0  0.00000000000E+00  0.00000000000E+00  0.45593999997E+02  0.45594000000E+02  0.51100000000E-03 0. -1.
         11   -1    0    0    0    0 -0.00000000000E+00 -0.00000000000E+00 -0.45593999997E+02  0.45594000000E+02  0.51100000000E-03 0.  1.
    9900012    2    1    2    0    0 -0.76786468056E+01  0.84054149585E+00  0.17059151607E+02  0.72461473886E+02  0.69999874410E+02 0.  0.
        -12    1    1    2    0    0  0.76786468056E+01 -0.84054149585E+00 -0.17059151607E+02  0.18726526114E+02  0.00000000000E+00 0.  1.
         11    1    3    3    0    0 -0.95682820137E+01 -0.95594605793E+01  0.27515206378E+02  0.30659776411E+02  0.51100000000E-03 0. -1.
        -11    1    3    3    0    0 -0.46970736018E+01  0.87155077409E+01  0.13589433824E+02  0.16813544764E+02  0.51100000000E-03 0.  1.
        -12    1    3    3    0    0  0.65867088098E+01  0.16844943343E+01 -0.24045488596E+02  0.24988152711E+02  0.00000000000E+00 0.  1.
</event>
<event>
 7    1  0.2710146E-013  0.7246165E+02  0.7816164E-02  0.1226708E+00
        -11   -1    0    0    0    0  0.00000000000E+00  0.00000000000E+00  0.45593999997E+02  0.45594000000E+02  0.51100000000E-03 0.  1.
         11   -1    0    0    0    0 -0.00000000000E+00 -0.00000000000E+00 -0.45593999997E+02  0.45594000000E+02  0.51100000000E-03 0. -1.
    9900012    2    1    2    0    0  0.12469482628E+02  0.95340034088E+01 -0.10212291221E+02  0.72461651985E+02  0.70000106417E+02 0.  0.
        -12    1    1    2    0    0 -0.12469482628E+02 -0.95340034088E+01  0.10212291221E+02  0.18726348015E+02  0.00000000000E+00 0.  1.
         11    1    3    3    0    0 -0.10301092009E+02  0.77332794512E+01 -0.14761129022E+02  0.19590993796E+02  0.51100000000E-03 0. -1.
        -11    1    3    3    0    0 -0.79695800254E+01  0.28567570128E+01 -0.14428632876E+02  0.16729038028E+02  0.51100000000E-03 0.  1.
        -12    1    3    3    0    0  0.30740154663E+02 -0.10560330553E+01  0.18977470677E+02  0.36141620160E+02  0.00000000000E+00 0.  1.
</event>
<event>
 7    1  0.2710146E-013  0.7246159E+02  0.7816164E-02  0.1226708E+00
        -11   -1    0    0    0    0  0.00000000000E+00  0.00000000000E+00  0.45593999997E+02  0.45594000000E+02  0.51100000000E-03 0. -1.
         11   -1    0    0    0    0 -0.00000000000E+00 -0.00000000000E+00 -0.45593999997E+02  0.45594000000E+02  0.51100000000E-03 0.  1.
    9900012    2    1    2    0    0  0.65371518573E+01  0.11461420719E+02  0.13288340784E+02  0.72461587634E+02  0.70000022588E+02 0.  0.
        -12    1    1    2    0    0 -0.65371518573E+01 -0.11461420719E+02 -0.13288340784E+02  0.18726412366E+02  0.00000000000E+00 0.  1.
         11    1    3    3    0    0  0.37111482724E+01  0.13700467960E+02 -0.64102649053E+01  0.15574560675E+02  0.51100000000E-03 0. -1.
        -11    1    3    3    0    0  0.54022297389E+01 -0.16682551418E+02 -0.12479012125E+02  0.21522484797E+02  0.51100000000E-03 0.  1.
         12    1    3    3    0    0 -0.25762261540E+01  0.14443504178E+02  0.32177617814E+02  0.35364542162E+02  0.00000000000E+00 0. -1.
</event>
<event>
 7    1  0.2710146E-013  0.7246154E+02  0.7816164E-02  0.1226708E+00
        -11   -1    0    0    0    0  0.00000000000E+00  0.00000000000E+00  0.45593999997E+02  0.45594000000E+02  0.51100000000E-03 0.  1.
         11   -1    0    0    0    0 -0.00000000000E+00 -0.00000000000E+00 -0.45593999997E+02  0.45594000000E+02  0.51100000000E-03 0. -1.
    9900012    2    1    2    0    0  0.11015201805E+01  0.16738113686E+02  0.83248195159E+01  0.72461537001E+02  0.69999956629E+02 0.  0.
        -12    1    1    2    0    0 -0.11015201805E+01 -0.16738113686E+02 -0.83248195159E+01  0.18726462999E+02  0.00000000000E+00 0.  1.
         11    1    3    3    0    0  0.24688199519E+01  0.17956195794E+02 -0.25907340926E+02  0.31618196556E+02  0.51100000000E-03 0. -1.
        -11    1    3    3    0    0 -0.69884661790E+00  0.48302511223E+01 -0.10900564438E+01  0.50007935182E+01  0.51100000000E-03 0.  1.
        -12    1    3    3    0    0 -0.66845315356E+00 -0.60483332302E+01  0.35322216886E+02  0.35842546927E+02  0.00000000000E+00 0.  1.
</event>
<event>
 7    1  0.2710146E-013  0.7246158E+02  0.7816164E-02  0.1226708E+00
        -11   -1    0    0    0    0  0.00000000000E+00  0.00000000000E+00  0.45593999997E+02  0.45594000000E+02  0.51100000000E-03 0.  1.
         11   -1    0    0    0    0 -0.00000000000E+00 -0.00000000000E+00 -0.45593999997E+02  0.45594000000E+02  0.51100000000E-03 0. -1.
    9900012    2    1    2    0    0 -0.33725613161E+01 -0.66503343430E+01 -0.17177824165E+02  0.72461581235E+02  0.70000014252E+02 0.  0.
        -12    1    1    2    0    0  0.33725613161E+01  0.66503343430E+01  0.17177824165E+02  0.18726418765E+02  0.00000000000E+00 0.  1.
         11    1    3    3    0    0  0.19642547093E+02  0.10501699415E+02 -0.19811998227E+02  0.29809908100E+02  0.51100000000E-03 0. -1.
        -11    1    3    3    0    0 -0.17988166088E+02  0.42272735721E+01  0.78531321504E+01  0.20077740059E+02  0.51100000000E-03 0.  1.
        -12    1    3    3    0    0 -0.50269423219E+01 -0.21379307330E+02 -0.52189580890E+01  0.22573933077E+02  0.00000000000E+00 0.  1.
</event>
<event>
 7    1  0.2710146E-013  0.7246171E+02  0.7816164E-02  0.1226708E+00
        -11   -1    0    0    0    0  0.00000000000E+00  0.00000000000E+00  0.45593999997E+02  0.45594000000E+02  0.51100000000E-03 0.  1.
         11   -1    0    0    0    0 -0.00000000000E+00 -0.00000000000E+00 -0.45593999997E+02  0.45594000000E+02  0.51100000000E-03 0. -1.
    9900012    2    1    2    0    0  0.11121885307E+02  0.80835819974E+01 -0.12713510839E+02  0.72461708628E+02  0.70000180205E+02 0.  0.
        -12    1    1    2    0    0 -0.11121885307E+02 -0.80835819974E+01  0.12713510839E+02  0.18726291372E+02  0.00000000000E+00 0.  1.
         11    1    3    3    0    0 -0.21269430547E+02  0.59376255140E+01 -0.24110422960E+02  0.32694901256E+02  0.51100000000E-03 0. -1.
        -11    1    3    3    0    0  0.12761610135E+01 -0.39249098947E+01 -0.28450748317E+01  0.50127792364E+01  0.51100000000E-03 0.  1.
        -12    1    3    3    0    0  0.31115154840E+02  0.60708663781E+01  0.14241986953E+02  0.34754028136E+02  0.00000000000E+00 0.  1.
</event>
<event>
 7    1  0.2710146E-013  0.7246156E+02  0.7816164E-02  0.1226708E+00
        -11   -1    0    0    0    0  0.00000000000E+00  0.00000000000E+00  0.45593999997E+02  0.45594000000E+02  0.51100000000E-03 0.  1.
         11   -1    0    0    0    0 -0.00000000000E+00 -0.00000000000E+00 -0.45593999997E+02  0.45594000000E+02  0.51100000000E-03 0. -1.
    9900012    2    1    2    0    0  0.79360698106E+01 -0.31135586915E+01 -0.16673456662E+02  0.72461558565E+02  0.69999984721E+02 0.  0.
        -12    1    1    2    0    0 -0.79360698106E+01  0.31135586915E+01  0.16673456662E+02  0.18726441435E+02  0.00000000000E+00 0.  1.
         11    1    3    3    0    0  0.85260373559E+01 -0.17442298364E+02 -0.11792859412E+02  0.22715602976E+02  0.51100000000E-03 0. -1.
        -11    1    3    3    0    0 -0.14559591296E+02 -0.99557795282E+01  0.74370691019E+01  0.19141819187E+02  0.51100000000E-03 0.  1.
        -12    1    3    3    0    0  0.13969623750E+02  0.24284519201E+02 -0.12317666352E+02  0.30604136402E+02  0.00000000000E+00 0.  1.
</event>
<event>
 7    1  0.2710146E-013  0.7246175E+02  0.7816164E-02  0.1226708E+00
        -11   -1    0    0    0    0  0.00000000000E+00  0.00000000000E+00  0.45593999997E+02  0.45594000000E+02  0.51100000000E-03 0.  1.
         11   -1    0    0    0    0 -0.00000000000E+00 -0.00000000000E+00 -0.45593999997E+02  0.45594000000E+02  0.51100000000E-03 0. -1.
    9900012    2    1    2    0    0 -0.10897239114E+02  0.58989415126E+01  0.14040120040E+02  0.72461753660E+02  0.70000238867E+02 0.  0.
        -12    1    1    2    0    0  0.10897239114E+02 -0.58989415126E+01 -0.14040120040E+02  0.18726246340E+02  0.00000000000E+00 0.  1.
         11    1    3    3    0    0  0.34655291379E+01  0.95357902070E+01  0.37812397518E+01  0.10827694187E+02  0.51100000000E-03 0. -1.
        -11    1    3    3    0    0  0.11461922202E+02  0.17697022333E+02  0.17455727235E+02  0.27372662888E+02  0.51100000000E-03 0.  1.
        -12    1    3    3    0    0 -0.25824690453E+02 -0.21333871027E+02 -0.71968469470E+01  0.34261396585E+02  0.00000000000E+00 0.  1.
</event>
<event>
 7    1  0.2710146E-013  0.7246156E+02  0.7816164E-02  0.1226708E+00
        -11   -1    0    0    0    0  0.00000000000E+00  0.00000000000E+00  0.45593999997E+02  0.45594000000E+02  0.51100000000E-03 0.  1.
         11   -1    0    0    0    0 -0.00000000000E+00 -0.00000000000E+00 -0.45593999997E+02  0.45594000000E+02  0.51100000000E-03 0. -1.
    9900012    2    1    2    0    0 -0.14452799516E+02 -0.93419706301E+01  0.73840159910E+01  0.72461560903E+02  0.69999987766E+02 0.  0.
        -12    1    1    2    0    0  0.14452799516E+02  0.93419706301E+01 -0.73840159910E+01  0.18726439097E+02  0.00000000000E+00 0.  1.
         11    1    3    3    0    0  0.20656201965E+02 -0.29664930592E+01 -0.95205199046E+01  0.22937285372E+02  0.51100000000E-03 0. -1.
        -11    1    3    3    0    0  0.12449382731E+01 -0.72035367357E+01  0.10198191006E+02  0.12547665634E+02  0.51100000000E-03 0.  1.
         12    1    3    3    0    0 -0.36353939755E+02  0.82805916476E+00  0.67063448893E+01  0.36976609897E+02  0.00000000000E+00 0. -1.
</event>
<event>
 7    1  0.2710146E-013  0.7246163E+02  0.7816164E-02  0.1226708E+00
        -11   -1    0    0    0    0  0.00000000000E+00  0.00000000000E+00  0.45593999997E+02  0.45594000000E+02  0.51100000000E-03 0.  1.
         11   -1    0    0    0    0 -0.00000000000E+00 -0.00000000000E+00 -0.45593999997E+02  0.45594000000E+02  0.51100000000E-03 0. -1.
    9900012    2    1    2    0    0  0.19553077538E+01  0.66729782617E+01 -0.17387499329E+02  0.72461628216E+02  0.70000075453E+02 0.  0.
        -12    1    1    2    0    0 -0.19553077538E+01 -0.66729782617E+01  0.17387499329E+02  0.18726371784E+02  0.00000000000E+00 0.  1.
         11    1    3    3    0    0  0.11130846342E+02  0.21912246196E+02  0.66077396939E+01  0.25450039249E+02  0.51100000000E-03 0. -1.
        -11    1    3    3    0    0  0.50250433864E+01 -0.15379674677E+02  0.30498202843E+01  0.16464715552E+02  0.51100000000E-03 0.  1.
        -12    1    3    3    0    0 -0.14200581975E+02  0.14040674287E+00 -0.27045059307E+02  0.30546873415E+02  0.00000000000E+00 0.  1.
</event>
<event>
 7    1  0.2710146E-013  0.7246154E+02  0.7816164E-02  0.1226708E+00
        -11   -1    0    0    0    0  0.00000000000E+00  0.00000000000E+00  0.45593999997E+02  0.45594000000E+02  0.51100000000E-03 0.  1.
         11   -1    0    0    0    0 -0.00000000000E+00 -0.00000000000E+00 -0.45593999997E+02  0.45594000000E+02  0.51100000000E-03 0. -1.
    9900012    2    1    2    0    0 -0.13420742997E+02 -0.78837503289E+01 -0.10412034915E+02  0.72461539231E+02  0.69999959535E+02 0.  0.
        -12    1    1    2    0    0  0.13420742997E+02  0.78837503289E+01  0.10412034915E+02  0.18726460769E+02  0.00000000000E+00 0.  1.
         11    1    3    3    0    0 -0.33668931156E+02  0.98631606440E+00 -0.62360928571E+01  0.34255781978E+02  0.51100000000E-03 0. -1.
        -11    1    3    3    0    0 -0.17580639126E+01 -0.11060209501E+02 -0.10345575589E+02  0.15246309634E+02  0.51100000000E-03 0.  1.
         12    1    3    3    0    0  0.22006252072E+02  0.21901431077E+01  0.61696335309E+01  0.22959447619E+02  0.00000000000E+00 0. -1.
</event>
<event>
 7    1  0.2710146E-013  0.7246158E+02  0.7816164E-02  0.1226708E+00
        -11   -1    0    0    0    0  0.00000000000E+00  0.00000000000E+00  0.45593999997E+02  0.45594000000E+02  0.51100000000E-03 0. -1.
         11   -1    0    0    0    0 -0.00000000000E+00 -0.00000000000E+00 -0.45593999997E+02  0.45594000000E+02  0.51100000000E-03 0.  1.
    9900012    2    1    2    0    0 -0.46208321409E+01  0.15133033976E+02  0.10015894410E+02  0.72461576214E+02  0.70000007712E+02 0.  0.
        -12    1    1    2    0    0  0.46208321409E+01 -0.15133033976E+02 -0.10015894410E+02  0.18726423786E+02  0.00000000000E+00 0.  1.
         11    1    3    3    0    0 -0.98886267665E+01  0.20564287382E+02  0.18717073114E+02  0.29512771491E+02  0.51100000000E-03 0. -1.
        -11    1    3    3    0    0 -0.56562641577E+01  0.10413363976E+02 -0.18018858461E+02  0.21566426083E+02  0.51100000000E-03 0.  1.
        -12    1    3    3    0    0  0.10924058783E+02 -0.15844617382E+02  0.93176797563E+01  0.21382378640E+02  0.00000000000E+00 0.  1.
</event>
<event>
 7    1  0.2710146E-013  0.7246160E+02  0.7816164E-02  0.1226708E+00
        -11   -1    0    0    0    0  0.00000000000E+00  0.00000000000E+00  0.45593999997E+02  0.45594000000E+02  0.51100000000E-03 0. -1.
         11   -1    0    0    0    0 -0.00000000000E+00 -0.00000000000E+00 -0.45593999997E+02  0.45594000000E+02  0.51100000000E-03 0.  1.
    9900012    2    1    2    0    0  0.69764143157E+01 -0.76287656538E+01  0.15614408052E+02  0.72461597224E+02  0.70000035081E+02 0.  0.
        -12    1    1    2    0    0 -0.69764143157E+01  0.76287656538E+01 -0.15614408052E+02  0.18726402776E+02  0.00000000000E+00 0.  1.
         11    1    3    3    0    0 -0.82773231768E+01 -0.24520709685E+01  0.28105433721E+02  0.29401396836E+02  0.51100000000E-03 0. -1.
        -11    1    3    3    0    0  0.17438759827E+02 -0.18748786939E+02 -0.18423759934E+01  0.25671418066E+02  0.51100000000E-03 0.  1.
         12    1    3    3    0    0 -0.21850223341E+01  0.13572092253E+02 -0.10648649676E+02  0.17388782322E+02  0.00000000000E+00 0. -1.
</event>
<event>
 7    1  0.2710146E-013  0.7246155E+02  0.7816164E-02  0.1226708E+00
        -11   -1    0    0    0    0  0.00000000000E+00  0.00000000000E+00  0.45593999997E+02  0.45594000000E+02  0.51100000000E-03 0.  1.
         11   -1    0    0    0    0 -0.00000000000E+00 -0.00000000000E+00 -0.45593999997E+02  0.45594000000E+02  0.51100000000E-03 0. -1.
    9900012    2    1    2    0    0  0.50243472483E+01 -0.17508073573E+02 -0.43477861738E+01  0.72461549452E+02  0.69999972849E+02 0.  0.
        -12    1    1    2    0    0 -0.50243472483E+01  0.17508073573E+02  0.43477861738E+01  0.18726450548E+02  0.00000000000E+00 0.  1.
         11    1    3    3    0    0 -0.20704749738E+02 -0.16693797682E+02 -0.63865274272E+01  0.27352463794E+02  0.51100000000E-03 0. -1.
        -11    1    3    3    0    0 -0.92485884067E+01 -0.35413456270E+01 -0.63335670223E+00  0.99236413347E+01  0.51100000000E-03 0.  1.
        -12    1    3    3    0    0  0.34977685393E+02  0.27270697354E+01  0.26720979556E+01  0.35185444324E+02  0.00000000000E+00 0.  1.
</event>
<event>
 7    1  0.2710146E-013  0.7246149E+02  0.7816164E-02  0.1226708E+00
        -11   -1    0    0    0    0  0.00000000000E+00  0.00000000000E+00  0.45593999997E+02  0.45594000000E+02  0.51100000000E-03 0.  1.
         11   -1    0    0    0    0 -0.00000000000E+00 -0.00000000000E+00 -0.45593999997E+02  0.45594000000E+02  0.51100000000E-03 0. -1.
    9900012    2    1    2    0    0  0.88330852411E+01 -0.13406430485E+02 -0.96398381219E+01  0.72461487985E+02  0.69999892777E+02 0.  0.
        -12    1    1    2    0    0 -0.88330852411E+01  0.13406430485E+02  0.96398381219E+01  0.18726512015E+02  0.00000000000E+00 0.  1.
         11    1    3    3    0    0 -0.91020746125E+01  0.50141363952E+01  0.66175703861E+01  0.12319966076E+02  0.51100000000E-03 0. -1.
        -11    1    3    3    0    0  0.29929923512E+02 -0.92621306297E+01  0.72954956981E+01  0.32168488354E+02  0.51100000000E-03 0.  1.
         12    1    3    3    0    0 -0.11994763658E+02 -0.91584362502E+01 -0.23552904206E+02  0.27973033556E+02  0.00000000000E+00 0. -1.
</event>
<event>
 7    1  0.2710146E-013  0.7246159E+02  0.7816164E-02  0.1226708E+00
        -11   -1    0    0    0    0  0.00000000000E+00  0.00000000000E+00  0.45593999997E+02  0.45594000000E+02  0.51100000000E-03 0.  1.
         11   -1    0    0    0    0 -0.00000000000E+00 -0.00000000000E+00 -0.45593999997E+02  0.45594000000E+02  0.51100000000E-03 0. -1.
    9900012    2    1    2    0    0  0.13611793027E+02 -0.11572596694E+02  0.56100247707E+01  0.72461594003E+02  0.70000030885E+02 0.  0.
        -12    1    1    2    0    0 -0.13611793027E+02  0.11572596694E+02 -0.56100247707E+01  0.18726405997E+02  0.00000000000E+00 0.  1.
         11    1    3    3    0    0  0.59309360031E+00 -0.18800377487E+02 -0.13104624935E+01  0.18855324603E+02  0.51100000000E-03 0.  1.
        -11    1    3    3    0    0  0.19228406057E+02  0.32604357477E+01 -0.18656225369E+02  0.26989197580E+02  0.51100000000E-03 0. -1.
        -12    1    3    3    0    0 -0.62097066305E+01  0.39673450452E+01  0.25576712633E+02  0.26617071820E+02  0.00000000000E+00 0.  1.
</event>
<event>
 7    1  0.2710146E-013  0.7246158E+02  0.7816164E-02  0.1226708E+00
        -11   -1    0    0    0    0  0.00000000000E+00  0.00000000000E+00  0.45593999997E+02  0.45594000000E+02  0.51100000000E-03 0.  1.
         11   -1    0    0    0    0 -0.00000000000E+00 -0.00000000000E+00 -0.45593999997E+02  0.45594000000E+02  0.51100000000E-03 0. -1.
    9900012    2    1    2    0    0  0.13373917773E+02  0.13306395905E+01 -0.13040194159E+02  0.72461576368E+02  0.70000007913E+02 0.  0.
        -12    1    1    2    0    0 -0.13373917773E+02 -0.13306395905E+01  0.13040194159E+02  0.18726423632E+02  0.00000000000E+00 0.  1.
         11    1    3    3    0    0 -0.64003034524E+01 -0.61536772002E+01  0.57597829275E+01  0.10583323060E+02  0.51100000000E-03 0. -1.
        -11    1    3    3    0    0 -0.73472607336E+01 -0.18378781305E+02 -0.13664697785E+02  0.24051731920E+02  0.51100000000E-03 0.  1.
         12    1    3    3    0    0  0.27121481959E+02  0.25863098096E+02 -0.51352793016E+01  0.37826521388E+02  0.00000000000E+00 0. -1.
</event>
<event>
 7    1  0.2710146E-013  0.7246143E+02  0.7816164E-02  0.1226708E+00
        -11   -1    0    0    0    0  0.00000000000E+00  0.00000000000E+00  0.45593999997E+02  0.45594000000E+02  0.51100000000E-03 0. -1.
         11   -1    0    0    0    0 -0.00000000000E+00 -0.00000000000E+00 -0.45593999997E+02  0.45594000000E+02  0.51100000000E-03 0.  1.
    9900012    2    1    2    0    0 -0.14014617643E+02  0.10233413875E+02  0.70393307877E+01  0.72461429435E+02  0.69999816504E+02 0.  0.
        -12    1    1    2    0    0  0.14014617643E+02 -0.10233413875E+02 -0.70393307877E+01  0.18726570565E+02  0.00000000000E+00 0.  1.
         11    1    3    3    0    0  0.59777413585E+00 -0.22595576829E+01  0.13133323756E+02  0.13339682454E+02  0.51100000000E-03 0. -1.
        -11    1    3    3    0    0  0.49979722988E+01 -0.18416442909E+02 -0.11254707432E+02  0.22154311909E+02  0.51100000000E-03 0.  1.
         12    1    3    3    0    0 -0.19610364077E+02  0.30909414467E+02  0.51607144640E+01  0.36967435071E+02  0.00000000000E+00 0. -1.
</event>
<event>
 7    1  0.2710146E-013  0.7246191E+02  0.7816164E-02  0.1226707E+00
        -11   -1    0    0    0    0  0.00000000000E+00  0.00000000000E+00  0.45593999997E+02  0.45594000000E+02  0.51100000000E-03 0.  1.
         11   -1    0    0    0    0 -0.00000000000E+00 -0.00000000000E+00 -0.45593999997E+02  0.45594000000E+02  0.51100000000E-03 0. -1.
    9900012    2    1    2    0    0  0.15310732244E+01  0.17589030499E+02 -0.62408696110E+01  0.72461905035E+02  0.70000436061E+02 0.  0.
        -12    1    1    2    0    0 -0.15310732244E+01 -0.17589030499E+02  0.62408696110E+01  0.18726094965E+02  0.00000000000E+00 0.  1.
         11    1    3    3    0    0  0.10743107773E+02 -0.16379844657E+02 -0.21000089764E+01  0.19700855656E+02  0.51100000000E-03 0. -1.
        -11    1    3    3    0    0  0.60646654083E+01 -0.28815902493E+01  0.85757852218E+01  0.10891639973E+02  0.51100000000E-03 0.  1.
        -12    1    3    3    0    0 -0.15276699957E+02  0.36850465405E+02 -0.12716645856E+02  0.41869409406E+02  0.00000000000E+00 0.  1.
</event>
<event>
 7    1  0.2710146E-013  0.7246159E+02  0.7816164E-02  0.1226708E+00
        -11   -1    0    0    0    0  0.00000000000E+00  0.00000000000E+00  0.45593999997E+02  0.45594000000E+02  0.51100000000E-03 0.  1.
         11   -1    0    0    0    0 -0.00000000000E+00 -0.00000000000E+00 -0.45593999997E+02  0.45594000000E+02  0.51100000000E-03 0. -1.
    9900012    2    1    2    0    0  0.11117940141E+02 -0.40806791436E-01 -0.15068786931E+02  0.72461585561E+02  0.70000019887E+02 0.  0.
        -12    1    1    2    0    0 -0.11117940141E+02  0.40806791436E-01  0.15068786931E+02  0.18726414439E+02  0.00000000000E+00 0.  1.
         11    1    3    3    0    0  0.58879816547E+01 -0.14404604603E+02 -0.11353863019E+02  0.19263207610E+02  0.51100000000E-03 0. -1.
        -11    1    3    3    0    0 -0.70348200065E+01 -0.16666353400E+02  0.48921541305E+01  0.18740042702E+02  0.51100000000E-03 0.  1.
         12    1    3    3    0    0  0.12264778493E+02  0.31030151211E+02 -0.86070780428E+01  0.34458335248E+02  0.00000000000E+00 0. -1.
</event>
<event>
 7    1  0.2710146E-013  0.7246160E+02  0.7816164E-02  0.1226708E+00
        -11   -1    0    0    0    0  0.00000000000E+00  0.00000000000E+00  0.45593999997E+02  0.45594000000E+02  0.51100000000E-03 0.  1.
         11   -1    0    0    0    0 -0.00000000000E+00 -0.00000000000E+00 -0.45593999997E+02  0.45594000000E+02  0.51100000000E-03 0. -1.
    9900012    2    1    2    0    0  0.34148636620E+01 -0.46176811076E+01 -0.17823964250E+02  0.72461602209E+02  0.70000041575E+02 0.  0.
        -12    1    1    2    0    0 -0.34148636620E+01  0.46176811076E+01  0.17823964250E+02  0.18726397791E+02  0.00000000000E+00 0.  1.
         11    1    3    3    0    0  0.54626966620E+01 -0.88076301941E+01  0.77107145189E+01  0.12917837401E+02  0.51100000000E-03 0. -1.
        -11    1    3    3    0    0 -0.98569496642E+01 -0.17228737418E+02  0.59044370429E+01  0.20708723446E+02  0.51100000000E-03 0.  1.
         12    1    3    3    0    0  0.78091166641E+01  0.21418686504E+02 -0.31439115812E+02  0.38835041363E+02  0.00000000000E+00 0. -1.
</event>
<event>
 7    1  0.2710146E-013  0.7246162E+02  0.7816164E-02  0.1226708E+00
        -11   -1    0    0    0    0  0.00000000000E+00  0.00000000000E+00  0.45593999997E+02  0.45594000000E+02  0.51100000000E-03 0.  1.
         11   -1    0    0    0    0 -0.00000000000E+00 -0.00000000000E+00 -0.45593999997E+02  0.45594000000E+02  0.51100000000E-03 0. -1.
    9900012    2    1    2    0    0 -0.10908810599E+02 -0.41671113159E+01 -0.14639347024E+02  0.72461616294E+02  0.70000059923E+02 0.  0.
        -12    1    1    2    0    0  0.10908810599E+02  0.41671113159E+01  0.14639347024E+02  0.18726383706E+02  0.00000000000E+00 0.  1.
         11    1    3    3    0    0  0.20343823611E+02  0.63303664069E+01 -0.13557195291E+02  0.25253559004E+02  0.51100000000E-03 0. -1.
        -11    1    3    3    0    0  0.97996655872E-01  0.94508842449E+01 -0.32269794903E+01  0.99871023449E+01  0.51100000000E-03 0.  1.
        -12    1    3    3    0    0 -0.31350630866E+02 -0.19948361968E+02  0.21448277567E+01  0.37220954945E+02  0.00000000000E+00 0.  1.
</event>
<event>
 7    1  0.2710146E-013  0.7246080E+02  0.7816164E-02  0.1226710E+00
        -11   -1    0    0    0    0  0.00000000000E+00  0.00000000000E+00  0.45593999997E+02  0.45594000000E+02  0.51100000000E-03 0.  1.
         11   -1    0    0    0    0 -0.00000000000E+00 -0.00000000000E+00 -0.45593999997E+02  0.45594000000E+02  0.51100000000E-03 0. -1.
    9900012    2    1    2    0    0  0.16327010682E+02 -0.28934519596E+01 -0.87042978454E+01  0.72460796710E+02  0.69998992256E+02 0.  0.
        -12    1    1    2    0    0 -0.16327010682E+02  0.28934519596E+01  0.87042978454E+01  0.18727203290E+02  0.00000000000E+00 0.  1.
         11    1    3    3    0    0  0.30803303092E+01 -0.27355149547E+02 -0.36306955902E+01  0.27766429231E+02  0.51100000000E-03 0. -1.
        -11    1    3    3    0    0 -0.10752949389E+02  0.33929769250E+01  0.31688593499E+01  0.11712381603E+02  0.51100000000E-03 0.  1.
         12    1    3    3    0    0  0.23999629762E+02  0.21068720662E+02 -0.82424616050E+01  0.32981985876E+02  0.00000000000E+00 0. -1.
</event>
<event>
 7    1  0.2710146E-013  0.7246160E+02  0.7816164E-02  0.1226708E+00
        -11   -1    0    0    0    0  0.00000000000E+00  0.00000000000E+00  0.45593999997E+02  0.45594000000E+02  0.51100000000E-03 0.  1.
         11   -1    0    0    0    0 -0.00000000000E+00 -0.00000000000E+00 -0.45593999997E+02  0.45594000000E+02  0.51100000000E-03 0. -1.
    9900012    2    1    2    0    0 -0.35871743273E+01 -0.69967929183E+01 -0.16995734394E+02  0.72461603700E+02  0.70000043517E+02 0.  0.
        -12    1    1    2    0    0  0.35871743273E+01  0.69967929183E+01  0.16995734394E+02  0.18726396300E+02  0.00000000000E+00 0.  1.
         11    1    3    3    0    0  0.56847267631E+01  0.16085116436E+02 -0.86925729793E+01  0.19147007975E+02  0.51100000000E-03 0. -1.
        -11    1    3    3    0    0 -0.77833161180E+00  0.81674408007E+01  0.12407743261E+02  0.14874978401E+02  0.51100000000E-03 0.  1.
        -12    1    3    3    0    0 -0.84935694786E+01 -0.31249350155E+02 -0.20710904676E+02  0.38439617325E+02  0.00000000000E+00 0.  1.
</event>
<event>
 7    1  0.2710146E-013  0.7246161E+02  0.7816164E-02  0.1226708E+00
        -11   -1    0    0    0    0  0.00000000000E+00  0.00000000000E+00  0.45593999997E+02  0.45594000000E+02  0.51100000000E-03 0. -1.
         11   -1    0    0    0    0 -0.00000000000E+00 -0.00000000000E+00 -0.45593999997E+02  0.45594000000E+02  0.51100000000E-03 0.  1.
    9900012    2    1    2    0    0 -0.18133198412E+02  0.12292935835E+01 -0.45114966241E+01  0.72461610889E+02  0.70000052882E+02 0.  0.
        -12    1    1    2    0    0  0.18133198412E+02 -0.12292935835E+01  0.45114966241E+01  0.18726389111E+02  0.00000000000E+00 0.  1.
         11    1    3    3    0    0 -0.29096157919E+02  0.11817249862E+01  0.35173165411E+01  0.29331798368E+02  0.51100000000E-03 0. -1.
        -11    1    3    3    0    0 -0.58752814649E+01  0.52757617713E+01 -0.20211358612E+02  0.21699115461E+02  0.51100000000E-03 0.  1.
         12    1    3    3    0    0  0.16838240972E+02 -0.52281931739E+01  0.12182545447E+02  0.21430697060E+02  0.00000000000E+00 0. -1.
</event>
<event>
 7    1  0.2710146E-013  0.7246155E+02  0.7816164E-02  0.1226708E+00
        -11   -1    0    0    0    0  0.00000000000E+00  0.00000000000E+00  0.45593999997E+02  0.45594000000E+02  0.51100000000E-03 0. -1.
         11   -1    0    0    0    0 -0.00000000000E+00 -0.00000000000E+00 -0.45593999997E+02  0.45594000000E+02  0.51100000000E-03 0.  1.
    9900012    2    1    2    0    0  0.89049847830E+01 -0.64416933955E+01  0.15161985132E+02  0.72461549163E+02  0.69999972473E+02 0.  0.
        -12    1    1    2    0    0 -0.89049847830E+01  0.64416933955E+01 -0.15161985132E+02  0.18726450837E+02  0.00000000000E+00 0.  1.
         11    1    3    3    0    0 -0.65088211514E+01 -0.88701622546E+01  0.36889603819E+02  0.38495290639E+02  0.51100000000E-03 0. -1.
        -11    1    3    3    0    0  0.26389735708E+01 -0.32720485893E+01  0.32665565248E+01  0.53236148686E+01  0.51100000000E-03 0.  1.
        -12    1    3    3    0    0  0.12774832363E+02  0.57005174484E+01 -0.24994175211E+02  0.28642643656E+02  0.00000000000E+00 0.  1.
</event>
<event>
 7    1  0.2710146E-013  0.7246154E+02  0.7816164E-02  0.1226708E+00
        -11   -1    0    0    0    0  0.00000000000E+00  0.00000000000E+00  0.45593999997E+02  0.45594000000E+02  0.51100000000E-03 0.  1.
         11   -1    0    0    0    0 -0.00000000000E+00 -0.00000000000E+00 -0.45593999997E+02  0.45594000000E+02  0.51100000000E-03 0. -1.
    9900012    2    1    2    0    0  0.11108028516E+02  0.78989698701E+01  0.12841272073E+02  0.72461540352E+02  0.69999960994E+02 0.  0.
        -12    1    1    2    0    0 -0.11108028516E+02 -0.78989698701E+01 -0.12841272073E+02  0.18726459648E+02  0.00000000000E+00 0.  1.
         11    1    3    3    0    0  0.16406366577E+01  0.10205437835E+02 -0.42800346763E+01  0.11187553224E+02  0.51100000000E-03 0. -1.
        -11    1    3    3    0    0  0.25162421323E+02  0.18394444037E+02  0.20401775060E+01  0.31235642186E+02  0.51100000000E-03 0.  1.
         12    1    3    3    0    0 -0.15695029464E+02 -0.20700912002E+02  0.15081129243E+02  0.30038344942E+02  0.00000000000E+00 0. -1.
</event>
<event>
 7    1  0.2710146E-013  0.7246161E+02  0.7816164E-02  0.1226708E+00
        -11   -1    0    0    0    0  0.00000000000E+00  0.00000000000E+00  0.45593999997E+02  0.45594000000E+02  0.51100000000E-03 0.  1.
         11   -1    0    0    0    0 -0.00000000000E+00 -0.00000000000E+00 -0.45593999997E+02  0.45594000000E+02  0.51100000000E-03 0. -1.
    9900012    2    1    2    0    0  0.48878388611E+01 -0.17060296601E+02 -0.59776941607E+01  0.72461614435E+02  0.70000057501E+02 0.  0.
        -12    1    1    2    0    0 -0.48878388611E+01  0.17060296601E+02  0.59776941607E+01  0.18726385565E+02  0.00000000000E+00 0.  1.
         11    1    3    3    0    0  0.21401927353E+01 -0.22981927800E+02 -0.71018276540E+01  0.24149231595E+02  0.51100000000E-03 0. -1.
        -11    1    3    3    0    0 -0.15393431104E+02 -0.90780626681E+01  0.12853111688E+02  0.22012983062E+02  0.51100000000E-03 0.  1.
        -12    1    3    3    0    0  0.18141077230E+02  0.14999693867E+02 -0.11728978194E+02  0.26299399777E+02  0.00000000000E+00 0.  1.
</event>
<event>
 7    1  0.2710146E-013  0.7246158E+02  0.7816164E-02  0.1226708E+00
        -11   -1    0    0    0    0  0.00000000000E+00  0.00000000000E+00  0.45593999997E+02  0.45594000000E+02  0.51100000000E-03 0. -1.
         11   -1    0    0    0    0 -0.00000000000E+00 -0.00000000000E+00 -0.45593999997E+02  0.45594000000E+02  0.51100000000E-03 0.  1.
    9900012    2    1    2    0    0 -0.18044968285E+02 -0.48632666251E+01  0.11859077502E+01  0.72461584970E+02  0.70000019118E+02 0.  0.
        -12    1    1    2    0    0  0.18044968285E+02  0.48632666251E+01 -0.11859077502E+01  0.18726415030E+02  0.00000000000E+00 0.  1.
         11    1    3    3    0    0 -0.31312210778E+02 -0.70780263920E+01 -0.59102769222E+01  0.32641758148E+02  0.51100000000E-03 0. -1.
        -11    1    3    3    0    0 -0.74671408246E+01  0.12142873446E+02  0.88258136148E+01  0.16766113260E+02  0.51100000000E-03 0.  1.
        -12    1    3    3    0    0  0.20734383317E+02 -0.99281136787E+01 -0.17296289424E+01  0.23053713563E+02  0.00000000000E+00 0.  1.
</event>
<event>
 7    1  0.2710146E-013  0.7246148E+02  0.7816164E-02  0.1226708E+00
        -11   -1    0    0    0    0  0.00000000000E+00  0.00000000000E+00  0.45593999997E+02  0.45594000000E+02  0.51100000000E-03 0. -1.
         11   -1    0    0    0    0 -0.00000000000E+00 -0.00000000000E+00 -0.45593999997E+02  0.45594000000E+02  0.51100000000E-03 0.  1.
    9900012    2    1    2    0    0 -0.12152993412E+02  0.11626251687E+02  0.82351313319E+01  0.72461484969E+02  0.69999888847E+02 0.  0.
        -12    1    1    2    0    0  0.12152993412E+02 -0.11626251687E+02 -0.82351313319E+01  0.18726515031E+02  0.00000000000E+00 0.  1.
         11    1    3    3    0    0  0.14103564213E+01  0.33978398035E+02 -0.11113235108E+02  0.35777431896E+02  0.51100000000E-03 0. -1.
        -11    1    3    3    0    0  0.27055526011E+01 -0.58958879924E+01 -0.51694395861E-01  0.64872322810E+01  0.51100000000E-03 0.  1.
        -12    1    3    3    0    0 -0.16268902434E+02 -0.16456258355E+02  0.19400060836E+02  0.30196820791E+02  0.00000000000E+00 0.  1.
</event>
<event>
 7    1  0.2710146E-013  0.7246161E+02  0.7816164E-02  0.1226708E+00
        -11   -1    0    0    0    0  0.00000000000E+00  0.00000000000E+00  0.45593999997E+02  0.45594000000E+02  0.51100000000E-03 0.  1.
         11   -1    0    0    0    0 -0.00000000000E+00 -0.00000000000E+00 -0.45593999997E+02  0.45594000000E+02  0.51100000000E-03 0. -1.
    9900012    2    1    2    0    0  0.17425067107E+02 -0.51930480267E+01 -0.44807442044E+01  0.72461607392E+02  0.70000048327E+02 0.  0.
        -12    1    1    2    0    0 -0.17425067107E+02  0.51930480267E+01  0.44807442044E+01  0.18726392608E+02  0.00000000000E+00 0.  1.
         11    1    3    3    0    0  0.31470038813E+02 -0.16182852157E+01 -0.14212862584E+02  0.34568593449E+02  0.51100000000E-03 0. -1.
        -11    1    3    3    0    0  0.89059953022E+01 -0.59798928576E+01 -0.35098995949E+01  0.11286951153E+02  0.51100000000E-03 0.  1.
        -12    1    3    3    0    0 -0.22950967009E+02  0.24051300467E+01  0.13242017974E+02  0.26606062790E+02  0.00000000000E+00 0.  1.
</event>
<event>
 7    1  0.2710146E-013  0.7246132E+02  0.7816164E-02  0.1226709E+00
        -11   -1    0    0    0    0  0.00000000000E+00  0.00000000000E+00  0.45593999997E+02  0.45594000000E+02  0.51100000000E-03 0. -1.
         11   -1    0    0    0    0 -0.00000000000E+00 -0.00000000000E+00 -0.45593999997E+02  0.45594000000E+02  0.51100000000E-03 0.  1.
    9900012    2    1    2    0    0 -0.68523954297E+01  0.12555554451E+02  0.12086828329E+02  0.72461316103E+02  0.69999668868E+02 0.  0.
        -12    1    1    2    0    0  0.68523954297E+01 -0.12555554451E+02 -0.12086828329E+02  0.18726683897E+02  0.00000000000E+00 0.  1.
         11    1    3    3    0    0 -0.11085706490E+02 -0.18312495536E+02  0.15306310637E+02  0.26315841744E+02  0.51100000000E-03 0. -1.
        -11    1    3    3    0    0 -0.89941563745E+01  0.23815791360E+02 -0.12658663412E+02  0.28431118983E+02  0.51100000000E-03 0.  1.
        -12    1    3    3    0    0  0.13227467435E+02  0.70522586270E+01  0.94391811038E+01  0.17714355376E+02  0.00000000000E+00 0.  1.
</event>
<event>
 7    1  0.2710146E-013  0.7246158E+02  0.7816164E-02  0.1226708E+00
        -11   -1    0    0    0    0  0.00000000000E+00  0.00000000000E+00  0.45593999997E+02  0.45594000000E+02  0.51100000000E-03 0. -1.
         11   -1    0    0    0    0 -0.00000000000E+00 -0.00000000000E+00 -0.45593999997E+02  0.45594000000E+02  0.51100000000E-03 0.  1.
    9900012    2    1    2    0    0  0.10223035896E+02  0.12158407023E+02 -0.99167283589E+01  0.72461579477E+02  0.70000011962E+02 0.  0.
        -12    1    1    2    0    0 -0.10223035896E+02 -0.12158407023E+02  0.99167283589E+01  0.18726420523E+02  0.00000000000E+00 0.  1.
         11    1    3    3    0    0 -0.44068250575E+01 -0.10408132136E+02 -0.77334057841E+01  0.13695067979E+02  0.51100000000E-03 0. -1.
        -11    1    3    3    0    0 -0.10049347033E+02  0.59493893776E+01 -0.20668351991E+02  0.23739532094E+02  0.51100000000E-03 0.  1.
        -12    1    3    3    0    0  0.24679207986E+02  0.16617149782E+02  0.18485029416E+02  0.35026979404E+02  0.00000000000E+00 0.  1.
</event>
<event>
 7    1  0.2710146E-013  0.7246233E+02  0.7816164E-02  0.1226706E+00
        -11   -1    0    0    0    0  0.00000000000E+00  0.00000000000E+00  0.45593999997E+02  0.45594000000E+02  0.51100000000E-03 0. -1.
         11   -1    0    0    0    0 -0.00000000000E+00 -0.00000000000E+00 -0.45593999997E+02  0.45594000000E+02  0.51100000000E-03 0.  1.
    9900012    2    1    2    0    0 -0.99235812341E+01 -0.21558169176E+01  0.15732955216E+02  0.72462325355E+02  0.70000983600E+02 0.  0.
        -12    1    1    2    0    0  0.99235812341E+01  0.21558169176E+01 -0.15732955216E+02  0.18725674645E+02  0.00000000000E+00 0.  1.
         11    1    3    3    0    0 -0.30230453596E+02 -0.12229020113E+02  0.71456950609E+01  0.33383981424E+02  0.51100000000E-03 0. -1.
        -11    1    3    3    0    0  0.66573005676E+01 -0.82393155642E+01 -0.58080020701E+01  0.12080515722E+02  0.51100000000E-03 0.  1.
         12    1    3    3    0    0  0.13649571794E+02  0.18312518759E+02  0.14395262225E+02  0.26997828209E+02  0.00000000000E+00 0. -1.
</event>
<event>
 7    1  0.2710146E-013  0.7246159E+02  0.7816164E-02  0.1226708E+00
        -11   -1    0    0    0    0  0.00000000000E+00  0.00000000000E+00  0.45593999997E+02  0.45594000000E+02  0.51100000000E-03 0.  1.
         11   -1    0    0    0    0 -0.00000000000E+00 -0.00000000000E+00 -0.45593999997E+02  0.45594000000E+02  0.51100000000E-03 0. -1.
    9900012    2    1    2    0    0  0.10930620524E+01  0.18685399210E+02  0.58280950915E+00  0.72461585629E+02  0.70000019976E+02 0.  0.
        -12    1    1    2    0    0 -0.10930620524E+01 -0.18685399210E+02 -0.58280950915E+00  0.18726414371E+02  0.00000000000E+00 0.  1.
         11    1    3    3    0    0 -0.45380943322E+01  0.14484994225E+01 -0.15127486504E+02  0.15859801352E+02  0.51100000000E-03 0. -1.
        -11    1    3    3    0    0  0.28252064619E+02  0.12629683266E+02  0.58295996401E+01  0.31490828615E+02  0.51100000000E-03 0.  1.
         12    1    3    3    0    0 -0.22620908234E+02  0.46072165213E+01  0.98806963728E+01  0.25110955662E+02  0.00000000000E+00 0. -1.
</event>
<event>
 7    1  0.2710146E-013  0.7246157E+02  0.7816164E-02  0.1226708E+00
        -11   -1    0    0    0    0  0.00000000000E+00  0.00000000000E+00  0.45593999997E+02  0.45594000000E+02  0.51100000000E-03 0.  1.
         11   -1    0    0    0    0 -0.00000000000E+00 -0.00000000000E+00 -0.45593999997E+02  0.45594000000E+02  0.51100000000E-03 0. -1.
    9900012    2    1    2    0    0  0.12806883967E+01  0.22413269818E+01 -0.18547650047E+02  0.72461573975E+02  0.70000004795E+02 0.  0.
        -12    1    1    2    0    0 -0.12806883967E+01 -0.22413269818E+01  0.18547650047E+02  0.18726426025E+02  0.00000000000E+00 0.  1.
         11    1    3    3    0    0 -0.15409549268E+02 -0.23401106288E+02 -0.22303106829E+02  0.35811933187E+02  0.51100000000E-03 0. -1.
        -11    1    3    3    0    0 -0.32166459628E+01  0.14686919444E+01  0.39925885724E+01  0.53333508273E+01  0.51100000000E-03 0.  1.
        -12    1    3    3    0    0  0.19906883628E+02  0.24173741325E+02 -0.23713179033E+00  0.31316289961E+02  0.00000000000E+00 0.  1.
</event>
<event>
 7    1  0.2710146E-013  0.7246153E+02  0.7816164E-02  0.1226708E+00
        -11   -1    0    0    0    0  0.00000000000E+00  0.00000000000E+00  0.45593999997E+02  0.45594000000E+02  0.51100000000E-03 0.  1.
         11   -1    0    0    0    0 -0.00000000000E+00 -0.00000000000E+00 -0.45593999997E+02  0.45594000000E+02  0.51100000000E-03 0. -1.
    9900012    2    1    2    0    0  0.18013566252E+02 -0.21150040925E+01 -0.46603480791E+01  0.72461530615E+02  0.69999948310E+02 0.  0.
        -12    1    1    2    0    0 -0.18013566252E+02  0.21150040925E+01  0.46603480791E+01  0.18726469385E+02  0.00000000000E+00 0.  1.
         11    1    3    3    0    0 -0.53647304952E+01  0.15177294571E+02 -0.70146866501E+01  0.17559511179E+02  0.51100000000E-03 0. -1.
        -11    1    3    3    0    0 -0.65224977833E+01  0.11232480679E+02 -0.27090300328E+01  0.13268400187E+02  0.51100000000E-03 0.  1.
        -12    1    3    3    0    0  0.29900794530E+02 -0.28524779343E+02  0.50633686038E+01  0.41633619249E+02  0.00000000000E+00 0.  1.
</event>
<event>
 7    1  0.2710146E-013  0.7246149E+02  0.7816164E-02  0.1226708E+00
        -11   -1    0    0    0    0  0.00000000000E+00  0.00000000000E+00  0.45593999997E+02  0.45594000000E+02  0.51100000000E-03 0.  1.
         11   -1    0    0    0    0 -0.00000000000E+00 -0.00000000000E+00 -0.45593999997E+02  0.45594000000E+02  0.51100000000E-03 0. -1.
    9900012    2    1    2    0    0 -0.90279170874E+01  0.15965550528E+02 -0.37789090000E+01  0.72461488209E+02  0.69999893069E+02 0.  0.
        -12    1    1    2    0    0  0.90279170874E+01 -0.15965550528E+02  0.37789090000E+01  0.18726511791E+02  0.00000000000E+00 0.  1.
         11    1    3    3    0    0 -0.54020179246E+01 -0.55446165889E+01  0.16132806520E+02  0.17893910061E+02  0.51100000000E-03 0. -1.
        -11    1    3    3    0    0 -0.11438759272E+02 -0.11726279924E+02 -0.91802208287E+01  0.18778373445E+02  0.51100000000E-03 0.  1.
         12    1    3    3    0    0  0.78128601088E+01  0.33236447041E+02 -0.10731494692E+02  0.35789204704E+02  0.00000000000E+00 0. -1.
</event>
<event>
 7    1  0.2710146E-013  0.7246156E+02  0.7816164E-02  0.1226708E+00
        -11   -1    0    0    0    0  0.00000000000E+00  0.00000000000E+00  0.45593999997E+02  0.45594000000E+02  0.51100000000E-03 0. -1.
         11   -1    0    0    0    0 -0.00000000000E+00 -0.00000000000E+00 -0.45593999997E+02  0.45594000000E+02  0.51100000000E-03 0.  1.
    9900012    2    1    2    0    0  0.42587917381E+01  0.51583952620E+01  0.17490942697E+02  0.72461563468E+02  0.69999991108E+02 0.  0.
        -12    1    1    2    0    0 -0.42587917381E+01 -0.51583952620E+01 -0.17490942697E+02  0.18726436532E+02  0.00000000000E+00 0.  1.
         11    1    3    3    0    0  0.11995448024E+02 -0.19212917594E+02 -0.15078773762E+02  0.27210225912E+02  0.51100000000E-03 0. -1.
        -11    1    3    3    0    0  0.46152414419E+01  0.13862342794E+02  0.11119784826E+02  0.18360681255E+02  0.51100000000E-03 0.  1.
        -12    1    3    3    0    0 -0.12351897728E+02  0.10508970062E+02  0.21449931633E+02  0.26890656301E+02  0.00000000000E+00 0.  1.
</event>
<event>
 7    1  0.2710146E-013  0.7246157E+02  0.7816164E-02  0.1226708E+00
        -11   -1    0    0    0    0  0.00000000000E+00  0.00000000000E+00  0.45593999997E+02  0.45594000000E+02  0.51100000000E-03 0.  1.
         11   -1    0    0    0    0 -0.00000000000E+00 -0.00000000000E+00 -0.45593999997E+02  0.45594000000E+02  0.51100000000E-03 0. -1.
    9900012    2    1    2    0    0 -0.10319430427E+02 -0.96111948318E+01 -0.12321256702E+02  0.72461572761E+02  0.70000003213E+02 0.  0.
        -12    1    1    2    0    0  0.10319430427E+02  0.96111948318E+01  0.12321256702E+02  0.18726427239E+02  0.00000000000E+00 0.  1.
         11    1    3    3    0    0  0.51535753876E+01 -0.13853362290E+02 -0.16171471456E+01  0.14869100550E+02  0.51100000000E-03 0. -1.
        -11    1    3    3    0    0 -0.16409365859E+02 -0.23091422466E+02 -0.29686637329E+00  0.28329652474E+02  0.51100000000E-03 0.  1.
        -12    1    3    3    0    0  0.93636004446E+00  0.27333589924E+02 -0.10407243183E+02  0.29262819737E+02  0.00000000000E+00 0.  1.
</event>
<event>
 7    1  0.2710146E-013  0.7246166E+02  0.7816164E-02  0.1226708E+00
        -11   -1    0    0    0    0  0.00000000000E+00  0.00000000000E+00  0.45593999997E+02  0.45594000000E+02  0.51100000000E-03 0.  1.
         11   -1    0    0    0    0 -0.00000000000E+00 -0.00000000000E+00 -0.45593999997E+02  0.45594000000E+02  0.51100000000E-03 0. -1.
    9900012    2    1    2    0    0 -0.25728070133E+01 -0.13465896677E+01 -0.18499815006E+02  0.72461660397E+02  0.70000117376E+02 0.  0.
        -12    1    1    2    0    0  0.25728070133E+01  0.13465896677E+01  0.18499815006E+02  0.18726339603E+02  0.00000000000E+00 0.  1.
         11    1    3    3    0    0 -0.11480151874E+02 -0.13969607327E+02 -0.13293111483E+02  0.22442161863E+02  0.51100000000E-03 0. -1.
        -11    1    3    3    0    0 -0.13296641847E+02 -0.49787329651E+01  0.10466578549E+02  0.17639096721E+02  0.51100000000E-03 0.  1.
        -12    1    3    3    0    0  0.22203986707E+02  0.17601750625E+02 -0.15673282071E+02  0.32380401814E+02  0.00000000000E+00 0.  1.
</event>
<event>
 7    1  0.2710146E-013  0.7246157E+02  0.7816164E-02  0.1226708E+00
        -11   -1    0    0    0    0  0.00000000000E+00  0.00000000000E+00  0.45593999997E+02  0.45594000000E+02  0.51100000000E-03 0.  1.
         11   -1    0    0    0    0 -0.00000000000E+00 -0.00000000000E+00 -0.45593999997E+02  0.45594000000E+02  0.51100000000E-03 0. -1.
    9900012    2    1    2    0    0 -0.59544223653E+01  0.44970318828E+01 -0.17175584899E+02  0.72461570600E+02  0.70000000398E+02 0.  0.
        -12    1    1    2    0    0  0.59544223653E+01 -0.44970318828E+01  0.17175584899E+02  0.18726429400E+02  0.00000000000E+00 0.  1.
         11    1    3    3    0    0 -0.25714831053E+02  0.18913493097E+02 -0.97348789844E+01  0.33372752753E+02  0.51100000000E-03 0. -1.
        -11    1    3    3    0    0 -0.41189482191E+01  0.55476310990E+01 -0.34047429837E+01  0.77028709121E+01  0.51100000000E-03 0.  1.
        -12    1    3    3    0    0  0.23879356907E+02 -0.19964092313E+02 -0.40359629310E+01  0.31385946934E+02  0.00000000000E+00 0.  1.
</event>
<event>
 7    1  0.2710146E-013  0.7246159E+02  0.7816164E-02  0.1226708E+00
        -11   -1    0    0    0    0  0.00000000000E+00  0.00000000000E+00  0.45593999997E+02  0.45594000000E+02  0.51100000000E-03 0.  1.
         11   -1    0    0    0    0 -0.00000000000E+00 -0.00000000000E+00 -0.45593999997E+02  0.45594000000E+02  0.51100000000E-03 0. -1.
    9900012    2    1    2    0    0 -0.17168755368E+02  0.46790161814E+01 -0.58326013061E+01  0.72461585732E+02  0.70000020111E+02 0.  0.
        -12    1    1    2    0    0  0.17168755368E+02 -0.46790161814E+01  0.58326013061E+01  0.18726414268E+02  0.00000000000E+00 0.  1.
         11    1    3    3    0    0  0.36763486927E+01  0.13038966306E+02 -0.20148614127E+02  0.24279555876E+02  0.51100000000E-03 0. -1.
        -11    1    3    3    0    0  0.70988861653E+01  0.98707049347E+01  0.80415310460E+00  0.12184894877E+02  0.51100000000E-03 0.  1.
        -12    1    3    3    0    0 -0.27943990226E+02 -0.18230655059E+02  0.13511859716E+02  0.35997134979E+02  0.00000000000E+00 0.  1.
</event>
<event>
 7    1  0.2710146E-013  0.7246155E+02  0.7816164E-02  0.1226708E+00
        -11   -1    0    0    0    0  0.00000000000E+00  0.00000000000E+00  0.45593999997E+02  0.45594000000E+02  0.51100000000E-03 0.  1.
         11   -1    0    0    0    0 -0.00000000000E+00 -0.00000000000E+00 -0.45593999997E+02  0.45594000000E+02  0.51100000000E-03 0. -1.
    9900012    2    1    2    0    0 -0.25279952960E+01  0.12248628298E+02 -0.13937735108E+02  0.72461545041E+02  0.69999967102E+02 0.  0.
        -12    1    1    2    0    0  0.25279952960E+01 -0.12248628298E+02  0.13937735108E+02  0.18726454959E+02  0.00000000000E+00 0.  1.
         11    1    3    3    0    0  0.87664888238E+01  0.10705010499E+02 -0.21317644575E+01  0.13999749857E+02  0.51100000000E-03 0. -1.
        -11    1    3    3    0    0  0.58672905674E+01  0.24780900075E+02  0.36058692034E+01  0.25720038882E+02  0.51100000000E-03 0.  1.
         12    1    3    3    0    0 -0.17161774687E+02 -0.23237282276E+02 -0.15411839854E+02  0.32741756301E+02  0.00000000000E+00 0. -1.
</event>
<event>
 7    1  0.2710146E-013  0.7246155E+02  0.7816164E-02  0.1226708E+00
        -11   -1    0    0    0    0  0.00000000000E+00  0.00000000000E+00  0.45593999997E+02  0.45594000000E+02  0.51100000000E-03 0.  1.
         11   -1    0    0    0    0 -0.00000000000E+00 -0.00000000000E+00 -0.45593999997E+02  0.45594000000E+02  0.51100000000E-03 0. -1.
    9900012    2    1    2    0    0 -0.13617496448E+02  0.12777437483E+02 -0.14074342699E+01  0.72461548404E+02  0.69999971484E+02 0.  0.
        -12    1    1    2    0    0  0.13617496448E+02 -0.12777437483E+02  0.14074342699E+01  0.18726451596E+02  0.00000000000E+00 0.  1.
         11    1    3    3    0    0 -0.32259566691E+01  0.17106750548E+02  0.39500701401E+01  0.17850791723E+02  0.51100000000E-03 0. -1.
        -11    1    3    3    0    0  0.14236878698E+02  0.56586519359E+00  0.16158590135E+02  0.21543188109E+02  0.51100000000E-03 0.  1.
         12    1    3    3    0    0 -0.24628418477E+02 -0.48951782588E+01 -0.21516094545E+02  0.33067568573E+02  0.00000000000E+00 0. -1.
</event>
<event>
 7    1  0.2710146E-013  0.7246161E+02  0.7816164E-02  0.1226708E+00
        -11   -1    0    0    0    0  0.00000000000E+00  0.00000000000E+00  0.45593999997E+02  0.45594000000E+02  0.51100000000E-03 0. -1.
         11   -1    0    0    0    0 -0.00000000000E+00 -0.00000000000E+00 -0.45593999997E+02  0.45594000000E+02  0.51100000000E-03 0.  1.
    9900012    2    1    2    0    0 -0.25887604479E+01 -0.12594557591E+02  0.13614451135E+02  0.72461605759E+02  0.70000046199E+02 0.  0.
        -12    1    1    2    0    0  0.25887604479E+01  0.12594557591E+02 -0.13614451135E+02  0.18726394241E+02  0.00000000000E+00 0.  1.
         11    1    3    3    0    0  0.44043702961E+01 -0.15083294692E+02  0.19240053620E+02  0.24841173886E+02  0.51100000000E-03 0. -1.
        -11    1    3    3    0    0  0.73207483671E+01 -0.19385146990E+02 -0.56556413633E+01  0.21479375223E+02  0.51100000000E-03 0.  1.
        -12    1    3    3    0    0 -0.14313879111E+02  0.21873884091E+02  0.30038877713E-01  0.26141056650E+02  0.00000000000E+00 0.  1.
</event>
<event>
 7    1  0.2710146E-013  0.7246165E+02  0.7816164E-02  0.1226708E+00
        -11   -1    0    0    0    0  0.00000000000E+00  0.00000000000E+00  0.45593999997E+02  0.45594000000E+02  0.51100000000E-03 0.  1.
         11   -1    0    0    0    0 -0.00000000000E+00 -0.00000000000E+00 -0.45593999997E+02  0.45594000000E+02  0.51100000000E-03 0. -1.
    9900012    2    1    2    0    0 -0.50641235074E+01 -0.14014183900E+02  0.11341662783E+02  0.72461654602E+02  0.70000109826E+02 0.  0.
        -12    1    1    2    0    0  0.50641235074E+01  0.14014183900E+02 -0.11341662783E+02  0.18726345398E+02  0.00000000000E+00 0.  1.
         11    1    3    3    0    0 -0.27531985303E+01 -0.14680979922E+02  0.17970006340E+02  0.23367336214E+02  0.51100000000E-03 0. -1.
        -11    1    3    3    0    0 -0.96376210475E+01 -0.14134862012E+02  0.14395830853E+02  0.22358846342E+02  0.51100000000E-03 0.  1.
         12    1    3    3    0    0  0.73266960704E+01  0.14801658034E+02 -0.21024174410E+02  0.26735472045E+02  0.00000000000E+00 0. -1.
</event>
<event>
 7    1  0.2710146E-013  0.7246162E+02  0.7816164E-02  0.1226708E+00
        -11   -1    0    0    0    0  0.00000000000E+00  0.00000000000E+00  0.45593999997E+02  0.45594000000E+02  0.51100000000E-03 0.  1.
         11   -1    0    0    0    0 -0.00000000000E+00 -0.00000000000E+00 -0.45593999997E+02  0.45594000000E+02  0.51100000000E-03 0. -1.
    9900012    2    1    2    0    0 -0.68961240628E+01 -0.17176313711E+02  0.28451879083E+01  0.72461618235E+02  0.70000062451E+02 0.  0.
        -12    1    1    2    0    0  0.68961240628E+01  0.17176313711E+02 -0.28451879083E+01  0.18726381765E+02  0.00000000000E+00 0.  1.
         11    1    3    3    0    0  0.76809693459E+01 -0.18157674301E+02 -0.10297958291E+02  0.22242894850E+02  0.51100000000E-03 0. -1.
        -11    1    3    3    0    0 -0.19075396034E+02 -0.16983110184E+02  0.17790344998E+02  0.31125442018E+02  0.51100000000E-03 0.  1.
        -12    1    3    3    0    0  0.44983026255E+01  0.17964470773E+02 -0.46471987991E+01  0.19093281367E+02  0.00000000000E+00 0.  1.
</event>
<event>
 7    1  0.2710146E-013  0.7246150E+02  0.7816164E-02  0.1226708E+00
        -11   -1    0    0    0    0  0.00000000000E+00  0.00000000000E+00  0.45593999997E+02  0.45594000000E+02  0.51100000000E-03 0.  1.
         11   -1    0    0    0    0 -0.00000000000E+00 -0.00000000000E+00 -0.45593999997E+02  0.45594000000E+02  0.51100000000E-03 0. -1.
    9900012    2    1    2    0    0  0.69163207734E+00 -0.18640322095E+02  0.16558615185E+01  0.72461498989E+02  0.69999907111E+02 0.  0.
        -12    1    1    2    0    0 -0.69163207734E+00  0.18640322095E+02 -0.16558615185E+01  0.18726501011E+02  0.00000000000E+00 0.  1.
         11    1    3    3    0    0 -0.22955316900E+01 -0.10618396198E+02 -0.28848206384E+02  0.30825943869E+02  0.51100000000E-03 0. -1.
        -11    1    3    3    0    0  0.65365725916E+01  0.84060888878E+01  0.70099003958E+01  0.12748639749E+02  0.51100000000E-03 0.  1.
        -12    1    3    3    0    0 -0.35494088243E+01 -0.16428014785E+02  0.23494167507E+02  0.28886915371E+02  0.00000000000E+00 0.  1.
</event>
<event>
 7    1  0.2710146E-013  0.7246156E+02  0.7816164E-02  0.1226708E+00
        -11   -1    0    0    0    0  0.00000000000E+00  0.00000000000E+00  0.45593999997E+02  0.45594000000E+02  0.51100000000E-03 0.  1.
         11   -1    0    0    0    0 -0.00000000000E+00 -0.00000000000E+00 -0.45593999997E+02  0.45594000000E+02  0.51100000000E-03 0. -1.
    9900012    2    1    2    0    0 -0.12753740776E+02  0.13528977482E+02  0.22334650759E+01  0.72461561424E+02  0.69999988445E+02 0.  0.
        -12    1    1    2    0    0  0.12753740776E+02 -0.13528977482E+02 -0.22334650759E+01  0.18726438576E+02  0.00000000000E+00 0.  1.
         11    1    3    3    0    0  0.81887899488E+01  0.62075773855E+01  0.22643014072E+02  0.24865566238E+02  0.51100000000E-03 0. -1.
        -11    1    3    3    0    0  0.72330648801E+00  0.16078934869E+02  0.69167787467E+00  0.16110050817E+02  0.51100000000E-03 0.  1.
         12    1    3    3    0    0 -0.21665837213E+02 -0.87575347721E+01 -0.21101226870E+02  0.31485944369E+02  0.00000000000E+00 0. -1.
</event>
<event>
 7    1  0.2710146E-013  0.7246156E+02  0.7816164E-02  0.1226708E+00
        -11   -1    0    0    0    0  0.00000000000E+00  0.00000000000E+00  0.45593999997E+02  0.45594000000E+02  0.51100000000E-03 0. -1.
         11   -1    0    0    0    0 -0.00000000000E+00 -0.00000000000E+00 -0.45593999997E+02  0.45594000000E+02  0.51100000000E-03 0.  1.
    9900012    2    1    2    0    0  0.50804217612E+00  0.93437447905E+01  0.16220846858E+02  0.72461560233E+02  0.69999986893E+02 0.  0.
        -12    1    1    2    0    0 -0.50804217612E+00 -0.93437447905E+01 -0.16220846858E+02  0.18726439767E+02  0.00000000000E+00 0.  1.
         11    1    3    3    0    0 -0.14964421231E+02 -0.65811667524E+01  0.19297174870E+02  0.25290840572E+02  0.51100000000E-03 0. -1.
        -11    1    3    3    0    0 -0.13006363042E+02 -0.22490326590E+01 -0.21576569973E+01  0.13374569580E+02  0.51100000000E-03 0.  1.
        -12    1    3    3    0    0  0.28478826450E+02  0.18173944202E+02 -0.91867101456E+00  0.33796150080E+02  0.00000000000E+00 0.  1.
</event>
<event>
 7    1  0.2710146E-013  0.7246152E+02  0.7816164E-02  0.1226708E+00
        -11   -1    0    0    0    0  0.00000000000E+00  0.00000000000E+00  0.45593999997E+02  0.45594000000E+02  0.51100000000E-03 0.  1.
         11   -1    0    0    0    0 -0.00000000000E+00 -0.00000000000E+00 -0.45593999997E+02  0.45594000000E+02  0.51100000000E-03 0. -1.
    9900012    2    1    2    0    0  0.12147612810E+02  0.57124173493E+01 -0.13056985419E+02  0.72461519360E+02  0.69999933648E+02 0.  0.
        -12    1    1    2    0    0 -0.12147612810E+02 -0.57124173493E+01  0.13056985419E+02  0.18726480640E+02  0.00000000000E+00 0.  1.
         11    1    3    3    0    0 -0.93726573057E+01  0.14806683025E+02 -0.28991534003E+02  0.33876151070E+02  0.51100000000E-03 0. -1.
        -11    1    3    3    0    0 -0.51535086622E+01  0.22737844055E+01  0.29346563568E+00  0.56404671256E+01  0.51100000000E-03 0.  1.
        -12    1    3    3    0    0  0.26673778778E+02 -0.11368050081E+02  0.15641082949E+02  0.32944901165E+02  0.00000000000E+00 0.  1.
</event>
<event>
 7    1  0.2710146E-013  0.7246158E+02  0.7816164E-02  0.1226708E+00
        -11   -1    0    0    0    0  0.00000000000E+00  0.00000000000E+00  0.45593999997E+02  0.45594000000E+02  0.51100000000E-03 0. -1.
         11   -1    0    0    0    0 -0.00000000000E+00 -0.00000000000E+00 -0.45593999997E+02  0.45594000000E+02  0.51100000000E-03 0.  1.
    9900012    2    1    2    0    0  0.15043930495E+02 -0.92424389296E+01  0.62398828134E+01  0.72461583909E+02  0.70000017735E+02 0.  0.
        -12    1    1    2    0    0 -0.15043930495E+02  0.92424389296E+01 -0.62398828134E+01  0.18726416091E+02  0.00000000000E+00 0.  1.
         11    1    3    3    0    0 -0.34274004103E+01  0.17692071411E+02 -0.24409253928E+01  0.18185559695E+02  0.51100000000E-03 0. -1.
        -11    1    3    3    0    0  0.14634421601E+02 -0.10313466243E+01  0.20774475855E+02  0.25432436351E+02  0.51100000000E-03 0.  1.
        -12    1    3    3    0    0  0.38369093039E+01 -0.25903163717E+02 -0.12093667649E+02  0.28843587862E+02  0.00000000000E+00 0.  1.
</event>
<event>
 7    1  0.2710146E-013  0.7246154E+02  0.7816164E-02  0.1226708E+00
        -11   -1    0    0    0    0  0.00000000000E+00  0.00000000000E+00  0.45593999997E+02  0.45594000000E+02  0.51100000000E-03 0.  1.
         11   -1    0    0    0    0 -0.00000000000E+00 -0.00000000000E+00 -0.45593999997E+02  0.45594000000E+02  0.51100000000E-03 0. -1.
    9900012    2    1    2    0    0 -0.41499699298E+01  0.80606167184E+01 -0.16385493377E+02  0.72461543167E+02  0.69999964662E+02 0.  0.
        -12    1    1    2    0    0  0.41499699298E+01 -0.80606167184E+01  0.16385493377E+02  0.18726456833E+02  0.00000000000E+00 0.  1.
         11    1    3    3    0    0 -0.36597060040E+01  0.23568081187E+01  0.15167541779E+02  0.15779807236E+02  0.51100000000E-03 0. -1.
        -11    1    3    3    0    0  0.85140861469E+01 -0.16952475052E+02 -0.31163129744E+01  0.19224658128E+02  0.51100000000E-03 0.  1.
         12    1    3    3    0    0 -0.90043500727E+01  0.22656283652E+02 -0.28436722181E+02  0.37457077803E+02  0.00000000000E+00 0. -1.
</event>
<event>
 7    1  0.2710146E-013  0.7246159E+02  0.7816164E-02  0.1226708E+00
        -11   -1    0    0    0    0  0.00000000000E+00  0.00000000000E+00  0.45593999997E+02  0.45594000000E+02  0.51100000000E-03 0.  1.
         11   -1    0    0    0    0 -0.00000000000E+00 -0.00000000000E+00 -0.45593999997E+02  0.45594000000E+02  0.51100000000E-03 0. -1.
    9900012    2    1    2    0    0 -0.18006426357E+02  0.17557108922E+01 -0.48336885816E+01  0.72461589341E+02  0.70000024811E+02 0.  0.
        -12    1    1    2    0    0  0.18006426357E+02 -0.17557108922E+01  0.48336885816E+01  0.18726410659E+02  0.00000000000E+00 0.  1.
         11    1    3    3    0    0  0.10305603099E+02  0.51010458910E+01  0.60551627618E+01  0.12995811662E+02  0.51100000000E-03 0.  1.
        -11    1    3    3    0    0 -0.16104716883E+02  0.22819174148E+02  0.16715990512E+01  0.27979829491E+02  0.51100000000E-03 0. -1.
        -12    1    3    3    0    0 -0.12207312574E+02 -0.26164509147E+02 -0.12560450395E+02  0.31485948188E+02  0.00000000000E+00 0.  1.
</event>
<event>
 7    1  0.2710146E-013  0.7246157E+02  0.7816164E-02  0.1226708E+00
        -11   -1    0    0    0    0  0.00000000000E+00  0.00000000000E+00  0.45593999997E+02  0.45594000000E+02  0.51100000000E-03 0. -1.
         11   -1    0    0    0    0 -0.00000000000E+00 -0.00000000000E+00 -0.45593999997E+02  0.45594000000E+02  0.51100000000E-03 0.  1.
    9900012    2    1    2    0    0  0.78369509855E+00 -0.75585341009E+01  0.17115299619E+02  0.72461572236E+02  0.70000002529E+02 0.  0.
        -12    1    1    2    0    0 -0.78369509855E+00  0.75585341009E+01 -0.17115299619E+02  0.18726427764E+02  0.00000000000E+00 0.  1.
         11    1    3    3    0    0 -0.49702356970E+01 -0.36577476947E+01  0.39494894921E+02  0.39974105195E+02  0.51100000000E-03 0. -1.
        -11    1    3    3    0    0 -0.68885686385E+01 -0.76396459974E+01 -0.84966740227E+01  0.13342040270E+02  0.51100000000E-03 0.  1.
        -12    1    3    3    0    0  0.12642499434E+02  0.37388595913E+01 -0.13882921279E+02  0.19145426770E+02  0.00000000000E+00 0.  1.
</event>
<event>
 7    1  0.2710146E-013  0.7246155E+02  0.7816164E-02  0.1226708E+00
        -11   -1    0    0    0    0  0.00000000000E+00  0.00000000000E+00  0.45593999997E+02  0.45594000000E+02  0.51100000000E-03 0.  1.
         11   -1    0    0    0    0 -0.00000000000E+00 -0.00000000000E+00 -0.45593999997E+02  0.45594000000E+02  0.51100000000E-03 0. -1.
    9900012    2    1    2    0    0  0.99364670131E+01  0.48766527832E+01 -0.15105131489E+02  0.72461545013E+02  0.69999967067E+02 0.  0.
        -12    1    1    2    0    0 -0.99364670131E+01 -0.48766527832E+01  0.15105131489E+02  0.18726454987E+02  0.00000000000E+00 0.  1.
         11    1    3    3    0    0  0.20141859197E+02 -0.14865502223E+02 -0.68128305512E+00  0.25042799266E+02  0.51100000000E-03 0. -1.
        -11    1    3    3    0    0 -0.11963252317E+02 -0.91412289655E+01 -0.10174783498E+02  0.18171617773E+02  0.51100000000E-03 0.  1.
        -12    1    3    3    0    0  0.17578601339E+01  0.28883383971E+02 -0.42490649360E+01  0.29247127974E+02  0.00000000000E+00 0.  1.
</event>
<event>
 7    1  0.2710146E-013  0.7246161E+02  0.7816164E-02  0.1226708E+00
        -11   -1    0    0    0    0  0.00000000000E+00  0.00000000000E+00  0.45593999997E+02  0.45594000000E+02  0.51100000000E-03 0.  1.
         11   -1    0    0    0    0 -0.00000000000E+00 -0.00000000000E+00 -0.45593999997E+02  0.45594000000E+02  0.51100000000E-03 0. -1.
    9900012    2    1    2    0    0 -0.12946843781E+02 -0.13229993737E+02  0.28326921097E+01  0.72461611059E+02  0.70000053104E+02 0.  0.
        -12    1    1    2    0    0  0.12946843781E+02  0.13229993737E+02 -0.28326921097E+01  0.18726388941E+02  0.00000000000E+00 0.  1.
         11    1    3    3    0    0 -0.23417107459E+02 -0.29110562509E+02  0.51493381630E+01  0.37713412138E+02  0.51100000000E-03 0. -1.
        -11    1    3    3    0    0 -0.70886643564E+00  0.15472873906E+00  0.11178885078E+02  0.11202406190E+02  0.51100000000E-03 0.  1.
        -12    1    3    3    0    0  0.11179130113E+02  0.15725840032E+02 -0.13495531131E+02  0.23545792731E+02  0.00000000000E+00 0.  1.
</event>
<event>
 7    1  0.2710146E-013  0.7246155E+02  0.7816164E-02  0.1226708E+00
        -11   -1    0    0    0    0  0.00000000000E+00  0.00000000000E+00  0.45593999997E+02  0.45594000000E+02  0.51100000000E-03 0. -1.
         11   -1    0    0    0    0 -0.00000000000E+00 -0.00000000000E+00 -0.45593999997E+02  0.45594000000E+02  0.51100000000E-03 0.  1.
    9900012    2    1    2    0    0  0.10446204304E+02 -0.12849758147E+02  0.87430329185E+01  0.72461545626E+02  0.69999967865E+02 0.  0.
        -12    1    1    2    0    0 -0.10446204304E+02  0.12849758147E+02 -0.87430329185E+01  0.18726454374E+02  0.00000000000E+00 0.  1.
         11    1    3    3    0    0  0.15444063686E+02 -0.11782444794E+02  0.89056935786E+01  0.21369522382E+02  0.51100000000E-03 0. -1.
        -11    1    3    3    0    0  0.18817560712E+02 -0.90514098720E+01  0.11004303672E+02  0.23603459733E+02  0.51100000000E-03 0.  1.
         12    1    3    3    0    0 -0.23815420094E+02  0.79840965187E+01 -0.11166964332E+02  0.27488563511E+02  0.00000000000E+00 0. -1.
</event>
<event>
 7    1  0.2710146E-013  0.7246159E+02  0.7816164E-02  0.1226708E+00
        -11   -1    0    0    0    0  0.00000000000E+00  0.00000000000E+00  0.45593999997E+02  0.45594000000E+02  0.51100000000E-03 0. -1.
         11   -1    0    0    0    0 -0.00000000000E+00 -0.00000000000E+00 -0.45593999997E+02  0.45594000000E+02  0.51100000000E-03 0.  1.
    9900012    2    1    2    0    0  0.42089292165E+01 -0.10238446832E+02  0.15104219685E+02  0.72461592683E+02  0.70000029166E+02 0.  0.
        -12    1    1    2    0    0 -0.42089292165E+01  0.10238446832E+02 -0.15104219685E+02  0.18726407317E+02  0.00000000000E+00 0.  1.
         11    1    3    3    0    0  0.13957421159E+02  0.44714679678E+01 -0.12359054731E+02  0.19171590057E+02  0.51100000000E-03 0. -1.
        -11    1    3    3    0    0 -0.24488813571E+02  0.14440230830E+00  0.17585463330E+02  0.30149151944E+02  0.51100000000E-03 0.  1.
         12    1    3    3    0    0  0.14740321628E+02 -0.14854317109E+02  0.98778110866E+01  0.23140850683E+02  0.00000000000E+00 0. -1.
</event>
<event>
 7    1  0.2710146E-013  0.7246152E+02  0.7816164E-02  0.1226708E+00
        -11   -1    0    0    0    0  0.00000000000E+00  0.00000000000E+00  0.45593999997E+02  0.45594000000E+02  0.51100000000E-03 0. -1.
         11   -1    0    0    0    0 -0.00000000000E+00 -0.00000000000E+00 -0.45593999997E+02  0.45594000000E+02  0.51100000000E-03 0.  1.
    9900012    2    1    2    0    0 -0.13769880169E+02 -0.63429208076E+01  0.10992675724E+02  0.72461517046E+02  0.69999930634E+02 0.  0.
        -12    1    1    2    0    0  0.13769880169E+02  0.63429208076E+01 -0.10992675724E+02  0.18726482954E+02  0.00000000000E+00 0.  1.
         11    1    3    3    0    0  0.64627886502E+00  0.15197362778E+02 -0.17177654303E+02  0.22944483419E+02  0.51100000000E-03 0. -1.
        -11    1    3    3    0    0  0.27455399953E+01  0.11518711794E+01 -0.49982976207E+01  0.58178841898E+01  0.51100000000E-03 0.  1.
         12    1    3    3    0    0 -0.17161699030E+02 -0.22692154765E+02  0.33168627648E+02  0.43699149437E+02  0.00000000000E+00 0. -1.
</event>
<event>
 7    1  0.2710146E-013  0.7246140E+02  0.7816164E-02  0.1226708E+00
        -11   -1    0    0    0    0  0.00000000000E+00  0.00000000000E+00  0.45593999997E+02  0.45594000000E+02  0.51100000000E-03 0. -1.
         11   -1    0    0    0    0 -0.00000000000E+00 -0.00000000000E+00 -0.45593999997E+02  0.45594000000E+02  0.51100000000E-03 0.  1.
    9900012    2    1    2    0    0 -0.11188776019E+02 -0.10650253065E+00  0.15016171943E+02  0.72461402033E+02  0.69999780808E+02 0.  0.
        -12    1    1    2    0    0  0.11188776019E+02  0.10650253065E+00 -0.15016171943E+02  0.18726597967E+02  0.00000000000E+00 0.  1.
         11    1    3    3    0    0  0.14866945515E+01 -0.84344373568E+01  0.76282451720E+01  0.11469094074E+02  0.51100000000E-03 0. -1.
        -11    1    3    3    0    0 -0.83900290488E+01 -0.24828902456E+02  0.84680354270E+01  0.27542233186E+02  0.51100000000E-03 0.  1.
        -12    1    3    3    0    0 -0.42854415215E+01  0.33156837282E+02 -0.10801086562E+01  0.33450074773E+02  0.00000000000E+00 0.  1.
</event>
<event>
 7    1  0.2710146E-013  0.7246154E+02  0.7816164E-02  0.1226708E+00
        -11   -1    0    0    0    0  0.00000000000E+00  0.00000000000E+00  0.45593999997E+02  0.45594000000E+02  0.51100000000E-03 0.  1.
         11   -1    0    0    0    0 -0.00000000000E+00 -0.00000000000E+00 -0.45593999997E+02  0.45594000000E+02  0.51100000000E-03 0. -1.
    9900012    2    1    2    0    0 -0.91982486297E+01 -0.71531040028E+01 -0.14659665384E+02  0.72461535734E+02  0.69999954979E+02 0.  0.
        -12    1    1    2    0    0  0.91982486297E+01  0.71531040028E+01  0.14659665384E+02  0.18726464266E+02  0.00000000000E+00 0.  1.
         11    1    3    3    0    0  0.19573500809E+02 -0.19668975981E+02  0.51242878124E+01  0.28217882201E+02  0.51100000000E-03 0. -1.
        -11    1    3    3    0    0 -0.52631395929E+01  0.94060795165E+01  0.31756644842E+01  0.11236539299E+02  0.51100000000E-03 0.  1.
        -12    1    3    3    0    0 -0.23508609846E+02  0.31097924612E+01 -0.22959617681E+02  0.33007114234E+02  0.00000000000E+00 0.  1.
</event>
<event>
 7    1  0.2710146E-013  0.7246148E+02  0.7816164E-02  0.1226708E+00
        -11   -1    0    0    0    0  0.00000000000E+00  0.00000000000E+00  0.45593999997E+02  0.45594000000E+02  0.51100000000E-03 0. -1.
         11   -1    0    0    0    0 -0.00000000000E+00 -0.00000000000E+00 -0.45593999997E+02  0.45594000000E+02  0.51100000000E-03 0.  1.
    9900012    2    1    2    0    0 -0.10933675982E+02  0.12416214282E+02  0.87735296166E+01  0.72461482184E+02  0.69999885220E+02 0.  0.
        -12    1    1    2    0    0  0.10933675982E+02 -0.12416214282E+02 -0.87735296166E+01  0.18726517816E+02  0.00000000000E+00 0.  1.
         11    1    3    3    0    0  0.16091320849E+02 -0.12963308694E+02  0.18068961497E+02  0.27449323285E+02  0.51100000000E-03 0. -1.
        -11    1    3    3    0    0  0.12048201406E+00  0.94499608056E+01  0.47136472137E+01  0.10561001158E+02  0.51100000000E-03 0.  1.
        -12    1    3    3    0    0 -0.27145478845E+02  0.15929562170E+02 -0.14009079094E+02  0.34451157741E+02  0.00000000000E+00 0.  1.
</event>
<event>
 7    1  0.2710146E-013  0.7246149E+02  0.7816164E-02  0.1226708E+00
        -11   -1    0    0    0    0  0.00000000000E+00  0.00000000000E+00  0.45593999997E+02  0.45594000000E+02  0.51100000000E-03 0.  1.
         11   -1    0    0    0    0 -0.00000000000E+00 -0.00000000000E+00 -0.45593999997E+02  0.45594000000E+02  0.51100000000E-03 0. -1.
    9900012    2    1    2    0    0 -0.45700503926E+00  0.13416540887E+02 -0.13056411936E+02  0.72461486293E+02  0.69999890573E+02 0.  0.
        -12    1    1    2    0    0  0.45700503926E+00 -0.13416540887E+02  0.13056411936E+02  0.18726513707E+02  0.00000000000E+00 0.  1.
         11    1    3    3    0    0  0.13826769681E+02 -0.64381185782E+01 -0.54282111257E+01  0.16189330033E+02  0.51100000000E-03 0. -1.
        -11    1    3    3    0    0 -0.22097221022E+02 -0.85183689429E+01 -0.11951430420E+02  0.26527089469E+02  0.51100000000E-03 0.  1.
        -12    1    3    3    0    0  0.78134463021E+01  0.28373028408E+02  0.43232296098E+01  0.29745066791E+02  0.00000000000E+00 0.  1.
</event>
<event>
 7    1  0.2710146E-013  0.7246160E+02  0.7816164E-02  0.1226708E+00
        -11   -1    0    0    0    0  0.00000000000E+00  0.00000000000E+00  0.45593999997E+02  0.45594000000E+02  0.51100000000E-03 0.  1.
         11   -1    0    0    0    0 -0.00000000000E+00 -0.00000000000E+00 -0.45593999997E+02  0.45594000000E+02  0.51100000000E-03 0. -1.
    9900012    2    1    2    0    0  0.23969562836E+01 -0.53208968003E+01 -0.17793843831E+02  0.72461595635E+02  0.70000033011E+02 0.  0.
        -12    1    1    2    0    0 -0.23969562836E+01  0.53208968003E+01  0.17793843831E+02  0.18726404365E+02  0.00000000000E+00 0.  1.
         11    1    3    3    0    0  0.32174833097E+02 -0.95296129299E+01 -0.49669267518E+01  0.33922024837E+02  0.51100000000E-03 0. -1.
        -11    1    3    3    0    0  0.17857187394E+01 -0.15990781999E+01  0.20607862077E+01  0.31611204597E+01  0.51100000000E-03 0.  1.
        -12    1    3    3    0    0 -0.31563595553E+02  0.58077943295E+01 -0.14887703286E+02  0.35378450338E+02  0.00000000000E+00 0.  1.
</event>
<event>
 7    1  0.2710146E-013  0.7246160E+02  0.7816164E-02  0.1226708E+00
        -11   -1    0    0    0    0  0.00000000000E+00  0.00000000000E+00  0.45593999997E+02  0.45594000000E+02  0.51100000000E-03 0. -1.
         11   -1    0    0    0    0 -0.00000000000E+00 -0.00000000000E+00 -0.45593999997E+02  0.45594000000E+02  0.51100000000E-03 0.  1.
    9900012    2    1    2    0    0  0.51029647055E+01  0.15646925166E+02  0.89337294025E+01  0.72461600534E+02  0.70000039393E+02 0.  0.
        -12    1    1    2    0    0 -0.51029647055E+01 -0.15646925166E+02 -0.89337294025E+01  0.18726399466E+02  0.00000000000E+00 0.  1.
         11    1    3    3    0    0  0.56927569626E+01  0.86748603953E+01  0.26198011303E+01  0.10701590673E+02  0.51100000000E-03 0. -1.
        -11    1    3    3    0    0  0.21799392727E+02 -0.77947527839E+01 -0.14928015995E+02  0.27546639650E+02  0.51100000000E-03 0.  1.
         12    1    3    3    0    0 -0.22389184984E+02  0.14766817554E+02  0.21241944267E+02  0.34213370211E+02  0.00000000000E+00 0. -1.
</event>
<event>
 7    1  0.2710146E-013  0.7246154E+02  0.7816164E-02  0.1226708E+00
        -11   -1    0    0    0    0  0.00000000000E+00  0.00000000000E+00  0.45593999997E+02  0.45594000000E+02  0.51100000000E-03 0.  1.
         11   -1    0    0    0    0 -0.00000000000E+00 -0.00000000000E+00 -0.45593999997E+02  0.45594000000E+02  0.51100000000E-03 0. -1.
    9900012    2    1    2    0    0 -0.48761615917E+01  0.10888074648E+02 -0.14434449987E+02  0.72461535628E+02  0.69999954841E+02 0.  0.
        -12    1    1    2    0    0  0.48761615917E+01 -0.10888074648E+02  0.14434449987E+02  0.18726464372E+02  0.00000000000E+00 0.  1.
         11    1    3    3    0    0 -0.19030393731E+02  0.16592820686E+02 -0.10198201468E+02  0.27230146847E+02  0.51100000000E-03 0. -1.
        -11    1    3    3    0    0  0.14355054051E+02  0.16453565120E+02  0.27241094200E+01  0.22004730272E+02  0.51100000000E-03 0.  1.
        -12    1    3    3    0    0 -0.20082191132E+00 -0.22158311159E+02 -0.69603579397E+01  0.23226658509E+02  0.00000000000E+00 0.  1.
</event>
<event>
 7    1  0.2710146E-013  0.7246156E+02  0.7816164E-02  0.1226708E+00
        -11   -1    0    0    0    0  0.00000000000E+00  0.00000000000E+00  0.45593999997E+02  0.45594000000E+02  0.51100000000E-03 0.  1.
         11   -1    0    0    0    0 -0.00000000000E+00 -0.00000000000E+00 -0.45593999997E+02  0.45594000000E+02  0.51100000000E-03 0. -1.
    9900012    2    1    2    0    0  0.56463817133E+01  0.17278161062E+02  0.45014732519E+01  0.72461555127E+02  0.69999980242E+02 0.  0.
        -12    1    1    2    0    0 -0.56463817133E+01 -0.17278161062E+02 -0.45014732519E+01  0.18726444873E+02  0.00000000000E+00 0.  1.
         11    1    3    3    0    0  0.23305634207E+02  0.12120215831E+02 -0.89730998921E+01  0.27759119934E+02  0.51100000000E-03 0. -1.
        -11    1    3    3    0    0  0.96344304440E+01  0.11027248835E+01  0.14087289131E+02  0.17102338070E+02  0.51100000000E-03 0.  1.
        -12    1    3    3    0    0 -0.27293682937E+02  0.40552203470E+01 -0.61271598668E+00  0.27600097124E+02  0.00000000000E+00 0.  1.
</event>
<event>
 7    1  0.2710146E-013  0.7246124E+02  0.7816164E-02  0.1226709E+00
        -11   -1    0    0    0    0  0.00000000000E+00  0.00000000000E+00  0.45593999997E+02  0.45594000000E+02  0.51100000000E-03 0.  1.
         11   -1    0    0    0    0 -0.00000000000E+00 -0.00000000000E+00 -0.45593999997E+02  0.45594000000E+02  0.51100000000E-03 0. -1.
    9900012    2    1    2    0    0  0.62341930739E+01  0.36236762537E+01 -0.17282802301E+02  0.72461242452E+02  0.69999572924E+02 0.  0.
        -12    1    1    2    0    0 -0.62341930739E+01 -0.36236762537E+01  0.17282802301E+02  0.18726757548E+02  0.00000000000E+00 0.  1.
         11    1    3    3    0    0 -0.98271929680E+00 -0.21190905642E+02 -0.23438223145E+02  0.31612822139E+02  0.51100000000E-03 0. -1.
        -11    1    3    3    0    0  0.92882159699E+01  0.23423876127E+01 -0.94145742632E+01  0.13431006829E+02  0.51100000000E-03 0.  1.
        -12    1    3    3    0    0 -0.20713035992E+01  0.22472194283E+02  0.15569995107E+02  0.27417413484E+02  0.00000000000E+00 0.  1.
</event>
<event>
 7    1  0.2710146E-013  0.7246156E+02  0.7816164E-02  0.1226708E+00
        -11   -1    0    0    0    0  0.00000000000E+00  0.00000000000E+00  0.45593999997E+02  0.45594000000E+02  0.51100000000E-03 0. -1.
         11   -1    0    0    0    0 -0.00000000000E+00 -0.00000000000E+00 -0.45593999997E+02  0.45594000000E+02  0.51100000000E-03 0.  1.
    9900012    2    1    2    0    0 -0.17756006677E+02  0.28135895742E+01  0.52428405431E+01  0.72461563170E+02  0.69999990719E+02 0.  0.
        -12    1    1    2    0    0  0.17756006677E+02 -0.28135895742E+01 -0.52428405431E+01  0.18726436830E+02  0.00000000000E+00 0.  1.
         11    1    3    3    0    0 -0.26449082064E+01 -0.15733115595E+01 -0.93397729611E+01  0.98337280779E+01  0.51100000000E-03 0. -1.
        -11    1    3    3    0    0  0.16187404402E+02 -0.85507166936E+01 -0.99242374405E+01  0.20823959909E+02  0.51100000000E-03 0.  1.
         12    1    3    3    0    0 -0.31298502872E+02  0.12937617827E+02  0.24506850945E+02  0.41803875183E+02  0.00000000000E+00 0. -1.
</event>
<event>
 7    1  0.2710146E-013  0.7246148E+02  0.7816164E-02  0.1226708E+00
        -11   -1    0    0    0    0  0.00000000000E+00  0.00000000000E+00  0.45593999997E+02  0.45594000000E+02  0.51100000000E-03 0. -1.
         11   -1    0    0    0    0 -0.00000000000E+00 -0.00000000000E+00 -0.45593999997E+02  0.45594000000E+02  0.51100000000E-03 0.  1.
    9900012    2    1    2    0    0  0.11033738807E+02 -0.48005508862E+01 -0.14349004650E+02  0.72461478291E+02  0.69999880148E+02 0.  0.
        -12    1    1    2    0    0 -0.11033738807E+02  0.48005508862E+01  0.14349004650E+02  0.18726521709E+02  0.00000000000E+00 0.  1.
         11    1    3    3    0    0  0.15724613388E+02  0.89863561320E+01 -0.19164766558E+02  0.26368662086E+02  0.51100000000E-03 0. -1.
        -11    1    3    3    0    0 -0.19496428834E+02  0.24234665257E+01 -0.73702863993E+01  0.20983447027E+02  0.51100000000E-03 0.  1.
        -12    1    3    3    0    0  0.14805554253E+02 -0.16210373544E+02  0.12186048307E+02  0.25109369178E+02  0.00000000000E+00 0.  1.
</event>
<event>
 7    1  0.2710146E-013  0.7246157E+02  0.7816164E-02  0.1226708E+00
        -11   -1    0    0    0    0  0.00000000000E+00  0.00000000000E+00  0.45593999997E+02  0.45594000000E+02  0.51100000000E-03 0.  1.
         11   -1    0    0    0    0 -0.00000000000E+00 -0.00000000000E+00 -0.45593999997E+02  0.45594000000E+02  0.51100000000E-03 0. -1.
    9900012    2    1    2    0    0  0.14224672491E+02  0.46313181106E+01 -0.11264484925E+02  0.72461573871E+02  0.70000004660E+02 0.  0.
        -12    1    1    2    0    0 -0.14224672491E+02 -0.46313181106E+01  0.11264484925E+02  0.18726426129E+02  0.00000000000E+00 0.  1.
         11    1    3    3    0    0 -0.28812971800E+01  0.17529509173E+02  0.25401485070E+01  0.17945415013E+02  0.51100000000E-03 0.  1.
        -11    1    3    3    0    0  0.31892258719E+02 -0.18411145840E+02 -0.78708047641E+01  0.37656819107E+02  0.51100000000E-03 0. -1.
         12    1    3    3    0    0 -0.14786289048E+02  0.55129547768E+01 -0.59338286679E+01  0.16859339751E+02  0.00000000000E+00 0. -1.
</event>
<event>
 7    1  0.2710146E-013  0.7246200E+02  0.7816164E-02  0.1226707E+00
        -11   -1    0    0    0    0  0.00000000000E+00  0.00000000000E+00  0.45593999997E+02  0.45594000000E+02  0.51100000000E-03 0.  1.
         11   -1    0    0    0    0 -0.00000000000E+00 -0.00000000000E+00 -0.45593999997E+02  0.45594000000E+02  0.51100000000E-03 0. -1.
    9900012    2    1    2    0    0 -0.16073211343E+02 -0.82327236839E+01 -0.49534958028E+01  0.72462002489E+02  0.70000563011E+02 0.  0.
        -12    1    1    2    0    0  0.16073211343E+02  0.82327236839E+01  0.49534958028E+01  0.18725997511E+02  0.00000000000E+00 0.  1.
         11    1    3    3    0    0 -0.28980955005E+02  0.32751725307E+01 -0.17139534181E+02  0.33828776808E+02  0.51100000000E-03 0. -1.
        -11    1    3    3    0    0 -0.16480970828E+01  0.10277809400E+02  0.25536557214E+01  0.10717777188E+02  0.51100000000E-03 0.  1.
        -12    1    3    3    0    0  0.14555840745E+02 -0.21785705614E+02  0.96323826572E+01  0.27915448493E+02  0.00000000000E+00 0.  1.
</event>
<event>
 7    1  0.2710146E-013  0.7246158E+02  0.7816164E-02  0.1226708E+00
        -11   -1    0    0    0    0  0.00000000000E+00  0.00000000000E+00  0.45593999997E+02  0.45594000000E+02  0.51100000000E-03 0.  1.
         11   -1    0    0    0    0 -0.00000000000E+00 -0.00000000000E+00 -0.45593999997E+02  0.45594000000E+02  0.51100000000E-03 0. -1.
    9900012    2    1    2    0    0 -0.97618733091E+00 -0.18585151981E+02 -0.20779369517E+01  0.72461584490E+02  0.70000018493E+02 0.  0.
        -12    1    1    2    0    0  0.97618733091E+00  0.18585151981E+02  0.20779369517E+01  0.18726415510E+02  0.00000000000E+00 0.  1.
         11    1    3    3    0    0  0.90186803748E+01 -0.23274845212E+02 -0.14182380929E+01  0.25001328262E+02  0.51100000000E-03 0. -1.
        -11    1    3    3    0    0 -0.13649964144E+02 -0.87061055527E+01  0.17994282090E+02  0.24205618836E+02  0.51100000000E-03 0.  1.
         12    1    3    3    0    0  0.36550964386E+01  0.13395798783E+02 -0.18653980949E+02  0.23254637392E+02  0.00000000000E+00 0. -1.
</event>
<event>
 7    1  0.2710146E-013  0.7246159E+02  0.7816164E-02  0.1226708E+00
        -11   -1    0    0    0    0  0.00000000000E+00  0.00000000000E+00  0.45593999997E+02  0.45594000000E+02  0.51100000000E-03 0. -1.
         11   -1    0    0    0    0 -0.00000000000E+00 -0.00000000000E+00 -0.45593999997E+02  0.45594000000E+02  0.51100000000E-03 0.  1.
    9900012    2    1    2    0    0  0.71298823359E+01  0.14985376183E+02 -0.86765070523E+01  0.72461588275E+02  0.70000023423E+02 0.  0.
        -12    1    1    2    0    0 -0.71298823359E+01 -0.14985376183E+02  0.86765070523E+01  0.18726411725E+02  0.00000000000E+00 0.  1.
         11    1    3    3    0    0 -0.15930716867E+02  0.66003311291E+00  0.17023822506E+01  0.16035008238E+02  0.51100000000E-03 0. -1.
        -11    1    3    3    0    0  0.26106213904E+00 -0.12246958138E+01 -0.25111593578E+02  0.25142795500E+02  0.51100000000E-03 0.  1.
        -12    1    3    3    0    0  0.22799537064E+02  0.15550038884E+02  0.14732704275E+02  0.31283784536E+02  0.00000000000E+00 0.  1.
</event>
<event>
 7    1  0.2710146E-013  0.7246160E+02  0.7816164E-02  0.1226708E+00
        -11   -1    0    0    0    0  0.00000000000E+00  0.00000000000E+00  0.45593999997E+02  0.45594000000E+02  0.51100000000E-03 0.  1.
         11   -1    0    0    0    0 -0.00000000000E+00 -0.00000000000E+00 -0.45593999997E+02  0.45594000000E+02  0.51100000000E-03 0. -1.
    9900012    2    1    2    0    0  0.90143927070E+01  0.40614114782E+01  0.15903580212E+02  0.72461596110E+02  0.70000033630E+02 0.  0.
        -12    1    1    2    0    0 -0.90143927070E+01 -0.40614114782E+01 -0.15903580212E+02  0.18726403890E+02  0.00000000000E+00 0.  1.
         11    1    3    3    0    0 -0.17796512694E+02 -0.28183720218E+01 -0.17925695646E+02  0.25416326437E+02  0.51100000000E-03 0. -1.
        -11    1    3    3    0    0  0.17249016783E+01 -0.16214768826E+01 -0.15646437851E+01  0.28377074401E+01  0.51100000000E-03 0.  1.
        -12    1    3    3    0    0  0.25086003723E+02  0.85012603826E+01  0.35393919643E+02  0.44207562233E+02  0.00000000000E+00 0.  1.
</event>
<event>
 7    1  0.2710146E-013  0.7246156E+02  0.7816164E-02  0.1226708E+00
        -11   -1    0    0    0    0  0.00000000000E+00  0.00000000000E+00  0.45593999997E+02  0.45594000000E+02  0.51100000000E-03 0.  1.
         11   -1    0    0    0    0 -0.00000000000E+00 -0.00000000000E+00 -0.45593999997E+02  0.45594000000E+02  0.51100000000E-03 0. -1.
    9900012    2    1    2    0    0 -0.10075327898E+02 -0.53578984388E+01 -0.14847901373E+02  0.72461561922E+02  0.69999989093E+02 0.  0.
        -12    1    1    2    0    0  0.10075327898E+02  0.53578984388E+01  0.14847901373E+02  0.18726438078E+02  0.00000000000E+00 0.  1.
         11    1    3    3    0    0 -0.11733671035E+02 -0.12905437056E+01  0.13246422501E+02  0.17742949257E+02  0.51100000000E-03 0. -1.
        -11    1    3    3    0    0 -0.14033031352E+02  0.15761971758E+02 -0.85954351087E+01  0.22786996897E+02  0.51100000000E-03 0.  1.
         12    1    3    3    0    0  0.15691374489E+02 -0.19829326492E+02 -0.19498888765E+02  0.31931615767E+02  0.00000000000E+00 0. -1.
</event>
<event>
 7    1  0.2710146E-013  0.7246159E+02  0.7816164E-02  0.1226708E+00
        -11   -1    0    0    0    0  0.00000000000E+00  0.00000000000E+00  0.45593999997E+02  0.45594000000E+02  0.51100000000E-03 0.  1.
         11   -1    0    0    0    0 -0.00000000000E+00 -0.00000000000E+00 -0.45593999997E+02  0.45594000000E+02  0.51100000000E-03 0. -1.
    9900012    2    1    2    0    0 -0.50160056022E+01  0.10099906021E+02 -0.14950252173E+02  0.72461589402E+02  0.70000024892E+02 0.  0.
        -12    1    1    2    0    0  0.50160056022E+01 -0.10099906021E+02  0.14950252173E+02  0.18726410598E+02  0.00000000000E+00 0.  1.
         11    1    3    3    0    0 -0.24029426184E+02  0.24786002555E+01 -0.15438737261E+02  0.28668997025E+02  0.51100000000E-03 0. -1.
        -11    1    3    3    0    0 -0.11905257684E+02  0.52379016493E+00 -0.14821393176E+01  0.12008590836E+02  0.51100000000E-03 0.  1.
        -12    1    3    3    0    0  0.30918678266E+02  0.70975156003E+01  0.19706244054E+01  0.31784001541E+02  0.00000000000E+00 0.  1.
</event>
<event>
 7    1  0.2710146E-013  0.7246156E+02  0.7816164E-02  0.1226708E+00
        -11   -1    0    0    0    0  0.00000000000E+00  0.00000000000E+00  0.45593999997E+02  0.45594000000E+02  0.51100000000E-03 0. -1.
         11   -1    0    0    0    0 -0.00000000000E+00 -0.00000000000E+00 -0.45593999997E+02  0.45594000000E+02  0.51100000000E-03 0.  1.
    9900012    2    1    2    0    0  0.64385883552E+01  0.13663914921E+01  0.17531599725E+02  0.72461563216E+02  0.69999990779E+02 0.  0.
        -12    1    1    2    0    0 -0.64385883552E+01 -0.13663914921E+01 -0.17531599725E+02  0.18726436784E+02  0.00000000000E+00 0.  1.
         11    1    3    3    0    0  0.66918253105E+01 -0.22130666992E+00  0.12933834109E+02  0.14564119185E+02  0.51100000000E-03 0. -1.
        -11    1    3    3    0    0 -0.95236222693E+01  0.25793894154E+02  0.13315063752E+02  0.30550209160E+02  0.51100000000E-03 0.  1.
         12    1    3    3    0    0  0.92703853140E+01 -0.24206195992E+02 -0.87172981358E+01  0.27347234870E+02  0.00000000000E+00 0. -1.
</event>
<event>
 7    1  0.2710146E-013  0.7246170E+02  0.7816164E-02  0.1226708E+00
        -11   -1    0    0    0    0  0.00000000000E+00  0.00000000000E+00  0.45593999997E+02  0.45594000000E+02  0.51100000000E-03 0.  1.
         11   -1    0    0    0    0 -0.00000000000E+00 -0.00000000000E+00 -0.45593999997E+02  0.45594000000E+02  0.51100000000E-03 0. -1.
    9900012    2    1    2    0    0 -0.16938557925E+02  0.67534723637E+01 -0.42603186977E+01  0.72461696335E+02  0.70000164192E+02 0.  0.
        -12    1    1    2    0    0  0.16938557925E+02 -0.67534723637E+01  0.42603186977E+01  0.18726303665E+02  0.00000000000E+00 0.  1.
         11    1    3    3    0    0 -0.11282102808E+02  0.98743247943E+00  0.31612441533E+01  0.11758160210E+02  0.51100000000E-03 0.  1.
        -11    1    3    3    0    0  0.95602923451E+01 -0.22158359206E+02 -0.14459115535E+02  0.28132865029E+02  0.51100000000E-03 0. -1.
         12    1    3    3    0    0 -0.15216747462E+02  0.27924399091E+02  0.70375526837E+01  0.32570671096E+02  0.00000000000E+00 0. -1.
</event>
<event>
 7    1  0.2710146E-013  0.7246155E+02  0.7816164E-02  0.1226708E+00
        -11   -1    0    0    0    0  0.00000000000E+00  0.00000000000E+00  0.45593999997E+02  0.45594000000E+02  0.51100000000E-03 0. -1.
         11   -1    0    0    0    0 -0.00000000000E+00 -0.00000000000E+00 -0.45593999997E+02  0.45594000000E+02  0.51100000000E-03 0.  1.
    9900012    2    1    2    0    0 -0.13831620546E+02 -0.64318779719E+01  0.10862657542E+02  0.72461545182E+02  0.69999967286E+02 0.  0.
        -12    1    1    2    0    0  0.13831620546E+02  0.64318779719E+01 -0.10862657542E+02  0.18726454818E+02  0.00000000000E+00 0.  1.
         11    1    3    3    0    0  0.92174846996E+01 -0.54128724303E+01 -0.32412185762E+00  0.10694216539E+02  0.51100000000E-03 0. -1.
        -11    1    3    3    0    0  0.17663877985E+01 -0.21916675793E+02 -0.87765060276E+01  0.23674624854E+02  0.51100000000E-03 0.  1.
         12    1    3    3    0    0 -0.24815493044E+02  0.20897670251E+02  0.19963285428E+02  0.38092703790E+02  0.00000000000E+00 0. -1.
</event>
<event>
 7    1  0.2710146E-013  0.7246155E+02  0.7816164E-02  0.1226708E+00
        -11   -1    0    0    0    0  0.00000000000E+00  0.00000000000E+00  0.45593999997E+02  0.45594000000E+02  0.51100000000E-03 0.  1.
         11   -1    0    0    0    0 -0.00000000000E+00 -0.00000000000E+00 -0.45593999997E+02  0.45594000000E+02  0.51100000000E-03 0. -1.
    9900012    2    1    2    0    0  0.16854140810E+01  0.18295846932E+02  0.36195767607E+01  0.72461548881E+02  0.69999972105E+02 0.  0.
        -12    1    1    2    0    0 -0.16854140810E+01 -0.18295846932E+02 -0.36195767607E+01  0.18726451119E+02  0.00000000000E+00 0.  1.
         11    1    3    3    0    0  0.49172674990E+01 -0.67613976496E+01 -0.12849043782E+02  0.15329512197E+02  0.51100000000E-03 0. -1.
        -11    1    3    3    0    0 -0.74503124961E+01 -0.66517196611E+01 -0.11079348427E+02  0.14916584480E+02  0.51100000000E-03 0.  1.
        -12    1    3    3    0    0  0.42184590780E+01  0.31708964243E+02  0.27547968970E+02  0.42215452203E+02  0.00000000000E+00 0.  1.
</event>
<event>
 7    1  0.2710146E-013  0.7246147E+02  0.7816164E-02  0.1226708E+00
        -11   -1    0    0    0    0  0.00000000000E+00  0.00000000000E+00  0.45593999997E+02  0.45594000000E+02  0.51100000000E-03 0. -1.
         11   -1    0    0    0    0 -0.00000000000E+00 -0.00000000000E+00 -0.45593999997E+02  0.45594000000E+02  0.51100000000E-03 0.  1.
    9900012    2    1    2    0    0  0.14904495122E+02  0.92854004726E+01  0.65053935459E+01  0.72461473841E+02  0.69999874352E+02 0.  0.
        -12    1    1    2    0    0 -0.14904495122E+02 -0.92854004726E+01 -0.65053935459E+01  0.18726526159E+02  0.00000000000E+00 0.  1.
         11    1    3    3    0    0  0.25839745640E+01  0.14243228913E+02  0.29451769839E+02  0.32816965755E+02  0.51100000000E-03 0. -1.
        -11    1    3    3    0    0 -0.67096754830E+01  0.38606198608E+01  0.10069008561E+01  0.78062782676E+01  0.51100000000E-03 0.  1.
        -12    1    3    3    0    0  0.19030196041E+02 -0.88184483016E+01 -0.23953277149E+02  0.31838229819E+02  0.00000000000E+00 0.  1.
</event>
<event>
 7    1  0.2710146E-013  0.7246152E+02  0.7816164E-02  0.1226708E+00
        -11   -1    0    0    0    0  0.00000000000E+00  0.00000000000E+00  0.45593999997E+02  0.45594000000E+02  0.51100000000E-03 0. -1.
         11   -1    0    0    0    0 -0.00000000000E+00 -0.00000000000E+00 -0.45593999997E+02  0.45594000000E+02  0.51100000000E-03 0.  1.
    9900012    2    1    2    0    0  0.15304136869E+01  0.15615272956E+02  0.10222636394E+02  0.72461515803E+02  0.69999929015E+02 0.  0.
        -12    1    1    2    0    0 -0.15304136869E+01 -0.15615272956E+02 -0.10222636394E+02  0.18726484197E+02  0.00000000000E+00 0.  1.
         11    1    3    3    0    0  0.15354869628E+02 -0.17480201969E+02  0.14342062899E+02  0.27331744376E+02  0.51100000000E-03 0. -1.
        -11    1    3    3    0    0  0.14674886819E+01  0.12562014129E+02 -0.12898249360E+02  0.18064400317E+02  0.51100000000E-03 0.  1.
        -12    1    3    3    0    0 -0.15291944623E+02  0.20533460796E+02  0.87788228549E+01  0.27065371110E+02  0.00000000000E+00 0.  1.
</event>
<event>
 7    1  0.2710146E-013  0.7246160E+02  0.7816164E-02  0.1226708E+00
        -11   -1    0    0    0    0  0.00000000000E+00  0.00000000000E+00  0.45593999997E+02  0.45594000000E+02  0.51100000000E-03 0. -1.
         11   -1    0    0    0    0 -0.00000000000E+00 -0.00000000000E+00 -0.45593999997E+02  0.45594000000E+02  0.51100000000E-03 0.  1.
    9900012    2    1    2    0    0  0.48169754196E+01 -0.39552628657E+01  0.17658725473E+02  0.72461603073E+02  0.70000042701E+02 0.  0.
        -12    1    1    2    0    0 -0.48169754196E+01  0.39552628657E+01 -0.17658725473E+02  0.18726396927E+02  0.00000000000E+00 0.  1.
         11    1    3    3    0    0  0.10391377837E+02 -0.67675730172E+01  0.96360713266E+01  0.15704605973E+02  0.51100000000E-03 0. -1.
        -11    1    3    3    0    0  0.23855228958E+02 -0.57850832793E+01  0.88302772390E+01  0.26086642819E+02  0.51100000000E-03 0.  1.
         12    1    3    3    0    0 -0.29429631375E+02  0.85973934309E+01 -0.80762309271E+00  0.30670354282E+02  0.00000000000E+00 0. -1.
</event>
<event>
 7    1  0.2710146E-013  0.7246156E+02  0.7816164E-02  0.1226708E+00
        -11   -1    0    0    0    0  0.00000000000E+00  0.00000000000E+00  0.45593999997E+02  0.45594000000E+02  0.51100000000E-03 0.  1.
         11   -1    0    0    0    0 -0.00000000000E+00 -0.00000000000E+00 -0.45593999997E+02  0.45594000000E+02  0.51100000000E-03 0. -1.
    9900012    2    1    2    0    0  0.12226005264E+02  0.12691865645E+02  0.63341021594E+01  0.72461561245E+02  0.69999988211E+02 0.  0.
        -12    1    1    2    0    0 -0.12226005264E+02 -0.12691865645E+02 -0.63341021594E+01  0.18726438755E+02  0.00000000000E+00 0.  1.
         11    1    3    3    0    0 -0.26956447895E+01  0.59200785064E+01 -0.13074411177E+02  0.14603220817E+02  0.51100000000E-03 0. -1.
        -11    1    3    3    0    0 -0.13445743610E+02 -0.98999045605E+01  0.18529756732E+02  0.24942895108E+02  0.51100000000E-03 0.  1.
         12    1    3    3    0    0  0.28367393664E+02  0.16671691699E+02  0.87875660400E+00  0.32915445320E+02  0.00000000000E+00 0. -1.
</event>
<event>
 7    1  0.2710146E-013  0.7246159E+02  0.7816164E-02  0.1226708E+00
        -11   -1    0    0    0    0  0.00000000000E+00  0.00000000000E+00  0.45593999997E+02  0.45594000000E+02  0.51100000000E-03 0. -1.
         11   -1    0    0    0    0 -0.00000000000E+00 -0.00000000000E+00 -0.45593999997E+02  0.45594000000E+02  0.51100000000E-03 0.  1.
    9900012    2    1    2    0    0  0.13064003013E+02  0.10008097965E+02 -0.89357769911E+01  0.72461593243E+02  0.70000029895E+02 0.  0.
        -12    1    1    2    0    0 -0.13064003013E+02 -0.10008097965E+02  0.89357769911E+01  0.18726406757E+02  0.00000000000E+00 0.  1.
         11    1    3    3    0    0  0.16832530760E+02 -0.12618870302E+02 -0.23119170933E+02  0.31258055672E+02  0.51100000000E-03 0. -1.
        -11    1    3    3    0    0  0.98572793969E+01  0.21104527530E+02  0.29508304373E+01  0.23479234228E+02  0.51100000000E-03 0.  1.
         12    1    3    3    0    0 -0.13625807144E+02  0.15224407364E+01  0.11232563505E+02  0.17724303343E+02  0.00000000000E+00 0. -1.
</event>
<event>
 7    1  0.2710146E-013  0.7246154E+02  0.7816164E-02  0.1226708E+00
        -11   -1    0    0    0    0  0.00000000000E+00  0.00000000000E+00  0.45593999997E+02  0.45594000000E+02  0.51100000000E-03 0. -1.
         11   -1    0    0    0    0 -0.00000000000E+00 -0.00000000000E+00 -0.45593999997E+02  0.45594000000E+02  0.51100000000E-03 0.  1.
    9900012    2    1    2    0    0 -0.16623796982E+02  0.56106868324E+01  0.65459706624E+01  0.72461543722E+02  0.69999965384E+02 0.  0.
        -12    1    1    2    0    0  0.16623796982E+02 -0.56106868324E+01 -0.65459706624E+01  0.18726456278E+02  0.00000000000E+00 0.  1.
         11    1    3    3    0    0 -0.72795476017E+01 -0.12394796669E+02  0.41957859812E+01  0.14974225122E+02  0.51100000000E-03 0. -1.
        -11    1    3    3    0    0  0.12038139950E+02 -0.10440085469E+02  0.12755721041E+02  0.20411286525E+02  0.51100000000E-03 0.  1.
         12    1    3    3    0    0 -0.21382389330E+02  0.28445568970E+02 -0.10405536360E+02  0.37076032075E+02  0.00000000000E+00 0. -1.
</event>
<event>
 7    1  0.2710146E-013  0.7246153E+02  0.7816164E-02  0.1226708E+00
        -11   -1    0    0    0    0  0.00000000000E+00  0.00000000000E+00  0.45593999997E+02  0.45594000000E+02  0.51100000000E-03 0.  1.
         11   -1    0    0    0    0 -0.00000000000E+00 -0.00000000000E+00 -0.45593999997E+02  0.45594000000E+02  0.51100000000E-03 0. -1.
    9900012    2    1    2    0    0 -0.96501427065E+01  0.49673007586E+01 -0.15260447298E+02  0.72461532559E+02  0.69999950843E+02 0.  0.
        -12    1    1    2    0    0  0.96501427065E+01 -0.49673007586E+01  0.15260447298E+02  0.18726467441E+02  0.00000000000E+00 0.  1.
         11    1    3    3    0    0 -0.22072819441E+02  0.78270996771E+01  0.59897009463E+01  0.24173319282E+02  0.51100000000E-03 0. -1.
        -11    1    3    3    0    0 -0.68603800413E+01  0.79991238137E+01  0.68132742652E+01  0.12548764982E+02  0.51100000000E-03 0.  1.
        -12    1    3    3    0    0  0.19283056776E+02 -0.10858922732E+02 -0.28063422509E+02  0.35739448295E+02  0.00000000000E+00 0.  1.
</event>
<event>
 7    1  0.2710146E-013  0.7246150E+02  0.7816164E-02  0.1226708E+00
        -11   -1    0    0    0    0  0.00000000000E+00  0.00000000000E+00  0.45593999997E+02  0.45594000000E+02  0.51100000000E-03 0.  1.
         11   -1    0    0    0    0 -0.00000000000E+00 -0.00000000000E+00 -0.45593999997E+02  0.45594000000E+02  0.51100000000E-03 0. -1.
    9900012    2    1    2    0    0  0.15132253472E+02  0.10854752634E+02 -0.19674867011E+01  0.72461501294E+02  0.69999910114E+02 0.  0.
        -12    1    1    2    0    0 -0.15132253472E+02 -0.10854752634E+02  0.19674867011E+01  0.18726498706E+02  0.00000000000E+00 0.  1.
         11    1    3    3    0    0  0.98779698644E+01 -0.69605465604E+01 -0.19188625007E+02  0.22676570001E+02  0.51100000000E-03 0. -1.
        -11    1    3    3    0    0  0.28818913675E+01  0.59862365123E+01 -0.14444312352E+02  0.15899008932E+02  0.51100000000E-03 0.  1.
        -12    1    3    3    0    0  0.23723922397E+01  0.11829062682E+02  0.31665450658E+02  0.33885922361E+02  0.00000000000E+00 0.  1.
</event>
<event>
 7    1  0.2710146E-013  0.7246152E+02  0.7816164E-02  0.1226708E+00
        -11   -1    0    0    0    0  0.00000000000E+00  0.00000000000E+00  0.45593999997E+02  0.45594000000E+02  0.51100000000E-03 0. -1.
         11   -1    0    0    0    0 -0.00000000000E+00 -0.00000000000E+00 -0.45593999997E+02  0.45594000000E+02  0.51100000000E-03 0.  1.
    9900012    2    1    2    0    0 -0.17433486027E+02  0.25020351301E+01  0.63635293027E+01  0.72461518215E+02  0.69999932157E+02 0.  0.
        -12    1    1    2    0    0  0.17433486027E+02 -0.25020351301E+01 -0.63635293027E+01  0.18726481785E+02  0.00000000000E+00 0.  1.
         11    1    3    3    0    0 -0.13367098397E+02 -0.42890170626E+01 -0.13135663272E+02  0.19225520455E+02  0.51100000000E-03 0.  1.
        -11    1    3    3    0    0  0.51793557261E+01 -0.88467382212E+01  0.30378065892E+02  0.32061150798E+02  0.51100000000E-03 0. -1.
         12    1    3    3    0    0 -0.92457433560E+01  0.15637790414E+02 -0.10878873317E+02  0.21174846963E+02  0.00000000000E+00 0. -1.
</event>
<event>
 7    1  0.2710146E-013  0.7246154E+02  0.7816164E-02  0.1226708E+00
        -11   -1    0    0    0    0  0.00000000000E+00  0.00000000000E+00  0.45593999997E+02  0.45594000000E+02  0.51100000000E-03 0. -1.
         11   -1    0    0    0    0 -0.00000000000E+00 -0.00000000000E+00 -0.45593999997E+02  0.45594000000E+02  0.51100000000E-03 0.  1.
    9900012    2    1    2    0    0  0.17207818218E+02 -0.27749651312E+01 -0.68462215542E+01  0.72461543078E+02  0.69999964545E+02 0.  0.
        -12    1    1    2    0    0 -0.17207818218E+02  0.27749651312E+01  0.68462215542E+01  0.18726456922E+02  0.00000000000E+00 0.  1.
         11    1    3    3    0    0 -0.62352366649E+00  0.79773159302E+01  0.24916455296E+01  0.83806114884E+01  0.51100000000E-03 0. -1.
        -11    1    3    3    0    0  0.27417981346E+02  0.17159930917E+02 -0.11882718877E+02  0.34458786084E+02  0.51100000000E-03 0.  1.
         12    1    3    3    0    0 -0.95866394619E+01 -0.27912211978E+02  0.25448517937E+01  0.29622145505E+02  0.00000000000E+00 0. -1.
</event>
<event>
 7    1  0.2710146E-013  0.7246160E+02  0.7816164E-02  0.1226708E+00
        -11   -1    0    0    0    0  0.00000000000E+00  0.00000000000E+00  0.45593999997E+02  0.45594000000E+02  0.51100000000E-03 0.  1.
         11   -1    0    0    0    0 -0.00000000000E+00 -0.00000000000E+00 -0.45593999997E+02  0.45594000000E+02  0.51100000000E-03 0. -1.
    9900012    2    1    2    0    0  0.11523706845E+02  0.11465891116E+02  0.92959986498E+01  0.72461599667E+02  0.70000038263E+02 0.  0.
        -12    1    1    2    0    0 -0.11523706845E+02 -0.11465891116E+02 -0.92959986498E+01  0.18726400333E+02  0.00000000000E+00 0.  1.
         11    1    3    3    0    0 -0.16091177401E+02  0.11734729163E+02  0.13776893036E+02  0.24216371336E+02  0.51100000000E-03 0. -1.
        -11    1    3    3    0    0 -0.42090159046E+01  0.12918203203E+02 -0.10607505825E+01  0.13627948522E+02  0.51100000000E-03 0.  1.
        -12    1    3    3    0    0  0.31823900151E+02 -0.13187041250E+02 -0.34201438035E+01  0.34617279809E+02  0.00000000000E+00 0.  1.
</event>
<event>
 7    1  0.2710146E-013  0.7246161E+02  0.7816164E-02  0.1226708E+00
        -11   -1    0    0    0    0  0.00000000000E+00  0.00000000000E+00  0.45593999997E+02  0.45594000000E+02  0.51100000000E-03 0. -1.
         11   -1    0    0    0    0 -0.00000000000E+00 -0.00000000000E+00 -0.45593999997E+02  0.45594000000E+02  0.51100000000E-03 0.  1.
    9900012    2    1    2    0    0 -0.88654101799E+00  0.10703221880E+02  0.15340557756E+02  0.72461611510E+02  0.70000053692E+02 0.  0.
        -12    1    1    2    0    0  0.88654101799E+00 -0.10703221880E+02 -0.15340557756E+02  0.18726388490E+02  0.00000000000E+00 0.  1.
         11    1    3    3    0    0 -0.24470076150E+00 -0.15902780023E+02  0.15756705385E+02  0.22388212429E+02  0.51100000000E-03 0. -1.
        -11    1    3    3    0    0  0.70450282184E+01  0.28084880058E+02  0.15128532847E+02  0.32669028404E+02  0.51100000000E-03 0.  1.
         12    1    3    3    0    0 -0.76868684748E+01 -0.14788781552E+01 -0.15544680476E+02  0.17404370677E+02  0.00000000000E+00 0. -1.
</event>
<event>
 7    1  0.2710146E-013  0.7246159E+02  0.7816164E-02  0.1226708E+00
        -11   -1    0    0    0    0  0.00000000000E+00  0.00000000000E+00  0.45593999997E+02  0.45594000000E+02  0.51100000000E-03 0. -1.
         11   -1    0    0    0    0 -0.00000000000E+00 -0.00000000000E+00 -0.45593999997E+02  0.45594000000E+02  0.51100000000E-03 0.  1.
    9900012    2    1    2    0    0  0.86105850573E+01 -0.16359987578E+02 -0.29810989382E+01  0.72461592991E+02  0.70000029567E+02 0.  0.
        -12    1    1    2    0    0 -0.86105850573E+01  0.16359987578E+02  0.29810989382E+01  0.18726407009E+02  0.00000000000E+00 0.  1.
         11    1    3    3    0    0  0.18992667140E+01 -0.15837100581E+02 -0.48784136987E+01  0.16679924740E+02  0.51100000000E-03 0. -1.
        -11    1    3    3    0    0  0.26825045650E+02  0.12330006729E+02 -0.69414366593E+01  0.30328133527E+02  0.51100000000E-03 0.  1.
         12    1    3    3    0    0 -0.20113727307E+02 -0.12852893726E+02  0.88387514198E+01  0.25453534724E+02  0.00000000000E+00 0. -1.
</event>
<event>
 7    1  0.2710146E-013  0.7246156E+02  0.7816164E-02  0.1226708E+00
        -11   -1    0    0    0    0  0.00000000000E+00  0.00000000000E+00  0.45593999997E+02  0.45594000000E+02  0.51100000000E-03 0.  1.
         11   -1    0    0    0    0 -0.00000000000E+00 -0.00000000000E+00 -0.45593999997E+02  0.45594000000E+02  0.51100000000E-03 0. -1.
    9900012    2    1    2    0    0  0.24012519098E+01 -0.18337245519E+02 -0.29426250453E+01  0.72461558103E+02  0.69999984119E+02 0.  0.
        -12    1    1    2    0    0 -0.24012519098E+01  0.18337245519E+02  0.29426250453E+01  0.18726441897E+02  0.00000000000E+00 0.  1.
         11    1    3    3    0    0 -0.18512712695E+02 -0.20563635511E+01  0.27160459187E+01  0.18823550889E+02  0.51100000000E-03 0. -1.
        -11    1    3    3    0    0  0.23429701735E+01  0.12214038639E+02  0.10224227522E+02  0.16099909248E+02  0.51100000000E-03 0.  1.
         12    1    3    3    0    0  0.18570994431E+02 -0.28494920607E+02 -0.15882898486E+02  0.37538097966E+02  0.00000000000E+00 0. -1.
</event>
<event>
 7    1  0.2710146E-013  0.7246157E+02  0.7816164E-02  0.1226708E+00
        -11   -1    0    0    0    0  0.00000000000E+00  0.00000000000E+00  0.45593999997E+02  0.45594000000E+02  0.51100000000E-03 0.  1.
         11   -1    0    0    0    0 -0.00000000000E+00 -0.00000000000E+00 -0.45593999997E+02  0.45594000000E+02  0.51100000000E-03 0. -1.
    9900012    2    1    2    0    0  0.80822878047E+01 -0.21879940469E+01 -0.16750180213E+02  0.72461568645E+02  0.69999997852E+02 0.  0.
        -12    1    1    2    0    0 -0.80822878047E+01  0.21879940469E+01  0.16750180213E+02  0.18726431355E+02  0.00000000000E+00 0.  1.
         11    1    3    3    0    0 -0.30272221951E+01  0.38294022272E+01  0.42364195352E+01  0.64634082631E+01  0.51100000000E-03 0. -1.
        -11    1    3    3    0    0 -0.24738899011E+02 -0.21456563758E+01 -0.11809807201E+01  0.24859840733E+02  0.51100000000E-03 0.  1.
         12    1    3    3    0    0  0.35848409011E+02 -0.38717398983E+01 -0.19805619028E+02  0.41138319649E+02  0.00000000000E+00 0. -1.
</event>
<event>
 7    1  0.2710146E-013  0.7246164E+02  0.7816164E-02  0.1226708E+00
        -11   -1    0    0    0    0  0.00000000000E+00  0.00000000000E+00  0.45593999997E+02  0.45594000000E+02  0.51100000000E-03 0.  1.
         11   -1    0    0    0    0 -0.00000000000E+00 -0.00000000000E+00 -0.45593999997E+02  0.45594000000E+02  0.51100000000E-03 0. -1.
    9900012    2    1    2    0    0 -0.11871502984E+02 -0.72352209552E+01 -0.12545739396E+02  0.72461639372E+02  0.70000089987E+02 0.  0.
        -12    1    1    2    0    0  0.11871502984E+02  0.72352209552E+01  0.12545739396E+02  0.18726360628E+02  0.00000000000E+00 0.  1.
         11    1    3    3    0    0  0.86931813405E+01  0.17771503834E+02 -0.50257646032E+01  0.20412154723E+02  0.51100000000E-03 0.  1.
        -11    1    3    3    0    0 -0.14579013541E+02 -0.63883826200E+01 -0.22397157053E+02  0.27477112524E+02  0.51100000000E-03 0. -1.
        -12    1    3    3    0    0 -0.59856707834E+01 -0.18618342169E+02  0.14877182260E+02  0.24572372125E+02  0.00000000000E+00 0.  1.
</event>
<event>
 7    1  0.2710146E-013  0.7246169E+02  0.7816164E-02  0.1226708E+00
        -11   -1    0    0    0    0  0.00000000000E+00  0.00000000000E+00  0.45593999997E+02  0.45594000000E+02  0.51100000000E-03 0.  1.
         11   -1    0    0    0    0 -0.00000000000E+00 -0.00000000000E+00 -0.45593999997E+02  0.45594000000E+02  0.51100000000E-03 0. -1.
    9900012    2    1    2    0    0 -0.13709513906E+02  0.11535133025E+01 -0.12704069749E+02  0.72461688225E+02  0.70000153627E+02 0.  0.
        -12    1    1    2    0    0  0.13709513906E+02 -0.11535133025E+01  0.12704069749E+02  0.18726311775E+02  0.00000000000E+00 0.  1.
         11    1    3    3    0    0 -0.96797672141E+01  0.59506633474E+01  0.16089258242E+02  0.19697018014E+02  0.51100000000E-03 0. -1.
        -11    1    3    3    0    0  0.11528365308E+02 -0.13277711032E+02  0.15228476967E+01  0.17649925844E+02  0.51100000000E-03 0.  1.
         12    1    3    3    0    0 -0.15558112000E+02  0.84805609870E+01 -0.30316175688E+02  0.35114744368E+02  0.00000000000E+00 0. -1.
</event>
<event>
 7    1  0.2710146E-013  0.7246154E+02  0.7816164E-02  0.1226708E+00
        -11   -1    0    0    0    0  0.00000000000E+00  0.00000000000E+00  0.45593999997E+02  0.45594000000E+02  0.51100000000E-03 0. -1.
         11   -1    0    0    0    0 -0.00000000000E+00 -0.00000000000E+00 -0.45593999997E+02  0.45594000000E+02  0.51100000000E-03 0.  1.
    9900012    2    1    2    0    0  0.16167943298E+02 -0.80735416565E+01  0.49087513940E+01  0.72461539960E+02  0.69999960484E+02 0.  0.
        -12    1    1    2    0    0 -0.16167943298E+02  0.80735416565E+01 -0.49087513940E+01  0.18726460040E+02  0.00000000000E+00 0.  1.
         11    1    3    3    0    0  0.87740010959E+01  0.19092266759E+02 -0.32617157560E+01  0.21263502420E+02  0.51100000000E-03 0.  1.
        -11    1    3    3    0    0  0.52391738645E+01 -0.26713388539E+02  0.23346927215E+02  0.35862697621E+02  0.51100000000E-03 0. -1.
         12    1    3    3    0    0  0.21547683377E+01 -0.45241987661E+00 -0.15176460065E+02  0.15335339919E+02  0.00000000000E+00 0. -1.
</event>
<event>
 7    1  0.2710146E-013  0.7246149E+02  0.7816164E-02  0.1226708E+00
        -11   -1    0    0    0    0  0.00000000000E+00  0.00000000000E+00  0.45593999997E+02  0.45594000000E+02  0.51100000000E-03 0.  1.
         11   -1    0    0    0    0 -0.00000000000E+00 -0.00000000000E+00 -0.45593999997E+02  0.45594000000E+02  0.51100000000E-03 0. -1.
    9900012    2    1    2    0    0 -0.14591154712E+02  0.45400590990E+01 -0.10824429661E+02  0.72461489115E+02  0.69999894249E+02 0.  0.
        -12    1    1    2    0    0  0.14591154712E+02 -0.45400590990E+01  0.10824429661E+02  0.18726510885E+02  0.00000000000E+00 0.  1.
         11    1    3    3    0    0 -0.13987310694E+02 -0.13205063537E+02  0.10563198626E+01  0.19264848180E+02  0.51100000000E-03 0. -1.
        -11    1    3    3    0    0 -0.24214252918E+02  0.85176300575E+01 -0.12229032676E+01  0.25697773422E+02  0.51100000000E-03 0.  1.
        -12    1    3    3    0    0  0.23610408900E+02  0.92274925787E+01 -0.10657846256E+02  0.27498867513E+02  0.00000000000E+00 0.  1.
</event>
<event>
 7    1  0.2710146E-013  0.7246148E+02  0.7816164E-02  0.1226708E+00
        -11   -1    0    0    0    0  0.00000000000E+00  0.00000000000E+00  0.45593999997E+02  0.45594000000E+02  0.51100000000E-03 0.  1.
         11   -1    0    0    0    0 -0.00000000000E+00 -0.00000000000E+00 -0.45593999997E+02  0.45594000000E+02  0.51100000000E-03 0. -1.
    9900012    2    1    2    0    0  0.10819943024E+02  0.89182587378E+01 -0.12412737493E+02  0.72461479821E+02  0.69999882141E+02 0.  0.
        -12    1    1    2    0    0 -0.10819943024E+02 -0.89182587378E+01  0.12412737493E+02  0.18726520179E+02  0.00000000000E+00 0.  1.
         11    1    3    3    0    0  0.35315315522E+02  0.14529540782E+01 -0.24487601520E+02  0.42999130392E+02  0.51100000000E-03 0. -1.
        -11    1    3    3    0    0 -0.69195451306E+01  0.33188428869E+01  0.77218792817E+01  0.10886792127E+02  0.51100000000E-03 0.  1.
        -12    1    3    3    0    0 -0.17575827367E+02  0.41464617728E+01  0.43529847459E+01  0.18575557302E+02  0.00000000000E+00 0.  1.
</event>
<event>
 7    1  0.2710146E-013  0.7246155E+02  0.7816164E-02  0.1226708E+00
        -11   -1    0    0    0    0  0.00000000000E+00  0.00000000000E+00  0.45593999997E+02  0.45594000000E+02  0.51100000000E-03 0. -1.
         11   -1    0    0    0    0 -0.00000000000E+00 -0.00000000000E+00 -0.45593999997E+02  0.45594000000E+02  0.51100000000E-03 0.  1.
    9900012    2    1    2    0    0  0.12073206943E+02 -0.11096550823E+02  0.90434669080E+01  0.72461546524E+02  0.69999969035E+02 0.  0.
        -12    1    1    2    0    0 -0.12073206943E+02  0.11096550823E+02 -0.90434669080E+01  0.18726453476E+02  0.00000000000E+00 0.  1.
         11    1    3    3    0    0 -0.16518162869E+02  0.38764763698E+01  0.23042637632E+02  0.28615379133E+02  0.51100000000E-03 0. -1.
        -11    1    3    3    0    0 -0.47826321141E+01 -0.39150912347E+01 -0.55677473264E+00  0.62057640689E+01  0.51100000000E-03 0.  1.
        -12    1    3    3    0    0  0.33374001927E+02 -0.11057935958E+02 -0.13442395992E+02  0.37640403322E+02  0.00000000000E+00 0.  1.
</event>
<event>
 7    1  0.2710146E-013  0.7246160E+02  0.7816164E-02  0.1226708E+00
        -11   -1    0    0    0    0  0.00000000000E+00  0.00000000000E+00  0.45593999997E+02  0.45594000000E+02  0.51100000000E-03 0.  1.
         11   -1    0    0    0    0 -0.00000000000E+00 -0.00000000000E+00 -0.45593999997E+02  0.45594000000E+02  0.51100000000E-03 0. -1.
    9900012    2    1    2    0    0 -0.17910497331E+02 -0.52503205352E+01 -0.15252555504E+01  0.72461596585E+02  0.70000034248E+02 0.  0.
        -12    1    1    2    0    0  0.17910497331E+02  0.52503205352E+01  0.15252555504E+01  0.18726403415E+02  0.00000000000E+00 0.  1.
         11    1    3    3    0    0 -0.19994081913E+02 -0.45683697143E+01  0.22038687333E+02  0.30105432284E+02  0.51100000000E-03 0. -1.
        -11    1    3    3    0    0  0.19097795928E+01 -0.86014647065E+01  0.67023612761E+01  0.11070415535E+02  0.51100000000E-03 0.  1.
         12    1    3    3    0    0  0.17380498949E+00  0.79195138856E+01 -0.30266304159E+02  0.31285748765E+02  0.00000000000E+00 0. -1.
</event>
<event>
 7    1  0.2710146E-013  0.7246162E+02  0.7816164E-02  0.1226708E+00
        -11   -1    0    0    0    0  0.00000000000E+00  0.00000000000E+00  0.45593999997E+02  0.45594000000E+02  0.51100000000E-03 0.  1.
         11   -1    0    0    0    0 -0.00000000000E+00 -0.00000000000E+00 -0.45593999997E+02  0.45594000000E+02  0.51100000000E-03 0. -1.
    9900012    2    1    2    0    0 -0.20119460695E+00 -0.18653007042E+02 -0.16437969630E+01  0.72461622362E+02  0.70000067828E+02 0.  0.
        -12    1    1    2    0    0  0.20119460695E+00  0.18653007042E+02  0.16437969630E+01  0.18726377638E+02  0.00000000000E+00 0.  1.
         11    1    3    3    0    0  0.11651225351E+02  0.44954200771E+01 -0.12329505964E+02  0.17549261279E+02  0.51100000000E-03 0. -1.
        -11    1    3    3    0    0  0.10190761096E+01  0.13671978930E+02  0.78637325770E+01  0.15805056605E+02  0.51100000000E-03 0.  1.
         12    1    3    3    0    0 -0.12871496067E+02 -0.36820406049E+02  0.28219764241E+01  0.39107304479E+02  0.00000000000E+00 0. -1.
</event>
<event>
 7    1  0.2710146E-013  0.7246158E+02  0.7816164E-02  0.1226708E+00
        -11   -1    0    0    0    0  0.00000000000E+00  0.00000000000E+00  0.45593999997E+02  0.45594000000E+02  0.51100000000E-03 0. -1.
         11   -1    0    0    0    0 -0.00000000000E+00 -0.00000000000E+00 -0.45593999997E+02  0.45594000000E+02  0.51100000000E-03 0.  1.
    9900012    2    1    2    0    0 -0.44274018020E+01 -0.15978577091E+02  0.87041463358E+01  0.72461575461E+02  0.70000006731E+02 0.  0.
        -12    1    1    2    0    0  0.44274018020E+01  0.15978577091E+02 -0.87041463358E+01  0.18726424539E+02  0.00000000000E+00 0.  1.
         11    1    3    3    0    0  0.26261392570E+02 -0.30493553422E+01  0.76860069795E+01  0.27532417462E+02  0.51100000000E-03 0. -1.
        -11    1    3    3    0    0 -0.41236206241E+01 -0.16106877987E+02  0.60739651975E+01  0.17701096548E+02  0.51100000000E-03 0.  1.
        -12    1    3    3    0    0 -0.26565173748E+02  0.31776562376E+01 -0.50558258412E+01  0.27228061451E+02  0.00000000000E+00 0.  1.
</event>
<event>
 7    1  0.2710146E-013  0.7246179E+02  0.7816164E-02  0.1226707E+00
        -11   -1    0    0    0    0  0.00000000000E+00  0.00000000000E+00  0.45593999997E+02  0.45594000000E+02  0.51100000000E-03 0. -1.
         11   -1    0    0    0    0 -0.00000000000E+00 -0.00000000000E+00 -0.45593999997E+02  0.45594000000E+02  0.51100000000E-03 0.  1.
    9900012    2    1    2    0    0  0.17201464809E+02  0.73904881915E+01  0.40139787278E+00  0.72461793029E+02  0.70000290152E+02 0.  0.
        -12    1    1    2    0    0 -0.17201464809E+02 -0.73904881915E+01 -0.40139787278E+00  0.18726206971E+02  0.00000000000E+00 0.  1.
         11    1    3    3    0    0 -0.15207241084E+02 -0.98997109015E+01 -0.89163206535E+01  0.20217943308E+02  0.51100000000E-03 0.  1.
        -11    1    3    3    0    0  0.15204988513E+02  0.27473693830E+02  0.51008106160E+01  0.31812164301E+02  0.51100000000E-03 0. -1.
         12    1    3    3    0    0  0.17203717381E+02 -0.10183494737E+02  0.42169079102E+01  0.20431685420E+02  0.00000000000E+00 0. -1.
</event>
<event>
 7    1  0.2710146E-013  0.7246158E+02  0.7816164E-02  0.1226708E+00
        -11   -1    0    0    0    0  0.00000000000E+00  0.00000000000E+00  0.45593999997E+02  0.45594000000E+02  0.51100000000E-03 0. -1.
         11   -1    0    0    0    0 -0.00000000000E+00 -0.00000000000E+00 -0.45593999997E+02  0.45594000000E+02  0.51100000000E-03 0.  1.
    9900012    2    1    2    0    0  0.50172026591E+01 -0.16903497921E+02 -0.63069887236E+01  0.72461583598E+02  0.70000017331E+02 0.  0.
        -12    1    1    2    0    0 -0.50172026591E+01  0.16903497921E+02  0.63069887236E+01  0.18726416402E+02  0.00000000000E+00 0.  1.
         11    1    3    3    0    0  0.16258176310E+02  0.89683929342E+01 -0.14680195971E+02  0.23669992031E+02  0.51100000000E-03 0. -1.
        -11    1    3    3    0    0  0.73509859699E+01  0.10816248499E+01 -0.90431619883E+01  0.11704088433E+02  0.51100000000E-03 0.  1.
         12    1    3    3    0    0 -0.18591959620E+02 -0.26953515705E+02  0.17416369236E+02  0.37087503134E+02  0.00000000000E+00 0. -1.
</event>
<event>
 7    1  0.2710146E-013  0.7246158E+02  0.7816164E-02  0.1226708E+00
        -11   -1    0    0    0    0  0.00000000000E+00  0.00000000000E+00  0.45593999997E+02  0.45594000000E+02  0.51100000000E-03 0.  1.
         11   -1    0    0    0    0 -0.00000000000E+00 -0.00000000000E+00 -0.45593999997E+02  0.45594000000E+02  0.51100000000E-03 0. -1.
    9900012    2    1    2    0    0 -0.14920874026E+02  0.10012479544E+02  0.52722530876E+01  0.72461578000E+02  0.70000010038E+02 0.  0.
        -12    1    1    2    0    0  0.14920874026E+02 -0.10012479544E+02 -0.52722530876E+01  0.18726422000E+02  0.00000000000E+00 0.  1.
         11    1    3    3    0    0 -0.13367707776E+02  0.15535230848E+02 -0.46677213746E+01  0.21019672494E+02  0.51100000000E-03 0. -1.
        -11    1    3    3    0    0 -0.60849030869E+01 -0.14514086141E+02  0.27220107425E+02  0.31442312106E+02  0.51100000000E-03 0.  1.
         12    1    3    3    0    0  0.45317368370E+01  0.89913348371E+01 -0.17280132963E+02  0.19999593399E+02  0.00000000000E+00 0. -1.
</event>
<event>
 7    1  0.2710146E-013  0.7246171E+02  0.7816164E-02  0.1226708E+00
        -11   -1    0    0    0    0  0.00000000000E+00  0.00000000000E+00  0.45593999997E+02  0.45594000000E+02  0.51100000000E-03 0.  1.
         11   -1    0    0    0    0 -0.00000000000E+00 -0.00000000000E+00 -0.45593999997E+02  0.45594000000E+02  0.51100000000E-03 0. -1.
    9900012    2    1    2    0    0  0.12331220484E+02  0.73635264409E+01 -0.12016378602E+02  0.72461711661E+02  0.70000184156E+02 0.  0.
        -12    1    1    2    0    0 -0.12331220484E+02 -0.73635264409E+01  0.12016378602E+02  0.18726288339E+02  0.00000000000E+00 0.  1.
         11    1    3    3    0    0  0.33710345400E+01  0.13166312698E+02  0.89441094528E+01  0.16269995639E+02  0.51100000000E-03 0. -1.
        -11    1    3    3    0    0  0.58427608116E+01 -0.28522858459E+02 -0.10101059021E+02  0.30817571322E+02  0.51100000000E-03 0.  1.
         12    1    3    3    0    0  0.31174251321E+01  0.22720072201E+02 -0.10859429033E+02  0.25374144699E+02  0.00000000000E+00 0. -1.
</event>
<event>
 7    1  0.2710146E-013  0.7246158E+02  0.7816164E-02  0.1226708E+00
        -11   -1    0    0    0    0  0.00000000000E+00  0.00000000000E+00  0.45593999997E+02  0.45594000000E+02  0.51100000000E-03 0.  1.
         11   -1    0    0    0    0 -0.00000000000E+00 -0.00000000000E+00 -0.45593999997E+02  0.45594000000E+02  0.51100000000E-03 0. -1.
    9900012    2    1    2    0    0  0.11279680734E+02  0.92817085955E+01 -0.11717402000E+02  0.72461579586E+02  0.70000012104E+02 0.  0.
        -12    1    1    2    0    0 -0.11279680734E+02 -0.92817085955E+01  0.11717402000E+02  0.18726420414E+02  0.00000000000E+00 0.  1.
         11    1    3    3    0    0 -0.42195430440E-01  0.24290002532E+02 -0.10082600664E+01  0.24310956215E+02  0.51100000000E-03 0. -1.
        -11    1    3    3    0    0 -0.10110392941E+02  0.92112474163E+01  0.10995358749E+01  0.13721373976E+02  0.51100000000E-03 0.  1.
        -12    1    3    3    0    0  0.21432269105E+02 -0.24219541352E+02 -0.11808677808E+02  0.34429249395E+02  0.00000000000E+00 0.  1.
</event>
<event>
 7    1  0.2710146E-013  0.7246158E+02  0.7816164E-02  0.1226708E+00
        -11   -1    0    0    0    0  0.00000000000E+00  0.00000000000E+00  0.45593999997E+02  0.45594000000E+02  0.51100000000E-03 0. -1.
         11   -1    0    0    0    0 -0.00000000000E+00 -0.00000000000E+00 -0.45593999997E+02  0.45594000000E+02  0.51100000000E-03 0.  1.
    9900012    2    1    2    0    0  0.10596958355E+02 -0.14775644569E+02 -0.44792481249E+01  0.72461578490E+02  0.70000010677E+02 0.  0.
        -12    1    1    2    0    0 -0.10596958355E+02  0.14775644569E+02  0.44792481249E+01  0.18726421510E+02  0.00000000000E+00 0.  1.
         11    1    3    3    0    0  0.67898240165E+01  0.18734880103E+02 -0.19990650741E+01  0.20027323937E+02  0.51100000000E-03 0. -1.
        -11    1    3    3    0    0  0.10396476655E+00  0.75710090951E+01 -0.77690522181E+01  0.10848463487E+02  0.51100000000E-03 0.  1.
        -12    1    3    3    0    0  0.37031695716E+01 -0.41081533767E+02  0.52888691673E+01  0.41585791066E+02  0.00000000000E+00 0.  1.
</event>
<event>
 7    1  0.2710146E-013  0.7246155E+02  0.7816164E-02  0.1226708E+00
        -11   -1    0    0    0    0  0.00000000000E+00  0.00000000000E+00  0.45593999997E+02  0.45594000000E+02  0.51100000000E-03 0.  1.
         11   -1    0    0    0    0 -0.00000000000E+00 -0.00000000000E+00 -0.45593999997E+02  0.45594000000E+02  0.51100000000E-03 0. -1.
    9900012    2    1    2    0    0 -0.13053243470E+02  0.10059704552E+02 -0.88935479170E+01  0.72461547711E+02  0.69999970581E+02 0.  0.
        -12    1    1    2    0    0  0.13053243470E+02 -0.10059704552E+02  0.88935479170E+01  0.18726452289E+02  0.00000000000E+00 0.  1.
         11    1    3    3    0    0  0.37708345218E+01  0.55891657922E+01 -0.89755246431E+01  0.11225774366E+02  0.51100000000E-03 0. -1.
        -11    1    3    3    0    0 -0.48306726004E+01 -0.22500657426E+02 -0.15608375197E+02  0.27807127844E+02  0.51100000000E-03 0.  1.
        -12    1    3    3    0    0 -0.11993405392E+02  0.26971196186E+02  0.15690351923E+02  0.33428645501E+02  0.00000000000E+00 0.  1.
</event>
<event>
 7    1  0.2710146E-013  0.7246150E+02  0.7816164E-02  0.1226708E+00
        -11   -1    0    0    0    0  0.00000000000E+00  0.00000000000E+00  0.45593999997E+02  0.45594000000E+02  0.51100000000E-03 0.  1.
         11   -1    0    0    0    0 -0.00000000000E+00 -0.00000000000E+00 -0.45593999997E+02  0.45594000000E+02  0.51100000000E-03 0. -1.
    9900012    2    1    2    0    0 -0.29420835852E+01 -0.33515152448E+01 -0.18187727737E+02  0.72461496042E+02  0.69999903273E+02 0.  0.
        -12    1    1    2    0    0  0.29420835852E+01  0.33515152448E+01  0.18187727737E+02  0.18726503958E+02  0.00000000000E+00 0.  1.
         11    1    3    3    0    0 -0.21164011424E+02 -0.10444278849E+02 -0.84241788743E+01  0.25059232435E+02  0.51100000000E-03 0. -1.
        -11    1    3    3    0    0 -0.80662959490E+01 -0.10991704779E+02 -0.71302618787E+01  0.15385816163E+02  0.51100000000E-03 0.  1.
        -12    1    3    3    0    0  0.26288223788E+02  0.18084468383E+02 -0.26332869837E+01  0.32016447445E+02  0.00000000000E+00 0.  1.
</event>
<event>
 7    1  0.2710146E-013  0.7246160E+02  0.7816164E-02  0.1226708E+00
        -11   -1    0    0    0    0  0.00000000000E+00  0.00000000000E+00  0.45593999997E+02  0.45594000000E+02  0.51100000000E-03 0. -1.
         11   -1    0    0    0    0 -0.00000000000E+00 -0.00000000000E+00 -0.45593999997E+02  0.45594000000E+02  0.51100000000E-03 0.  1.
    9900012    2    1    2    0    0 -0.65479106552E+01  0.14209847301E+02 -0.10289957091E+02  0.72461598551E+02  0.70000036810E+02 0.  0.
        -12    1    1    2    0    0  0.65479106552E+01 -0.14209847301E+02  0.10289957091E+02  0.18726401449E+02  0.00000000000E+00 0.  1.
         11    1    3    3    0    0 -0.18389600868E+02  0.32929670676E+01  0.11490766875E+02  0.21933052132E+02  0.51100000000E-03 0. -1.
        -11    1    3    3    0    0  0.10453592888E+02  0.25435352030E+02 -0.44168082434E+01  0.27852162079E+02  0.51100000000E-03 0.  1.
        -12    1    3    3    0    0  0.13880973245E+01 -0.14518471796E+02 -0.17363915724E+02  0.22676384340E+02  0.00000000000E+00 0.  1.
</event>
<event>
 7    1  0.2710146E-013  0.7246154E+02  0.7816164E-02  0.1226708E+00
        -11   -1    0    0    0    0  0.00000000000E+00  0.00000000000E+00  0.45593999997E+02  0.45594000000E+02  0.51100000000E-03 0.  1.
         11   -1    0    0    0    0 -0.00000000000E+00 -0.00000000000E+00 -0.45593999997E+02  0.45594000000E+02  0.51100000000E-03 0. -1.
    9900012    2    1    2    0    0  0.16650625617E+02  0.78159565628E+01 -0.35139302807E+01  0.72461542342E+02  0.69999963586E+02 0.  0.
        -12    1    1    2    0    0 -0.16650625617E+02 -0.78159565628E+01  0.35139302807E+01  0.18726457658E+02  0.00000000000E+00 0.  1.
         11    1    3    3    0    0  0.13783863444E+02 -0.12316742513E+02 -0.13220467358E+02  0.22726147826E+02  0.51100000000E-03 0. -1.
        -11    1    3    3    0    0 -0.49426364906E+01 -0.11477601070E+02 -0.56745410297E+01  0.13724627425E+02  0.51100000000E-03 0.  1.
        -12    1    3    3    0    0  0.78093986628E+01  0.31610300145E+02  0.15381078107E+02  0.36010767091E+02  0.00000000000E+00 0.  1.
</event>
<event>
 7    1  0.2710146E-013  0.7246157E+02  0.7816164E-02  0.1226708E+00
        -11   -1    0    0    0    0  0.00000000000E+00  0.00000000000E+00  0.45593999997E+02  0.45594000000E+02  0.51100000000E-03 0. -1.
         11   -1    0    0    0    0 -0.00000000000E+00 -0.00000000000E+00 -0.45593999997E+02  0.45594000000E+02  0.51100000000E-03 0.  1.
    9900012    2    1    2    0    0 -0.10662035325E+02 -0.15366801976E+02  0.92828527420E+00  0.72461566442E+02  0.69999994982E+02 0.  0.
        -12    1    1    2    0    0  0.10662035325E+02  0.15366801976E+02 -0.92828527420E+00  0.18726433558E+02  0.00000000000E+00 0.  1.
         11    1    3    3    0    0 -0.40627389424E+01 -0.10629652594E+02  0.71104158369E+01  0.13418396909E+02  0.51100000000E-03 0. -1.
        -11    1    3    3    0    0  0.53091973784E+01 -0.25074033957E+02  0.12924224147E+02  0.28704186554E+02  0.51100000000E-03 0.  1.
         12    1    3    3    0    0 -0.11908493761E+02  0.20336884575E+02 -0.19106354710E+02  0.30338982978E+02  0.00000000000E+00 0. -1.
</event>
<event>
 7    1  0.2710146E-013  0.7246156E+02  0.7816164E-02  0.1226708E+00
        -11   -1    0    0    0    0  0.00000000000E+00  0.00000000000E+00  0.45593999997E+02  0.45594000000E+02  0.51100000000E-03 0. -1.
         11   -1    0    0    0    0 -0.00000000000E+00 -0.00000000000E+00 -0.45593999997E+02  0.45594000000E+02  0.51100000000E-03 0.  1.
    9900012    2    1    2    0    0 -0.67090331284E+01 -0.17312919568E+02  0.24354030528E+01  0.72461561537E+02  0.69999988592E+02 0.  0.
        -12    1    1    2    0    0  0.67090331284E+01  0.17312919568E+02 -0.24354030528E+01  0.18726438463E+02  0.00000000000E+00 0.  1.
         11    1    3    3    0    0 -0.14347278813E+02 -0.11967092736E+02 -0.44125768778E+01  0.19197045420E+02  0.51100000000E-03 0. -1.
        -11    1    3    3    0    0  0.17944001014E+01 -0.12766813072E+02 -0.20563770641E+02  0.24270971364E+02  0.51100000000E-03 0.  1.
         12    1    3    3    0    0  0.58438455826E+01  0.74209862402E+01  0.27411750571E+02  0.28993544753E+02  0.00000000000E+00 0. -1.
</event>
<event>
 7    1  0.2710146E-013  0.7246159E+02  0.7816164E-02  0.1226708E+00
        -11   -1    0    0    0    0  0.00000000000E+00  0.00000000000E+00  0.45593999997E+02  0.45594000000E+02  0.51100000000E-03 0.  1.
         11   -1    0    0    0    0 -0.00000000000E+00 -0.00000000000E+00 -0.45593999997E+02  0.45594000000E+02  0.51100000000E-03 0. -1.
    9900012    2    1    2    0    0 -0.34857174918E+01  0.17633313738E+02 -0.52530245653E+01  0.72461594928E+02  0.70000032090E+02 0.  0.
        -12    1    1    2    0    0  0.34857174918E+01 -0.17633313738E+02  0.52530245653E+01  0.18726405072E+02  0.00000000000E+00 0.  1.
         11    1    3    3    0    0 -0.12870922646E+02 -0.53176388033E+00  0.14053972159E+02  0.19064562840E+02  0.51100000000E-03 0. -1.
        -11    1    3    3    0    0  0.14221557746E+02 -0.11626055681E+02 -0.16803655214E+01  0.18445636448E+02  0.51100000000E-03 0.  1.
         12    1    3    3    0    0 -0.48363525921E+01  0.29791133300E+02 -0.17626631203E+02  0.34951395641E+02  0.00000000000E+00 0. -1.
</event>
<event>
 7    1  0.2710146E-013  0.7246157E+02  0.7816164E-02  0.1226708E+00
        -11   -1    0    0    0    0  0.00000000000E+00  0.00000000000E+00  0.45593999997E+02  0.45594000000E+02  0.51100000000E-03 0.  1.
         11   -1    0    0    0    0 -0.00000000000E+00 -0.00000000000E+00 -0.45593999997E+02  0.45594000000E+02  0.51100000000E-03 0. -1.
    9900012    2    1    2    0    0  0.17489133676E+02 -0.52133383008E+01 -0.41988862115E+01  0.72461565785E+02  0.69999994126E+02 0.  0.
        -12    1    1    2    0    0 -0.17489133676E+02  0.52133383008E+01  0.41988862115E+01  0.18726434215E+02  0.00000000000E+00 0.  1.
         11    1    3    3    0    0 -0.76478743376E+01 -0.15747031784E-01 -0.21174267224E+02  0.22513103353E+02  0.51100000000E-03 0. -1.
        -11    1    3    3    0    0 -0.71740455075E+01 -0.93307386241E+01  0.12327913122E+02  0.17044267495E+02  0.51100000000E-03 0.  1.
        -12    1    3    3    0    0  0.32311053521E+02  0.41331473550E+01  0.46474678898E+01  0.32904194938E+02  0.00000000000E+00 0.  1.
</event>
<event>
 7    1  0.2710146E-013  0.7246156E+02  0.7816164E-02  0.1226708E+00
        -11   -1    0    0    0    0  0.00000000000E+00  0.00000000000E+00  0.45593999997E+02  0.45594000000E+02  0.51100000000E-03 0.  1.
         11   -1    0    0    0    0 -0.00000000000E+00 -0.00000000000E+00 -0.45593999997E+02  0.45594000000E+02  0.51100000000E-03 0. -1.
    9900012    2    1    2    0    0 -0.11565855146E+02  0.96755646354E+01 -0.11103784524E+02  0.72461559147E+02  0.69999985479E+02 0.  0.
        -12    1    1    2    0    0  0.11565855146E+02 -0.96755646354E+01  0.11103784524E+02  0.18726440853E+02  0.00000000000E+00 0.  1.
         11    1    3    3    0    0 -0.79279104488E+01  0.15080025092E+01  0.13692387771E+02  0.15893625099E+02  0.51100000000E-03 0. -1.
        -11    1    3    3    0    0 -0.23169157468E+02  0.17857000843E+01  0.13937995710E+01  0.23279631872E+02  0.51100000000E-03 0.  1.
         12    1    3    3    0    0  0.19531212771E+02  0.63818620419E+01 -0.26189971866E+02  0.33288302176E+02  0.00000000000E+00 0. -1.
</event>
<event>
 7    1  0.2710146E-013  0.7246155E+02  0.7816164E-02  0.1226708E+00
        -11   -1    0    0    0    0  0.00000000000E+00  0.00000000000E+00  0.45593999997E+02  0.45594000000E+02  0.51100000000E-03 0.  1.
         11   -1    0    0    0    0 -0.00000000000E+00 -0.00000000000E+00 -0.45593999997E+02  0.45594000000E+02  0.51100000000E-03 0. -1.
    9900012    2    1    2    0    0  0.43588333814E+01 -0.12213665175E+02 -0.13509509560E+02  0.72461550950E+02  0.69999974801E+02 0.  0.
        -12    1    1    2    0    0 -0.43588333814E+01  0.12213665175E+02  0.13509509560E+02  0.18726449050E+02  0.00000000000E+00 0.  1.
         11    1    3    3    0    0  0.30131823691E+00  0.83580866759E+01  0.17941416679E+01  0.85537915655E+01  0.51100000000E-03 0. -1.
        -11    1    3    3    0    0 -0.10596727222E+01  0.14909425715E+02  0.11737056958E+02  0.19004535978E+02  0.51100000000E-03 0.  1.
         12    1    3    3    0    0  0.51171878667E+01 -0.35481177566E+02 -0.27040708186E+02  0.44903223407E+02  0.00000000000E+00 0. -1.
</event>
<event>
 7    1  0.2710146E-013  0.7246158E+02  0.7816164E-02  0.1226708E+00
        -11   -1    0    0    0    0  0.00000000000E+00  0.00000000000E+00  0.45593999997E+02  0.45594000000E+02  0.51100000000E-03 0.  1.
         11   -1    0    0    0    0 -0.00000000000E+00 -0.00000000000E+00 -0.45593999997E+02  0.45594000000E+02  0.51100000000E-03 0. -1.
    9900012    2    1    2    0    0 -0.11098202801E+02  0.13708355165E+02 -0.62920474287E+01  0.72461575686E+02  0.70000007024E+02 0.  0.
        -12    1    1    2    0    0  0.11098202801E+02 -0.13708355165E+02  0.62920474287E+01  0.18726424314E+02  0.00000000000E+00 0.  1.
         11    1    3    3    0    0  0.49542348530E+01  0.23014519202E+02  0.87296443637E+00  0.23557898977E+02  0.51100000000E-03 0. -1.
        -11    1    3    3    0    0  0.85383771032E+00 -0.22609753466E+02  0.63470778570E+01  0.23499263567E+02  0.51100000000E-03 0.  1.
         12    1    3    3    0    0 -0.16906275364E+02  0.13303589429E+02 -0.13512089722E+02  0.25404413141E+02  0.00000000000E+00 0. -1.
</event>
<event>
 7    1  0.2710146E-013  0.7246151E+02  0.7816164E-02  0.1226708E+00
        -11   -1    0    0    0    0  0.00000000000E+00  0.00000000000E+00  0.45593999997E+02  0.45594000000E+02  0.51100000000E-03 0. -1.
         11   -1    0    0    0    0 -0.00000000000E+00 -0.00000000000E+00 -0.45593999997E+02  0.45594000000E+02  0.51100000000E-03 0.  1.
    9900012    2    1    2    0    0 -0.24893872972E+01 -0.18489512874E+02  0.16193686629E+01  0.72461508329E+02  0.69999919278E+02 0.  0.
        -12    1    1    2    0    0  0.24893872972E+01  0.18489512874E+02 -0.16193686629E+01  0.18726491671E+02  0.00000000000E+00 0.  1.
         11    1    3    3    0    0 -0.11322324789E+01 -0.93996037051E+01  0.14418116172E+02  0.17248668772E+02  0.51100000000E-03 0. -1.
        -11    1    3    3    0    0  0.12817695443E+02 -0.88337596261E+01 -0.29469835243E+02  0.33328663567E+02  0.51100000000E-03 0.  1.
         12    1    3    3    0    0 -0.14174850262E+02 -0.25614954303E+00  0.16671087734E+02  0.21884175990E+02  0.00000000000E+00 0. -1.
</event>
<event>
 7    1  0.2710146E-013  0.7246158E+02  0.7816164E-02  0.1226708E+00
        -11   -1    0    0    0    0  0.00000000000E+00  0.00000000000E+00  0.45593999997E+02  0.45594000000E+02  0.51100000000E-03 0. -1.
         11   -1    0    0    0    0 -0.00000000000E+00 -0.00000000000E+00 -0.45593999997E+02  0.45594000000E+02  0.51100000000E-03 0.  1.
    9900012    2    1    2    0    0 -0.45074688364E+01 -0.13216065616E+02  0.12477862402E+02  0.72461582409E+02  0.70000015781E+02 0.  0.
        -12    1    1    2    0    0  0.45074688364E+01  0.13216065616E+02 -0.12477862402E+02  0.18726417591E+02  0.00000000000E+00 0.  1.
         11    1    3    3    0    0 -0.30635933462E+01 -0.23500271910E+02 -0.51169846291E+01  0.24245245225E+02  0.51100000000E-03 0. -1.
        -11    1    3    3    0    0  0.28986692149E+01 -0.10674313870E+02  0.23534200610E+02  0.26003881603E+02  0.51100000000E-03 0.  1.
        -12    1    3    3    0    0 -0.43425447050E+01  0.20958520164E+02 -0.59393535787E+01  0.22212455581E+02  0.00000000000E+00 0.  1.
</event>
<event>
 7    1  0.2710146E-013  0.7246152E+02  0.7816164E-02  0.1226708E+00
        -11   -1    0    0    0    0  0.00000000000E+00  0.00000000000E+00  0.45593999997E+02  0.45594000000E+02  0.51100000000E-03 0. -1.
         11   -1    0    0    0    0 -0.00000000000E+00 -0.00000000000E+00 -0.45593999997E+02  0.45594000000E+02  0.51100000000E-03 0.  1.
    9900012    2    1    2    0    0 -0.12005656380E+02 -0.13998173284E+02 -0.32552068683E+01  0.72461521096E+02  0.69999935910E+02 0.  0.
        -12    1    1    2    0    0  0.12005656380E+02  0.13998173284E+02  0.32552068683E+01  0.18726478904E+02  0.00000000000E+00 0.  1.
         11    1    3    3    0    0  0.15157937879E+02 -0.58339732590E+00  0.73402041753E+01  0.16851766399E+02  0.51100000000E-03 0. -1.
        -11    1    3    3    0    0 -0.99672282100E+01  0.93107576830E+01 -0.21194542400E+02  0.25204056710E+02  0.51100000000E-03 0.  1.
         12    1    3    3    0    0 -0.17196366049E+02 -0.22725533641E+02  0.10599131356E+02  0.30405697987E+02  0.00000000000E+00 0. -1.
</event>
<event>
 7    1  0.2710146E-013  0.7246153E+02  0.7816164E-02  0.1226708E+00
        -11   -1    0    0    0    0  0.00000000000E+00  0.00000000000E+00  0.45593999997E+02  0.45594000000E+02  0.51100000000E-03 0.  1.
         11   -1    0    0    0    0 -0.00000000000E+00 -0.00000000000E+00 -0.45593999997E+02  0.45594000000E+02  0.51100000000E-03 0. -1.
    9900012    2    1    2    0    0 -0.10559867477E+01 -0.18529459188E+02  0.24949350998E+01  0.72461530313E+02  0.69999947917E+02 0.  0.
        -12    1    1    2    0    0  0.10559867477E+01  0.18529459188E+02 -0.24949350998E+01  0.18726469687E+02  0.00000000000E+00 0.  1.
         11    1    3    3    0    0 -0.31432540020E+01  0.25886618160E+01 -0.12863592557E+02  0.13492710234E+02  0.51100000000E-03 0. -1.
        -11    1    3    3    0    0  0.18158008612E+02 -0.20420385376E+02 -0.98654116376E+01  0.29052224746E+02  0.51100000000E-03 0.  1.
         12    1    3    3    0    0 -0.16070741358E+02 -0.69773562749E+00  0.25223939294E+02  0.29916595333E+02  0.00000000000E+00 0. -1.
</event>
<event>
 7    1  0.2710146E-013  0.7246157E+02  0.7816164E-02  0.1226708E+00
        -11   -1    0    0    0    0  0.00000000000E+00  0.00000000000E+00  0.45593999997E+02  0.45594000000E+02  0.51100000000E-03 0.  1.
         11   -1    0    0    0    0 -0.00000000000E+00 -0.00000000000E+00 -0.45593999997E+02  0.45594000000E+02  0.51100000000E-03 0. -1.
    9900012    2    1    2    0    0 -0.37539385469E+01  0.11553451404E+02 -0.14251493278E+02  0.72461565353E+02  0.69999993562E+02 0.  0.
        -12    1    1    2    0    0  0.37539385469E+01 -0.11553451404E+02  0.14251493278E+02  0.18726434647E+02  0.00000000000E+00 0.  1.
         11    1    3    3    0    0  0.13858004481E+02  0.87618408708E+01 -0.17006661596E+02  0.23622884721E+02  0.51100000000E-03 0. -1.
        -11    1    3    3    0    0  0.46982125091E+01  0.12633686741E+02  0.16135144050E+02  0.21024417119E+02  0.51100000000E-03 0.  1.
        -12    1    3    3    0    0 -0.22310155537E+02 -0.98420762075E+01 -0.13379975732E+02  0.27814263513E+02  0.00000000000E+00 0.  1.
</event>
<event>
 7    1  0.2710146E-013  0.7246162E+02  0.7816164E-02  0.1226708E+00
        -11   -1    0    0    0    0  0.00000000000E+00  0.00000000000E+00  0.45593999997E+02  0.45594000000E+02  0.51100000000E-03 0.  1.
         11   -1    0    0    0    0 -0.00000000000E+00 -0.00000000000E+00 -0.45593999997E+02  0.45594000000E+02  0.51100000000E-03 0. -1.
    9900012    2    1    2    0    0  0.12142967075E+02  0.13363593633E+01 -0.14192949045E+02  0.72461619989E+02  0.70000064736E+02 0.  0.
        -12    1    1    2    0    0 -0.12142967075E+02 -0.13363593633E+01  0.14192949045E+02  0.18726380011E+02  0.00000000000E+00 0.  1.
         11    1    3    3    0    0  0.68783767554E+01 -0.20703293906E+02 -0.29493781052E+02  0.36685440795E+02  0.51100000000E-03 0. -1.
        -11    1    3    3    0    0  0.52877800829E+01  0.33063350364E+01  0.15852122285E+02  0.17034736593E+02  0.51100000000E-03 0.  1.
        -12    1    3    3    0    0 -0.23189763257E-01  0.18733318233E+02 -0.55129027821E+00  0.18741442601E+02  0.00000000000E+00 0.  1.
</event>
<event>
 7    1  0.2710146E-013  0.7246158E+02  0.7816164E-02  0.1226708E+00
        -11   -1    0    0    0    0  0.00000000000E+00  0.00000000000E+00  0.45593999997E+02  0.45594000000E+02  0.51100000000E-03 0.  1.
         11   -1    0    0    0    0 -0.00000000000E+00 -0.00000000000E+00 -0.45593999997E+02  0.45594000000E+02  0.51100000000E-03 0. -1.
    9900012    2    1    2    0    0 -0.15925942856E+02  0.84871258591E+01 -0.50011750348E+01  0.72461582485E+02  0.70000015881E+02 0.  0.
        -12    1    1    2    0    0  0.15925942856E+02 -0.84871258591E+01  0.50011750348E+01  0.18726417515E+02  0.00000000000E+00 0.  1.
         11    1    3    3    0    0  0.16937205403E+02  0.24108828232E+02 -0.13698618013E+02  0.32492409287E+02  0.51100000000E-03 0. -1.
        -11    1    3    3    0    0 -0.13026191262E+02  0.62836044797E+00  0.53992222889E+01  0.14114818356E+02  0.51100000000E-03 0.  1.
        -12    1    3    3    0    0 -0.19836956997E+02 -0.16250062820E+02  0.32982206889E+01  0.25854354842E+02  0.00000000000E+00 0.  1.
</event>
<event>
 7    1  0.2710146E-013  0.7246154E+02  0.7816164E-02  0.1226708E+00
        -11   -1    0    0    0    0  0.00000000000E+00  0.00000000000E+00  0.45593999997E+02  0.45594000000E+02  0.51100000000E-03 0.  1.
         11   -1    0    0    0    0 -0.00000000000E+00 -0.00000000000E+00 -0.45593999997E+02  0.45594000000E+02  0.51100000000E-03 0. -1.
    9900012    2    1    2    0    0 -0.11747078743E+02 -0.10732672338E+02  0.98740160327E+01  0.72461539920E+02  0.69999960432E+02 0.  0.
        -12    1    1    2    0    0  0.11747078743E+02  0.10732672338E+02 -0.98740160327E+01  0.18726460080E+02  0.00000000000E+00 0.  1.
         11    1    3    3    0    0 -0.86143587799E+00 -0.22075428913E+01  0.39047633134E+01  0.45675479399E+01  0.51100000000E-03 0. -1.
        -11    1    3    3    0    0  0.53045771638E+01 -0.28354151953E+02  0.23215187440E+02  0.37027576210E+02  0.51100000000E-03 0.  1.
         12    1    3    3    0    0 -0.16190220029E+02  0.19829022506E+02 -0.17245934720E+02  0.30866415771E+02  0.00000000000E+00 0. -1.
</event>
<event>
 7    1  0.2710146E-013  0.7246152E+02  0.7816164E-02  0.1226708E+00
        -11   -1    0    0    0    0  0.00000000000E+00  0.00000000000E+00  0.45593999997E+02  0.45594000000E+02  0.51100000000E-03 0. -1.
         11   -1    0    0    0    0 -0.00000000000E+00 -0.00000000000E+00 -0.45593999997E+02  0.45594000000E+02  0.51100000000E-03 0.  1.
    9900012    2    1    2    0    0  0.13808556351E+02 -0.63491847026E+01  0.10940410437E+02  0.72461522611E+02  0.69999937883E+02 0.  0.
        -12    1    1    2    0    0 -0.13808556351E+02  0.63491847026E+01 -0.10940410437E+02  0.18726477389E+02  0.00000000000E+00 0.  1.
         11    1    3    3    0    0 -0.21009143109E+01  0.91714971683E+01  0.38215100781E+01  0.10155498057E+02  0.51100000000E-03 0. -1.
        -11    1    3    3    0    0  0.17040127532E+02 -0.12982143784E+01 -0.23190145442E+02  0.28806842117E+02  0.51100000000E-03 0.  1.
         12    1    3    3    0    0 -0.11306568704E+01 -0.14222467492E+02  0.30309045801E+02  0.33499182436E+02  0.00000000000E+00 0. -1.
</event>
<event>
 7    1  0.2710146E-013  0.7246162E+02  0.7816164E-02  0.1226708E+00
        -11   -1    0    0    0    0  0.00000000000E+00  0.00000000000E+00  0.45593999997E+02  0.45594000000E+02  0.51100000000E-03 0. -1.
         11   -1    0    0    0    0 -0.00000000000E+00 -0.00000000000E+00 -0.45593999997E+02  0.45594000000E+02  0.51100000000E-03 0.  1.
    9900012    2    1    2    0    0  0.12562966182E+02  0.12671357313E+02  0.56820811321E+01  0.72461615900E+02  0.70000059410E+02 0.  0.
        -12    1    1    2    0    0 -0.12562966182E+02 -0.12671357313E+02 -0.56820811321E+01  0.18726384100E+02  0.00000000000E+00 0.  1.
         11    1    3    3    0    0  0.12082709334E+02 -0.25597491168E+01  0.26024835015E+02  0.28806877967E+02  0.51100000000E-03 0. -1.
        -11    1    3    3    0    0 -0.70363698798E+01 -0.74798002763E+01  0.25093963180E+01  0.10571422960E+02  0.51100000000E-03 0.  1.
         12    1    3    3    0    0  0.75166267285E+01  0.22710906706E+02 -0.22852150201E+02  0.33083314973E+02  0.00000000000E+00 0. -1.
</event>
<event>
 7    1  0.2710146E-013  0.7246141E+02  0.7816164E-02  0.1226708E+00
        -11   -1    0    0    0    0  0.00000000000E+00  0.00000000000E+00  0.45593999997E+02  0.45594000000E+02  0.51100000000E-03 0. -1.
         11   -1    0    0    0    0 -0.00000000000E+00 -0.00000000000E+00 -0.45593999997E+02  0.45594000000E+02  0.51100000000E-03 0.  1.
    9900012    2    1    2    0    0 -0.16960546566E+02  0.73045365876E+01 -0.31094756696E+01  0.72461408385E+02  0.69999789083E+02 0.  0.
        -12    1    1    2    0    0  0.16960546566E+02 -0.73045365876E+01  0.31094756696E+01  0.18726591615E+02  0.00000000000E+00 0.  1.
         11    1    3    3    0    0  0.11694023313E+02 -0.35433804247E+01  0.25840927802E+02  0.28584248739E+02  0.51100000000E-03 0. -1.
        -11    1    3    3    0    0  0.11119904434E+01  0.64796014460E+00 -0.29866146114E+00  0.13212017350E+01  0.51100000000E-03 0.  1.
        -12    1    3    3    0    0 -0.29766560322E+02  0.10199956868E+02 -0.28651742010E+02  0.42555957911E+02  0.00000000000E+00 0.  1.
</event>
<event>
 7    1  0.2710146E-013  0.7246156E+02  0.7816164E-02  0.1226708E+00
        -11   -1    0    0    0    0  0.00000000000E+00  0.00000000000E+00  0.45593999997E+02  0.45594000000E+02  0.51100000000E-03 0.  1.
         11   -1    0    0    0    0 -0.00000000000E+00 -0.00000000000E+00 -0.45593999997E+02  0.45594000000E+02  0.51100000000E-03 0. -1.
    9900012    2    1    2    0    0  0.46274277326E+01  0.17233812534E+02 -0.56799878280E+01  0.72461557636E+02  0.69999983511E+02 0.  0.
        -12    1    1    2    0    0 -0.46274277326E+01 -0.17233812534E+02  0.56799878280E+01  0.18726442364E+02  0.00000000000E+00 0.  1.
         11    1    3    3    0    0  0.80064451162E+01 -0.27483909035E+01 -0.27190118982E+02  0.28477348656E+02  0.51100000000E-03 0. -1.
        -11    1    3    3    0    0 -0.45340454627E+01  0.11082128817E+02 -0.71538531806E+01  0.13948073808E+02  0.51100000000E-03 0.  1.
        -12    1    3    3    0    0  0.11550280791E+01  0.89000746205E+01  0.28663984335E+02  0.30036135172E+02  0.00000000000E+00 0.  1.
</event>
<event>
 7    1  0.2710146E-013  0.7246160E+02  0.7816164E-02  0.1226708E+00
        -11   -1    0    0    0    0  0.00000000000E+00  0.00000000000E+00  0.45593999997E+02  0.45594000000E+02  0.51100000000E-03 0.  1.
         11   -1    0    0    0    0 -0.00000000000E+00 -0.00000000000E+00 -0.45593999997E+02  0.45594000000E+02  0.51100000000E-03 0. -1.
    9900012    2    1    2    0    0  0.10200908146E+02 -0.13834202001E+02  0.74319827158E+01  0.72461600477E+02  0.70000039319E+02 0.  0.
        -12    1    1    2    0    0 -0.10200908146E+02  0.13834202001E+02 -0.74319827158E+01  0.18726399523E+02  0.00000000000E+00 0.  1.
         11    1    3    3    0    0  0.26838437150E+02  0.42323664191E+01  0.77056460217E+01  0.28241664523E+02  0.51100000000E-03 0. -1.
        -11    1    3    3    0    0  0.23714349953E+01  0.53978181495E+01  0.10595549593E+02  0.12125420247E+02  0.51100000000E-03 0.  1.
         12    1    3    3    0    0 -0.19008964000E+02 -0.23464386569E+02 -0.10869212899E+02  0.32094515707E+02  0.00000000000E+00 0. -1.
</event>
<event>
 7    1  0.2710146E-013  0.7246159E+02  0.7816164E-02  0.1226708E+00
        -11   -1    0    0    0    0  0.00000000000E+00  0.00000000000E+00  0.45593999997E+02  0.45594000000E+02  0.51100000000E-03 0.  1.
         11   -1    0    0    0    0 -0.00000000000E+00 -0.00000000000E+00 -0.45593999997E+02  0.45594000000E+02  0.51100000000E-03 0. -1.
    9900012    2    1    2    0    0 -0.17466673443E+02 -0.66354679290E+01  0.12507592645E+01  0.72461587783E+02  0.70000022782E+02 0.  0.
        -12    1    1    2    0    0  0.17466673443E+02  0.66354679290E+01 -0.12507592645E+01  0.18726412217E+02  0.00000000000E+00 0.  1.
         11    1    3    3    0    0 -0.62286947020E+00  0.78945331380E+01 -0.22307007944E+02  0.23670957385E+02  0.51100000000E-03 0. -1.
        -11    1    3    3    0    0 -0.15036160767E+02  0.93253660444E+01  0.15570350561E+02  0.23568716540E+02  0.51100000000E-03 0.  1.
         12    1    3    3    0    0 -0.18076432055E+01 -0.23855367111E+02  0.79874166478E+01  0.25221913858E+02  0.00000000000E+00 0. -1.
</event>
<event>
 7    1  0.2710146E-013  0.7246137E+02  0.7816164E-02  0.1226709E+00
        -11   -1    0    0    0    0  0.00000000000E+00  0.00000000000E+00  0.45593999997E+02  0.45594000000E+02  0.51100000000E-03 0.  1.
         11   -1    0    0    0    0 -0.00000000000E+00 -0.00000000000E+00 -0.45593999997E+02  0.45594000000E+02  0.51100000000E-03 0. -1.
    9900012    2    1    2    0    0 -0.12997000507E+02  0.12177995931E+01 -0.13426894144E+02  0.72461373385E+02  0.69999743489E+02 0.  0.
        -12    1    1    2    0    0  0.12997000507E+02 -0.12177995931E+01  0.13426894144E+02  0.18726626615E+02  0.00000000000E+00 0.  1.
         11    1    3    3    0    0 -0.32801967947E+01  0.17218466205E+01 -0.59213696549E+01  0.69847738437E+01  0.51100000000E-03 0. -1.
        -11    1    3    3    0    0 -0.11502331174E+02  0.25715014241E+02  0.14057145321E+02  0.31482835239E+02  0.51100000000E-03 0.  1.
         12    1    3    3    0    0  0.17855274619E+01 -0.26219061269E+02 -0.21562669810E+02  0.33993764302E+02  0.00000000000E+00 0. -1.
</event>
<event>
 7    1  0.2710146E-013  0.7246157E+02  0.7816164E-02  0.1226708E+00
        -11   -1    0    0    0    0  0.00000000000E+00  0.00000000000E+00  0.45593999997E+02  0.45594000000E+02  0.51100000000E-03 0.  1.
         11   -1    0    0    0    0 -0.00000000000E+00 -0.00000000000E+00 -0.45593999997E+02  0.45594000000E+02  0.51100000000E-03 0. -1.
    9900012    2    1    2    0    0  0.16658406423E+02  0.78212089912E+01  0.34648639203E+01  0.72461572241E+02  0.70000002535E+02 0.  0.
        -12    1    1    2    0    0 -0.16658406423E+02 -0.78212089912E+01 -0.34648639203E+01  0.18726427759E+02  0.00000000000E+00 0.  1.
         11    1    3    3    0    0  0.58181577811E+01 -0.13844030882E+02 -0.24725653654E+02  0.28928638059E+02  0.51100000000E-03 0. -1.
        -11    1    3    3    0    0  0.13025531742E+01 -0.46316519907E+01  0.67450848181E+01  0.82852286872E+01  0.51100000000E-03 0.  1.
        -12    1    3    3    0    0  0.95376954680E+01  0.26296891864E+02  0.21445432757E+02  0.35247705495E+02  0.00000000000E+00 0.  1.
</event>
<event>
 7    1  0.2710146E-013  0.7246154E+02  0.7816164E-02  0.1226708E+00
        -11   -1    0    0    0    0  0.00000000000E+00  0.00000000000E+00  0.45593999997E+02  0.45594000000E+02  0.51100000000E-03 0. -1.
         11   -1    0    0    0    0 -0.00000000000E+00 -0.00000000000E+00 -0.45593999997E+02  0.45594000000E+02  0.51100000000E-03 0.  1.
    9900012    2    1    2    0    0 -0.59420412348E+00 -0.72388239928E+01  0.17260552981E+02  0.72461539028E+02  0.69999959270E+02 0.  0.
        -12    1    1    2    0    0  0.59420412348E+00  0.72388239928E+01 -0.17260552981E+02  0.18726460972E+02  0.00000000000E+00 0.  1.
         11    1    3    3    0    0 -0.11456427406E+02 -0.27007974108E+02  0.21943058539E+02  0.36635750472E+02  0.51100000000E-03 0. -1.
        -11    1    3    3    0    0 -0.45239880989E+01  0.47016086618E+00 -0.96327352713E+01  0.10652563477E+02  0.51100000000E-03 0.  1.
        -12    1    3    3    0    0  0.15386211382E+02  0.19298989249E+02  0.49502297130E+01  0.25173225080E+02  0.00000000000E+00 0.  1.
</event>
<event>
 7    1  0.2710146E-013  0.7246165E+02  0.7816164E-02  0.1226708E+00
        -11   -1    0    0    0    0  0.00000000000E+00  0.00000000000E+00  0.45593999997E+02  0.45594000000E+02  0.51100000000E-03 0. -1.
         11   -1    0    0    0    0 -0.00000000000E+00 -0.00000000000E+00 -0.45593999997E+02  0.45594000000E+02  0.51100000000E-03 0.  1.
    9900012    2    1    2    0    0 -0.45025623429E+01  0.48722254077E+01  0.17511844012E+02  0.72461646143E+02  0.70000098807E+02 0.  0.
        -12    1    1    2    0    0  0.45025623429E+01 -0.48722254077E+01 -0.17511844012E+02  0.18726353857E+02  0.00000000000E+00 0.  1.
         11    1    3    3    0    0 -0.31596767724E+01  0.15329001498E+02  0.30323586991E+02  0.34124503989E+02  0.51100000000E-03 0. -1.
        -11    1    3    3    0    0  0.10843087669E+02 -0.36990077030E+01  0.75087074255E+01  0.13698025247E+02  0.51100000000E-03 0.  1.
        -12    1    3    3    0    0 -0.12185973240E+02 -0.67577683870E+01 -0.20320450405E+02  0.24639116908E+02  0.00000000000E+00 0.  1.
</event>
<event>
 7    1  0.2992147E-013  0.7246145E+02  0.7816164E-02  0.1226708E+00
        -11   -1    0    0    0    0  0.00000000000E+00  0.00000000000E+00  0.45593999997E+02  0.45594000000E+02  0.51100000000E-03 0. -1.
         11   -1    0    0    0    0 -0.00000000000E+00 -0.00000000000E+00 -0.45593999997E+02  0.45594000000E+02  0.51100000000E-03 0.  1.
    9900012    2    1    2    0    0  0.12145333579E+02  0.75078904071E+01  0.12116360355E+02  0.72461448413E+02  0.69999841226E+02 0.  0.
        -12    1    1    2    0    0 -0.12145333579E+02 -0.75078904071E+01 -0.12116360355E+02  0.18726551587E+02  0.00000000000E+00 0.  1.
         11    1    3    3    0    0 -0.83612252596E+01  0.96977881332E+01  0.95534646175E+01  0.15975790089E+02  0.51100000000E-03 0. -1.
        -11    1    3    3    0    0  0.38794614494E+01 -0.17289150484E+02 -0.18555314549E+02  0.25656668604E+02  0.51100000000E-03 0.  1.
         12    1    3    3    0    0  0.16627097389E+02  0.15099252758E+02  0.21118210286E+02  0.30828989719E+02  0.00000000000E+00 0. -1.
</event>
<event>
 7    1  0.2710146E-013  0.7246159E+02  0.7816164E-02  0.1226708E+00
        -11   -1    0    0    0    0  0.00000000000E+00  0.00000000000E+00  0.45593999997E+02  0.45594000000E+02  0.51100000000E-03 0.  1.
         11   -1    0    0    0    0 -0.00000000000E+00 -0.00000000000E+00 -0.45593999997E+02  0.45594000000E+02  0.51100000000E-03 0. -1.
    9900012    2    1    2    0    0 -0.56117216149E+00  0.40281960908E+01 -0.18279415242E+02  0.72461593523E+02  0.70000030260E+02 0.  0.
        -12    1    1    2    0    0  0.56117216149E+00 -0.40281960908E+01  0.18279415242E+02  0.18726406477E+02  0.00000000000E+00 0.  1.
         11    1    3    3    0    0  0.13356705256E+02 -0.51354373826E+01 -0.11130568645E+02  0.18129088533E+02  0.51100000000E-03 0. -1.
        -11    1    3    3    0    0  0.33877549843E+01 -0.11552983579E+02  0.15127720665E+02  0.19333810959E+02  0.51100000000E-03 0.  1.
         12    1    3    3    0    0 -0.17305632401E+02  0.20716617053E+02 -0.22276567262E+02  0.34998694032E+02  0.00000000000E+00 0. -1.
</event>
<event>
 7    1  0.2710146E-013  0.7246161E+02  0.7816164E-02  0.1226708E+00
        -11   -1    0    0    0    0  0.00000000000E+00  0.00000000000E+00  0.45593999997E+02  0.45594000000E+02  0.51100000000E-03 0. -1.
         11   -1    0    0    0    0 -0.00000000000E+00 -0.00000000000E+00 -0.45593999997E+02  0.45594000000E+02  0.51100000000E-03 0.  1.
    9900012    2    1    2    0    0  0.58920668158E+01 -0.76347130797E+01  0.16052182567E+02  0.72461605250E+02  0.70000045537E+02 0.  0.
        -12    1    1    2    0    0 -0.58920668158E+01  0.76347130797E+01 -0.16052182567E+02  0.18726394750E+02  0.00000000000E+00 0.  1.
         11    1    3    3    0    0 -0.60324524006E+01 -0.29592942431E+01 -0.62104363022E+01  0.91497226028E+01  0.51100000000E-03 0. -1.
        -11    1    3    3    0    0  0.19563944231E+02  0.20461101487E+02 -0.84801096498E+00  0.28321788623E+02  0.51100000000E-03 0.  1.
         12    1    3    3    0    0 -0.76394250146E+01 -0.25136520324E+02  0.23110629834E+02  0.34990094025E+02  0.00000000000E+00 0. -1.
</event>
<event>
 7    1  0.2710146E-013  0.7246156E+02  0.7816164E-02  0.1226708E+00
        -11   -1    0    0    0    0  0.00000000000E+00  0.00000000000E+00  0.45593999997E+02  0.45594000000E+02  0.51100000000E-03 0.  1.
         11   -1    0    0    0    0 -0.00000000000E+00 -0.00000000000E+00 -0.45593999997E+02  0.45594000000E+02  0.51100000000E-03 0. -1.
    9900012    2    1    2    0    0  0.88270962028E+01 -0.11340260046E+02  0.12006685346E+02  0.72461558313E+02  0.69999984392E+02 0.  0.
        -12    1    1    2    0    0 -0.88270962028E+01  0.11340260046E+02 -0.12006685346E+02  0.18726441687E+02  0.00000000000E+00 0.  1.
         11    1    3    3    0    0  0.98443931949E+01  0.62802983359E+01 -0.11836330000E+02  0.16626873810E+02  0.51100000000E-03 0. -1.
        -11    1    3    3    0    0  0.12249528023E+02  0.65341707148E+01 -0.60787719219E+01  0.15155784112E+02  0.51100000000E-03 0.  1.
        -12    1    3    3    0    0 -0.13266825015E+02 -0.24154729096E+02  0.29921787268E+02  0.40678900390E+02  0.00000000000E+00 0.  1.
</event>
<event>
 7    1  0.2710146E-013  0.7246156E+02  0.7816164E-02  0.1226708E+00
        -11   -1    0    0    0    0  0.00000000000E+00  0.00000000000E+00  0.45593999997E+02  0.45594000000E+02  0.51100000000E-03 0. -1.
         11   -1    0    0    0    0 -0.00000000000E+00 -0.00000000000E+00 -0.45593999997E+02  0.45594000000E+02  0.51100000000E-03 0.  1.
    9900012    2    1    2    0    0  0.17957625153E+02 -0.63192793175E+00 -0.52729309953E+01  0.72461563197E+02  0.69999990755E+02 0.  0.
        -12    1    1    2    0    0 -0.17957625153E+02  0.63192793175E+00  0.52729309953E+01  0.18726436803E+02  0.00000000000E+00 0.  1.
         11    1    3    3    0    0  0.57375777291E+00 -0.56457965352E+01 -0.47261139581E+01  0.73851452190E+01  0.51100000000E-03 0. -1.
        -11    1    3    3    0    0 -0.20174636587E+02  0.16180327799E+02 -0.11728643503E+01  0.25888116581E+02  0.51100000000E-03 0.  1.
         12    1    3    3    0    0  0.37558503967E+02 -0.11166459195E+02  0.62604731308E+00  0.39188301397E+02  0.00000000000E+00 0. -1.
</event>
<event>
 7    1  0.2710146E-013  0.7246159E+02  0.7816164E-02  0.1226708E+00
        -11   -1    0    0    0    0  0.00000000000E+00  0.00000000000E+00  0.45593999997E+02  0.45594000000E+02  0.51100000000E-03 0.  1.
         11   -1    0    0    0    0 -0.00000000000E+00 -0.00000000000E+00 -0.45593999997E+02  0.45594000000E+02  0.51100000000E-03 0. -1.
    9900012    2    1    2    0    0  0.70497646035E+01  0.17237335863E+02  0.19630777136E+01  0.72461585428E+02  0.70000019714E+02 0.  0.
        -12    1    1    2    0    0 -0.70497646035E+01 -0.17237335863E+02 -0.19630777136E+01  0.18726414572E+02  0.00000000000E+00 0.  1.
         11    1    3    3    0    0 -0.17686494645E+02  0.14349127900E+02 -0.14235541615E+02  0.26858149781E+02  0.51100000000E-03 0. -1.
        -11    1    3    3    0    0  0.16741885210E+02 -0.15007672588E+02  0.50126366994E+01  0.23035787024E+02  0.51100000000E-03 0.  1.
        -12    1    3    3    0    0  0.79943740390E+01  0.17895880551E+02  0.11185982629E+02  0.22567648623E+02  0.00000000000E+00 0.  1.
</event>
<event>
 7    1  0.2710146E-013  0.7246155E+02  0.7816164E-02  0.1226708E+00
        -11   -1    0    0    0    0  0.00000000000E+00  0.00000000000E+00  0.45593999997E+02  0.45594000000E+02  0.51100000000E-03 0.  1.
         11   -1    0    0    0    0 -0.00000000000E+00 -0.00000000000E+00 -0.45593999997E+02  0.45594000000E+02  0.51100000000E-03 0. -1.
    9900012    2    1    2    0    0 -0.16917324825E+02  0.56509587626E+01 -0.57053236914E+01  0.72461549920E+02  0.69999973458E+02 0.  0.
        -12    1    1    2    0    0  0.16917324825E+02 -0.56509587626E+01  0.57053236914E+01  0.18726450080E+02  0.00000000000E+00 0.  1.
         11    1    3    3    0    0  0.55577446225E+01  0.79845986008E+01  0.48753183987E+01  0.10881685065E+02  0.51100000000E-03 0. -1.
        -11    1    3    3    0    0  0.43828660125E+01  0.96239846217E+01  0.17807968714E+02  0.20711213013E+02  0.51100000000E-03 0.  1.
         12    1    3    3    0    0 -0.26857935460E+02 -0.11957624460E+02 -0.28388610805E+02  0.40868651841E+02  0.00000000000E+00 0. -1.
</event>
<event>
 7    1  0.2710146E-013  0.7246157E+02  0.7816164E-02  0.1226708E+00
        -11   -1    0    0    0    0  0.00000000000E+00  0.00000000000E+00  0.45593999997E+02  0.45594000000E+02  0.51100000000E-03 0. -1.
         11   -1    0    0    0    0 -0.00000000000E+00 -0.00000000000E+00 -0.45593999997E+02  0.45594000000E+02  0.51100000000E-03 0.  1.
    9900012    2    1    2    0    0  0.10261425710E+02 -0.92902031616E+00  0.15637107675E+02  0.72461572877E+02  0.70000003364E+02 0.  0.
        -12    1    1    2    0    0 -0.10261425710E+02  0.92902031616E+00 -0.15637107675E+02  0.18726427123E+02  0.00000000000E+00 0.  1.
         11    1    3    3    0    0 -0.14857061816E+02 -0.19772832235E+02 -0.23889093891E+01  0.24847616963E+02  0.51100000000E-03 0. -1.
        -11    1    3    3    0    0  0.15107459112E+02 -0.46219405292E+01 -0.93673821340E+00  0.15826406220E+02  0.51100000000E-03 0.  1.
        -12    1    3    3    0    0  0.10011028414E+02  0.23465752448E+02  0.18962755277E+02  0.31787549695E+02  0.00000000000E+00 0.  1.
</event>
<event>
 7    1  0.2710146E-013  0.7246158E+02  0.7816164E-02  0.1226708E+00
        -11   -1    0    0    0    0  0.00000000000E+00  0.00000000000E+00  0.45593999997E+02  0.45594000000E+02  0.51100000000E-03 0. -1.
         11   -1    0    0    0    0 -0.00000000000E+00 -0.00000000000E+00 -0.45593999997E+02  0.45594000000E+02  0.51100000000E-03 0.  1.
    9900012    2    1    2    0    0  0.13085252148E+02  0.24961542492E+00  0.13393749238E+02  0.72461584158E+02  0.70000018060E+02 0.  0.
        -12    1    1    2    0    0 -0.13085252148E+02 -0.24961542492E+00 -0.13393749238E+02  0.18726415842E+02  0.00000000000E+00 0.  1.
         11    1    3    3    0    0 -0.48382016820E+00 -0.15001055717E+02 -0.45668534651E+01  0.15688272863E+02  0.51100000000E-03 0. -1.
        -11    1    3    3    0    0  0.22062665301E+02 -0.88775080606E+01 -0.26426992258E+01  0.23928125898E+02  0.51100000000E-03 0.  1.
         12    1    3    3    0    0 -0.84935929841E+01  0.24128179203E+02  0.20603301929E+02  0.32845185397E+02  0.00000000000E+00 0. -1.
</event>
<event>
 7    1  0.2710146E-013  0.7246158E+02  0.7816164E-02  0.1226708E+00
        -11   -1    0    0    0    0  0.00000000000E+00  0.00000000000E+00  0.45593999997E+02  0.45594000000E+02  0.51100000000E-03 0. -1.
         11   -1    0    0    0    0 -0.00000000000E+00 -0.00000000000E+00 -0.45593999997E+02  0.45594000000E+02  0.51100000000E-03 0.  1.
    9900012    2    1    2    0    0  0.58431493895E+01  0.16300162809E+02  0.71302830524E+01  0.72461584465E+02  0.70000018460E+02 0.  0.
        -12    1    1    2    0    0 -0.58431493895E+01 -0.16300162809E+02 -0.71302830524E+01  0.18726415535E+02  0.00000000000E+00 0.  1.
         11    1    3    3    0    0 -0.15796397986E+02  0.18440355907E+02  0.83462162935E+01  0.25675518339E+02  0.51100000000E-03 0. -1.
        -11    1    3    3    0    0 -0.11248515265E+02 -0.41602552449E+01  0.54419544999E+01  0.13170105862E+02  0.51100000000E-03 0.  1.
        -12    1    3    3    0    0  0.32888062640E+02  0.20200621469E+01 -0.66578877411E+01  0.33615960264E+02  0.00000000000E+00 0.  1.
</event>
<event>
 7    1  0.2710146E-013  0.7246153E+02  0.7816164E-02  0.1226708E+00
        -11   -1    0    0    0    0  0.00000000000E+00  0.00000000000E+00  0.45593999997E+02  0.45594000000E+02  0.51100000000E-03 0.  1.
         11   -1    0    0    0    0 -0.00000000000E+00 -0.00000000000E+00 -0.45593999997E+02  0.45594000000E+02  0.51100000000E-03 0. -1.
    9900012    2    1    2    0    0 -0.16612260650E+02 -0.43403801664E+01 -0.74749385303E+01  0.72461526495E+02  0.69999942943E+02 0.  0.
        -12    1    1    2    0    0  0.16612260650E+02  0.43403801664E+01  0.74749385303E+01  0.18726473505E+02  0.00000000000E+00 0.  1.
         11    1    3    3    0    0  0.34897294679E+01  0.79839303537E+01  0.10463343327E+02  0.13616273701E+02  0.51100000000E-03 0.  1.
        -11    1    3    3    0    0 -0.35852024244E+02 -0.12079491459E+02 -0.20272170314E+02  0.42921354193E+02  0.51100000000E-03 0. -1.
         12    1    3    3    0    0  0.15750034126E+02 -0.24481906089E+00  0.23338884565E+01  0.15923898601E+02  0.00000000000E+00 0. -1.
</event>
<event>
 7    1  0.2710146E-013  0.7246162E+02  0.7816164E-02  0.1226708E+00
        -11   -1    0    0    0    0  0.00000000000E+00  0.00000000000E+00  0.45593999997E+02  0.45594000000E+02  0.51100000000E-03 0.  1.
         11   -1    0    0    0    0 -0.00000000000E+00 -0.00000000000E+00 -0.45593999997E+02  0.45594000000E+02  0.51100000000E-03 0. -1.
    9900012    2    1    2    0    0  0.14311958500E+02 -0.65257239797E+01 -0.10161688273E+02  0.72461624533E+02  0.70000070656E+02 0.  0.
        -12    1    1    2    0    0 -0.14311958500E+02  0.65257239797E+01  0.10161688273E+02  0.18726375467E+02  0.00000000000E+00 0.  1.
         11    1    3    3    0    0 -0.14475400435E+01  0.88253542003E+01 -0.12076045463E+02  0.15027079664E+02  0.51100000000E-03 0. -1.
        -11    1    3    3    0    0  0.21443539422E+02  0.13609630883E+02 -0.74558242006E+01  0.26469543829E+02  0.51100000000E-03 0.  1.
         12    1    3    3    0    0 -0.56840408789E+01 -0.28960709063E+02  0.93701813902E+01  0.30965001041E+02  0.00000000000E+00 0. -1.
</event>
<event>
 7    1  0.2710146E-013  0.7246157E+02  0.7816164E-02  0.1226708E+00
        -11   -1    0    0    0    0  0.00000000000E+00  0.00000000000E+00  0.45593999997E+02  0.45594000000E+02  0.51100000000E-03 0. -1.
         11   -1    0    0    0    0 -0.00000000000E+00 -0.00000000000E+00 -0.45593999997E+02  0.45594000000E+02  0.51100000000E-03 0.  1.
    9900012    2    1    2    0    0 -0.12461238254E+01  0.13058358832E+02  0.13364346104E+02  0.72461566630E+02  0.69999995227E+02 0.  0.
        -12    1    1    2    0    0  0.12461238254E+01 -0.13058358832E+02 -0.13364346104E+02  0.18726433370E+02  0.00000000000E+00 0.  1.
         11    1    3    3    0    0 -0.83713093249E+01 -0.98279646094E+01  0.75565899783E+01  0.14958935809E+02  0.51100000000E-03 0. -1.
        -11    1    3    3    0    0 -0.71503778415E+01  0.11331517702E+02  0.26585680221E+02  0.29771288010E+02  0.51100000000E-03 0.  1.
        -12    1    3    3    0    0  0.14275563341E+02  0.11554805739E+02 -0.20777924096E+02  0.27731342811E+02  0.00000000000E+00 0.  1.
</event>
<event>
 7    1  0.2710146E-013  0.7246159E+02  0.7816164E-02  0.1226708E+00
        -11   -1    0    0    0    0  0.00000000000E+00  0.00000000000E+00  0.45593999997E+02  0.45594000000E+02  0.51100000000E-03 0. -1.
         11   -1    0    0    0    0 -0.00000000000E+00 -0.00000000000E+00 -0.45593999997E+02  0.45594000000E+02  0.51100000000E-03 0.  1.
    9900012    2    1    2    0    0  0.80522108623E+00  0.64616886862E+01  0.17557809549E+02  0.72461588763E+02  0.70000024059E+02 0.  0.
        -12    1    1    2    0    0 -0.80522108623E+00 -0.64616886862E+01 -0.17557809549E+02  0.18726411237E+02  0.00000000000E+00 0.  1.
         11    1    3    3    0    0  0.99613212290E+01 -0.17916408155E+02 -0.10530646220E+02  0.23046043302E+02  0.51100000000E-03 0. -1.
        -11    1    3    3    0    0 -0.61178728117E+01  0.39406999401E+01 -0.60818497707E+01  0.94840065718E+01  0.51100000000E-03 0.  1.
         12    1    3    3    0    0 -0.30382273311E+01  0.20437396901E+02  0.34170305540E+02  0.39931538889E+02  0.00000000000E+00 0. -1.
</event>
<event>
 7    1  0.2710146E-013  0.7246158E+02  0.7816164E-02  0.1226708E+00
        -11   -1    0    0    0    0  0.00000000000E+00  0.00000000000E+00  0.45593999997E+02  0.45594000000E+02  0.51100000000E-03 0.  1.
         11   -1    0    0    0    0 -0.00000000000E+00 -0.00000000000E+00 -0.45593999997E+02  0.45594000000E+02  0.51100000000E-03 0. -1.
    9900012    2    1    2    0    0 -0.79978879316E+01  0.16911161299E+02  0.85158494240E+00  0.72461580567E+02  0.70000013383E+02 0.  0.
        -12    1    1    2    0    0  0.79978879316E+01 -0.16911161299E+02 -0.85158494240E+00  0.18726419433E+02  0.00000000000E+00 0.  1.
         11    1    3    3    0    0  0.86431980179E+01  0.32029910806E+02 -0.14015588064E+01  0.33205186727E+02  0.51100000000E-03 0. -1.
        -11    1    3    3    0    0 -0.25662968307E+02 -0.64614676991E+01 -0.43279012781E+00  0.26467448209E+02  0.51100000000E-03 0.  1.
         12    1    3    3    0    0  0.90218823575E+01 -0.86572818078E+01  0.26859338767E+01  0.12788945631E+02  0.00000000000E+00 0. -1.
</event>
<event>
 7    1  0.2710146E-013  0.7246157E+02  0.7816164E-02  0.1226708E+00
        -11   -1    0    0    0    0  0.00000000000E+00  0.00000000000E+00  0.45593999997E+02  0.45594000000E+02  0.51100000000E-03 0. -1.
         11   -1    0    0    0    0 -0.00000000000E+00 -0.00000000000E+00 -0.45593999997E+02  0.45594000000E+02  0.51100000000E-03 0.  1.
    9900012    2    1    2    0    0 -0.15566426299E+02 -0.26878717302E+01  0.10056874885E+02  0.72461574430E+02  0.70000005388E+02 0.  0.
        -12    1    1    2    0    0  0.15566426299E+02  0.26878717302E+01 -0.10056874885E+02  0.18726425570E+02  0.00000000000E+00 0.  1.
         11    1    3    3    0    0 -0.74302929531E+01  0.14722893181E+02  0.48249914602E+01  0.17182938626E+02  0.51100000000E-03 0. -1.
        -11    1    3    3    0    0  0.14709161550E+02 -0.78125398762E+01  0.20314833536E+02  0.26269519879E+02  0.51100000000E-03 0.  1.
         12    1    3    3    0    0 -0.22845294896E+02 -0.95982250348E+01 -0.15082950111E+02  0.29009115925E+02  0.00000000000E+00 0. -1.
</event>
<event>
 7    1  0.2710146E-013  0.7246155E+02  0.7816164E-02  0.1226708E+00
        -11   -1    0    0    0    0  0.00000000000E+00  0.00000000000E+00  0.45593999997E+02  0.45594000000E+02  0.51100000000E-03 0.  1.
         11   -1    0    0    0    0 -0.00000000000E+00 -0.00000000000E+00 -0.45593999997E+02  0.45594000000E+02  0.51100000000E-03 0. -1.
    9900012    2    1    2    0    0  0.32107024550E+01  0.45125793290E+01 -0.17888767323E+02  0.72461548687E+02  0.69999971853E+02 0.  0.
        -12    1    1    2    0    0 -0.32107024550E+01 -0.45125793290E+01  0.17888767323E+02  0.18726451313E+02  0.00000000000E+00 0.  1.
         11    1    3    3    0    0  0.10799623010E+02  0.66379813999E+01 -0.15181875672E+02  0.19778372112E+02  0.51100000000E-03 0. -1.
        -11    1    3    3    0    0 -0.13257206681E+01  0.22846000448E+02 -0.11326008692E+02  0.25533815714E+02  0.51100000000E-03 0.  1.
         12    1    3    3    0    0 -0.62631998866E+01 -0.24971402519E+02  0.86191170419E+01  0.27149360861E+02  0.00000000000E+00 0. -1.
</event>
<event>
 7    1  0.2710146E-013  0.7246138E+02  0.7816164E-02  0.1226709E+00
        -11   -1    0    0    0    0  0.00000000000E+00  0.00000000000E+00  0.45593999997E+02  0.45594000000E+02  0.51100000000E-03 0.  1.
         11   -1    0    0    0    0 -0.00000000000E+00 -0.00000000000E+00 -0.45593999997E+02  0.45594000000E+02  0.51100000000E-03 0. -1.
    9900012    2    1    2    0    0 -0.30130464110E+01  0.18111729894E+02 -0.36841882425E+01  0.72461375866E+02  0.69999746721E+02 0.  0.
        -12    1    1    2    0    0  0.30130464110E+01 -0.18111729894E+02  0.36841882425E+01  0.18726624134E+02  0.00000000000E+00 0.  1.
         11    1    3    3    0    0 -0.94470259384E+01  0.30028080119E+01  0.46430950986E+00  0.99236454299E+01  0.51100000000E-03 0. -1.
        -11    1    3    3    0    0 -0.12350954023E+02 -0.11616123660E+02  0.16689207936E+02  0.23790965848E+02  0.51100000000E-03 0.  1.
         12    1    3    3    0    0  0.18784933551E+02  0.26725045542E+02 -0.20837705689E+02  0.38746764589E+02  0.00000000000E+00 0. -1.
</event>
<event>
 7    1  0.2710146E-013  0.7246140E+02  0.7816164E-02  0.1226708E+00
        -11   -1    0    0    0    0  0.00000000000E+00  0.00000000000E+00  0.45593999997E+02  0.45594000000E+02  0.51100000000E-03 0.  1.
         11   -1    0    0    0    0 -0.00000000000E+00 -0.00000000000E+00 -0.45593999997E+02  0.45594000000E+02  0.51100000000E-03 0. -1.
    9900012    2    1    2    0    0  0.14850704958E+02 -0.50259106611E+01  0.10241210434E+02  0.72461398416E+02  0.69999776097E+02 0.  0.
        -12    1    1    2    0    0 -0.14850704958E+02  0.50259106611E+01 -0.10241210434E+02  0.18726601584E+02  0.00000000000E+00 0.  1.
         11    1    3    3    0    0  0.13002968429E+02 -0.16387844616E+02  0.86142627339E+01  0.22623973166E+02  0.51100000000E-03 0. -1.
        -11    1    3    3    0    0  0.72671697845E+01 -0.13716995231E+02 -0.13048776975E+02  0.20279011210E+02  0.51100000000E-03 0.  1.
        -12    1    3    3    0    0 -0.54194332552E+01  0.25078929185E+02  0.14675724675E+02  0.29558414041E+02  0.00000000000E+00 0.  1.
</event>
<event>
 7    1  0.2710146E-013  0.7246150E+02  0.7816164E-02  0.1226708E+00
        -11   -1    0    0    0    0  0.00000000000E+00  0.00000000000E+00  0.45593999997E+02  0.45594000000E+02  0.51100000000E-03 0. -1.
         11   -1    0    0    0    0 -0.00000000000E+00 -0.00000000000E+00 -0.45593999997E+02  0.45594000000E+02  0.51100000000E-03 0.  1.
    9900012    2    1    2    0    0 -0.18723432932E+02  0.33793281550E+00 -0.26490477055E-01  0.72461498962E+02  0.69999907077E+02 0.  0.
        -12    1    1    2    0    0  0.18723432932E+02 -0.33793281550E+00  0.26490477055E-01  0.18726501038E+02  0.00000000000E+00 0.  1.
         11    1    3    3    0    0 -0.54412162097E+01 -0.29677785629E+02  0.65385148127E+01  0.30872803078E+02  0.51100000000E-03 0. -1.
        -11    1    3    3    0    0  0.49471693639E+01  0.14210433141E+02 -0.86766131463E+01  0.17369355507E+02  0.51100000000E-03 0.  1.
        -12    1    3    3    0    0 -0.18229386087E+02  0.15805285303E+02  0.21116078566E+01  0.24219340378E+02  0.00000000000E+00 0.  1.
</event>
<event>
 7    1  0.2710146E-013  0.7246157E+02  0.7816164E-02  0.1226708E+00
        -11   -1    0    0    0    0  0.00000000000E+00  0.00000000000E+00  0.45593999997E+02  0.45594000000E+02  0.51100000000E-03 0.  1.
         11   -1    0    0    0    0 -0.00000000000E+00 -0.00000000000E+00 -0.45593999997E+02  0.45594000000E+02  0.51100000000E-03 0. -1.
    9900012    2    1    2    0    0 -0.76047313416E+01 -0.68679822973E+01 -0.15674123627E+02  0.72461567582E+02  0.69999996467E+02 0.  0.
        -12    1    1    2    0    0  0.76047313416E+01  0.68679822973E+01  0.15674123627E+02  0.18726432418E+02  0.00000000000E+00 0.  1.
         11    1    3    3    0    0 -0.67839167115E+01 -0.22923183346E+01 -0.16667346895E+01  0.73521598243E+01  0.51100000000E-03 0. -1.
        -11    1    3    3    0    0 -0.63013909948E+01 -0.13482055217E+02  0.22587645825E+02  0.27049493258E+02  0.51100000000E-03 0.  1.
         12    1    3    3    0    0  0.54805763647E+01  0.89063912540E+01 -0.36595034763E+02  0.38059914500E+02  0.00000000000E+00 0. -1.
</event>
<event>
 7    1  0.2710146E-013  0.7246155E+02  0.7816164E-02  0.1226708E+00
        -11   -1    0    0    0    0  0.00000000000E+00  0.00000000000E+00  0.45593999997E+02  0.45594000000E+02  0.51100000000E-03 0. -1.
         11   -1    0    0    0    0 -0.00000000000E+00 -0.00000000000E+00 -0.45593999997E+02  0.45594000000E+02  0.51100000000E-03 0.  1.
    9900012    2    1    2    0    0  0.12611626952E+02 -0.11181301575E+02 -0.81612106536E+01  0.72461548157E+02  0.69999971162E+02 0.  0.
        -12    1    1    2    0    0 -0.12611626952E+02  0.11181301575E+02  0.81612106536E+01  0.18726451843E+02  0.00000000000E+00 0.  1.
         11    1    3    3    0    0  0.36296436212E+02 -0.40647993461E+01 -0.15771935995E+02  0.39783260810E+02  0.51100000000E-03 0.  1.
        -11    1    3    3    0    0 -0.81150259792E+01 -0.82998862620E+01  0.11757734622E+02  0.16522290468E+02  0.51100000000E-03 0. -1.
        -12    1    3    3    0    0 -0.15569783281E+02  0.11833840327E+01 -0.41470092803E+01  0.16155996879E+02  0.00000000000E+00 0.  1.
</event>
<event>
 7    1  0.2710146E-013  0.7246162E+02  0.7816164E-02  0.1226708E+00
        -11   -1    0    0    0    0  0.00000000000E+00  0.00000000000E+00  0.45593999997E+02  0.45594000000E+02  0.51100000000E-03 0.  1.
         11   -1    0    0    0    0 -0.00000000000E+00 -0.00000000000E+00 -0.45593999997E+02  0.45594000000E+02  0.51100000000E-03 0. -1.
    9900012    2    1    2    0    0  0.76168048975E+01  0.71801973283E+00 -0.17092274867E+02  0.72461624769E+02  0.70000070963E+02 0.  0.
        -12    1    1    2    0    0 -0.76168048975E+01 -0.71801973283E+00  0.17092274867E+02  0.18726375231E+02  0.00000000000E+00 0.  1.
         11    1    3    3    0    0 -0.24140007254E+02 -0.51206928853E+01 -0.13648449604E+02  0.28200028771E+02  0.51100000000E-03 0. -1.
        -11    1    3    3    0    0 -0.32286151532E+01  0.21468609201E+01  0.66190228819E+01  0.76710124358E+01  0.51100000000E-03 0.  1.
         12    1    3    3    0    0  0.34985427304E+02  0.36918516980E+01 -0.10062848145E+02  0.36590583562E+02  0.00000000000E+00 0. -1.
</event>
<event>
 7    1  0.2710146E-013  0.7246157E+02  0.7816164E-02  0.1226708E+00
        -11   -1    0    0    0    0  0.00000000000E+00  0.00000000000E+00  0.45593999997E+02  0.45594000000E+02  0.51100000000E-03 0.  1.
         11   -1    0    0    0    0 -0.00000000000E+00 -0.00000000000E+00 -0.45593999997E+02  0.45594000000E+02  0.51100000000E-03 0. -1.
    9900012    2    1    2    0    0 -0.68760730712E+01  0.70562194960E+01 -0.15925094480E+02  0.72461568181E+02  0.69999997247E+02 0.  0.
        -12    1    1    2    0    0  0.68760730712E+01 -0.70562194960E+01  0.15925094480E+02  0.18726431819E+02  0.00000000000E+00 0.  1.
         11    1    3    3    0    0 -0.23253748943E+01 -0.87594215847E+01 -0.33736760701E+02  0.34932847833E+02  0.51100000000E-03 0. -1.
        -11    1    3    3    0    0 -0.79546783785E+01  0.38304624265E+00 -0.52740347199E+01  0.95519147305E+01  0.51100000000E-03 0.  1.
        -12    1    3    3    0    0  0.34039802016E+01  0.15432594838E+02  0.23085700940E+02  0.27976805617E+02  0.00000000000E+00 0.  1.
</event>
<event>
 7    1  0.2710146E-013  0.7246157E+02  0.7816164E-02  0.1226708E+00
        -11   -1    0    0    0    0  0.00000000000E+00  0.00000000000E+00  0.45593999997E+02  0.45594000000E+02  0.51100000000E-03 0.  1.
         11   -1    0    0    0    0 -0.00000000000E+00 -0.00000000000E+00 -0.45593999997E+02  0.45594000000E+02  0.51100000000E-03 0. -1.
    9900012    2    1    2    0    0 -0.73452913568E+01 -0.17225655305E+02  0.52677503006E-01  0.72461567325E+02  0.69999996132E+02 0.  0.
        -12    1    1    2    0    0  0.73452913568E+01  0.17225655305E+02 -0.52677503006E-01  0.18726432675E+02  0.00000000000E+00 0.  1.
         11    1    3    3    0    0  0.93167813955E+01 -0.17910410636E+02 -0.15005711297E+02  0.25154653576E+02  0.51100000000E-03 0. -1.
        -11    1    3    3    0    0  0.10338296388E+02 -0.72901898875E+01  0.14370243231E+02  0.19145002783E+02  0.51100000000E-03 0.  1.
        -12    1    3    3    0    0 -0.27000369140E+02  0.79749452181E+01  0.68814556873E+00  0.28161910966E+02  0.00000000000E+00 0.  1.
</event>
<event>
 7    1  0.2710146E-013  0.7246156E+02  0.7816164E-02  0.1226708E+00
        -11   -1    0    0    0    0  0.00000000000E+00  0.00000000000E+00  0.45593999997E+02  0.45594000000E+02  0.51100000000E-03 0.  1.
         11   -1    0    0    0    0 -0.00000000000E+00 -0.00000000000E+00 -0.45593999997E+02  0.45594000000E+02  0.51100000000E-03 0. -1.
    9900012    2    1    2    0    0 -0.34860668704E+01  0.15392079120E-01 -0.18399089224E+02  0.72461564583E+02  0.69999992560E+02 0.  0.
        -12    1    1    2    0    0  0.34860668704E+01 -0.15392079120E-01  0.18399089224E+02  0.18726435417E+02  0.00000000000E+00 0.  1.
         11    1    3    3    0    0  0.24521867258E+01 -0.27180955841E+02 -0.46909735212E+01  0.27691565738E+02  0.51100000000E-03 0. -1.
        -11    1    3    3    0    0 -0.35523068218E+01 -0.32067431349E+01  0.65838420794E+01  0.81393526817E+01  0.51100000000E-03 0.  1.
         12    1    3    3    0    0 -0.23859467744E+01  0.30403091055E+02 -0.20291957782E+02  0.36630646164E+02  0.00000000000E+00 0. -1.
</event>
<event>
 7    1  0.2710146E-013  0.7246156E+02  0.7816164E-02  0.1226708E+00
        -11   -1    0    0    0    0  0.00000000000E+00  0.00000000000E+00  0.45593999997E+02  0.45594000000E+02  0.51100000000E-03 0.  1.
         11   -1    0    0    0    0 -0.00000000000E+00 -0.00000000000E+00 -0.45593999997E+02  0.45594000000E+02  0.51100000000E-03 0. -1.
    9900012    2    1    2    0    0 -0.11610017199E+02  0.10870191210E+02 -0.98856461407E+01  0.72461559978E+02  0.69999986561E+02 0.  0.
        -12    1    1    2    0    0  0.11610017199E+02 -0.10870191210E+02  0.98856461407E+01  0.18726440022E+02  0.00000000000E+00 0.  1.
         11    1    3    3    0    0 -0.79683074842E+01 -0.12577145768E+02  0.98820973252E+01  0.17869929145E+02  0.51100000000E-03 0. -1.
        -11    1    3    3    0    0 -0.76250901531E+01  0.22674258288E+01  0.13077622754E+02  0.15307104131E+02  0.51100000000E-03 0.  1.
         12    1    3    3    0    0  0.39833804383E+01  0.21179911149E+02 -0.32845366220E+02  0.39284526701E+02  0.00000000000E+00 0. -1.
</event>
<event>
 7    1  0.2710146E-013  0.7246168E+02  0.7816164E-02  0.1226708E+00
        -11   -1    0    0    0    0  0.00000000000E+00  0.00000000000E+00  0.45593999997E+02  0.45594000000E+02  0.51100000000E-03 0.  1.
         11   -1    0    0    0    0 -0.00000000000E+00 -0.00000000000E+00 -0.45593999997E+02  0.45594000000E+02  0.51100000000E-03 0. -1.
    9900012    2    1    2    0    0  0.92457614404E+01 -0.79727983956E+01 -0.14199491941E+02  0.72461676542E+02  0.70000138407E+02 0.  0.
        -12    1    1    2    0    0 -0.92457614404E+01  0.79727983956E+01  0.14199491941E+02  0.18726323458E+02  0.00000000000E+00 0.  1.
         11    1    3    3    0    0 -0.11293686701E+02 -0.25944833960E+02  0.25301879600E+01  0.28409217165E+02  0.51100000000E-03 0. -1.
        -11    1    3    3    0    0 -0.51868990636E+01  0.50128978537E+01  0.42901063912E+01  0.83927397134E+01  0.51100000000E-03 0.  1.
        -12    1    3    3    0    0  0.25726347205E+02  0.12959137711E+02 -0.21019786293E+02  0.35659719664E+02  0.00000000000E+00 0.  1.
</event>
<event>
 7    1  0.2710146E-013  0.7246155E+02  0.7816164E-02  0.1226708E+00
        -11   -1    0    0    0    0  0.00000000000E+00  0.00000000000E+00  0.45593999997E+02  0.45594000000E+02  0.51100000000E-03 0. -1.
         11   -1    0    0    0    0 -0.00000000000E+00 -0.00000000000E+00 -0.45593999997E+02  0.45594000000E+02  0.51100000000E-03 0.  1.
    9900012    2    1    2    0    0  0.86683886559E+01 -0.13967347382E+02  0.89695129808E+01  0.72461550313E+02  0.69999973970E+02 0.  0.
        -12    1    1    2    0    0 -0.86683886559E+01  0.13967347382E+02 -0.89695129808E+01  0.18726449687E+02  0.00000000000E+00 0.  1.
         11    1    3    3    0    0 -0.87474397566E+01 -0.17769869926E+02 -0.15890489290E+02  0.25392786960E+02  0.51100000000E-03 0. -1.
        -11    1    3    3    0    0 -0.30025112028E+01 -0.75580426091E+01 -0.46968582189E+01  0.93914620264E+01  0.51100000000E-03 0.  1.
         12    1    3    3    0    0  0.20418339615E+02  0.11360565153E+02  0.29556860490E+02  0.37677301326E+02  0.00000000000E+00 0. -1.
</event>
<event>
 7    1  0.2710146E-013  0.7246155E+02  0.7816164E-02  0.1226708E+00
        -11   -1    0    0    0    0  0.00000000000E+00  0.00000000000E+00  0.45593999997E+02  0.45594000000E+02  0.51100000000E-03 0. -1.
         11   -1    0    0    0    0 -0.00000000000E+00 -0.00000000000E+00 -0.45593999997E+02  0.45594000000E+02  0.51100000000E-03 0.  1.
    9900012    2    1    2    0    0  0.45670073497E+01  0.62809251195E+01  0.17040311201E+02  0.72461553933E+02  0.69999978686E+02 0.  0.
        -12    1    1    2    0    0 -0.45670073497E+01 -0.62809251195E+01 -0.17040311201E+02  0.18726446067E+02  0.00000000000E+00 0.  1.
         11    1    3    3    0    0 -0.11578008876E+02 -0.80834590613E+01  0.47089944593E+01  0.14885134498E+02  0.51100000000E-03 0. -1.
        -11    1    3    3    0    0 -0.67508095043E+01 -0.53825845795E+01 -0.14681409408E+02  0.17032011866E+02  0.51100000000E-03 0.  1.
        -12    1    3    3    0    0  0.22895825730E+02  0.19746968760E+02  0.27012726150E+02  0.40544407569E+02  0.00000000000E+00 0.  1.
</event>
<event>
 7    1  0.2710146E-013  0.7246156E+02  0.7816164E-02  0.1226708E+00
        -11   -1    0    0    0    0  0.00000000000E+00  0.00000000000E+00  0.45593999997E+02  0.45594000000E+02  0.51100000000E-03 0. -1.
         11   -1    0    0    0    0 -0.00000000000E+00 -0.00000000000E+00 -0.45593999997E+02  0.45594000000E+02  0.51100000000E-03 0.  1.
    9900012    2    1    2    0    0  0.80384873995E+01  0.16746184608E+02 -0.23722512568E+01  0.72461560012E+02  0.69999986606E+02 0.  0.
        -12    1    1    2    0    0 -0.80384873995E+01 -0.16746184608E+02  0.23722512568E+01  0.18726439988E+02  0.00000000000E+00 0.  1.
         11    1    3    3    0    0  0.87592117679E-01  0.54120291432E+01 -0.11079246055E+02  0.12330751203E+02  0.51100000000E-03 0. -1.
        -11    1    3    3    0    0 -0.89255228780E+01  0.44196228795E+01 -0.22150441425E+02  0.24286623492E+02  0.51100000000E-03 0.  1.
         12    1    3    3    0    0  0.16876418160E+02  0.69145325851E+01  0.30857436223E+02  0.35844185317E+02  0.00000000000E+00 0. -1.
</event>
<event>
 7    1  0.2710146E-013  0.7246161E+02  0.7816164E-02  0.1226708E+00
        -11   -1    0    0    0    0  0.00000000000E+00  0.00000000000E+00  0.45593999997E+02  0.45594000000E+02  0.51100000000E-03 0.  1.
         11   -1    0    0    0    0 -0.00000000000E+00 -0.00000000000E+00 -0.45593999997E+02  0.45594000000E+02  0.51100000000E-03 0. -1.
    9900012    2    1    2    0    0 -0.10304365799E+02 -0.45349591407E+01 -0.14964354732E+02  0.72461608958E+02  0.70000050366E+02 0.  0.
        -12    1    1    2    0    0  0.10304365799E+02  0.45349591407E+01  0.14964354732E+02  0.18726391042E+02  0.00000000000E+00 0.  1.
         11    1    3    3    0    0 -0.87676579228E+01  0.18021600070E+02 -0.34864464270E+01  0.20342202523E+02  0.51100000000E-03 0. -1.
        -11    1    3    3    0    0 -0.16301496528E+02 -0.65544707267E+01  0.11076810988E+02  0.20770065418E+02  0.51100000000E-03 0.  1.
        -12    1    3    3    0    0  0.14764788652E+02 -0.16002088484E+02 -0.22554719293E+02  0.31349341017E+02  0.00000000000E+00 0.  1.
</event>
<event>
 7    1  0.2710146E-013  0.7246152E+02  0.7816164E-02  0.1226708E+00
        -11   -1    0    0    0    0  0.00000000000E+00  0.00000000000E+00  0.45593999997E+02  0.45594000000E+02  0.51100000000E-03 0.  1.
         11   -1    0    0    0    0 -0.00000000000E+00 -0.00000000000E+00 -0.45593999997E+02  0.45594000000E+02  0.51100000000E-03 0. -1.
    9900012    2    1    2    0    0 -0.18625824594E+02  0.19179951497E+01 -0.28441489837E+00  0.72461523048E+02  0.69999938453E+02 0.  0.
        -12    1    1    2    0    0  0.18625824594E+02 -0.19179951497E+01  0.28441489837E+00  0.18726476952E+02  0.00000000000E+00 0.  1.
         11    1    3    3    0    0  0.13073614830E+02  0.60989524264E+01  0.26919735634E+01  0.14675263110E+02  0.51100000000E-03 0. -1.
        -11    1    3    3    0    0  0.23095815694E+01 -0.60813724887E+01  0.17066913556E+02  0.18264632407E+02  0.51100000000E-03 0.  1.
         12    1    3    3    0    0 -0.34009020994E+02  0.19004152120E+01 -0.20043302018E+02  0.39521627531E+02  0.00000000000E+00 0. -1.
</event>
<event>
 7    1  0.2710146E-013  0.7246161E+02  0.7816164E-02  0.1226708E+00
        -11   -1    0    0    0    0  0.00000000000E+00  0.00000000000E+00  0.45593999997E+02  0.45594000000E+02  0.51100000000E-03 0. -1.
         11   -1    0    0    0    0 -0.00000000000E+00 -0.00000000000E+00 -0.45593999997E+02  0.45594000000E+02  0.51100000000E-03 0.  1.
    9900012    2    1    2    0    0  0.13793620156E+02  0.94499774932E+01  0.84327765427E+01  0.72461608146E+02  0.70000049309E+02 0.  0.
        -12    1    1    2    0    0 -0.13793620156E+02 -0.94499774932E+01 -0.84327765427E+01  0.18726391854E+02  0.00000000000E+00 0.  1.
         11    1    3    3    0    0  0.33341125844E+02  0.11822679269E+02 -0.12138398868E+02  0.37399828141E+02  0.51100000000E-03 0. -1.
        -11    1    3    3    0    0  0.25047943041E+01  0.17765606215E+01 -0.16462950523E+01  0.34843148262E+01  0.51100000000E-03 0.  1.
        -12    1    3    3    0    0 -0.22052299992E+02 -0.41492623978E+01  0.22217470463E+02  0.31577465179E+02  0.00000000000E+00 0.  1.
</event>
<event>
 7    1  0.2710146E-013  0.7246152E+02  0.7816164E-02  0.1226708E+00
        -11   -1    0    0    0    0  0.00000000000E+00  0.00000000000E+00  0.45593999997E+02  0.45594000000E+02  0.51100000000E-03 0. -1.
         11   -1    0    0    0    0 -0.00000000000E+00 -0.00000000000E+00 -0.45593999997E+02  0.45594000000E+02  0.51100000000E-03 0.  1.
    9900012    2    1    2    0    0 -0.31728566724E+01 -0.14342801660E+02  0.11614561363E+02  0.72461521031E+02  0.69999935825E+02 0.  0.
        -12    1    1    2    0    0  0.31728566724E+01  0.14342801660E+02 -0.11614561363E+02  0.18726478969E+02  0.00000000000E+00 0.  1.
         11    1    3    3    0    0 -0.22060226176E+00 -0.10933081027E+02 -0.10597426643E+02  0.15227815924E+02  0.51100000000E-03 0. -1.
        -11    1    3    3    0    0  0.90118028601E+00 -0.20998445350E+02 -0.76470972349E+01  0.22365708783E+02  0.51100000000E-03 0.  1.
         12    1    3    3    0    0 -0.38534346967E+01  0.17588724717E+02  0.29859085242E+02  0.34867996323E+02  0.00000000000E+00 0. -1.
</event>
<event>
 7    1  0.2710146E-013  0.7246146E+02  0.7816164E-02  0.1226708E+00
        -11   -1    0    0    0    0  0.00000000000E+00  0.00000000000E+00  0.45593999997E+02  0.45594000000E+02  0.51100000000E-03 0.  1.
         11   -1    0    0    0    0 -0.00000000000E+00 -0.00000000000E+00 -0.45593999997E+02  0.45594000000E+02  0.51100000000E-03 0. -1.
    9900012    2    1    2    0    0  0.16184149246E+02  0.38012200880E+01 -0.86201610359E+01  0.72461464355E+02  0.69999861995E+02 0.  0.
        -12    1    1    2    0    0 -0.16184149246E+02 -0.38012200880E+01  0.86201610359E+01  0.18726535645E+02  0.00000000000E+00 0.  1.
         11    1    3    3    0    0  0.26155123398E+01 -0.16444219103E+02  0.43938649644E+01  0.17220897082E+02  0.51100000000E-03 0. -1.
        -11    1    3    3    0    0  0.99562861802E+01 -0.11876145956E+02  0.72294848455E+01  0.17100758131E+02  0.51100000000E-03 0.  1.
        -12    1    3    3    0    0  0.36123507258E+01  0.32121585147E+02 -0.20243510846E+02  0.38139809143E+02  0.00000000000E+00 0.  1.
</event>
<event>
 7    1  0.2710146E-013  0.7246153E+02  0.7816164E-02  0.1226708E+00
        -11   -1    0    0    0    0  0.00000000000E+00  0.00000000000E+00  0.45593999997E+02  0.45594000000E+02  0.51100000000E-03 0. -1.
         11   -1    0    0    0    0 -0.00000000000E+00 -0.00000000000E+00 -0.45593999997E+02  0.45594000000E+02  0.51100000000E-03 0.  1.
    9900012    2    1    2    0    0  0.14872080064E+01 -0.68191019742E+01  0.17377245618E+02  0.72461531976E+02  0.69999950084E+02 0.  0.
        -12    1    1    2    0    0 -0.14872080064E+01  0.68191019742E+01 -0.17377245618E+02  0.18726468024E+02  0.00000000000E+00 0.  1.
         11    1    3    3    0    0  0.31480539242E+01  0.28535120854E+01  0.41185464479E+02  0.41404048828E+02  0.51100000000E-03 0. -1.
        -11    1    3    3    0    0 -0.12098934252E+01 -0.72091161389E+01 -0.19573765521E+00  0.73125584507E+01  0.51100000000E-03 0.  1.
        -12    1    3    3    0    0 -0.45095249250E+00 -0.24634979207E+01 -0.23612481206E+02  0.23744924697E+02  0.00000000000E+00 0.  1.
</event>
<event>
 7    1  0.2710146E-013  0.7246168E+02  0.7816164E-02  0.1226708E+00
        -11   -1    0    0    0    0  0.00000000000E+00  0.00000000000E+00  0.45593999997E+02  0.45594000000E+02  0.51100000000E-03 0.  1.
         11   -1    0    0    0    0 -0.00000000000E+00 -0.00000000000E+00 -0.45593999997E+02  0.45594000000E+02  0.51100000000E-03 0. -1.
    9900012    2    1    2    0    0 -0.15003050976E+01  0.18025793292E+02  0.48471393051E+01  0.72461684328E+02  0.70000148550E+02 0.  0.
        -12    1    1    2    0    0  0.15003050976E+01 -0.18025793292E+02 -0.48471393051E+01  0.18726315672E+02  0.00000000000E+00 0.  1.
         11    1    3    3    0    0  0.10746518886E+02  0.11806801101E+02  0.49926445490E+01  0.16727663323E+02  0.51100000000E-03 0. -1.
        -11    1    3    3    0    0  0.21150549268E+00 -0.21441261256E+02 -0.10240319201E+02  0.23762082325E+02  0.51100000000E-03 0.  1.
         12    1    3    3    0    0 -0.12458329477E+02  0.27660253447E+02  0.10094813957E+02  0.31971938680E+02  0.00000000000E+00 0. -1.
</event>
<event>
 7    1  0.2710146E-013  0.7246147E+02  0.7816164E-02  0.1226708E+00
        -11   -1    0    0    0    0  0.00000000000E+00  0.00000000000E+00  0.45593999997E+02  0.45594000000E+02  0.51100000000E-03 0. -1.
         11   -1    0    0    0    0 -0.00000000000E+00 -0.00000000000E+00 -0.45593999997E+02  0.45594000000E+02  0.51100000000E-03 0.  1.
    9900012    2    1    2    0    0 -0.14427064813E+02 -0.10633860555E+02 -0.54280548614E+01  0.72461468848E+02  0.69999867847E+02 0.  0.
        -12    1    1    2    0    0  0.14427064813E+02  0.10633860555E+02  0.54280548614E+01  0.18726531152E+02  0.00000000000E+00 0.  1.
         11    1    3    3    0    0  0.77702729557E+01 -0.20742932555E+02 -0.86432850960E+01  0.23777148069E+02  0.51100000000E-03 0. -1.
        -11    1    3    3    0    0 -0.15650865816E+01  0.22185220947E+01 -0.17912733435E+02  0.18117321978E+02  0.51100000000E-03 0.  1.
         12    1    3    3    0    0 -0.20632251187E+02  0.78905499050E+01  0.21127963669E+02  0.30566998800E+02  0.00000000000E+00 0. -1.
</event>
<event>
 7    1  0.2710146E-013  0.7246157E+02  0.7816164E-02  0.1226708E+00
        -11   -1    0    0    0    0  0.00000000000E+00  0.00000000000E+00  0.45593999997E+02  0.45594000000E+02  0.51100000000E-03 0.  1.
         11   -1    0    0    0    0 -0.00000000000E+00 -0.00000000000E+00 -0.45593999997E+02  0.45594000000E+02  0.51100000000E-03 0. -1.
    9900012    2    1    2    0    0  0.96022779663E+01  0.88546552772E+00 -0.16052772871E+02  0.72461566592E+02  0.69999995176E+02 0.  0.
        -12    1    1    2    0    0 -0.96022779663E+01 -0.88546552772E+00  0.16052772871E+02  0.18726433408E+02  0.00000000000E+00 0.  1.
         11    1    3    3    0    0 -0.51846028857E+01  0.50598757747E+01  0.14649428258E+01  0.73911100440E+01  0.51100000000E-03 0. -1.
        -11    1    3    3    0    0 -0.15066883968E+02  0.15436058466E+02  0.58962579360E+01  0.22361769862E+02  0.51100000000E-03 0.  1.
         12    1    3    3    0    0  0.29853764820E+02 -0.19610468713E+02 -0.23413973633E+02  0.42708686685E+02  0.00000000000E+00 0. -1.
</event>
<event>
 7    1  0.2710146E-013  0.7246164E+02  0.7816164E-02  0.1226708E+00
        -11   -1    0    0    0    0  0.00000000000E+00  0.00000000000E+00  0.45593999997E+02  0.45594000000E+02  0.51100000000E-03 0.  1.
         11   -1    0    0    0    0 -0.00000000000E+00 -0.00000000000E+00 -0.45593999997E+02  0.45594000000E+02  0.51100000000E-03 0. -1.
    9900012    2    1    2    0    0 -0.17434990956E+02 -0.48385878243E+01 -0.48255109168E+01  0.72461644311E+02  0.70000096420E+02 0.  0.
        -12    1    1    2    0    0  0.17434990956E+02  0.48385878243E+01  0.48255109168E+01  0.18726355689E+02  0.00000000000E+00 0.  1.
         11    1    3    3    0    0  0.12847486200E+02  0.11910494929E+02 -0.79558545319E+01  0.19240930661E+02  0.51100000000E-03 0. -1.
        -11    1    3    3    0    0 -0.16688130213E+02  0.10535440505E+01 -0.16459643591E+02  0.23463237468E+02  0.51100000000E-03 0.  1.
        -12    1    3    3    0    0 -0.13594346943E+02 -0.17802626804E+02  0.19589987206E+02  0.29757476182E+02  0.00000000000E+00 0.  1.
</event>
<event>
 7    1  0.2710146E-013  0.7246156E+02  0.7816164E-02  0.1226708E+00
        -11   -1    0    0    0    0  0.00000000000E+00  0.00000000000E+00  0.45593999997E+02  0.45594000000E+02  0.51100000000E-03 0. -1.
         11   -1    0    0    0    0 -0.00000000000E+00 -0.00000000000E+00 -0.45593999997E+02  0.45594000000E+02  0.51100000000E-03 0.  1.
    9900012    2    1    2    0    0  0.37638267411E+01  0.84768139998E+01  0.16268273056E+02  0.72461562123E+02  0.69999989356E+02 0.  0.
        -12    1    1    2    0    0 -0.37638267411E+01 -0.84768139998E+01 -0.16268273056E+02  0.18726437877E+02  0.00000000000E+00 0.  1.
         11    1    3    3    0    0  0.32206309594E+01  0.10347704051E+02  0.98888645710E+01  0.14670960625E+02  0.51100000000E-03 0. -1.
        -11    1    3    3    0    0  0.24792268095E+02 -0.60413577012E+00 -0.11793598044E+02  0.27461072310E+02  0.51100000000E-03 0.  1.
        -12    1    3    3    0    0 -0.24249072313E+02 -0.12667542809E+01  0.18173006529E+02  0.30329529188E+02  0.00000000000E+00 0.  1.
</event>
<event>
 7    1  0.2710146E-013  0.7246157E+02  0.7816164E-02  0.1226708E+00
        -11   -1    0    0    0    0  0.00000000000E+00  0.00000000000E+00  0.45593999997E+02  0.45594000000E+02  0.51100000000E-03 0. -1.
         11   -1    0    0    0    0 -0.00000000000E+00 -0.00000000000E+00 -0.45593999997E+02  0.45594000000E+02  0.51100000000E-03 0.  1.
    9900012    2    1    2    0    0 -0.62608367662E+01 -0.12274444751E+02  0.12681445001E+02  0.72461571663E+02  0.70000001782E+02 0.  0.
        -12    1    1    2    0    0  0.62608367662E+01  0.12274444751E+02 -0.12681445001E+02  0.18726428337E+02  0.00000000000E+00 0.  1.
         11    1    3    3    0    0 -0.71184482311E+01 -0.21013567103E+02  0.25921653810E+02  0.34120000646E+02  0.51100000000E-03 0. -1.
        -11    1    3    3    0    0  0.10786339459E+00 -0.36605877092E+00  0.11738413915E+02  0.11744615577E+02  0.51100000000E-03 0.  1.
        -12    1    3    3    0    0  0.74974807024E+00  0.91051811222E+01 -0.24978622725E+02  0.26596955440E+02  0.00000000000E+00 0.  1.
</event>
<event>
 7    1  0.2710146E-013  0.7246095E+02  0.7816164E-02  0.1226710E+00
        -11   -1    0    0    0    0  0.00000000000E+00  0.00000000000E+00  0.45593999997E+02  0.45594000000E+02  0.51100000000E-03 0. -1.
         11   -1    0    0    0    0 -0.00000000000E+00 -0.00000000000E+00 -0.45593999997E+02  0.45594000000E+02  0.51100000000E-03 0.  1.
    9900012    2    1    2    0    0 -0.15150098417E+02 -0.14840987894E+00  0.11007034879E+02  0.72460952065E+02  0.69999194637E+02 0.  0.
        -12    1    1    2    0    0  0.15150098417E+02  0.14840987894E+00 -0.11007034879E+02  0.18727047935E+02  0.00000000000E+00 0.  1.
         11    1    3    3    0    0  0.24682213526E+00  0.40310933616E+01  0.18200349142E+02  0.18643050824E+02  0.51100000000E-03 0. -1.
        -11    1    3    3    0    0 -0.16526587556E+02  0.52014067326E+01  0.19154057264E+02  0.25827517074E+02  0.51100000000E-03 0.  1.
        -12    1    3    3    0    0  0.11296670046E+01 -0.93809099732E+01 -0.26347371527E+02  0.27990384168E+02  0.00000000000E+00 0.  1.
</event>
<event>
 7    1  0.2710146E-013  0.7246159E+02  0.7816164E-02  0.1226708E+00
        -11   -1    0    0    0    0  0.00000000000E+00  0.00000000000E+00  0.45593999997E+02  0.45594000000E+02  0.51100000000E-03 0.  1.
         11   -1    0    0    0    0 -0.00000000000E+00 -0.00000000000E+00 -0.45593999997E+02  0.45594000000E+02  0.51100000000E-03 0. -1.
    9900012    2    1    2    0    0  0.13641837840E+02 -0.12208683799E+02  0.39403827340E+01  0.72461593087E+02  0.70000029692E+02 0.  0.
        -12    1    1    2    0    0 -0.13641837840E+02  0.12208683799E+02 -0.39403827340E+01  0.18726406913E+02  0.00000000000E+00 0.  1.
         11    1    3    3    0    0 -0.54232189020E+01  0.24311644903E+01 -0.26516445715E+01  0.65079246486E+01  0.51100000000E-03 0. -1.
        -11    1    3    3    0    0 -0.70083250063E+01  0.20299250397E+02 -0.18275718607E+01  0.21552638011E+02  0.51100000000E-03 0.  1.
        -12    1    3    3    0    0  0.26073381749E+02 -0.34939098687E+02  0.84195991661E+01  0.44401030427E+02  0.00000000000E+00 0.  1.
</event>
<event>
 7    1  0.2710146E-013  0.7246153E+02  0.7816164E-02  0.1226708E+00
        -11   -1    0    0    0    0  0.00000000000E+00  0.00000000000E+00  0.45593999997E+02  0.45594000000E+02  0.51100000000E-03 0.  1.
         11   -1    0    0    0    0 -0.00000000000E+00 -0.00000000000E+00 -0.45593999997E+02  0.45594000000E+02  0.51100000000E-03 0. -1.
    9900012    2    1    2    0    0  0.11807144559E+02  0.79498127939E+01 -0.12168501659E+02  0.72461531600E+02  0.69999949594E+02 0.  0.
        -12    1    1    2    0    0 -0.11807144559E+02 -0.79498127939E+01  0.12168501659E+02  0.18726468400E+02  0.00000000000E+00 0.  1.
         11    1    3    3    0    0 -0.21214075402E+02  0.11632355981E+00  0.99092751672E+01  0.23414616395E+02  0.51100000000E-03 0. -1.
        -11    1    3    3    0    0  0.58247931633E+01 -0.19309463904E+01  0.61240529145E+01  0.86695324971E+01  0.51100000000E-03 0.  1.
        -12    1    3    3    0    0  0.27196426798E+02  0.97644356245E+01 -0.28201829741E+02  0.40377382708E+02  0.00000000000E+00 0.  1.
</event>
<event>
 7    1  0.2710146E-013  0.7246154E+02  0.7816164E-02  0.1226708E+00
        -11   -1    0    0    0    0  0.00000000000E+00  0.00000000000E+00  0.45593999997E+02  0.45594000000E+02  0.51100000000E-03 0. -1.
         11   -1    0    0    0    0 -0.00000000000E+00 -0.00000000000E+00 -0.45593999997E+02  0.45594000000E+02  0.51100000000E-03 0.  1.
    9900012    2    1    2    0    0  0.94855586837E+01  0.13790133674E+02  0.83986155615E+01  0.72461538678E+02  0.69999958814E+02 0.  0.
        -12    1    1    2    0    0 -0.94855586837E+01 -0.13790133674E+02 -0.83986155615E+01  0.18726461322E+02  0.00000000000E+00 0.  1.
         11    1    3    3    0    0  0.20335578655E+02  0.46159345563E+01  0.13147052296E+02  0.24651320358E+02  0.51100000000E-03 0. -1.
        -11    1    3    3    0    0  0.14714291078E+02 -0.77120439598E+01 -0.43368848158E+01  0.17169582235E+02  0.51100000000E-03 0.  1.
        -12    1    3    3    0    0 -0.25564311049E+02  0.16886243078E+02 -0.41155191854E+00  0.30640636085E+02  0.00000000000E+00 0.  1.
</event>
<event>
 7    1  0.2710146E-013  0.7246179E+02  0.7816164E-02  0.1226707E+00
        -11   -1    0    0    0    0  0.00000000000E+00  0.00000000000E+00  0.45593999997E+02  0.45594000000E+02  0.51100000000E-03 0. -1.
         11   -1    0    0    0    0 -0.00000000000E+00 -0.00000000000E+00 -0.45593999997E+02  0.45594000000E+02  0.51100000000E-03 0.  1.
    9900012    2    1    2    0    0 -0.30593484306E+01  0.14238095292E+01  0.18419664346E+02  0.72461791601E+02  0.70000288292E+02 0.  0.
        -12    1    1    2    0    0  0.30593484306E+01 -0.14238095292E+01 -0.18419664346E+02  0.18726208399E+02  0.00000000000E+00 0.  1.
         11    1    3    3    0    0 -0.41133060810E+01  0.24523607155E+01  0.87944718226E+01  0.10013795229E+02  0.51100000000E-03 0. -1.
        -11    1    3    3    0    0  0.36929298442E+01  0.29243514321E+02  0.12309406279E+02  0.31942797997E+02  0.51100000000E-03 0.  1.
        -12    1    3    3    0    0 -0.26389721938E+01 -0.30272065508E+02 -0.26842137558E+01  0.30505198374E+02  0.00000000000E+00 0.  1.
</event>
<event>
 7    1  0.2710146E-013  0.7246149E+02  0.7816164E-02  0.1226708E+00
        -11   -1    0    0    0    0  0.00000000000E+00  0.00000000000E+00  0.45593999997E+02  0.45594000000E+02  0.51100000000E-03 0.  1.
         11   -1    0    0    0    0 -0.00000000000E+00 -0.00000000000E+00 -0.45593999997E+02  0.45594000000E+02  0.51100000000E-03 0. -1.
    9900012    2    1    2    0    0 -0.51820276174E+01  0.79048232889E+01 -0.16166095876E+02  0.72461486781E+02  0.69999891208E+02 0.  0.
        -12    1    1    2    0    0  0.51820276174E+01 -0.79048232889E+01  0.16166095876E+02  0.18726513219E+02  0.00000000000E+00 0.  1.
         11    1    3    3    0    0  0.20131569763E+01 -0.18375561806E+02 -0.41571658955E+01  0.18947192437E+02  0.51100000000E-03 0.  1.
        -11    1    3    3    0    0 -0.60104210321E+01 -0.11665871466E+02 -0.79251221280E+01  0.15330534207E+02  0.51100000000E-03 0. -1.
        -12    1    3    3    0    0 -0.11847635615E+01  0.37946256561E+02 -0.40838078528E+01  0.38183760138E+02  0.00000000000E+00 0.  1.
</event>
<event>
 7    1  0.2710146E-013  0.7246159E+02  0.7816164E-02  0.1226708E+00
        -11   -1    0    0    0    0  0.00000000000E+00  0.00000000000E+00  0.45593999997E+02  0.45594000000E+02  0.51100000000E-03 0.  1.
         11   -1    0    0    0    0 -0.00000000000E+00 -0.00000000000E+00 -0.45593999997E+02  0.45594000000E+02  0.51100000000E-03 0. -1.
    9900012    2    1    2    0    0  0.10106390771E+01 -0.10145357465E+02 -0.15707596191E+02  0.72461594911E+02  0.70000032068E+02 0.  0.
        -12    1    1    2    0    0 -0.10106390771E+01  0.10145357465E+02  0.15707596191E+02  0.18726405089E+02  0.00000000000E+00 0.  1.
         11    1    3    3    0    0 -0.24358025516E+01  0.28833117804E+01  0.53902507905E+01  0.65803818080E+01  0.51100000000E-03 0. -1.
        -11    1    3    3    0    0 -0.21084539031E+02 -0.17856070224E+02  0.67650107111E+01  0.28445780006E+02  0.51100000000E-03 0.  1.
         12    1    3    3    0    0  0.24530980660E+02  0.48274009780E+01 -0.27862857693E+02  0.37435433097E+02  0.00000000000E+00 0. -1.
</event>
<event>
 7    1  0.2710146E-013  0.7246160E+02  0.7816164E-02  0.1226708E+00
        -11   -1    0    0    0    0  0.00000000000E+00  0.00000000000E+00  0.45593999997E+02  0.45594000000E+02  0.51100000000E-03 0.  1.
         11   -1    0    0    0    0 -0.00000000000E+00 -0.00000000000E+00 -0.45593999997E+02  0.45594000000E+02  0.51100000000E-03 0. -1.
    9900012    2    1    2    0    0  0.11806110373E+02 -0.13112185064E+02 -0.62741091890E+01  0.72461599240E+02  0.70000037707E+02 0.  0.
        -12    1    1    2    0    0 -0.11806110373E+02  0.13112185064E+02  0.62741091890E+01  0.18726400760E+02  0.00000000000E+00 0.  1.
         11    1    3    3    0    0 -0.26204994418E+01 -0.13564191168E+02 -0.74034875847E+01  0.15673733699E+02  0.51100000000E-03 0. -1.
        -11    1    3    3    0    0  0.12331457976E+02 -0.24826098821E+02  0.10649530859E+02  0.29695328695E+02  0.51100000000E-03 0.  1.
         12    1    3    3    0    0  0.20951518389E+01  0.25278104926E+02 -0.95201524636E+01  0.27092536847E+02  0.00000000000E+00 0. -1.
</event>
<event>
 7    1  0.2710146E-013  0.7246147E+02  0.7816164E-02  0.1226708E+00
        -11   -1    0    0    0    0  0.00000000000E+00  0.00000000000E+00  0.45593999997E+02  0.45594000000E+02  0.51100000000E-03 0. -1.
         11   -1    0    0    0    0 -0.00000000000E+00 -0.00000000000E+00 -0.45593999997E+02  0.45594000000E+02  0.51100000000E-03 0.  1.
    9900012    2    1    2    0    0  0.95932767850E+01 -0.10843573667E+02 -0.11877235744E+02  0.72461473941E+02  0.69999874481E+02 0.  0.
        -12    1    1    2    0    0 -0.95932767850E+01  0.10843573667E+02  0.11877235744E+02  0.18726526059E+02  0.00000000000E+00 0.  1.
         11    1    3    3    0    0 -0.71917597381E+00  0.25994810904E+01 -0.30337967028E+01  0.40593643241E+01  0.51100000000E-03 0. -1.
        -11    1    3    3    0    0  0.18746551766E+02 -0.32911715683E+02 -0.21642489040E+02  0.43623520771E+02  0.51100000000E-03 0.  1.
         12    1    3    3    0    0 -0.84340990068E+01  0.19468660926E+02  0.12799049999E+02  0.24778588846E+02  0.00000000000E+00 0. -1.
</event>
<event>
 7    1  0.2710146E-013  0.7246157E+02  0.7816164E-02  0.1226708E+00
        -11   -1    0    0    0    0  0.00000000000E+00  0.00000000000E+00  0.45593999997E+02  0.45594000000E+02  0.51100000000E-03 0.  1.
         11   -1    0    0    0    0 -0.00000000000E+00 -0.00000000000E+00 -0.45593999997E+02  0.45594000000E+02  0.51100000000E-03 0. -1.
    9900012    2    1    2    0    0  0.48624843979E+01 -0.15351770658E+02 -0.95581614976E+01  0.72461573003E+02  0.70000003528E+02 0.  0.
        -12    1    1    2    0    0 -0.48624843979E+01  0.15351770658E+02  0.95581614976E+01  0.18726426997E+02  0.00000000000E+00 0.  1.
         11    1    3    3    0    0 -0.76198901218E+01 -0.24868969784E+02 -0.30874150374E+02  0.40370057532E+02  0.51100000000E-03 0. -1.
        -11    1    3    3    0    0  0.93605604146E+00 -0.37912687770E+01 -0.62185783928E+00  0.39543175499E+01  0.51100000000E-03 0.  1.
        -12    1    3    3    0    0  0.11546318478E+02  0.13308467902E+02  0.21937846716E+02  0.28137197921E+02  0.00000000000E+00 0.  1.
</event>
<event>
 7    1  0.2710146E-013  0.7246160E+02  0.7816164E-02  0.1226708E+00
        -11   -1    0    0    0    0  0.00000000000E+00  0.00000000000E+00  0.45593999997E+02  0.45594000000E+02  0.51100000000E-03 0.  1.
         11   -1    0    0    0    0 -0.00000000000E+00 -0.00000000000E+00 -0.45593999997E+02  0.45594000000E+02  0.51100000000E-03 0. -1.
    9900012    2    1    2    0    0 -0.17334247137E+02  0.58057240055E+01  0.40614764296E+01  0.72461597627E+02  0.70000035606E+02 0.  0.
        -12    1    1    2    0    0  0.17334247137E+02 -0.58057240055E+01 -0.40614764296E+01  0.18726402373E+02  0.00000000000E+00 0.  1.
         11    1    3    3    0    0  0.98626051330E+01  0.37808146928E+01  0.76479083783E+01  0.13040553768E+02  0.51100000000E-03 0. -1.
        -11    1    3    3    0    0 -0.32096284455E+02  0.10162908755E+02  0.16282988756E+02  0.37397752784E+02  0.51100000000E-03 0.  1.
         12    1    3    3    0    0  0.48994321851E+01 -0.81379994421E+01 -0.19869420704E+02  0.22023291075E+02  0.00000000000E+00 0. -1.
</event>
<event>
 7    1  0.2710146E-013  0.7246136E+02  0.7816164E-02  0.1226709E+00
        -11   -1    0    0    0    0  0.00000000000E+00  0.00000000000E+00  0.45593999997E+02  0.45594000000E+02  0.51100000000E-03 0.  1.
         11   -1    0    0    0    0 -0.00000000000E+00 -0.00000000000E+00 -0.45593999997E+02  0.45594000000E+02  0.51100000000E-03 0. -1.
    9900012    2    1    2    0    0 -0.18045305672E+02 -0.18854177623E+01 -0.46367128343E+01  0.72461362212E+02  0.69999728934E+02 0.  0.
        -12    1    1    2    0    0  0.18045305672E+02  0.18854177623E+01  0.46367128343E+01  0.18726637788E+02  0.00000000000E+00 0.  1.
         11    1    3    3    0    0 -0.99065986486E+01  0.98770974095E+01 -0.50239479160E+01  0.14863976687E+02  0.51100000000E-03 0. -1.
        -11    1    3    3    0    0 -0.51352403150E+01  0.21779714975E+02 -0.63354557783E+01  0.23256497536E+02  0.51100000000E-03 0.  1.
        -12    1    3    3    0    0 -0.30034667083E+01 -0.33542230147E+02  0.67226908600E+01  0.34340887989E+02  0.00000000000E+00 0.  1.
</event>
<event>
 7    1  0.2710146E-013  0.7246156E+02  0.7816164E-02  0.1226708E+00
        -11   -1    0    0    0    0  0.00000000000E+00  0.00000000000E+00  0.45593999997E+02  0.45594000000E+02  0.51100000000E-03 0.  1.
         11   -1    0    0    0    0 -0.00000000000E+00 -0.00000000000E+00 -0.45593999997E+02  0.45594000000E+02  0.51100000000E-03 0. -1.
    9900012    2    1    2    0    0  0.17264803391E+02  0.72145889322E+01  0.74554866691E+00  0.72461559537E+02  0.69999985987E+02 0.  0.
        -12    1    1    2    0    0 -0.17264803391E+02 -0.72145889322E+01 -0.74554866691E+00  0.18726440463E+02  0.00000000000E+00 0.  1.
         11    1    3    3    0    0  0.72941400233E+01 -0.34069831017E+01  0.44813175394E+00  0.80630536935E+01  0.51100000000E-03 0. -1.
        -11    1    3    3    0    0  0.24358302859E+02  0.60031154568E+01  0.25015225888E+02  0.35427755219E+02  0.51100000000E-03 0.  1.
         12    1    3    3    0    0 -0.14387639491E+02  0.46184565771E+01 -0.24717808975E+02  0.28970750625E+02  0.00000000000E+00 0. -1.
</event>
<event>
 7    1  0.2710146E-013  0.7246157E+02  0.7816164E-02  0.1226708E+00
        -11   -1    0    0    0    0  0.00000000000E+00  0.00000000000E+00  0.45593999997E+02  0.45594000000E+02  0.51100000000E-03 0. -1.
         11   -1    0    0    0    0 -0.00000000000E+00 -0.00000000000E+00 -0.45593999997E+02  0.45594000000E+02  0.51100000000E-03 0.  1.
    9900012    2    1    2    0    0 -0.15258600492E+02  0.19440144685E+01  0.10680601184E+02  0.72461566200E+02  0.69999994667E+02 0.  0.
        -12    1    1    2    0    0  0.15258600492E+02 -0.19440144685E+01 -0.10680601184E+02  0.18726433800E+02  0.00000000000E+00 0.  1.
         11    1    3    3    0    0 -0.31487580096E+01  0.21598533639E+02 -0.28992363011E+00  0.21828774320E+02  0.51100000000E-03 0. -1.
        -11    1    3    3    0    0 -0.24479838296E+02  0.15939578119E+01  0.83167202503E+01  0.25903108317E+02  0.51100000000E-03 0.  1.
        -12    1    3    3    0    0  0.12369995814E+02 -0.21248476982E+02  0.26538045635E+01  0.24729683563E+02  0.00000000000E+00 0.  1.
</event>
<event>
 7    1  0.2710146E-013  0.7246166E+02  0.7816164E-02  0.1226708E+00
        -11   -1    0    0    0    0  0.00000000000E+00  0.00000000000E+00  0.45593999997E+02  0.45594000000E+02  0.51100000000E-03 0.  1.
         11   -1    0    0    0    0 -0.00000000000E+00 -0.00000000000E+00 -0.45593999997E+02  0.45594000000E+02  0.51100000000E-03 0. -1.
    9900012    2    1    2    0    0 -0.15547650538E+02 -0.41745058832E+01 -0.95666061276E+01  0.72461657874E+02  0.70000114088E+02 0.  0.
        -12    1    1    2    0    0  0.15547650538E+02  0.41745058832E+01  0.95666061276E+01  0.18726342126E+02  0.00000000000E+00 0.  1.
         11    1    3    3    0    0 -0.11013507580E+01 -0.15577743396E+02 -0.22498665858E+02  0.27387388128E+02  0.51100000000E-03 0. -1.
        -11    1    3    3    0    0  0.13285297272E+02  0.38056285332E+00  0.49572029046E+01  0.14185126457E+02  0.51100000000E-03 0.  1.
         12    1    3    3    0    0 -0.27731597052E+02  0.11022674660E+02  0.79748568262E+01  0.30889143289E+02  0.00000000000E+00 0. -1.
</event>
<event>
 7    1  0.2710146E-013  0.7246141E+02  0.7816164E-02  0.1226708E+00
        -11   -1    0    0    0    0  0.00000000000E+00  0.00000000000E+00  0.45593999997E+02  0.45594000000E+02  0.51100000000E-03 0.  1.
         11   -1    0    0    0    0 -0.00000000000E+00 -0.00000000000E+00 -0.45593999997E+02  0.45594000000E+02  0.51100000000E-03 0. -1.
    9900012    2    1    2    0    0  0.65134578535E+01 -0.17332536156E+02  0.28005570711E+01  0.72461412945E+02  0.69999795023E+02 0.  0.
        -12    1    1    2    0    0 -0.65134578535E+01  0.17332536156E+02 -0.28005570711E+01  0.18726587055E+02  0.00000000000E+00 0.  1.
         11    1    3    3    0    0  0.15064641640E+02 -0.32571997079E+01 -0.19280075205E+02  0.24683477831E+02  0.51100000000E-03 0. -1.
        -11    1    3    3    0    0  0.14375824329E+01  0.31559582158E+00 -0.10598195956E+02  0.10699906623E+02  0.51100000000E-03 0.  1.
        -12    1    3    3    0    0 -0.99887662193E+01 -0.14390932270E+02  0.32678828231E+02  0.37078028491E+02  0.00000000000E+00 0.  1.
</event>
<event>
 7    1  0.2710146E-013  0.7246158E+02  0.7816164E-02  0.1226708E+00
        -11   -1    0    0    0    0  0.00000000000E+00  0.00000000000E+00  0.45593999997E+02  0.45594000000E+02  0.51100000000E-03 0.  1.
         11   -1    0    0    0    0 -0.00000000000E+00 -0.00000000000E+00 -0.45593999997E+02  0.45594000000E+02  0.51100000000E-03 0. -1.
    9900012    2    1    2    0    0  0.15750944655E+02 -0.36510882967E+01 -0.94475439082E+01  0.72461580449E+02  0.70000013229E+02 0.  0.
        -12    1    1    2    0    0 -0.15750944655E+02  0.36510882967E+01  0.94475439082E+01  0.18726419551E+02  0.00000000000E+00 0.  1.
         11    1    3    3    0    0  0.73925004583E+01  0.25903617528E+02 -0.19648588657E+02  0.33342367950E+02  0.51100000000E-03 0. -1.
        -11    1    3    3    0    0  0.41081717271E+01 -0.11859630595E+02  0.15707465244E+02  0.20106028386E+02  0.51100000000E-03 0.  1.
        -12    1    3    3    0    0  0.42502724699E+01 -0.17695075229E+02 -0.55064204961E+01  0.19013184113E+02  0.00000000000E+00 0.  1.
</event>
<event>
 7    1  0.2710146E-013  0.7246157E+02  0.7816164E-02  0.1226708E+00
        -11   -1    0    0    0    0  0.00000000000E+00  0.00000000000E+00  0.45593999997E+02  0.45594000000E+02  0.51100000000E-03 0. -1.
         11   -1    0    0    0    0 -0.00000000000E+00 -0.00000000000E+00 -0.45593999997E+02  0.45594000000E+02  0.51100000000E-03 0.  1.
    9900012    2    1    2    0    0 -0.77430763780E+01  0.82821197026E+01  0.14904044355E+02  0.72461567433E+02  0.69999996272E+02 0.  0.
        -12    1    1    2    0    0  0.77430763780E+01 -0.82821197026E+01 -0.14904044355E+02  0.18726432567E+02  0.00000000000E+00 0.  1.
         11    1    3    3    0    0 -0.13258311555E+02 -0.38585552320E+01 -0.80931888166E+00  0.13832073998E+02  0.51100000000E-03 0. -1.
        -11    1    3    3    0    0 -0.20991784475E+02  0.17932062535E+02  0.69277904180E+00  0.27616911943E+02  0.51100000000E-03 0.  1.
         12    1    3    3    0    0  0.26507019653E+02 -0.57913876003E+01  0.15020584195E+02  0.31012581491E+02  0.00000000000E+00 0. -1.
</event>
<event>
 7    1  0.2710146E-013  0.7246180E+02  0.7816164E-02  0.1226707E+00
        -11   -1    0    0    0    0  0.00000000000E+00  0.00000000000E+00  0.45593999997E+02  0.45594000000E+02  0.51100000000E-03 0.  1.
         11   -1    0    0    0    0 -0.00000000000E+00 -0.00000000000E+00 -0.45593999997E+02  0.45594000000E+02  0.51100000000E-03 0. -1.
    9900012    2    1    2    0    0  0.94569006926E+01 -0.91150752060E+01 -0.13347396153E+02  0.72461800418E+02  0.70000299778E+02 0.  0.
        -12    1    1    2    0    0 -0.94569006926E+01  0.91150752060E+01  0.13347396153E+02  0.18726199582E+02  0.00000000000E+00 0.  1.
         11    1    3    3    0    0 -0.14509511003E+02 -0.46930104960E+00 -0.21120218287E+02  0.25628300251E+02  0.51100000000E-03 0. -1.
        -11    1    3    3    0    0 -0.79372560731E+01  0.54959171696E+01 -0.33299467726E+01  0.10212427981E+02  0.51100000000E-03 0.  1.
        -12    1    3    3    0    0  0.31903667768E+02 -0.14141691326E+02  0.11102768907E+02  0.36621072186E+02  0.00000000000E+00 0.  1.
</event>
<event>
 7    1  0.2710146E-013  0.7246152E+02  0.7816164E-02  0.1226708E+00
        -11   -1    0    0    0    0  0.00000000000E+00  0.00000000000E+00  0.45593999997E+02  0.45594000000E+02  0.51100000000E-03 0.  1.
         11   -1    0    0    0    0 -0.00000000000E+00 -0.00000000000E+00 -0.45593999997E+02  0.45594000000E+02  0.51100000000E-03 0. -1.
    9900012    2    1    2    0    0 -0.24423330863E+01  0.18316595270E+02 -0.30361545435E+01  0.72461524422E+02  0.69999940242E+02 0.  0.
        -12    1    1    2    0    0  0.24423330863E+01 -0.18316595270E+02  0.30361545435E+01  0.18726475578E+02  0.00000000000E+00 0.  1.
         11    1    3    3    0    0  0.57035293544E+00  0.21416737336E+02 -0.22988868552E+02  0.31424353902E+02  0.51100000000E-03 0. -1.
        -11    1    3    3    0    0  0.20711124233E+01 -0.75895807112E+01 -0.86201361415E+01  0.11670389428E+02  0.51100000000E-03 0.  1.
         12    1    3    3    0    0 -0.50837984450E+01  0.44894386447E+01  0.28572850150E+02  0.29366781091E+02  0.00000000000E+00 0. -1.
</event>
<event>
 7    1  0.2710146E-013  0.7246160E+02  0.7816164E-02  0.1226708E+00
        -11   -1    0    0    0    0  0.00000000000E+00  0.00000000000E+00  0.45593999997E+02  0.45594000000E+02  0.51100000000E-03 0.  1.
         11   -1    0    0    0    0 -0.00000000000E+00 -0.00000000000E+00 -0.45593999997E+02  0.45594000000E+02  0.51100000000E-03 0. -1.
    9900012    2    1    2    0    0 -0.14181723199E+02 -0.11985219144E+02 -0.24313075368E+01  0.72461601330E+02  0.70000040430E+02 0.  0.
        -12    1    1    2    0    0  0.14181723199E+02  0.11985219144E+02  0.24313075368E+01  0.18726398670E+02  0.00000000000E+00 0.  1.
         11    1    3    3    0    0 -0.17285423861E+02 -0.64139194384E+01 -0.72566684928E+01  0.19813719451E+02  0.51100000000E-03 0.  1.
        -11    1    3    3    0    0  0.21297088918E+02 -0.18612049878E+02 -0.40418810874E+01  0.28571160285E+02  0.51100000000E-03 0. -1.
         12    1    3    3    0    0 -0.18193388256E+02  0.13040750172E+02  0.88672420434E+01  0.24076721594E+02  0.00000000000E+00 0. -1.
</event>
<event>
 7    1  0.2710146E-013  0.7246156E+02  0.7816164E-02  0.1226708E+00
        -11   -1    0    0    0    0  0.00000000000E+00  0.00000000000E+00  0.45593999997E+02  0.45594000000E+02  0.51100000000E-03 0. -1.
         11   -1    0    0    0    0 -0.00000000000E+00 -0.00000000000E+00 -0.45593999997E+02  0.45594000000E+02  0.51100000000E-03 0.  1.
    9900012    2    1    2    0    0  0.18492092369E+02 -0.28120010192E+01 -0.90267784295E+00  0.72461557274E+02  0.69999983038E+02 0.  0.
        -12    1    1    2    0    0 -0.18492092369E+02  0.28120010192E+01  0.90267784295E+00  0.18726442726E+02  0.00000000000E+00 0.  1.
         11    1    3    3    0    0  0.13915672990E+02 -0.10277749695E+02 -0.36665163068E+01  0.17683931566E+02  0.51100000000E-03 0. -1.
        -11    1    3    3    0    0  0.95321647924E+01 -0.53752674763E+01 -0.23054274291E+02  0.25519702769E+02  0.51100000000E-03 0.  1.
         12    1    3    3    0    0 -0.49557454141E+01  0.12841016152E+02  0.25818112755E+02  0.29257922938E+02  0.00000000000E+00 0. -1.
</event>
<event>
 7    1  0.2710146E-013  0.7246157E+02  0.7816164E-02  0.1226708E+00
        -11   -1    0    0    0    0  0.00000000000E+00  0.00000000000E+00  0.45593999997E+02  0.45594000000E+02  0.51100000000E-03 0.  1.
         11   -1    0    0    0    0 -0.00000000000E+00 -0.00000000000E+00 -0.45593999997E+02  0.45594000000E+02  0.51100000000E-03 0. -1.
    9900012    2    1    2    0    0 -0.13000071192E+02  0.10304457698E+02 -0.86888155801E+01  0.72461569063E+02  0.69999998396E+02 0.  0.
        -12    1    1    2    0    0  0.13000071192E+02 -0.10304457698E+02  0.86888155801E+01  0.18726430937E+02  0.00000000000E+00 0.  1.
         11    1    3    3    0    0  0.13719296300E+02  0.84458686841E+01 -0.18483352480E+02  0.24519096802E+02  0.51100000000E-03 0. -1.
        -11    1    3    3    0    0  0.47973397156E+01 -0.16512568566E+01 -0.95374055894E+01  0.10802926603E+02  0.51100000000E-03 0.  1.
        -12    1    3    3    0    0 -0.31516707208E+02  0.35098458706E+01  0.19331942489E+02  0.37139545658E+02  0.00000000000E+00 0.  1.
</event>
<event>
 7    1  0.2710146E-013  0.7246156E+02  0.7816164E-02  0.1226708E+00
        -11   -1    0    0    0    0  0.00000000000E+00  0.00000000000E+00  0.45593999997E+02  0.45594000000E+02  0.51100000000E-03 0.  1.
         11   -1    0    0    0    0 -0.00000000000E+00 -0.00000000000E+00 -0.45593999997E+02  0.45594000000E+02  0.51100000000E-03 0. -1.
    9900012    2    1    2    0    0  0.11810140248E+02  0.89789863031E+01 -0.11427077636E+02  0.72461555836E+02  0.69999981166E+02 0.  0.
        -12    1    1    2    0    0 -0.11810140248E+02 -0.89789863031E+01  0.11427077636E+02  0.18726444164E+02  0.00000000000E+00 0.  1.
         11    1    3    3    0    0  0.19986578166E+02  0.18742799042E+02 -0.21542742683E+02  0.34854635061E+02  0.51100000000E-03 0. -1.
        -11    1    3    3    0    0  0.48583954292E+01  0.69491596622E+01 -0.64930375089E+01  0.10679623706E+02  0.51100000000E-03 0.  1.
        -12    1    3    3    0    0 -0.13034833347E+02 -0.16712972401E+02  0.16608702556E+02  0.26927297069E+02  0.00000000000E+00 0.  1.
</event>
<event>
 7    1  0.2710146E-013  0.7246152E+02  0.7816164E-02  0.1226708E+00
        -11   -1    0    0    0    0  0.00000000000E+00  0.00000000000E+00  0.45593999997E+02  0.45594000000E+02  0.51100000000E-03 0.  1.
         11   -1    0    0    0    0 -0.00000000000E+00 -0.00000000000E+00 -0.45593999997E+02  0.45594000000E+02  0.51100000000E-03 0. -1.
    9900012    2    1    2    0    0  0.17161919835E+02 -0.51614758343E+01  0.54322032477E+01  0.72461517219E+02  0.69999930860E+02 0.  0.
        -12    1    1    2    0    0 -0.17161919835E+02  0.51614758343E+01 -0.54322032477E+01  0.18726482781E+02  0.00000000000E+00 0.  1.
         11    1    3    3    0    0 -0.84519913695E+01 -0.58910076225E+01  0.32481890150E+01  0.10802354422E+02  0.51100000000E-03 0. -1.
        -11    1    3    3    0    0  0.47476484839E+00  0.24104257532E+02  0.10567289357E+02  0.26323150219E+02  0.51100000000E-03 0.  1.
         12    1    3    3    0    0  0.25139146356E+02 -0.23374725744E+02 -0.83832751249E+01  0.35336012578E+02  0.00000000000E+00 0. -1.
</event>
<event>
 7    1  0.2710146E-013  0.7246153E+02  0.7816164E-02  0.1226708E+00
        -11   -1    0    0    0    0  0.00000000000E+00  0.00000000000E+00  0.45593999997E+02  0.45594000000E+02  0.51100000000E-03 0.  1.
         11   -1    0    0    0    0 -0.00000000000E+00 -0.00000000000E+00 -0.45593999997E+02  0.45594000000E+02  0.51100000000E-03 0. -1.
    9900012    2    1    2    0    0 -0.18139877639E+02  0.38686234551E+01  0.25805335778E+01  0.72461533122E+02  0.69999951576E+02 0.  0.
        -12    1    1    2    0    0  0.18139877639E+02 -0.38686234551E+01 -0.25805335778E+01  0.18726466878E+02  0.00000000000E+00 0.  1.
         11    1    3    3    0    0 -0.72781420522E+01  0.19563349425E+02  0.95081181161E+00  0.20894976330E+02  0.51100000000E-03 0.  1.
        -11    1    3    3    0    0 -0.85959331672E+01 -0.22034703183E+02  0.20644834257E+02  0.31394703265E+02  0.51100000000E-03 0. -1.
         12    1    3    3    0    0 -0.22658024194E+01  0.63399772125E+01 -0.19015112491E+02  0.20171853527E+02  0.00000000000E+00 0. -1.
</event>
<event>
 7    1  0.2710146E-013  0.7246157E+02  0.7816164E-02  0.1226708E+00
        -11   -1    0    0    0    0  0.00000000000E+00  0.00000000000E+00  0.45593999997E+02  0.45594000000E+02  0.51100000000E-03 0.  1.
         11   -1    0    0    0    0 -0.00000000000E+00 -0.00000000000E+00 -0.45593999997E+02  0.45594000000E+02  0.51100000000E-03 0. -1.
    9900012    2    1    2    0    0  0.14905635850E+02 -0.48559085318E+01 -0.10243105379E+02  0.72461573871E+02  0.70000004659E+02 0.  0.
        -12    1    1    2    0    0 -0.14905635850E+02  0.48559085318E+01  0.10243105379E+02  0.18726426129E+02  0.00000000000E+00 0.  1.
         11    1    3    3    0    0 -0.11553626445E+02 -0.69938328467E+01 -0.36248144630E+01  0.13983535393E+02  0.51100000000E-03 0. -1.
        -11    1    3    3    0    0  0.31694571545E+02 -0.42898453276E+01  0.14998840025E+02  0.35325823992E+02  0.51100000000E-03 0.  1.
         12    1    3    3    0    0 -0.52353092496E+01  0.64277696425E+01 -0.21617130941E+02  0.23152214487E+02  0.00000000000E+00 0. -1.
</event>
<event>
 7    1  0.2710146E-013  0.7246155E+02  0.7816164E-02  0.1226708E+00
        -11   -1    0    0    0    0  0.00000000000E+00  0.00000000000E+00  0.45593999997E+02  0.45594000000E+02  0.51100000000E-03 0.  1.
         11   -1    0    0    0    0 -0.00000000000E+00 -0.00000000000E+00 -0.45593999997E+02  0.45594000000E+02  0.51100000000E-03 0. -1.
    9900012    2    1    2    0    0 -0.18340291652E+02  0.37544697829E+01  0.46652643251E+00  0.72461548437E+02  0.69999971527E+02 0.  0.
        -12    1    1    2    0    0  0.18340291652E+02 -0.37544697829E+01 -0.46652643251E+00  0.18726451563E+02  0.00000000000E+00 0.  1.
         11    1    3    3    0    0 -0.68705612904E+01 -0.17176441171E+02 -0.13791940382E+02  0.23074929328E+02  0.51100000000E-03 0. -1.
        -11    1    3    3    0    0  0.48497324104E+01 -0.50509866383E+01 -0.86258936780E+01  0.11110284086E+02  0.51100000000E-03 0.  1.
        -12    1    3    3    0    0 -0.16319462772E+02  0.25981897592E+02  0.22884360492E+02  0.38276335023E+02  0.00000000000E+00 0.  1.
</event>
<event>
 7    1  0.2710146E-013  0.7246155E+02  0.7816164E-02  0.1226708E+00
        -11   -1    0    0    0    0  0.00000000000E+00  0.00000000000E+00  0.45593999997E+02  0.45594000000E+02  0.51100000000E-03 0.  1.
         11   -1    0    0    0    0 -0.00000000000E+00 -0.00000000000E+00 -0.45593999997E+02  0.45594000000E+02  0.51100000000E-03 0. -1.
    9900012    2    1    2    0    0  0.14292308032E+02 -0.31787134170E+01 -0.11674998688E+02  0.72461551264E+02  0.69999975210E+02 0.  0.
        -12    1    1    2    0    0 -0.14292308032E+02  0.31787134170E+01  0.11674998688E+02  0.18726448736E+02  0.00000000000E+00 0.  1.
         11    1    3    3    0    0  0.25417291600E+02 -0.14806174202E+01  0.86732795315E+01  0.26897150747E+02  0.51100000000E-03 0. -1.
        -11    1    3    3    0    0  0.82805059421E+01 -0.13563471219E+02 -0.13864233396E+01  0.15951698973E+02  0.51100000000E-03 0.  1.
         12    1    3    3    0    0 -0.19405489510E+02  0.11865375222E+02 -0.18961854880E+02  0.29612701545E+02  0.00000000000E+00 0. -1.
</event>
<event>
 7    1  0.2710146E-013  0.7246157E+02  0.7816164E-02  0.1226708E+00
        -11   -1    0    0    0    0  0.00000000000E+00  0.00000000000E+00  0.45593999997E+02  0.45594000000E+02  0.51100000000E-03 0. -1.
         11   -1    0    0    0    0 -0.00000000000E+00 -0.00000000000E+00 -0.45593999997E+02  0.45594000000E+02  0.51100000000E-03 0.  1.
    9900012    2    1    2    0    0 -0.69404970367E+01 -0.55784127309E+01  0.16473915620E+02  0.72461572590E+02  0.70000002990E+02 0.  0.
        -12    1    1    2    0    0  0.69404970367E+01  0.55784127309E+01 -0.16473915620E+02  0.18726427410E+02  0.00000000000E+00 0.  1.
         11    1    3    3    0    0  0.18671840573E+02  0.10986760600E+02  0.22961790985E+01  0.21785751711E+02  0.51100000000E-03 0. -1.
        -11    1    3    3    0    0 -0.65157027080E+01  0.11399310983E+02 -0.17641558225E+01  0.13248053392E+02  0.51100000000E-03 0.  1.
         12    1    3    3    0    0 -0.19096634902E+02 -0.27964484314E+02  0.15941892344E+02  0.37427767487E+02  0.00000000000E+00 0. -1.
</event>
<event>
 7    1  0.2710146E-013  0.7246162E+02  0.7816164E-02  0.1226708E+00
        -11   -1    0    0    0    0  0.00000000000E+00  0.00000000000E+00  0.45593999997E+02  0.45594000000E+02  0.51100000000E-03 0.  1.
         11   -1    0    0    0    0 -0.00000000000E+00 -0.00000000000E+00 -0.45593999997E+02  0.45594000000E+02  0.51100000000E-03 0. -1.
    9900012    2    1    2    0    0  0.94828930329E+01  0.10108932146E+02 -0.12592117672E+02  0.72461622965E+02  0.70000068613E+02 0.  0.
        -12    1    1    2    0    0 -0.94828930329E+01 -0.10108932146E+02  0.12592117672E+02  0.18726377035E+02  0.00000000000E+00 0.  1.
         11    1    3    3    0    0 -0.10231783530E+01 -0.42390281646E+01 -0.87358286247E+01  0.97637572554E+01  0.51100000000E-03 0.  1.
        -11    1    3    3    0    0  0.20978683618E+02  0.10462196132E+02  0.23472657691E+02  0.33174212479E+02  0.51100000000E-03 0. -1.
         12    1    3    3    0    0 -0.10472612232E+02  0.38857641783E+01 -0.27328946738E+02  0.29523653230E+02  0.00000000000E+00 0. -1.
</event>
<event>
 7    1  0.2710146E-013  0.7246154E+02  0.7816164E-02  0.1226708E+00
        -11   -1    0    0    0    0  0.00000000000E+00  0.00000000000E+00  0.45593999997E+02  0.45594000000E+02  0.51100000000E-03 0.  1.
         11   -1    0    0    0    0 -0.00000000000E+00 -0.00000000000E+00 -0.45593999997E+02  0.45594000000E+02  0.51100000000E-03 0. -1.
    9900012    2    1    2    0    0 -0.14063651876E+02 -0.89080410178E+01  0.85755840657E+01  0.72461544357E+02  0.69999966212E+02 0.  0.
        -12    1    1    2    0    0  0.14063651876E+02  0.89080410178E+01 -0.85755840657E+01  0.18726455643E+02  0.00000000000E+00 0.  1.
         11    1    3    3    0    0  0.13413673707E+01  0.16333783135E+01  0.73251668780E+01  0.76239924704E+01  0.51100000000E-03 0. -1.
        -11    1    3    3    0    0 -0.25251911174E+01  0.15087870816E+02  0.23840457968E+02  0.28326451813E+02  0.51100000000E-03 0.  1.
         12    1    3    3    0    0 -0.12879828130E+02 -0.25629290147E+02 -0.22590040781E+02  0.36511100073E+02  0.00000000000E+00 0. -1.
</event>
<event>
 7    1  0.2710146E-013  0.7246155E+02  0.7816164E-02  0.1226708E+00
        -11   -1    0    0    0    0  0.00000000000E+00  0.00000000000E+00  0.45593999997E+02  0.45594000000E+02  0.51100000000E-03 0.  1.
         11   -1    0    0    0    0 -0.00000000000E+00 -0.00000000000E+00 -0.45593999997E+02  0.45594000000E+02  0.51100000000E-03 0. -1.
    9900012    2    1    2    0    0  0.38623073728E+01  0.25148231399E+01 -0.18150435207E+02  0.72461546735E+02  0.69999969310E+02 0.  0.
        -12    1    1    2    0    0 -0.38623073728E+01 -0.25148231399E+01  0.18150435207E+02  0.18726453265E+02  0.00000000000E+00 0.  1.
         11    1    3    3    0    0 -0.11054302922E+02  0.68889003890E+00 -0.35406318800E+01  0.11627908537E+02  0.51100000000E-03 0.  1.
        -11    1    3    3    0    0 -0.60141818212E+01  0.17563896241E+02 -0.26269755739E+02  0.32167699654E+02  0.51100000000E-03 0. -1.
        -12    1    3    3    0    0  0.20930792116E+02 -0.15737963140E+02  0.11659952412E+02  0.28665938545E+02  0.00000000000E+00 0.  1.
</event>
<event>
 7    1  0.2710146E-013  0.7246160E+02  0.7816164E-02  0.1226708E+00
        -11   -1    0    0    0    0  0.00000000000E+00  0.00000000000E+00  0.45593999997E+02  0.45594000000E+02  0.51100000000E-03 0. -1.
         11   -1    0    0    0    0 -0.00000000000E+00 -0.00000000000E+00 -0.45593999997E+02  0.45594000000E+02  0.51100000000E-03 0.  1.
    9900012    2    1    2    0    0 -0.12425948160E+02 -0.10607963637E+02 -0.91512383504E+01  0.72461595018E+02  0.70000032207E+02 0.  0.
        -12    1    1    2    0    0  0.12425948160E+02  0.10607963637E+02  0.91512383504E+01  0.18726404982E+02  0.00000000000E+00 0.  1.
         11    1    3    3    0    0  0.25528417113E+01  0.10847401883E+02  0.32318291257E+01  0.11602924121E+02  0.51100000000E-03 0. -1.
        -11    1    3    3    0    0 -0.52723610820E+01  0.38906128909E+01  0.18569707679E+02  0.19691843581E+02  0.51100000000E-03 0.  1.
         12    1    3    3    0    0 -0.97064287893E+01 -0.25345978411E+02 -0.30952775155E+02  0.41166827316E+02  0.00000000000E+00 0. -1.
</event>
<event>
 7    1  0.2710146E-013  0.7246156E+02  0.7816164E-02  0.1226708E+00
        -11   -1    0    0    0    0  0.00000000000E+00  0.00000000000E+00  0.45593999997E+02  0.45594000000E+02  0.51100000000E-03 0.  1.
         11   -1    0    0    0    0 -0.00000000000E+00 -0.00000000000E+00 -0.45593999997E+02  0.45594000000E+02  0.51100000000E-03 0. -1.
    9900012    2    1    2    0    0  0.13579966640E+02 -0.96444747171E+01 -0.85585064290E+01  0.72461563638E+02  0.69999991330E+02 0.  0.
        -12    1    1    2    0    0 -0.13579966640E+02  0.96444747171E+01  0.85585064290E+01  0.18726436362E+02  0.00000000000E+00 0.  1.
         11    1    3    3    0    0 -0.13301708115E+02 -0.13262427870E+01 -0.27856686130E+02  0.30898047206E+02  0.51100000000E-03 0. -1.
        -11    1    3    3    0    0 -0.34208597036E+01 -0.15244670090E+01 -0.16617703015E+01  0.40972870987E+01  0.51100000000E-03 0.  1.
        -12    1    3    3    0    0  0.30302534458E+02 -0.67937649212E+01  0.20959950003E+02  0.37466229334E+02  0.00000000000E+00 0.  1.
</event>
<event>
 7    1  0.2710146E-013  0.7246169E+02  0.7816164E-02  0.1226708E+00
        -11   -1    0    0    0    0  0.00000000000E+00  0.00000000000E+00  0.45593999997E+02  0.45594000000E+02  0.51100000000E-03 0. -1.
         11   -1    0    0    0    0 -0.00000000000E+00 -0.00000000000E+00 -0.45593999997E+02  0.45594000000E+02  0.51100000000E-03 0.  1.
    9900012    2    1    2    0    0 -0.12649237136E+02  0.10842693204E+02  0.85502847933E+01  0.72461693208E+02  0.70000160117E+02 0.  0.
        -12    1    1    2    0    0  0.12649237136E+02 -0.10842693204E+02 -0.85502847933E+01  0.18726306792E+02  0.00000000000E+00 0.  1.
         11    1    3    3    0    0  0.15106805312E+02 -0.16040220593E+01 -0.96581005456E+01  0.18001871012E+02  0.51100000000E-03 0. -1.
        -11    1    3    3    0    0 -0.21620223182E+01 -0.14052857434E+02  0.26259666480E+01  0.14458659816E+02  0.51100000000E-03 0.  1.
         12    1    3    3    0    0 -0.25594020130E+02  0.26499572697E+02  0.15582418691E+02  0.40001162381E+02  0.00000000000E+00 0. -1.
</event>
<event>
 7    1  0.2710146E-013  0.7246157E+02  0.7816164E-02  0.1226708E+00
        -11   -1    0    0    0    0  0.00000000000E+00  0.00000000000E+00  0.45593999997E+02  0.45594000000E+02  0.51100000000E-03 0.  1.
         11   -1    0    0    0    0 -0.00000000000E+00 -0.00000000000E+00 -0.45593999997E+02  0.45594000000E+02  0.51100000000E-03 0. -1.
    9900012    2    1    2    0    0  0.18317992082E+02  0.28065566249E+01 -0.26932359025E+01  0.72461571787E+02  0.70000001944E+02 0.  0.
        -12    1    1    2    0    0 -0.18317992082E+02 -0.28065566249E+01  0.26932359025E+01  0.18726428213E+02  0.00000000000E+00 0.  1.
         11    1    3    3    0    0 -0.22718713702E+01  0.99612177536E+01  0.14462627826E+02  0.17707480412E+02  0.51100000000E-03 0. -1.
        -11    1    3    3    0    0 -0.14753928299E+02 -0.58500274513E+01 -0.10914753615E+01  0.15908882429E+02  0.51100000000E-03 0.  1.
         12    1    3    3    0    0  0.35343791751E+02 -0.13046336773E+01 -0.16064388367E+02  0.38845208945E+02  0.00000000000E+00 0. -1.
</event>
<event>
 7    1  0.2710146E-013  0.7246148E+02  0.7816164E-02  0.1226708E+00
        -11   -1    0    0    0    0  0.00000000000E+00  0.00000000000E+00  0.45593999997E+02  0.45594000000E+02  0.51100000000E-03 0. -1.
         11   -1    0    0    0    0 -0.00000000000E+00 -0.00000000000E+00 -0.45593999997E+02  0.45594000000E+02  0.51100000000E-03 0.  1.
    9900012    2    1    2    0    0  0.14868395084E+02  0.10964824681E+02  0.30636438480E+01  0.72461482270E+02  0.69999885332E+02 0.  0.
        -12    1    1    2    0    0 -0.14868395084E+02 -0.10964824681E+02 -0.30636438480E+01  0.18726517730E+02  0.00000000000E+00 0.  1.
         11    1    3    3    0    0  0.31048541291E+01 -0.62110574587E+01 -0.19855562145E+02  0.21034749874E+02  0.51100000000E-03 0. -1.
        -11    1    3    3    0    0  0.66196335005E+01 -0.61152755407E+01 -0.82228387899E+01  0.12199640185E+02  0.51100000000E-03 0.  1.
         12    1    3    3    0    0  0.51439074547E+01  0.23291157681E+02  0.31142044783E+02  0.39227092210E+02  0.00000000000E+00 0. -1.
</event>
<event>
 7    1  0.2710146E-013  0.7246158E+02  0.7816164E-02  0.1226708E+00
        -11   -1    0    0    0    0  0.00000000000E+00  0.00000000000E+00  0.45593999997E+02  0.45594000000E+02  0.51100000000E-03 0.  1.
         11   -1    0    0    0    0 -0.00000000000E+00 -0.00000000000E+00 -0.45593999997E+02  0.45594000000E+02  0.51100000000E-03 0. -1.
    9900012    2    1    2    0    0  0.17318268157E+02 -0.34319315900E+01 -0.62432414426E+01  0.72461584697E+02  0.70000018762E+02 0.  0.
        -12    1    1    2    0    0 -0.17318268157E+02  0.34319315900E+01  0.62432414426E+01  0.18726415303E+02  0.00000000000E+00 0.  1.
         11    1    3    3    0    0  0.82318637497E+01  0.18266008131E+02  0.11168216357E+02  0.22937735082E+02  0.51100000000E-03 0. -1.
        -11    1    3    3    0    0  0.13267426158E+02  0.75167639230E+01 -0.12258048185E+02  0.19564919685E+02  0.51100000000E-03 0.  1.
        -12    1    3    3    0    0 -0.41810217505E+01 -0.29214703644E+02 -0.51534096140E+01  0.29958929930E+02  0.00000000000E+00 0.  1.
</event>
<event>
 7    1  0.2710146E-013  0.7246157E+02  0.7816164E-02  0.1226708E+00
        -11   -1    0    0    0    0  0.00000000000E+00  0.00000000000E+00  0.45593999997E+02  0.45594000000E+02  0.51100000000E-03 0.  1.
         11   -1    0    0    0    0 -0.00000000000E+00 -0.00000000000E+00 -0.45593999997E+02  0.45594000000E+02  0.51100000000E-03 0. -1.
    9900012    2    1    2    0    0  0.12682442504E+02  0.13711012186E+02  0.13576200063E+01  0.72461565873E+02  0.69999994240E+02 0.  0.
        -12    1    1    2    0    0 -0.12682442504E+02 -0.13711012186E+02 -0.13576200063E+01  0.18726434127E+02  0.00000000000E+00 0.  1.
         11    1    3    3    0    0 -0.35466010756E+01 -0.79421789383E+01 -0.53445898919E+01  0.10208879804E+02  0.51100000000E-03 0. -1.
        -11    1    3    3    0    0  0.33664753044E+02  0.38727980425E+01  0.13439694736E+02  0.36454623261E+02  0.51100000000E-03 0.  1.
         12    1    3    3    0    0 -0.17435709465E+02  0.17780393082E+02 -0.67374848381E+01  0.25798062808E+02  0.00000000000E+00 0. -1.
</event>
<event>
 7    1  0.2710146E-013  0.7246147E+02  0.7816164E-02  0.1226708E+00
        -11   -1    0    0    0    0  0.00000000000E+00  0.00000000000E+00  0.45593999997E+02  0.45594000000E+02  0.51100000000E-03 0. -1.
         11   -1    0    0    0    0 -0.00000000000E+00 -0.00000000000E+00 -0.45593999997E+02  0.45594000000E+02  0.51100000000E-03 0.  1.
    9900012    2    1    2    0    0 -0.13755215390E+00 -0.18258833914E+02 -0.41567930704E+01  0.72461471621E+02  0.69999871460E+02 0.  0.
        -12    1    1    2    0    0  0.13755215390E+00  0.18258833914E+02  0.41567930704E+01  0.18726528379E+02  0.00000000000E+00 0.  1.
         11    1    3    3    0    0  0.82408388105E+01 -0.82096478547E+01 -0.74094938435E+01  0.13791676529E+02  0.51100000000E-03 0. -1.
        -11    1    3    3    0    0  0.62958826540E+01  0.11219308472E+02 -0.20084495905E+02  0.23851582694E+02  0.51100000000E-03 0.  1.
         12    1    3    3    0    0 -0.14674273618E+02 -0.21268494531E+02  0.23337196678E+02  0.34818212399E+02  0.00000000000E+00 0. -1.
</event>
<event>
 7    1  0.2710146E-013  0.7246163E+02  0.7816164E-02  0.1226708E+00
        -11   -1    0    0    0    0  0.00000000000E+00  0.00000000000E+00  0.45593999997E+02  0.45594000000E+02  0.51100000000E-03 0.  1.
         11   -1    0    0    0    0 -0.00000000000E+00 -0.00000000000E+00 -0.45593999997E+02  0.45594000000E+02  0.51100000000E-03 0. -1.
    9900012    2    1    2    0    0  0.51105738989E+01  0.26155014139E+01  0.17824651564E+02  0.72461627778E+02  0.70000074883E+02 0.  0.
        -12    1    1    2    0    0 -0.51105738989E+01 -0.26155014139E+01 -0.17824651564E+02  0.18726372222E+02  0.00000000000E+00 0.  1.
         11    1    3    3    0    0 -0.93825976059E+01  0.17039902004E+02 -0.95079617881E+01  0.21651622012E+02  0.51100000000E-03 0. -1.
        -11    1    3    3    0    0 -0.28414976975E+01  0.10043885105E+02  0.30786009862E+00  0.10442629710E+02  0.51100000000E-03 0.  1.
        -12    1    3    3    0    0  0.17334669202E+02 -0.24468285695E+02  0.27024753253E+02  0.40367376055E+02  0.00000000000E+00 0.  1.
</event>
<event>
 7    1  0.2710146E-013  0.7246176E+02  0.7816164E-02  0.1226708E+00
        -11   -1    0    0    0    0  0.00000000000E+00  0.00000000000E+00  0.45593999997E+02  0.45594000000E+02  0.51100000000E-03 0.  1.
         11   -1    0    0    0    0 -0.00000000000E+00 -0.00000000000E+00 -0.45593999997E+02  0.45594000000E+02  0.51100000000E-03 0. -1.
    9900012    2    1    2    0    0 -0.62416330219E+01  0.12741804000E+02 -0.12221314471E+02  0.72461759604E+02  0.70000246611E+02 0.  0.
        -12    1    1    2    0    0  0.62416330219E+01 -0.12741804000E+02  0.12221314471E+02  0.18726240396E+02  0.00000000000E+00 0.  1.
         11    1    3    3    0    0  0.11176275027E+02 -0.21427525495E+02  0.45003030742E+01  0.24582528355E+02  0.51100000000E-03 0. -1.
        -11    1    3    3    0    0  0.55943060499E+01  0.85118874019E+01 -0.18973938517E+01  0.10360916514E+02  0.51100000000E-03 0.  1.
        -12    1    3    3    0    0 -0.23012214099E+02  0.25657442093E+02 -0.14824223694E+02  0.37518314735E+02  0.00000000000E+00 0.  1.
</event>
<event>
 7    1  0.2710146E-013  0.7246156E+02  0.7816164E-02  0.1226708E+00
        -11   -1    0    0    0    0  0.00000000000E+00  0.00000000000E+00  0.45593999997E+02  0.45594000000E+02  0.51100000000E-03 0.  1.
         11   -1    0    0    0    0 -0.00000000000E+00 -0.00000000000E+00 -0.45593999997E+02  0.45594000000E+02  0.51100000000E-03 0. -1.
    9900012    2    1    2    0    0 -0.69997365323E+01 -0.17071236415E+02  0.32024911725E+01  0.72461564835E+02  0.69999992889E+02 0.  0.
        -12    1    1    2    0    0  0.69997365323E+01  0.17071236415E+02 -0.32024911725E+01  0.18726435165E+02  0.00000000000E+00 0.  1.
         11    1    3    3    0    0 -0.12583917690E+02 -0.36397663317E+02  0.13072160613E+01  0.38533799364E+02  0.51100000000E-03 0. -1.
        -11    1    3    3    0    0 -0.49291655340E+01  0.78698399030E+01  0.12156751311E+02  0.15297635623E+02  0.51100000000E-03 0.  1.
        -12    1    3    3    0    0  0.10513346692E+02  0.11456586999E+02 -0.10261476200E+02  0.18630129847E+02  0.00000000000E+00 0.  1.
</event>
<event>
 7    1  0.2710146E-013  0.7246162E+02  0.7816164E-02  0.1226708E+00
        -11   -1    0    0    0    0  0.00000000000E+00  0.00000000000E+00  0.45593999997E+02  0.45594000000E+02  0.51100000000E-03 0.  1.
         11   -1    0    0    0    0 -0.00000000000E+00 -0.00000000000E+00 -0.45593999997E+02  0.45594000000E+02  0.51100000000E-03 0. -1.
    9900012    2    1    2    0    0 -0.62671079795E+01  0.17277050542E+02 -0.35922198494E+01  0.72461623915E+02  0.70000069850E+02 0.  0.
        -12    1    1    2    0    0  0.62671079795E+01 -0.17277050542E+02  0.35922198494E+01  0.18726376085E+02  0.00000000000E+00 0.  1.
         11    1    3    3    0    0 -0.49264905083E+01  0.33075492947E+01 -0.11553243048E+02  0.12987979683E+02  0.51100000000E-03 0. -1.
        -11    1    3    3    0    0  0.24472178722E+02 -0.18841721482E+01 -0.72275148264E+01  0.25586609915E+02  0.51100000000E-03 0.  1.
        -12    1    3    3    0    0 -0.25812796193E+02  0.15853673395E+02  0.15188538025E+02  0.33887034317E+02  0.00000000000E+00 0.  1.
</event>
<event>
 7    1  0.2710146E-013  0.7246151E+02  0.7816164E-02  0.1226708E+00
        -11   -1    0    0    0    0  0.00000000000E+00  0.00000000000E+00  0.45593999997E+02  0.45594000000E+02  0.51100000000E-03 0. -1.
         11   -1    0    0    0    0 -0.00000000000E+00 -0.00000000000E+00 -0.45593999997E+02  0.45594000000E+02  0.51100000000E-03 0.  1.
    9900012    2    1    2    0    0  0.73363310199E+01  0.19724252567E+01  0.17116346764E+02  0.72461506982E+02  0.69999917524E+02 0.  0.
        -12    1    1    2    0    0 -0.73363310199E+01 -0.19724252567E+01 -0.17116346764E+02  0.18726493018E+02  0.00000000000E+00 0.  1.
         11    1    3    3    0    0 -0.29184823064E+01  0.21295740214E+02  0.19466311231E+02  0.28999368328E+02  0.51100000000E-03 0. -1.
        -11    1    3    3    0    0  0.15579817663E+02  0.63771651122E+01 -0.34844691478E+01  0.17191290783E+02  0.51100000000E-03 0.  1.
        -12    1    3    3    0    0 -0.53250043365E+01 -0.25700480070E+02  0.11345046804E+01  0.26270847871E+02  0.00000000000E+00 0.  1.
</event>
<event>
 7    1  0.2710146E-013  0.7246158E+02  0.7816164E-02  0.1226708E+00
        -11   -1    0    0    0    0  0.00000000000E+00  0.00000000000E+00  0.45593999997E+02  0.45594000000E+02  0.51100000000E-03 0.  1.
         11   -1    0    0    0    0 -0.00000000000E+00 -0.00000000000E+00 -0.45593999997E+02  0.45594000000E+02  0.51100000000E-03 0. -1.
    9900012    2    1    2    0    0  0.18643093552E+02  0.17402800039E+01  0.29200047825E+00  0.72461580802E+02  0.70000013688E+02 0.  0.
        -12    1    1    2    0    0 -0.18643093552E+02 -0.17402800039E+01 -0.29200047825E+00  0.18726419198E+02  0.00000000000E+00 0.  1.
         11    1    3    3    0    0  0.13126427137E+02 -0.11020836952E+02  0.14688543278E+02  0.22572444272E+02  0.51100000000E-03 0. -1.
        -11    1    3    3    0    0  0.14906355186E+02  0.18295370574E+02  0.80516254691E+01  0.24934888857E+02  0.51100000000E-03 0.  1.
        -12    1    3    3    0    0 -0.93896887701E+01 -0.55342536172E+01 -0.22448168269E+02  0.24954247673E+02  0.00000000000E+00 0.  1.
</event>
<event>
 7    1  0.2710146E-013  0.7246187E+02  0.7816164E-02  0.1226707E+00
        -11   -1    0    0    0    0  0.00000000000E+00  0.00000000000E+00  0.45593999997E+02  0.45594000000E+02  0.51100000000E-03 0.  1.
         11   -1    0    0    0    0 -0.00000000000E+00 -0.00000000000E+00 -0.45593999997E+02  0.45594000000E+02  0.51100000000E-03 0. -1.
    9900012    2    1    2    0    0  0.13642320949E+02 -0.52936914264E+00  0.12816970470E+02  0.72461871606E+02  0.70000392514E+02 0.  0.
        -12    1    1    2    0    0 -0.13642320949E+02  0.52936914264E+00 -0.12816970470E+02  0.18726128394E+02  0.00000000000E+00 0.  1.
         11    1    3    3    0    0 -0.34405767783E+01 -0.31135957589E+01  0.40345222576E+01  0.61489362678E+01  0.51100000000E-03 0. -1.
        -11    1    3    3    0    0  0.36248352782E+01  0.30534473036E+02  0.15706487200E+02  0.34528064162E+02  0.51100000000E-03 0.  1.
        -12    1    3    3    0    0  0.13458062449E+02 -0.27950246419E+02 -0.69240389873E+01  0.31784871176E+02  0.00000000000E+00 0.  1.
</event>
<event>
 7    1  0.2710146E-013  0.7246157E+02  0.7816164E-02  0.1226708E+00
        -11   -1    0    0    0    0  0.00000000000E+00  0.00000000000E+00  0.45593999997E+02  0.45594000000E+02  0.51100000000E-03 0. -1.
         11   -1    0    0    0    0 -0.00000000000E+00 -0.00000000000E+00 -0.45593999997E+02  0.45594000000E+02  0.51100000000E-03 0.  1.
    9900012    2    1    2    0    0  0.15188543701E+02  0.10566416162E+02 -0.28875627444E+01  0.72461574050E+02  0.70000004893E+02 0.  0.
        -12    1    1    2    0    0 -0.15188543701E+02 -0.10566416162E+02  0.28875627444E+01  0.18726425950E+02  0.00000000000E+00 0.  1.
         11    1    3    3    0    0 -0.43544657288E+01 -0.99857453350E+01 -0.49627392549E+00  0.10905171697E+02  0.51100000000E-03 0. -1.
        -11    1    3    3    0    0  0.22393223107E+02 -0.79384860918E+01 -0.17190038826E+02  0.29325303709E+02  0.51100000000E-03 0.  1.
         12    1    3    3    0    0 -0.28502136770E+01  0.28490647588E+02  0.14798750007E+02  0.32231098644E+02  0.00000000000E+00 0. -1.
</event>
<event>
 7    1  0.2710146E-013  0.7246151E+02  0.7816164E-02  0.1226708E+00
        -11   -1    0    0    0    0  0.00000000000E+00  0.00000000000E+00  0.45593999997E+02  0.45594000000E+02  0.51100000000E-03 0. -1.
         11   -1    0    0    0    0 -0.00000000000E+00 -0.00000000000E+00 -0.45593999997E+02  0.45594000000E+02  0.51100000000E-03 0.  1.
    9900012    2    1    2    0    0  0.34353402101E+01 -0.40422447662E+01  0.17959406946E+02  0.72461505322E+02  0.69999915361E+02 0.  0.
        -12    1    1    2    0    0 -0.34353402101E+01  0.40422447662E+01 -0.17959406946E+02  0.18726494678E+02  0.00000000000E+00 0.  1.
         11    1    3    3    0    0  0.14340674560E+02  0.10755440384E+02  0.29977329614E+02  0.34928136735E+02  0.51100000000E-03 0. -1.
        -11    1    3    3    0    0 -0.17343609409E+01 -0.13860890066E+02  0.75673102348E+01  0.15886990456E+02  0.51100000000E-03 0.  1.
         12    1    3    3    0    0 -0.91709734090E+01 -0.93679508451E+00 -0.19585232903E+02  0.21646378131E+02  0.00000000000E+00 0. -1.
</event>
<event>
 7    1  0.2710146E-013  0.7246159E+02  0.7816164E-02  0.1226708E+00
        -11   -1    0    0    0    0  0.00000000000E+00  0.00000000000E+00  0.45593999997E+02  0.45594000000E+02  0.51100000000E-03 0. -1.
         11   -1    0    0    0    0 -0.00000000000E+00 -0.00000000000E+00 -0.45593999997E+02  0.45594000000E+02  0.51100000000E-03 0.  1.
    9900012    2    1    2    0    0  0.84857431168E+00  0.17457147861E+02  0.67235592531E+01  0.72461592474E+02  0.70000028893E+02 0.  0.
        -12    1    1    2    0    0 -0.84857431168E+00 -0.17457147861E+02 -0.67235592531E+01  0.18726407526E+02  0.00000000000E+00 0.  1.
         11    1    3    3    0    0 -0.31558204648E+01  0.76205657558E+01 -0.70023792737E+00  0.82778353850E+01  0.51100000000E-03 0. -1.
        -11    1    3    3    0    0 -0.10574258839E+02  0.31579342469E+02  0.15576830849E+02  0.36765574664E+02  0.51100000000E-03 0.  1.
         12    1    3    3    0    0  0.14578653616E+02 -0.21742760364E+02 -0.81530336688E+01  0.27418182425E+02  0.00000000000E+00 0. -1.
</event>
<event>
 7    1  0.3151932E-013  0.7246154E+02  0.7816164E-02  0.1226708E+00
        -11   -1    0    0    0    0  0.00000000000E+00  0.00000000000E+00  0.45593999997E+02  0.45594000000E+02  0.51100000000E-03 0. -1.
         11   -1    0    0    0    0 -0.00000000000E+00 -0.00000000000E+00 -0.45593999997E+02  0.45594000000E+02  0.51100000000E-03 0.  1.
    9900012    2    1    2    0    0  0.81172536732E+01 -0.33492219037E+01  0.16540052365E+02  0.72461536725E+02  0.69999956269E+02 0.  0.
        -12    1    1    2    0    0 -0.81172536732E+01  0.33492219037E+01 -0.16540052365E+02  0.18726463275E+02  0.00000000000E+00 0.  1.
         11    1    3    3    0    0  0.15681776519E+02  0.80459869699E+01  0.23682884994E+02  0.29521772694E+02  0.51100000000E-03 0. -1.
        -11    1    3    3    0    0  0.13745581000E+02 -0.14480897035E+02 -0.77025173646E+01  0.21400143691E+02  0.51100000000E-03 0.  1.
        -12    1    3    3    0    0 -0.21310103846E+02  0.30856881617E+01  0.55968473579E+00  0.21539620339E+02  0.00000000000E+00 0.  1.
</event>
<event>
 7    1  0.2710146E-013  0.7246159E+02  0.7816164E-02  0.1226708E+00
        -11   -1    0    0    0    0  0.00000000000E+00  0.00000000000E+00  0.45593999997E+02  0.45594000000E+02  0.51100000000E-03 0. -1.
         11   -1    0    0    0    0 -0.00000000000E+00 -0.00000000000E+00 -0.45593999997E+02  0.45594000000E+02  0.51100000000E-03 0.  1.
    9900012    2    1    2    0    0  0.44232462400E+01 -0.16798708995E+02  0.69940428467E+01  0.72461591734E+02  0.70000027930E+02 0.  0.
        -12    1    1    2    0    0 -0.44232462400E+01  0.16798708995E+02 -0.69940428467E+01  0.18726408266E+02  0.00000000000E+00 0.  1.
         11    1    3    3    0    0 -0.22506678385E+02  0.60000034922E+01  0.14809500449E+02  0.27602027419E+02  0.51100000000E-03 0. -1.
        -11    1    3    3    0    0  0.91283454228E+01 -0.14716886039E+02 -0.16081918573E+02  0.23633483241E+02  0.51100000000E-03 0.  1.
        -12    1    3    3    0    0  0.17801579202E+02 -0.80818264483E+01  0.82664609705E+01  0.21226081075E+02  0.00000000000E+00 0.  1.
</event>
<event>
 7    1  0.2710146E-013  0.7246159E+02  0.7816164E-02  0.1226708E+00
        -11   -1    0    0    0    0  0.00000000000E+00  0.00000000000E+00  0.45593999997E+02  0.45594000000E+02  0.51100000000E-03 0.  1.
         11   -1    0    0    0    0 -0.00000000000E+00 -0.00000000000E+00 -0.45593999997E+02  0.45594000000E+02  0.51100000000E-03 0. -1.
    9900012    2    1    2    0    0  0.77566745254E+01  0.20275366034E+01 -0.16923400990E+02  0.72461590695E+02  0.70000026576E+02 0.  0.
        -12    1    1    2    0    0 -0.77566745254E+01 -0.20275366034E+01  0.16923400990E+02  0.18726409305E+02  0.00000000000E+00 0.  1.
         11    1    3    3    0    0  0.55692133079E+01 -0.22704481012E+02 -0.19298322328E+02  0.30313938045E+02  0.51100000000E-03 0. -1.
        -11    1    3    3    0    0 -0.55691091682E+01  0.97919328524E+01 -0.14466960593E+02  0.18335481313E+02  0.51100000000E-03 0.  1.
        -12    1    3    3    0    0  0.77565703857E+01  0.14940084763E+02  0.16841881930E+02  0.23812171338E+02  0.00000000000E+00 0.  1.
</event>
<event>
 7    1  0.2710146E-013  0.7246206E+02  0.7816164E-02  0.1226707E+00
        -11   -1    0    0    0    0  0.00000000000E+00  0.00000000000E+00  0.45593999997E+02  0.45594000000E+02  0.51100000000E-03 0. -1.
         11   -1    0    0    0    0 -0.00000000000E+00 -0.00000000000E+00 -0.45593999997E+02  0.45594000000E+02  0.51100000000E-03 0.  1.
    9900012    2    1    2    0    0 -0.88602868635E+01 -0.12240085910E+02  0.11060577328E+02  0.72462061914E+02  0.70000640423E+02 0.  0.
        -12    1    1    2    0    0  0.88602868635E+01  0.12240085910E+02 -0.11060577328E+02  0.18725938086E+02  0.00000000000E+00 0.  1.
         11    1    3    3    0    0 -0.27864196670E+02  0.41763955613E+01  0.99424613306E+01  0.29878224069E+02  0.51100000000E-03 0. -1.
        -11    1    3    3    0    0  0.10156552756E+02 -0.48243194257E+01 -0.16340996694E+02  0.19835770593E+02  0.51100000000E-03 0.  1.
        -12    1    3    3    0    0  0.88473570506E+01 -0.11592162045E+02  0.17459112692E+02  0.22748067251E+02  0.00000000000E+00 0.  1.
</event>
<event>
 7    1  0.2710146E-013  0.7246150E+02  0.7816164E-02  0.1226708E+00
        -11   -1    0    0    0    0  0.00000000000E+00  0.00000000000E+00  0.45593999997E+02  0.45594000000E+02  0.51100000000E-03 0.  1.
         11   -1    0    0    0    0 -0.00000000000E+00 -0.00000000000E+00 -0.45593999997E+02  0.45594000000E+02  0.51100000000E-03 0. -1.
    9900012    2    1    2    0    0  0.11549462597E-01  0.18679453776E+02 -0.13265905808E+01  0.72461495539E+02  0.69999902617E+02 0.  0.
        -12    1    1    2    0    0 -0.11549462597E-01 -0.18679453776E+02  0.13265905808E+01  0.18726504461E+02  0.00000000000E+00 0.  1.
         11    1    3    3    0    0 -0.10020753176E+02 -0.10642172838E+02 -0.24144675381E+02  0.28224753081E+02  0.51100000000E-03 0. -1.
        -11    1    3    3    0    0  0.14721272365E+02  0.95307425567E+01  0.98205621353E+01  0.20099610808E+02  0.51100000000E-03 0.  1.
        -12    1    3    3    0    0 -0.46889697263E+01  0.19790884057E+02  0.12997522665E+02  0.24137131650E+02  0.00000000000E+00 0.  1.
</event>
<event>
 7    1  0.2710146E-013  0.7246156E+02  0.7816164E-02  0.1226708E+00
        -11   -1    0    0    0    0  0.00000000000E+00  0.00000000000E+00  0.45593999997E+02  0.45594000000E+02  0.51100000000E-03 0. -1.
         11   -1    0    0    0    0 -0.00000000000E+00 -0.00000000000E+00 -0.45593999997E+02  0.45594000000E+02  0.51100000000E-03 0.  1.
    9900012    2    1    2    0    0 -0.32528333804E+01  0.30068732641E+01 -0.18194985959E+02  0.72461555440E+02  0.69999980649E+02 0.  0.
        -12    1    1    2    0    0  0.32528333804E+01 -0.30068732641E+01  0.18194985959E+02  0.18726444560E+02  0.00000000000E+00 0.  1.
         11    1    3    3    0    0 -0.59551695794E+00  0.28340299386E+01 -0.18403975609E+02  0.18630423630E+02  0.51100000000E-03 0. -1.
        -11    1    3    3    0    0  0.61063908865E+01  0.28228214632E+01 -0.25588030887E+02  0.26457582195E+02  0.51100000000E-03 0.  1.
         12    1    3    3    0    0 -0.87637073090E+01 -0.26499781376E+01  0.25797020537E+02  0.27373549615E+02  0.00000000000E+00 0. -1.
</event>
<event>
 7    1  0.2710146E-013  0.7246159E+02  0.7816164E-02  0.1226708E+00
        -11   -1    0    0    0    0  0.00000000000E+00  0.00000000000E+00  0.45593999997E+02  0.45594000000E+02  0.51100000000E-03 0.  1.
         11   -1    0    0    0    0 -0.00000000000E+00 -0.00000000000E+00 -0.45593999997E+02  0.45594000000E+02  0.51100000000E-03 0. -1.
    9900012    2    1    2    0    0 -0.31613751515E+01  0.77103731321E+01 -0.16770044305E+02  0.72461587298E+02  0.70000022151E+02 0.  0.
        -12    1    1    2    0    0  0.31613751515E+01 -0.77103731321E+01  0.16770044305E+02  0.18726412702E+02  0.00000000000E+00 0.  1.
         11    1    3    3    0    0  0.52058447946E+01  0.17882197711E+02  0.13511294761E+02  0.23009322054E+02  0.51100000000E-03 0. -1.
        -11    1    3    3    0    0  0.37869862342E+01 -0.72786919269E+01  0.65887011824E+01  0.10522908554E+02  0.51100000000E-03 0.  1.
         12    1    3    3    0    0 -0.12154206180E+02 -0.28931326519E+01 -0.36870040248E+02  0.38929356690E+02  0.00000000000E+00 0. -1.
</event>
<event>
 7    1  0.2710146E-013  0.7246122E+02  0.7816164E-02  0.1226709E+00
        -11   -1    0    0    0    0  0.00000000000E+00  0.00000000000E+00  0.45593999997E+02  0.45594000000E+02  0.51100000000E-03 0.  1.
         11   -1    0    0    0    0 -0.00000000000E+00 -0.00000000000E+00 -0.45593999997E+02  0.45594000000E+02  0.51100000000E-03 0. -1.
    9900012    2    1    2    0    0 -0.40202663811E+01  0.10393663819E+02 -0.15049964841E+02  0.72461221551E+02  0.69999545696E+02 0.  0.
        -12    1    1    2    0    0  0.40202663811E+01 -0.10393663819E+02  0.15049964841E+02  0.18726778449E+02  0.00000000000E+00 0.  1.
         11    1    3    3    0    0  0.29723593219E+01 -0.30000211092E+01  0.62870323276E+01  0.75737587989E+01  0.51100000000E-03 0. -1.
        -11    1    3    3    0    0  0.46129412090E+00  0.32502010455E+02  0.34806635021E+01  0.32691107270E+02  0.51100000000E-03 0.  1.
         12    1    3    3    0    0 -0.74539198239E+01 -0.19108325527E+02 -0.24817660671E+02  0.32196355482E+02  0.00000000000E+00 0. -1.
</event>
<event>
 7    1  0.2710146E-013  0.7246137E+02  0.7816164E-02  0.1226709E+00
        -11   -1    0    0    0    0  0.00000000000E+00  0.00000000000E+00  0.45593999997E+02  0.45594000000E+02  0.51100000000E-03 0.  1.
         11   -1    0    0    0    0 -0.00000000000E+00 -0.00000000000E+00 -0.45593999997E+02  0.45594000000E+02  0.51100000000E-03 0. -1.
    9900012    2    1    2    0    0 -0.16098567831E+02  0.91232620654E+00 -0.95231471846E+01  0.72461373032E+02  0.69999743028E+02 0.  0.
        -12    1    1    2    0    0  0.16098567831E+02 -0.91232620654E+00  0.95231471846E+01  0.18726626968E+02  0.00000000000E+00 0.  1.
         11    1    3    3    0    0 -0.59907017833E+01 -0.11572162836E+02  0.58426138113E+01  0.14280742171E+02  0.51100000000E-03 0. -1.
        -11    1    3    3    0    0  0.33043465354E+01 -0.83824226669E+01  0.15896640100E+02  0.18272571864E+02  0.51100000000E-03 0.  1.
         12    1    3    3    0    0 -0.13412212583E+02  0.20866911709E+02 -0.31262401096E+02  0.39908058997E+02  0.00000000000E+00 0. -1.
</event>
<event>
 7    1  0.2710146E-013  0.7246162E+02  0.7816164E-02  0.1226708E+00
        -11   -1    0    0    0    0  0.00000000000E+00  0.00000000000E+00  0.45593999997E+02  0.45594000000E+02  0.51100000000E-03 0.  1.
         11   -1    0    0    0    0 -0.00000000000E+00 -0.00000000000E+00 -0.45593999997E+02  0.45594000000E+02  0.51100000000E-03 0. -1.
    9900012    2    1    2    0    0 -0.24912364271E+00  0.55670699011E+01 -0.17878004131E+02  0.72461618567E+02  0.70000062884E+02 0.  0.
        -12    1    1    2    0    0  0.24912364271E+00 -0.55670699011E+01  0.17878004131E+02  0.18726381433E+02  0.00000000000E+00 0.  1.
         11    1    3    3    0    0 -0.52222737005E+01 -0.14138626872E+01 -0.28512849309E+01  0.61156337627E+01  0.51100000000E-03 0. -1.
        -11    1    3    3    0    0  0.16704621966E+00 -0.23407374477E+02 -0.24763626860E+02  0.34075948994E+02  0.51100000000E-03 0.  1.
         12    1    3    3    0    0  0.48061038381E+01  0.30388307065E+02  0.97369076597E+01  0.32270035810E+02  0.00000000000E+00 0. -1.
</event>
<event>
 7    1  0.2710146E-013  0.7246153E+02  0.7816164E-02  0.1226708E+00
        -11   -1    0    0    0    0  0.00000000000E+00  0.00000000000E+00  0.45593999997E+02  0.45594000000E+02  0.51100000000E-03 0.  1.
         11   -1    0    0    0    0 -0.00000000000E+00 -0.00000000000E+00 -0.45593999997E+02  0.45594000000E+02  0.51100000000E-03 0. -1.
    9900012    2    1    2    0    0 -0.60104432558E+01  0.89260735175E+01 -0.15325809946E+02  0.72461530309E+02  0.69999947912E+02 0.  0.
        -12    1    1    2    0    0  0.60104432558E+01 -0.89260735175E+01  0.15325809946E+02  0.18726469691E+02  0.00000000000E+00 0.  1.
         11    1    3    3    0    0 -0.51851848165E+01  0.66513658790E+00  0.16395631768E+01  0.54787513116E+01  0.51100000000E-03 0. -1.
        -11    1    3    3    0    0 -0.28818476620E+02  0.82178147234E+01  0.62541101760E+01  0.30612921583E+02  0.51100000000E-03 0.  1.
         12    1    3    3    0    0  0.27993218181E+02  0.43122206172E-01 -0.23219483299E+02  0.36369857414E+02  0.00000000000E+00 0. -1.
</event>
<event>
 7    1  0.2710146E-013  0.7246164E+02  0.7816164E-02  0.1226708E+00
        -11   -1    0    0    0    0  0.00000000000E+00  0.00000000000E+00  0.45593999997E+02  0.45594000000E+02  0.51100000000E-03 0.  1.
         11   -1    0    0    0    0 -0.00000000000E+00 -0.00000000000E+00 -0.45593999997E+02  0.45594000000E+02  0.51100000000E-03 0. -1.
    9900012    2    1    2    0    0  0.54917286027E+01  0.13551477419E+02 -0.11699354129E+02  0.72461641296E+02  0.70000092493E+02 0.  0.
        -12    1    1    2    0    0 -0.54917286027E+01 -0.13551477419E+02  0.11699354129E+02  0.18726358704E+02  0.00000000000E+00 0.  1.
         11    1    3    3    0    0  0.20213911214E+02 -0.89112713818E+01 -0.14842390976E+02  0.26614085263E+02  0.51100000000E-03 0. -1.
        -11    1    3    3    0    0  0.11602472271E+02  0.11553767689E+02 -0.31282706199E+01  0.16670122614E+02  0.51100000000E-03 0.  1.
         12    1    3    3    0    0 -0.26324654883E+02  0.10908981111E+02  0.62713074668E+01  0.29177433419E+02  0.00000000000E+00 0. -1.
</event>
<event>
 7    1  0.2710146E-013  0.7246152E+02  0.7816164E-02  0.1226708E+00
        -11   -1    0    0    0    0  0.00000000000E+00  0.00000000000E+00  0.45593999997E+02  0.45594000000E+02  0.51100000000E-03 0.  1.
         11   -1    0    0    0    0 -0.00000000000E+00 -0.00000000000E+00 -0.45593999997E+02  0.45594000000E+02  0.51100000000E-03 0. -1.
    9900012    2    1    2    0    0 -0.96880233528E+01 -0.10347098028E+02 -0.12237676050E+02  0.72461522777E+02  0.69999938099E+02 0.  0.
        -12    1    1    2    0    0  0.96880233528E+01  0.10347098028E+02  0.12237676050E+02  0.18726477223E+02  0.00000000000E+00 0.  1.
         11    1    3    3    0    0 -0.14690530256E+02 -0.70554203730E+01 -0.24811076382E+02  0.29684678663E+02  0.51100000000E-03 0. -1.
        -11    1    3    3    0    0 -0.24258089257E+00 -0.19563566221E+02 -0.28253291816E+01  0.19768015936E+02  0.51100000000E-03 0.  1.
        -12    1    3    3    0    0  0.52450877952E+01  0.16271888566E+02  0.15398729513E+02  0.23008828178E+02  0.00000000000E+00 0.  1.
</event>
<event>
 7    1  0.2710146E-013  0.7246177E+02  0.7816164E-02  0.1226707E+00
        -11   -1    0    0    0    0  0.00000000000E+00  0.00000000000E+00  0.45593999997E+02  0.45594000000E+02  0.51100000000E-03 0. -1.
         11   -1    0    0    0    0 -0.00000000000E+00 -0.00000000000E+00 -0.45593999997E+02  0.45594000000E+02  0.51100000000E-03 0.  1.
    9900012    2    1    2    0    0 -0.56326580161E+00  0.18651147301E+02 -0.15777361473E+01  0.72461766654E+02  0.70000255794E+02 0.  0.
        -12    1    1    2    0    0  0.56326580161E+00 -0.18651147301E+02  0.15777361473E+01  0.18726233346E+02  0.00000000000E+00 0.  1.
         11    1    3    3    0    0  0.56677752565E+01  0.14189829286E+02  0.17111106374E+02  0.22940464100E+02  0.51100000000E-03 0. -1.
        -11    1    3    3    0    0 -0.10401207642E+02 -0.34213773576E+01  0.12770792693E+02  0.16822130950E+02  0.51100000000E-03 0.  1.
         12    1    3    3    0    0  0.41701665841E+01  0.78826953726E+01 -0.31459635215E+02  0.32699171603E+02  0.00000000000E+00 0. -1.
</event>
<event>
 7    1  0.2710146E-013  0.7246175E+02  0.7816164E-02  0.1226708E+00
        -11   -1    0    0    0    0  0.00000000000E+00  0.00000000000E+00  0.45593999997E+02  0.45594000000E+02  0.51100000000E-03 0.  1.
         11   -1    0    0    0    0 -0.00000000000E+00 -0.00000000000E+00 -0.45593999997E+02  0.45594000000E+02  0.51100000000E-03 0. -1.
    9900012    2    1    2    0    0  0.15237159412E+02 -0.10828243962E+02 -0.11182224984E+01  0.72461753291E+02  0.70000238387E+02 0.  0.
        -12    1    1    2    0    0 -0.15237159412E+02  0.10828243962E+02  0.11182224984E+01  0.18726246709E+02  0.00000000000E+00 0.  1.
         11    1    3    3    0    0  0.24259433001E+02 -0.13151574037E+01 -0.53516581780E+01  0.24877499352E+02  0.51100000000E-03 0. -1.
        -11    1    3    3    0    0  0.17699030433E+02 -0.98972776576E+01 -0.11984366878E+01  0.20313740031E+02  0.51100000000E-03 0.  1.
        -12    1    3    3    0    0 -0.26721304021E+02  0.38419109901E+00  0.54318723674E+01  0.27270513908E+02  0.00000000000E+00 0.  1.
</event>
<event>
 7    1  0.2710146E-013  0.7246157E+02  0.7816164E-02  0.1226708E+00
        -11   -1    0    0    0    0  0.00000000000E+00  0.00000000000E+00  0.45593999997E+02  0.45594000000E+02  0.51100000000E-03 0. -1.
         11   -1    0    0    0    0 -0.00000000000E+00 -0.00000000000E+00 -0.45593999997E+02  0.45594000000E+02  0.51100000000E-03 0.  1.
    9900012    2    1    2    0    0  0.13889250665E+02  0.29588511906E+01  0.12207089385E+02  0.72461571732E+02  0.70000001873E+02 0.  0.
        -12    1    1    2    0    0 -0.13889250665E+02 -0.29588511906E+01 -0.12207089385E+02  0.18726428268E+02  0.00000000000E+00 0.  1.
         11    1    3    3    0    0 -0.45487157831E+01  0.82842891074E+01  0.99087821524E+01  0.13693218223E+02  0.51100000000E-03 0. -1.
        -11    1    3    3    0    0 -0.15255528103E+02 -0.15730530468E+02 -0.56296213826E+01  0.22624618531E+02  0.51100000000E-03 0.  1.
         12    1    3    3    0    0  0.33693494552E+02  0.10405092551E+02  0.79279286152E+01  0.36143734979E+02  0.00000000000E+00 0. -1.
</event>
<event>
 7    1  0.2710146E-013  0.7246161E+02  0.7816164E-02  0.1226708E+00
        -11   -1    0    0    0    0  0.00000000000E+00  0.00000000000E+00  0.45593999997E+02  0.45594000000E+02  0.51100000000E-03 0. -1.
         11   -1    0    0    0    0 -0.00000000000E+00 -0.00000000000E+00 -0.45593999997E+02  0.45594000000E+02  0.51100000000E-03 0.  1.
    9900012    2    1    2    0    0 -0.57699665465E+01 -0.75071126167E+01  0.16156368707E+02  0.72461614775E+02  0.70000057944E+02 0.  0.
        -12    1    1    2    0    0  0.57699665465E+01  0.75071126167E+01 -0.16156368707E+02  0.18726385225E+02  0.00000000000E+00 0.  1.
         11    1    3    3    0    0  0.23111278337E+02 -0.13636810383E+02 -0.78770071116E+01  0.27966784319E+02  0.51100000000E-03 0. -1.
        -11    1    3    3    0    0 -0.11677116048E+02  0.11862442674E+01 -0.29608347355E+01  0.12104906329E+02  0.51100000000E-03 0.  1.
        -12    1    3    3    0    0 -0.17204128836E+02  0.49434534992E+01  0.26994210554E+02  0.32389924127E+02  0.00000000000E+00 0.  1.
</event>
<event>
 7    1  0.2710146E-013  0.7246156E+02  0.7816164E-02  0.1226708E+00
        -11   -1    0    0    0    0  0.00000000000E+00  0.00000000000E+00  0.45593999997E+02  0.45594000000E+02  0.51100000000E-03 0.  1.
         11   -1    0    0    0    0 -0.00000000000E+00 -0.00000000000E+00 -0.45593999997E+02  0.45594000000E+02  0.51100000000E-03 0. -1.
    9900012    2    1    2    0    0 -0.10334186026E+02  0.30529022663E+01 -0.15315479370E+02  0.72461560899E+02  0.69999987760E+02 0.  0.
        -12    1    1    2    0    0  0.10334186026E+02 -0.30529022663E+01  0.15315479370E+02  0.18726439101E+02  0.00000000000E+00 0.  1.
         11    1    3    3    0    0 -0.27424531150E+01 -0.13519149109E+02  0.17115441848E+01  0.13900281489E+02  0.51100000000E-03 0. -1.
        -11    1    3    3    0    0  0.16589004729E+02 -0.28749931007E+01  0.80525408664E+01  0.18662906470E+02  0.51100000000E-03 0.  1.
         12    1    3    3    0    0 -0.24180737641E+02  0.19447044476E+02 -0.25079564422E+02  0.39898372940E+02  0.00000000000E+00 0. -1.
</event>
<event>
 7    1  0.2710146E-013  0.7246159E+02  0.7816164E-02  0.1226708E+00
        -11   -1    0    0    0    0  0.00000000000E+00  0.00000000000E+00  0.45593999997E+02  0.45594000000E+02  0.51100000000E-03 0.  1.
         11   -1    0    0    0    0 -0.00000000000E+00 -0.00000000000E+00 -0.45593999997E+02  0.45594000000E+02  0.51100000000E-03 0. -1.
    9900012    2    1    2    0    0  0.10221902339E+02 -0.64486163798E+01 -0.14304077251E+02  0.72461586391E+02  0.70000020969E+02 0.  0.
        -12    1    1    2    0    0 -0.10221902339E+02  0.64486163798E+01  0.14304077251E+02  0.18726413609E+02  0.00000000000E+00 0.  1.
         11    1    3    3    0    0  0.12379149271E+02  0.27697580145E+02  0.64989407389E+00  0.30345043172E+02  0.51100000000E-03 0. -1.
        -11    1    3    3    0    0  0.37639063939E+01 -0.22706263714E+01  0.27418031913E+01  0.51807548158E+01  0.51100000000E-03 0.  1.
        -12    1    3    3    0    0 -0.59211533256E+01 -0.31875570153E+02 -0.17695774516E+02  0.36935788404E+02  0.00000000000E+00 0.  1.
</event>
<event>
 7    1  0.2710146E-013  0.7246157E+02  0.7816164E-02  0.1226708E+00
        -11   -1    0    0    0    0  0.00000000000E+00  0.00000000000E+00  0.45593999997E+02  0.45594000000E+02  0.51100000000E-03 0. -1.
         11   -1    0    0    0    0 -0.00000000000E+00 -0.00000000000E+00 -0.45593999997E+02  0.45594000000E+02  0.51100000000E-03 0.  1.
    9900012    2    1    2    0    0 -0.60730344097E+01  0.57422824187E+01  0.16757796729E+02  0.72461566663E+02  0.69999995269E+02 0.  0.
        -12    1    1    2    0    0  0.60730344097E+01 -0.57422824187E+01 -0.16757796729E+02  0.18726433337E+02  0.00000000000E+00 0.  1.
         11    1    3    3    0    0  0.85959057337E+01 -0.13764684013E+02  0.25616773836E+02  0.30324498733E+02  0.51100000000E-03 0. -1.
        -11    1    3    3    0    0  0.17451832418E+01  0.91213047527E+01  0.10974467823E+02  0.14376467202E+02  0.51100000000E-03 0.  1.
        -12    1    3    3    0    0 -0.16414123385E+02  0.10385661679E+02 -0.19833444930E+02  0.27760600728E+02  0.00000000000E+00 0.  1.
</event>
<event>
 7    1  0.2710146E-013  0.7246155E+02  0.7816164E-02  0.1226708E+00
        -11   -1    0    0    0    0  0.00000000000E+00  0.00000000000E+00  0.45593999997E+02  0.45594000000E+02  0.51100000000E-03 0. -1.
         11   -1    0    0    0    0 -0.00000000000E+00 -0.00000000000E+00 -0.45593999997E+02  0.45594000000E+02  0.51100000000E-03 0.  1.
    9900012    2    1    2    0    0 -0.39151800077E+01 -0.17795267442E+02  0.43219868383E+01  0.72461554848E+02  0.69999979878E+02 0.  0.
        -12    1    1    2    0    0  0.39151800077E+01  0.17795267442E+02 -0.43219868383E+01  0.18726445152E+02  0.00000000000E+00 0.  1.
         11    1    3    3    0    0  0.32437869143E+01 -0.16455015317E+02  0.12510398912E+02  0.20923665163E+02  0.51100000000E-03 0. -1.
        -11    1    3    3    0    0  0.57135093371E+01 -0.10926407137E+02 -0.25258603496E+02  0.28107429848E+02  0.51100000000E-03 0.  1.
         12    1    3    3    0    0 -0.12872476259E+02  0.95861550125E+01  0.17070191422E+02  0.23430459836E+02  0.00000000000E+00 0. -1.
</event>
<event>
 7    1  0.2710146E-013  0.7246157E+02  0.7816164E-02  0.1226708E+00
        -11   -1    0    0    0    0  0.00000000000E+00  0.00000000000E+00  0.45593999997E+02  0.45594000000E+02  0.51100000000E-03 0. -1.
         11   -1    0    0    0    0 -0.00000000000E+00 -0.00000000000E+00 -0.45593999997E+02  0.45594000000E+02  0.51100000000E-03 0.  1.
    9900012    2    1    2    0    0 -0.33192358154E+00 -0.14410524704E+02  0.11954323837E+02  0.72461568041E+02  0.69999997065E+02 0.  0.
        -12    1    1    2    0    0  0.33192358154E+00  0.14410524704E+02 -0.11954323837E+02  0.18726431959E+02  0.00000000000E+00 0.  1.
         11    1    3    3    0    0 -0.10585924561E+02  0.44466077302E+01  0.16830772558E+02  0.20374224507E+02  0.51100000000E-03 0. -1.
        -11    1    3    3    0    0  0.26513196897E+01 -0.20002878234E+02 -0.24071403379E+02  0.31409824811E+02  0.51100000000E-03 0.  1.
         12    1    3    3    0    0  0.76026812893E+01  0.11457458003E+01  0.19194954658E+02  0.20677518723E+02  0.00000000000E+00 0. -1.
</event>
<event>
 7    1  0.2710146E-013  0.7246163E+02  0.7816164E-02  0.1226708E+00
        -11   -1    0    0    0    0  0.00000000000E+00  0.00000000000E+00  0.45593999997E+02  0.45594000000E+02  0.51100000000E-03 0.  1.
         11   -1    0    0    0    0 -0.00000000000E+00 -0.00000000000E+00 -0.45593999997E+02  0.45594000000E+02  0.51100000000E-03 0. -1.
    9900012    2    1    2    0    0 -0.13255322983E+02  0.13164857086E+02 -0.12883747731E+01  0.72461629314E+02  0.70000076885E+02 0.  0.
        -12    1    1    2    0    0  0.13255322983E+02 -0.13164857086E+02  0.12883747731E+01  0.18726370686E+02  0.00000000000E+00 0.  1.
         11    1    3    3    0    0 -0.10747911144E+01  0.78298367280E+01 -0.24628066431E+02  0.25865095699E+02  0.51100000000E-03 0. -1.
        -11    1    3    3    0    0 -0.11165368434E+02  0.13157763983E+02 -0.43571705252E+01  0.17798234198E+02  0.51100000000E-03 0.  1.
        -12    1    3    3    0    0 -0.10151634349E+01 -0.78227436248E+01  0.27696862183E+02  0.28798299418E+02  0.00000000000E+00 0.  1.
</event>
<event>
 7    1  0.2710146E-013  0.7246160E+02  0.7816164E-02  0.1226708E+00
        -11   -1    0    0    0    0  0.00000000000E+00  0.00000000000E+00  0.45593999997E+02  0.45594000000E+02  0.51100000000E-03 0.  1.
         11   -1    0    0    0    0 -0.00000000000E+00 -0.00000000000E+00 -0.45593999997E+02  0.45594000000E+02  0.51100000000E-03 0. -1.
    9900012    2    1    2    0    0  0.10869250215E+02 -0.64917469605E+01  0.13798364206E+02  0.72461595283E+02  0.70000032553E+02 0.  0.
        -12    1    1    2    0    0 -0.10869250215E+02  0.64917469605E+01 -0.13798364206E+02  0.18726404717E+02  0.00000000000E+00 0.  1.
         11    1    3    3    0    0  0.25874320104E+01  0.10147300174E+02 -0.11839533617E+01  0.10538702532E+02  0.51100000000E-03 0. -1.
        -11    1    3    3    0    0  0.11483066189E+02  0.19989692908E+02  0.29790896208E+01  0.23244861947E+02  0.51100000000E-03 0.  1.
        -12    1    3    3    0    0 -0.32012479844E+01 -0.36628740043E+02  0.12003227947E+02  0.38678030805E+02  0.00000000000E+00 0.  1.
</event>
<event>
 7    1  0.2710146E-013  0.7246237E+02  0.7816164E-02  0.1226706E+00
        -11   -1    0    0    0    0  0.00000000000E+00  0.00000000000E+00  0.45593999997E+02  0.45594000000E+02  0.51100000000E-03 0.  1.
         11   -1    0    0    0    0 -0.00000000000E+00 -0.00000000000E+00 -0.45593999997E+02  0.45594000000E+02  0.51100000000E-03 0. -1.
    9900012    2    1    2    0    0  0.85211398263E+01  0.63021292660E+01 -0.15437696280E+02  0.72462372543E+02  0.70001045071E+02 0.  0.
        -12    1    1    2    0    0 -0.85211398263E+01 -0.63021292660E+01  0.15437696280E+02  0.18725627457E+02  0.00000000000E+00 0.  1.
         11    1    3    3    0    0  0.20712466587E+02  0.12762844848E+02 -0.38105566597E+01  0.24625531934E+02  0.51100000000E-03 0. -1.
        -11    1    3    3    0    0 -0.19667717281E+02  0.14249605881E+02 -0.45568397808E+01  0.24711033161E+02  0.51100000000E-03 0.  1.
         12    1    3    3    0    0  0.74763905203E+01 -0.20710321463E+02 -0.70702998391E+01  0.23125807448E+02  0.00000000000E+00 0. -1.
</event>
<event>
 7    1  0.2710146E-013  0.7246155E+02  0.7816164E-02  0.1226708E+00
        -11   -1    0    0    0    0  0.00000000000E+00  0.00000000000E+00  0.45593999997E+02  0.45594000000E+02  0.51100000000E-03 0.  1.
         11   -1    0    0    0    0 -0.00000000000E+00 -0.00000000000E+00 -0.45593999997E+02  0.45594000000E+02  0.51100000000E-03 0. -1.
    9900012    2    1    2    0    0 -0.12923835998E+02  0.35342852532E+01  0.13082932877E+02  0.72461552343E+02  0.69999976616E+02 0.  0.
        -12    1    1    2    0    0  0.12923835998E+02 -0.35342852532E+01 -0.13082932877E+02  0.18726447657E+02  0.00000000000E+00 0.  1.
         11    1    3    3    0    0  0.74426955714E+01  0.19887295370E+02 -0.55352441243E+01  0.21943955028E+02  0.51100000000E-03 0. -1.
        -11    1    3    3    0    0 -0.17392908685E+02  0.56867013336E+01  0.21341032012E+02  0.28112123580E+02  0.51100000000E-03 0.  1.
        -12    1    3    3    0    0 -0.29736228852E+01 -0.22039711451E+02 -0.27228550105E+01  0.22405473735E+02  0.00000000000E+00 0.  1.
</event>
<event>
 7    1  0.2763696E-013  0.7246146E+02  0.7816164E-02  0.1226708E+00
        -11   -1    0    0    0    0  0.00000000000E+00  0.00000000000E+00  0.45593999997E+02  0.45594000000E+02  0.51100000000E-03 0. -1.
         11   -1    0    0    0    0 -0.00000000000E+00 -0.00000000000E+00 -0.45593999997E+02  0.45594000000E+02  0.51100000000E-03 0.  1.
    9900012    2    1    2    0    0 -0.42110143534E+00 -0.44690773961E+01  0.18180574442E+02  0.72461460912E+02  0.69999857509E+02 0.  0.
        -12    1    1    2    0    0  0.42110143534E+00  0.44690773961E+01 -0.18180574442E+02  0.18726539088E+02  0.00000000000E+00 0.  1.
         11    1    3    3    0    0  0.11353153756E+02  0.26329776831E+01 -0.10910533064E+01  0.11705429051E+02  0.51100000000E-03 0. -1.
        -11    1    3    3    0    0 -0.29411473934E+01 -0.78625009832E+01 -0.19369776000E+02  0.21110601419E+02  0.51100000000E-03 0.  1.
         12    1    3    3    0    0 -0.88331077976E+01  0.76044590396E+00  0.38641403748E+02  0.39645430443E+02  0.00000000000E+00 0. -1.
</event>
<event>
 7    1  0.2710146E-013  0.7246168E+02  0.7816164E-02  0.1226708E+00
        -11   -1    0    0    0    0  0.00000000000E+00  0.00000000000E+00  0.45593999997E+02  0.45594000000E+02  0.51100000000E-03 0. -1.
         11   -1    0    0    0    0 -0.00000000000E+00 -0.00000000000E+00 -0.45593999997E+02  0.45594000000E+02  0.51100000000E-03 0.  1.
    9900012    2    1    2    0    0  0.93129300346E+01 -0.16179855992E+02  0.14686091777E+01  0.72461675783E+02  0.70000137419E+02 0.  0.
        -12    1    1    2    0    0 -0.93129300346E+01  0.16179855992E+02 -0.14686091777E+01  0.18726324217E+02  0.00000000000E+00 0.  1.
         11    1    3    3    0    0  0.17050355494E+02 -0.20756640180E+02  0.82841031656E+01  0.28110124502E+02  0.51100000000E-03 0. -1.
        -11    1    3    3    0    0 -0.18909011851E+02 -0.19422311000E+01  0.11283910114E+02  0.22105420569E+02  0.51100000000E-03 0.  1.
        -12    1    3    3    0    0  0.11171586392E+02  0.65190152874E+01 -0.18099404102E+02  0.22246130712E+02  0.00000000000E+00 0.  1.
</event>
<event>
 7    1  0.2710146E-013  0.7246152E+02  0.7816164E-02  0.1226708E+00
        -11   -1    0    0    0    0  0.00000000000E+00  0.00000000000E+00  0.45593999997E+02  0.45594000000E+02  0.51100000000E-03 0.  1.
         11   -1    0    0    0    0 -0.00000000000E+00 -0.00000000000E+00 -0.45593999997E+02  0.45594000000E+02  0.51100000000E-03 0. -1.
    9900012    2    1    2    0    0  0.13245026623E+02  0.12028473178E+02 -0.55286549332E+01  0.72461523486E+02  0.69999939024E+02 0.  0.
        -12    1    1    2    0    0 -0.13245026623E+02 -0.12028473178E+02  0.55286549332E+01  0.18726476514E+02  0.00000000000E+00 0.  1.
         11    1    3    3    0    0 -0.10499134288E+02 -0.64621997843E+00 -0.99057395297E+01  0.14448982557E+02  0.51100000000E-03 0. -1.
        -11    1    3    3    0    0 -0.26367858137E+01  0.19380004286E+02  0.18867804093E+02  0.27175931210E+02  0.51100000000E-03 0.  1.
         12    1    3    3    0    0  0.26380946724E+02 -0.67053111297E+01 -0.14490719497E+02  0.30836609719E+02  0.00000000000E+00 0. -1.
</event>
<event>
 7    1  0.2710146E-013  0.7246153E+02  0.7816164E-02  0.1226708E+00
        -11   -1    0    0    0    0  0.00000000000E+00  0.00000000000E+00  0.45593999997E+02  0.45594000000E+02  0.51100000000E-03 0.  1.
         11   -1    0    0    0    0 -0.00000000000E+00 -0.00000000000E+00 -0.45593999997E+02  0.45594000000E+02  0.51100000000E-03 0. -1.
    9900012    2    1    2    0    0  0.10380965377E+02  0.11153668411E+02 -0.10886321345E+02  0.72461527999E+02  0.69999944902E+02 0.  0.
        -12    1    1    2    0    0 -0.10380965377E+02 -0.11153668411E+02  0.10886321345E+02  0.18726472001E+02  0.00000000000E+00 0.  1.
         11    1    3    3    0    0 -0.10497995877E+02 -0.22415870944E+02 -0.65849623263E+01  0.25613295702E+02  0.51100000000E-03 0. -1.
        -11    1    3    3    0    0 -0.42179424285E+01  0.11062592592E+02 -0.56329723739E+01  0.13111154458E+02  0.51100000000E-03 0.  1.
        -12    1    3    3    0    0  0.25096903682E+02  0.22506946763E+02  0.13316133549E+01  0.33737077839E+02  0.00000000000E+00 0.  1.
</event>
<event>
 7    1  0.2710146E-013  0.7246163E+02  0.7816164E-02  0.1226708E+00
        -11   -1    0    0    0    0  0.00000000000E+00  0.00000000000E+00  0.45593999997E+02  0.45594000000E+02  0.51100000000E-03 0.  1.
         11   -1    0    0    0    0 -0.00000000000E+00 -0.00000000000E+00 -0.45593999997E+02  0.45594000000E+02  0.51100000000E-03 0. -1.
    9900012    2    1    2    0    0 -0.15608602964E+02 -0.78236710358E+01 -0.67704186128E+01  0.72461631341E+02  0.70000079524E+02 0.  0.
        -12    1    1    2    0    0  0.15608602964E+02  0.78236710358E+01  0.67704186128E+01  0.18726368659E+02  0.00000000000E+00 0.  1.
         11    1    3    3    0    0 -0.10004453949E+02  0.85117928462E+01 -0.15927110312E+01  0.13231645588E+02  0.51100000000E-03 0.  1.
        -11    1    3    3    0    0 -0.49517559168E+01 -0.73096745259E+01 -0.30808479783E+02  0.32048613935E+02  0.51100000000E-03 0. -1.
        -12    1    3    3    0    0 -0.65239309868E+00 -0.90257893561E+01  0.25630772202E+02  0.27181371818E+02  0.00000000000E+00 0.  1.
</event>
<event>
 7    1  0.2710146E-013  0.7246158E+02  0.7816164E-02  0.1226708E+00
        -11   -1    0    0    0    0  0.00000000000E+00  0.00000000000E+00  0.45593999997E+02  0.45594000000E+02  0.51100000000E-03 0.  1.
         11   -1    0    0    0    0 -0.00000000000E+00 -0.00000000000E+00 -0.45593999997E+02  0.45594000000E+02  0.51100000000E-03 0. -1.
    9900012    2    1    2    0    0  0.30634803289E+01  0.11728753795E+02 -0.14273405605E+02  0.72461583235E+02  0.70000016857E+02 0.  0.
        -12    1    1    2    0    0 -0.30634803289E+01 -0.11728753795E+02  0.14273405605E+02  0.18726416765E+02  0.00000000000E+00 0.  1.
         11    1    3    3    0    0 -0.21913178947E+02 -0.21686729580E+01 -0.22617334353E+01  0.22136078974E+02  0.51100000000E-03 0. -1.
        -11    1    3    3    0    0  0.10130335928E+02  0.26034928765E+02 -0.46313003880E+00  0.27940216741E+02  0.51100000000E-03 0.  1.
        -12    1    3    3    0    0  0.14846323347E+02 -0.12137502012E+02 -0.11548542131E+02  0.22385287520E+02  0.00000000000E+00 0.  1.
</event>
<event>
 7    1  0.2710146E-013  0.7246156E+02  0.7816164E-02  0.1226708E+00
        -11   -1    0    0    0    0  0.00000000000E+00  0.00000000000E+00  0.45593999997E+02  0.45594000000E+02  0.51100000000E-03 0. -1.
         11   -1    0    0    0    0 -0.00000000000E+00 -0.00000000000E+00 -0.45593999997E+02  0.45594000000E+02  0.51100000000E-03 0.  1.
    9900012    2    1    2    0    0  0.17442327036E+02 -0.68052572748E+01  0.36478976770E+00  0.72461564926E+02  0.69999993007E+02 0.  0.
        -12    1    1    2    0    0 -0.17442327036E+02  0.68052572748E+01 -0.36478976770E+00  0.18726435074E+02  0.00000000000E+00 0.  1.
         11    1    3    3    0    0 -0.20268343382E+01 -0.90375848841E+01  0.10971845678E+02  0.14358530420E+02  0.51100000000E-03 0. -1.
        -11    1    3    3    0    0 -0.11014948791E+02  0.67564093978E+00 -0.22724152571E+02  0.25262080236E+02  0.51100000000E-03 0.  1.
         12    1    3    3    0    0  0.30484110165E+02  0.15566866695E+01  0.12117096660E+02  0.32840954270E+02  0.00000000000E+00 0. -1.
</event>
<event>
 7    1  0.2710146E-013  0.7246165E+02  0.7816164E-02  0.1226708E+00
        -11   -1    0    0    0    0  0.00000000000E+00  0.00000000000E+00  0.45593999997E+02  0.45594000000E+02  0.51100000000E-03 0.  1.
         11   -1    0    0    0    0 -0.00000000000E+00 -0.00000000000E+00 -0.45593999997E+02  0.45594000000E+02  0.51100000000E-03 0. -1.
    9900012    2    1    2    0    0 -0.12003216820E+01  0.13877227856E+02 -0.12516312517E+02  0.72461646801E+02  0.70000099664E+02 0.  0.
        -12    1    1    2    0    0  0.12003216820E+01 -0.13877227856E+02  0.12516312517E+02  0.18726353199E+02  0.00000000000E+00 0.  1.
         11    1    3    3    0    0  0.21283882716E+02  0.10587096578E+02 -0.16181806124E+02  0.28756584065E+02  0.51100000000E-03 0. -1.
        -11    1    3    3    0    0 -0.86185087750E+00  0.64239626248E+01 -0.14117626840E+02  0.15534396370E+02  0.51100000000E-03 0.  1.
        -12    1    3    3    0    0 -0.21622353520E+02 -0.31338313462E+01  0.17783120447E+02  0.28170666366E+02  0.00000000000E+00 0.  1.
</event>
<event>
 7    1  0.2710146E-013  0.7246157E+02  0.7816164E-02  0.1226708E+00
        -11   -1    0    0    0    0  0.00000000000E+00  0.00000000000E+00  0.45593999997E+02  0.45594000000E+02  0.51100000000E-03 0. -1.
         11   -1    0    0    0    0 -0.00000000000E+00 -0.00000000000E+00 -0.45593999997E+02  0.45594000000E+02  0.51100000000E-03 0.  1.
    9900012    2    1    2    0    0  0.93045814911E+01  0.15363380127E+02  0.52981555723E+01  0.72461571133E+02  0.70000001093E+02 0.  0.
        -12    1    1    2    0    0 -0.93045814911E+01 -0.15363380127E+02 -0.52981555723E+01  0.18726428867E+02  0.00000000000E+00 0.  1.
         11    1    3    3    0    0  0.33550546939E+01  0.38266770427E+02  0.58510691381E+01  0.38856622618E+02  0.51100000000E-03 0. -1.
        -11    1    3    3    0    0  0.37881065508E+01  0.45093496832E+01  0.13476229970E+01  0.60415290952E+01  0.51100000000E-03 0.  1.
        -12    1    3    3    0    0  0.21614202464E+01 -0.27412739984E+02 -0.19005365628E+01  0.27563419420E+02  0.00000000000E+00 0.  1.
</event>
<event>
 7    1  0.2710146E-013  0.7246156E+02  0.7816164E-02  0.1226708E+00
        -11   -1    0    0    0    0  0.00000000000E+00  0.00000000000E+00  0.45593999997E+02  0.45594000000E+02  0.51100000000E-03 0. -1.
         11   -1    0    0    0    0 -0.00000000000E+00 -0.00000000000E+00 -0.45593999997E+02  0.45594000000E+02  0.51100000000E-03 0.  1.
    9900012    2    1    2    0    0 -0.50800251566E+01  0.24800260460E+01  0.17852792207E+02  0.72461564825E+02  0.69999992875E+02 0.  0.
        -12    1    1    2    0    0  0.50800251566E+01 -0.24800260460E+01 -0.17852792207E+02  0.18726435175E+02  0.00000000000E+00 0.  1.
         11    1    3    3    0    0 -0.11298305856E+02  0.71142444922E+01  0.24388701276E+02  0.27804189255E+02  0.51100000000E-03 0. -1.
        -11    1    3    3    0    0 -0.91497637366E+00  0.15432153449E+02  0.93694060091E+01  0.18076899930E+02  0.51100000000E-03 0.  1.
        -12    1    3    3    0    0  0.71332570734E+01 -0.20066371895E+02 -0.15905315078E+02  0.26580475640E+02  0.00000000000E+00 0.  1.
</event>
<event>
 7    1  0.2710146E-013  0.7246158E+02  0.7816164E-02  0.1226708E+00
        -11   -1    0    0    0    0  0.00000000000E+00  0.00000000000E+00  0.45593999997E+02  0.45594000000E+02  0.51100000000E-03 0.  1.
         11   -1    0    0    0    0 -0.00000000000E+00 -0.00000000000E+00 -0.45593999997E+02  0.45594000000E+02  0.51100000000E-03 0. -1.
    9900012    2    1    2    0    0 -0.39783392806E+01 -0.11462782597E+02 -0.14263811210E+02  0.72461578064E+02  0.70000010121E+02 0.  0.
        -12    1    1    2    0    0  0.39783392806E+01  0.11462782597E+02  0.14263811210E+02  0.18726421936E+02  0.00000000000E+00 0.  1.
         11    1    3    3    0    0  0.49457359628E+01  0.14000406950E+02 -0.50599693489E+01  0.15686777523E+02  0.51100000000E-03 0. -1.
        -11    1    3    3    0    0 -0.18035605128E+02 -0.40685264658E+01  0.14554435894E+02  0.23530141614E+02  0.51100000000E-03 0.  1.
        -12    1    3    3    0    0  0.91115298846E+01 -0.21394663082E+02 -0.23758277755E+02  0.33244658926E+02  0.00000000000E+00 0.  1.
</event>
<event>
 7    1  0.2710146E-013  0.7246150E+02  0.7816164E-02  0.1226708E+00
        -11   -1    0    0    0    0  0.00000000000E+00  0.00000000000E+00  0.45593999997E+02  0.45594000000E+02  0.51100000000E-03 0. -1.
         11   -1    0    0    0    0 -0.00000000000E+00 -0.00000000000E+00 -0.45593999997E+02  0.45594000000E+02  0.51100000000E-03 0.  1.
    9900012    2    1    2    0    0 -0.47951395983E+01 -0.18012600308E+02 -0.17984842021E+01  0.72461503289E+02  0.69999912714E+02 0.  0.
        -12    1    1    2    0    0  0.47951395983E+01  0.18012600308E+02  0.17984842021E+01  0.18726496711E+02  0.00000000000E+00 0.  1.
         11    1    3    3    0    0 -0.44125952517E+01  0.31007433211E+01  0.18400001236E+01  0.56983512277E+01  0.51100000000E-03 0. -1.
        -11    1    3    3    0    0 -0.34149964346E+01  0.18309355208E+02  0.14165992738E+02  0.23400214514E+02  0.51100000000E-03 0.  1.
        -12    1    3    3    0    0  0.30324520881E+01 -0.39422698837E+02 -0.17804477064E+02  0.43362937548E+02  0.00000000000E+00 0.  1.
</event>
<event>
 7    1  0.2710146E-013  0.7246155E+02  0.7816164E-02  0.1226708E+00
        -11   -1    0    0    0    0  0.00000000000E+00  0.00000000000E+00  0.45593999997E+02  0.45594000000E+02  0.51100000000E-03 0.  1.
         11   -1    0    0    0    0 -0.00000000000E+00 -0.00000000000E+00 -0.45593999997E+02  0.45594000000E+02  0.51100000000E-03 0. -1.
    9900012    2    1    2    0    0  0.39985737885E+00 -0.17472481763E+02 -0.67254962568E+01  0.72461553332E+02  0.69999977904E+02 0.  0.
        -12    1    1    2    0    0 -0.39985737885E+00  0.17472481763E+02  0.67254962568E+01  0.18726446668E+02  0.00000000000E+00 0.  1.
         11    1    3    3    0    0  0.10638792774E+02  0.47604704508E+01 -0.91725347756E+01  0.14831769452E+02  0.51100000000E-03 0. -1.
        -11    1    3    3    0    0 -0.49723003049E+01 -0.53735478310E+01 -0.24410503138E+02  0.25484729748E+02  0.51100000000E-03 0.  1.
        -12    1    3    3    0    0 -0.52666350901E+01 -0.16859404383E+02  0.26857541657E+02  0.32145054133E+02  0.00000000000E+00 0.  1.
</event>
<event>
 7    1  0.2710146E-013  0.7246157E+02  0.7816164E-02  0.1226708E+00
        -11   -1    0    0    0    0  0.00000000000E+00  0.00000000000E+00  0.45593999997E+02  0.45594000000E+02  0.51100000000E-03 0. -1.
         11   -1    0    0    0    0 -0.00000000000E+00 -0.00000000000E+00 -0.45593999997E+02  0.45594000000E+02  0.51100000000E-03 0.  1.
    9900012    2    1    2    0    0 -0.27526524635E+01  0.76366719353E+01  0.16875524248E+02  0.72461570216E+02  0.69999999898E+02 0.  0.
        -12    1    1    2    0    0  0.27526524635E+01 -0.76366719353E+01 -0.16875524248E+02  0.18726429784E+02  0.00000000000E+00 0.  1.
         11    1    3    3    0    0 -0.70835640078E+01 -0.20974208928E+01  0.10925076060E+01  0.74679064391E+01  0.51100000000E-03 0. -1.
        -11    1    3    3    0    0 -0.68105084162E+01  0.18086583301E+01 -0.22903027594E+02  0.23962532068E+02  0.51100000000E-03 0.  1.
         12    1    3    3    0    0  0.11141419960E+02  0.79254344980E+01  0.38686044236E+02  0.41031131709E+02  0.00000000000E+00 0. -1.
</event>
<event>
 7    1  0.2710146E-013  0.7246142E+02  0.7816164E-02  0.1226708E+00
        -11   -1    0    0    0    0  0.00000000000E+00  0.00000000000E+00  0.45593999997E+02  0.45594000000E+02  0.51100000000E-03 0.  1.
         11   -1    0    0    0    0 -0.00000000000E+00 -0.00000000000E+00 -0.45593999997E+02  0.45594000000E+02  0.51100000000E-03 0. -1.
    9900012    2    1    2    0    0 -0.17369039552E+00 -0.15916096570E+02 -0.98657140124E+01  0.72461424997E+02  0.69999810723E+02 0.  0.
        -12    1    1    2    0    0  0.17369039552E+00  0.15916096570E+02  0.98657140124E+01  0.18726575003E+02  0.00000000000E+00 0.  1.
         11    1    3    3    0    0 -0.10756397060E+02 -0.11830915237E+02 -0.17487475875E+01  0.16085047449E+02  0.51100000000E-03 0. -1.
        -11    1    3    3    0    0  0.21688449071E+01 -0.21242234534E+02  0.15214180020E+02  0.26218460865E+02  0.51100000000E-03 0.  1.
         12    1    3    3    0    0  0.84138617578E+01  0.17157053201E+02 -0.23331146445E+02  0.30157916682E+02  0.00000000000E+00 0. -1.
</event>
<event>
 7    1  0.2710146E-013  0.7246166E+02  0.7816164E-02  0.1226708E+00
        -11   -1    0    0    0    0  0.00000000000E+00  0.00000000000E+00  0.45593999997E+02  0.45594000000E+02  0.51100000000E-03 0.  1.
         11   -1    0    0    0    0 -0.00000000000E+00 -0.00000000000E+00 -0.45593999997E+02  0.45594000000E+02  0.51100000000E-03 0. -1.
    9900012    2    1    2    0    0 -0.12689989796E+02  0.89316022682E+00 -0.13741993535E+02  0.72461655922E+02  0.70000111546E+02 0.  0.
        -12    1    1    2    0    0  0.12689989796E+02 -0.89316022682E+00  0.13741993535E+02  0.18726344078E+02  0.00000000000E+00 0.  1.
         11    1    3    3    0    0  0.15724667489E+02 -0.13783277567E+02 -0.49434787805E+01  0.21486784097E+02  0.51100000000E-03 0. -1.
        -11    1    3    3    0    0  0.12397208524E+00  0.16694828907E+01  0.12790561126E+02  0.12899651018E+02  0.51100000000E-03 0.  1.
        -12    1    3    3    0    0 -0.28538629369E+02  0.13006954903E+02 -0.21589075881E+02  0.38075220807E+02  0.00000000000E+00 0.  1.
</event>
<event>
 7    1  0.2710146E-013  0.7246166E+02  0.7816164E-02  0.1226708E+00
        -11   -1    0    0    0    0  0.00000000000E+00  0.00000000000E+00  0.45593999997E+02  0.45594000000E+02  0.51100000000E-03 0.  1.
         11   -1    0    0    0    0 -0.00000000000E+00 -0.00000000000E+00 -0.45593999997E+02  0.45594000000E+02  0.51100000000E-03 0. -1.
    9900012    2    1    2    0    0 -0.72335814546E-01 -0.18540174363E+02 -0.26329449437E+01  0.72461663013E+02  0.70000120783E+02 0.  0.
        -12    1    1    2    0    0  0.72335814546E-01  0.18540174363E+02  0.26329449437E+01  0.18726336987E+02  0.00000000000E+00 0.  1.
         11    1    3    3    0    0  0.41014291468E+01  0.10237750651E+02  0.11101605595E+02  0.15648607174E+02  0.51100000000E-03 0. -1.
        -11    1    3    3    0    0  0.91791467428E+01  0.68288051089E+01  0.70869278247E+01  0.13457854970E+02  0.51100000000E-03 0.  1.
         12    1    3    3    0    0 -0.13352911704E+02 -0.35606730124E+02 -0.20821478364E+02  0.43355200868E+02  0.00000000000E+00 0. -1.
</event>
<event>
 7    1  0.2710146E-013  0.7246159E+02  0.7816164E-02  0.1226708E+00
        -11   -1    0    0    0    0  0.00000000000E+00  0.00000000000E+00  0.45593999997E+02  0.45594000000E+02  0.51100000000E-03 0.  1.
         11   -1    0    0    0    0 -0.00000000000E+00 -0.00000000000E+00 -0.45593999997E+02  0.45594000000E+02  0.51100000000E-03 0. -1.
    9900012    2    1    2    0    0 -0.26561020523E+01 -0.18337959637E+02 -0.27097619776E+01  0.72461589459E+02  0.70000024966E+02 0.  0.
        -12    1    1    2    0    0  0.26561020523E+01  0.18337959637E+02  0.27097619776E+01  0.18726410541E+02  0.00000000000E+00 0.  1.
         11    1    3    3    0    0 -0.10162458723E+01 -0.28998183556E+02  0.25503015150E+01  0.29127846527E+02  0.51100000000E-03 0. -1.
        -11    1    3    3    0    0  0.15642336503E+02  0.15544004208E+00  0.94948231982E+01  0.18299139890E+02  0.51100000000E-03 0.  1.
         12    1    3    3    0    0 -0.17282192683E+02  0.10504783877E+02 -0.14754886691E+02  0.25034603042E+02  0.00000000000E+00 0. -1.
</event>
<event>
 7    1  0.2710146E-013  0.7246158E+02  0.7816164E-02  0.1226708E+00
        -11   -1    0    0    0    0  0.00000000000E+00  0.00000000000E+00  0.45593999997E+02  0.45594000000E+02  0.51100000000E-03 0.  1.
         11   -1    0    0    0    0 -0.00000000000E+00 -0.00000000000E+00 -0.45593999997E+02  0.45594000000E+02  0.51100000000E-03 0. -1.
    9900012    2    1    2    0    0 -0.96446809825E+01  0.27416126587E+01 -0.15815896771E+02  0.72461577440E+02  0.70000009308E+02 0.  0.
        -12    1    1    2    0    0  0.96446809825E+01 -0.27416126587E+01  0.15815896771E+02  0.18726422560E+02  0.00000000000E+00 0.  1.
         11    1    3    3    0    0  0.27413099490E+01  0.92509441921E+01 -0.56236702697E+01  0.11167829523E+02  0.51100000000E-03 0. -1.
        -11    1    3    3    0    0  0.14091806969E+02 -0.17987924730E+02  0.11125616655E+02  0.25415031103E+02  0.51100000000E-03 0.  1.
         12    1    3    3    0    0 -0.26477797900E+02  0.11478593197E+02 -0.21317843157E+02  0.35878716815E+02  0.00000000000E+00 0. -1.
</event>
<event>
 7    1  0.2710146E-013  0.7246157E+02  0.7816164E-02  0.1226708E+00
        -11   -1    0    0    0    0  0.00000000000E+00  0.00000000000E+00  0.45593999997E+02  0.45594000000E+02  0.51100000000E-03 0.  1.
         11   -1    0    0    0    0 -0.00000000000E+00 -0.00000000000E+00 -0.45593999997E+02  0.45594000000E+02  0.51100000000E-03 0. -1.
    9900012    2    1    2    0    0 -0.11987422357E+02 -0.96501246272E+01 -0.10670336901E+02  0.72461567087E+02  0.69999995822E+02 0.  0.
        -12    1    1    2    0    0  0.11987422357E+02  0.96501246272E+01  0.10670336901E+02  0.18726432913E+02  0.00000000000E+00 0.  1.
         11    1    3    3    0    0 -0.10153291088E+02  0.27270674581E+01 -0.28843790610E+01  0.10901644814E+02  0.51100000000E-03 0. -1.
        -11    1    3    3    0    0  0.67847382289E+01 -0.29243089334E+02  0.13630647035E+02  0.32969462924E+02  0.51100000000E-03 0.  1.
         12    1    3    3    0    0 -0.86188694979E+01  0.16865897249E+02 -0.21416604875E+02  0.28590459349E+02  0.00000000000E+00 0. -1.
</event>
<event>
 7    1  0.2710146E-013  0.7246158E+02  0.7816164E-02  0.1226708E+00
        -11   -1    0    0    0    0  0.00000000000E+00  0.00000000000E+00  0.45593999997E+02  0.45594000000E+02  0.51100000000E-03 0.  1.
         11   -1    0    0    0    0 -0.00000000000E+00 -0.00000000000E+00 -0.45593999997E+02  0.45594000000E+02  0.51100000000E-03 0. -1.
    9900012    2    1    2    0    0 -0.13717718564E+02 -0.83259555284E+01 -0.96530455261E+01  0.72461584807E+02  0.70000018905E+02 0.  0.
        -12    1    1    2    0    0  0.13717718564E+02  0.83259555284E+01  0.96530455261E+01  0.18726415193E+02  0.00000000000E+00 0.  1.
         11    1    3    3    0    0  0.51312389951E+00  0.30748399747E+01 -0.34358314753E+01  0.46392752876E+01  0.51100000000E-03 0. -1.
        -11    1    3    3    0    0 -0.22664731869E+02  0.22845768011E+02 -0.12583649432E+01  0.32205631018E+02  0.51100000000E-03 0.  1.
         12    1    3    3    0    0  0.84338894056E+01 -0.34246563514E+02 -0.49588491077E+01  0.35616678501E+02  0.00000000000E+00 0. -1.
</event>
<event>
 7    1  0.2710146E-013  0.7246173E+02  0.7816164E-02  0.1226708E+00
        -11   -1    0    0    0    0  0.00000000000E+00  0.00000000000E+00  0.45593999997E+02  0.45594000000E+02  0.51100000000E-03 0. -1.
         11   -1    0    0    0    0 -0.00000000000E+00 -0.00000000000E+00 -0.45593999997E+02  0.45594000000E+02  0.51100000000E-03 0.  1.
    9900012    2    1    2    0    0 -0.73223039381E+01 -0.13372598614E+02  0.10873385591E+02  0.72461733878E+02  0.70000213098E+02 0.  0.
        -12    1    1    2    0    0  0.73223039381E+01  0.13372598614E+02 -0.10873385591E+02  0.18726266122E+02  0.00000000000E+00 0.  1.
         11    1    3    3    0    0  0.15720026016E+02 -0.20522999898E+02  0.25111339720E+02  0.36040146026E+02  0.51100000000E-03 0. -1.
        -11    1    3    3    0    0  0.11062549034E+01 -0.15993754749E+01 -0.10245314815E+02  0.10428244231E+02  0.51100000000E-03 0.  1.
        -12    1    3    3    0    0 -0.24148584857E+02  0.87497767589E+01 -0.39926393139E+01  0.25993343622E+02  0.00000000000E+00 0.  1.
</event>
<event>
 7    1  0.2710146E-013  0.7246169E+02  0.7816164E-02  0.1226708E+00
        -11   -1    0    0    0    0  0.00000000000E+00  0.00000000000E+00  0.45593999997E+02  0.45594000000E+02  0.51100000000E-03 0.  1.
         11   -1    0    0    0    0 -0.00000000000E+00 -0.00000000000E+00 -0.45593999997E+02  0.45594000000E+02  0.51100000000E-03 0. -1.
    9900012    2    1    2    0    0  0.88411503589E+01  0.11462448339E+02 -0.11879441023E+02  0.72461687480E+02  0.70000152656E+02 0.  0.
        -12    1    1    2    0    0 -0.88411503589E+01 -0.11462448339E+02  0.11879441023E+02  0.18726312520E+02  0.00000000000E+00 0.  1.
         11    1    3    3    0    0  0.36952180598E+01  0.98533621216E+01 -0.31951576857E+02  0.33639956087E+02  0.51100000000E-03 0. -1.
        -11    1    3    3    0    0  0.42502036617E+01 -0.78269967264E+01 -0.62264668420E+01  0.10867152273E+02  0.51100000000E-03 0.  1.
        -12    1    3    3    0    0  0.89572863734E+00  0.94360829435E+01  0.26298602676E+02  0.27954579121E+02  0.00000000000E+00 0.  1.
</event>
<event>
 7    1  0.2710146E-013  0.7246157E+02  0.7816164E-02  0.1226708E+00
        -11   -1    0    0    0    0  0.00000000000E+00  0.00000000000E+00  0.45593999997E+02  0.45594000000E+02  0.51100000000E-03 0.  1.
         11   -1    0    0    0    0 -0.00000000000E+00 -0.00000000000E+00 -0.45593999997E+02  0.45594000000E+02  0.51100000000E-03 0. -1.
    9900012    2    1    2    0    0  0.12586441225E+02  0.76520527572E+01 -0.11563166706E+02  0.72461568456E+02  0.69999997605E+02 0.  0.
        -12    1    1    2    0    0 -0.12586441225E+02 -0.76520527572E+01  0.11563166706E+02  0.18726431544E+02  0.00000000000E+00 0.  1.
         11    1    3    3    0    0  0.33515513572E+01 -0.84443999639E-01  0.14482813742E+02  0.14865797034E+02  0.51100000000E-03 0. -1.
        -11    1    3    3    0    0 -0.18118702656E+02  0.16143547284E+01  0.15556326912E+01  0.18256875977E+02  0.51100000000E-03 0.  1.
         12    1    3    3    0    0  0.27353592523E+02  0.61221420285E+01 -0.27601613139E+02  0.39338895445E+02  0.00000000000E+00 0. -1.
</event>
<event>
 7    1  0.2710146E-013  0.7246157E+02  0.7816164E-02  0.1226708E+00
        -11   -1    0    0    0    0  0.00000000000E+00  0.00000000000E+00  0.45593999997E+02  0.45594000000E+02  0.51100000000E-03 0.  1.
         11   -1    0    0    0    0 -0.00000000000E+00 -0.00000000000E+00 -0.45593999997E+02  0.45594000000E+02  0.51100000000E-03 0. -1.
    9900012    2    1    2    0    0  0.16976005213E+02 -0.78925355832E+01  0.44970406553E+00  0.72461572026E+02  0.70000002256E+02 0.  0.
        -12    1    1    2    0    0 -0.16976005213E+02  0.78925355832E+01 -0.44970406553E+00  0.18726427974E+02  0.00000000000E+00 0.  1.
         11    1    3    3    0    0  0.29082042325E+01  0.46451274007E+00  0.11709346448E+02  0.12074030745E+02  0.51100000000E-03 0. -1.
        -11    1    3    3    0    0  0.10877378112E+02 -0.32785357701E+02 -0.44513377046E+01  0.34828313795E+02  0.51100000000E-03 0.  1.
         12    1    3    3    0    0  0.31904228677E+01  0.24428309377E+02 -0.68083046775E+01  0.25559227486E+02  0.00000000000E+00 0. -1.
</event>
<event>
 7    1  0.2710146E-013  0.7246143E+02  0.7816164E-02  0.1226708E+00
        -11   -1    0    0    0    0  0.00000000000E+00  0.00000000000E+00  0.45593999997E+02  0.45594000000E+02  0.51100000000E-03 0. -1.
         11   -1    0    0    0    0 -0.00000000000E+00 -0.00000000000E+00 -0.45593999997E+02  0.45594000000E+02  0.51100000000E-03 0.  1.
    9900012    2    1    2    0    0 -0.14882521771E+02 -0.46477766608E+01 -0.10372718592E+02  0.72461426017E+02  0.69999812052E+02 0.  0.
        -12    1    1    2    0    0  0.14882521771E+02  0.46477766608E+01  0.10372718592E+02  0.18726573983E+02  0.00000000000E+00 0.  1.
         11    1    3    3    0    0 -0.15257384822E+01  0.24967867509E+01  0.79728059162E+01  0.84927884958E+01  0.51100000000E-03 0. -1.
        -11    1    3    3    0    0  0.15611945722E+01 -0.27599204437E+02 -0.25554465907E+02  0.37645506267E+02  0.51100000000E-03 0.  1.
         12    1    3    3    0    0 -0.14917977861E+02  0.20454641026E+02  0.72089413988E+01  0.26323131255E+02  0.00000000000E+00 0. -1.
</event>
<event>
 7    1  0.2710146E-013  0.7246173E+02  0.7816164E-02  0.1226708E+00
        -11   -1    0    0    0    0  0.00000000000E+00  0.00000000000E+00  0.45593999997E+02  0.45594000000E+02  0.51100000000E-03 0. -1.
         11   -1    0    0    0    0 -0.00000000000E+00 -0.00000000000E+00 -0.45593999997E+02  0.45594000000E+02  0.51100000000E-03 0.  1.
    9900012    2    1    2    0    0  0.78593247005E+01  0.16641924576E+02 -0.34569787830E+01  0.72461725927E+02  0.70000202741E+02 0.  0.
        -12    1    1    2    0    0 -0.78593247005E+01 -0.16641924576E+02  0.34569787830E+01  0.18726274073E+02  0.00000000000E+00 0.  1.
         11    1    3    3    0    0 -0.12274639477E+01  0.76351209501E+01  0.35512282406E+01  0.85095805974E+01  0.51100000000E-03 0. -1.
        -11    1    3    3    0    0 -0.88304211429E+01 -0.21587962972E+02 -0.14836538076E+02  0.27643070473E+02  0.51100000000E-03 0.  1.
         12    1    3    3    0    0  0.17917209791E+02  0.30594766598E+02  0.78283310523E+01  0.36309074857E+02  0.00000000000E+00 0. -1.
</event>
<event>
 7    1  0.2710146E-013  0.7246118E+02  0.7816164E-02  0.1226709E+00
        -11   -1    0    0    0    0  0.00000000000E+00  0.00000000000E+00  0.45593999997E+02  0.45594000000E+02  0.51100000000E-03 0. -1.
         11   -1    0    0    0    0 -0.00000000000E+00 -0.00000000000E+00 -0.45593999997E+02  0.45594000000E+02  0.51100000000E-03 0.  1.
    9900012    2    1    2    0    0 -0.24906966757E+01  0.70546762935E+01 -0.17167457941E+02  0.72461183941E+02  0.69999496702E+02 0.  0.
        -12    1    1    2    0    0  0.24906966757E+01 -0.70546762935E+01  0.17167457941E+02  0.18726816059E+02  0.00000000000E+00 0.  1.
         11    1    3    3    0    0 -0.27659968090E+02  0.12893743251E+02  0.51502009381E+00  0.30521921560E+02  0.51100000000E-03 0. -1.
        -11    1    3    3    0    0 -0.55764605890E+01  0.25639461575E+01 -0.33405213050E+01  0.69878333874E+01  0.51100000000E-03 0.  1.
        -12    1    3    3    0    0  0.30745732004E+02 -0.84030131148E+01 -0.14341956730E+02  0.34951428994E+02  0.00000000000E+00 0.  1.
</event>
<event>
 7    1  0.2710146E-013  0.7246152E+02  0.7816164E-02  0.1226708E+00
        -11   -1    0    0    0    0  0.00000000000E+00  0.00000000000E+00  0.45593999997E+02  0.45594000000E+02  0.51100000000E-03 0. -1.
         11   -1    0    0    0    0 -0.00000000000E+00 -0.00000000000E+00 -0.45593999997E+02  0.45594000000E+02  0.51100000000E-03 0.  1.
    9900012    2    1    2    0    0  0.33222276904E+01  0.18405988545E+02  0.92930228442E+00  0.72461515709E+02  0.69999928893E+02 0.  0.
        -12    1    1    2    0    0 -0.33222276904E+01 -0.18405988545E+02 -0.92930228442E+00  0.18726484291E+02  0.00000000000E+00 0.  1.
         11    1    3    3    0    0 -0.15017692273E+02  0.32367931159E+02  0.12130378484E+02  0.37687665505E+02  0.51100000000E-03 0. -1.
        -11    1    3    3    0    0 -0.12195522986E+01  0.29998532058E+00  0.53201658905E+01  0.54663940916E+01  0.51100000000E-03 0.  1.
        -12    1    3    3    0    0  0.19559472262E+02 -0.14261927935E+02 -0.16521242090E+02  0.29307456113E+02  0.00000000000E+00 0.  1.
</event>
<event>
 7    1  0.2710146E-013  0.7246148E+02  0.7816164E-02  0.1226708E+00
        -11   -1    0    0    0    0  0.00000000000E+00  0.00000000000E+00  0.45593999997E+02  0.45594000000E+02  0.51100000000E-03 0.  1.
         11   -1    0    0    0    0 -0.00000000000E+00 -0.00000000000E+00 -0.45593999997E+02  0.45594000000E+02  0.51100000000E-03 0. -1.
    9900012    2    1    2    0    0 -0.19662191102E+01  0.10990191385E+02 -0.15034365656E+02  0.72461482039E+02  0.69999885031E+02 0.  0.
        -12    1    1    2    0    0  0.19662191102E+01 -0.10990191385E+02  0.15034365656E+02  0.18726517961E+02  0.00000000000E+00 0.  1.
         11    1    3    3    0    0 -0.16479754664E+02  0.21128397134E+02 -0.20221217823E+02  0.33569169334E+02  0.51100000000E-03 0. -1.
        -11    1    3    3    0    0  0.40688111594E+01 -0.66949327680E+01 -0.14420536023E+02  0.16411252496E+02  0.51100000000E-03 0.  1.
        -12    1    3    3    0    0  0.10444724394E+02 -0.34432729809E+01  0.19607388191E+02  0.22481060210E+02  0.00000000000E+00 0.  1.
</event>
<event>
 7    1  0.2710146E-013  0.7246155E+02  0.7816164E-02  0.1226708E+00
        -11   -1    0    0    0    0  0.00000000000E+00  0.00000000000E+00  0.45593999997E+02  0.45594000000E+02  0.51100000000E-03 0. -1.
         11   -1    0    0    0    0 -0.00000000000E+00 -0.00000000000E+00 -0.45593999997E+02  0.45594000000E+02  0.51100000000E-03 0.  1.
    9900012    2    1    2    0    0 -0.99224145723E+01  0.66973320753E+01  0.14400399014E+02  0.72461546528E+02  0.69999969040E+02 0.  0.
        -12    1    1    2    0    0  0.99224145723E+01 -0.66973320753E+01 -0.14400399014E+02  0.18726453472E+02  0.00000000000E+00 0.  1.
         11    1    3    3    0    0  0.12820705985E+02  0.20846336439E+02  0.15742720949E+02  0.29099372983E+02  0.51100000000E-03 0. -1.
        -11    1    3    3    0    0 -0.79899926067E+01  0.11123613556E+02 -0.31126400278E+01  0.14045044984E+02  0.51100000000E-03 0.  1.
         12    1    3    3    0    0 -0.14753127951E+02 -0.25272617920E+02  0.17703180936E+01  0.29317128560E+02  0.00000000000E+00 0. -1.
</event>
<event>
 7    1  0.2710146E-013  0.7246155E+02  0.7816164E-02  0.1226708E+00
        -11   -1    0    0    0    0  0.00000000000E+00  0.00000000000E+00  0.45593999997E+02  0.45594000000E+02  0.51100000000E-03 0. -1.
         11   -1    0    0    0    0 -0.00000000000E+00 -0.00000000000E+00 -0.45593999997E+02  0.45594000000E+02  0.51100000000E-03 0.  1.
    9900012    2    1    2    0    0  0.33317562007E+00  0.68318360839E+01  0.17432583951E+02  0.72461548829E+02  0.69999972037E+02 0.  0.
        -12    1    1    2    0    0 -0.33317562007E+00 -0.68318360839E+01 -0.17432583951E+02  0.18726451171E+02  0.00000000000E+00 0.  1.
         11    1    3    3    0    0  0.67948824093E+01  0.41510270762E+01 -0.13032849113E+02  0.15272740717E+02  0.51100000000E-03 0. -1.
        -11    1    3    3    0    0  0.11294165727E+01  0.92584728931E+01 -0.11058843328E+02  0.14466959533E+02  0.51100000000E-03 0.  1.
         12    1    3    3    0    0 -0.75911233620E+01 -0.65776638853E+01  0.41524276392E+02  0.42721848579E+02  0.00000000000E+00 0. -1.
</event>
<event>
 7    1  0.2710146E-013  0.7246153E+02  0.7816164E-02  0.1226708E+00
        -11   -1    0    0    0    0  0.00000000000E+00  0.00000000000E+00  0.45593999997E+02  0.45594000000E+02  0.51100000000E-03 0. -1.
         11   -1    0    0    0    0 -0.00000000000E+00 -0.00000000000E+00 -0.45593999997E+02  0.45594000000E+02  0.51100000000E-03 0.  1.
    9900012    2    1    2    0    0 -0.68905276080E+01  0.11620755727E+02  0.12967630104E+02  0.72461527697E+02  0.69999944510E+02 0.  0.
        -12    1    1    2    0    0  0.68905276080E+01 -0.11620755727E+02 -0.12967630104E+02  0.18726472303E+02  0.00000000000E+00 0.  1.
         11    1    3    3    0    0 -0.24797851185E+01  0.63799225420E+01  0.23832275872E+01  0.72479321099E+01  0.51100000000E-03 0. -1.
        -11    1    3    3    0    0  0.24220470213E+02  0.20400353464E+02  0.21675202828E+01  0.31741199461E+02  0.51100000000E-03 0.  1.
         12    1    3    3    0    0 -0.28631212702E+02 -0.15159520279E+02  0.84168822341E+01  0.33472396126E+02  0.00000000000E+00 0. -1.
</event>
<event>
 7    1  0.2710146E-013  0.7246160E+02  0.7816164E-02  0.1226708E+00
        -11   -1    0    0    0    0  0.00000000000E+00  0.00000000000E+00  0.45593999997E+02  0.45594000000E+02  0.51100000000E-03 0. -1.
         11   -1    0    0    0    0 -0.00000000000E+00 -0.00000000000E+00 -0.45593999997E+02  0.45594000000E+02  0.51100000000E-03 0.  1.
    9900012    2    1    2    0    0  0.10113429441E+02 -0.44649084394E+01  0.15114934279E+02  0.72461598833E+02  0.70000037177E+02 0.  0.
        -12    1    1    2    0    0 -0.10113429441E+02  0.44649084394E+01 -0.15114934279E+02  0.18726401167E+02  0.00000000000E+00 0.  1.
         11    1    3    3    0    0  0.23740057915E+01  0.19223072816E+02  0.24448556344E+02  0.31191254216E+02  0.51100000000E-03 0. -1.
        -11    1    3    3    0    0  0.20221412295E+01  0.22266862830E+01  0.86865471958E+01  0.91925670735E+01  0.51100000000E-03 0.  1.
        -12    1    3    3    0    0  0.57172824199E+01 -0.25914667539E+02 -0.18020169261E+02  0.32077777543E+02  0.00000000000E+00 0.  1.
</event>
<event>
 7    1  0.2710146E-013  0.7246163E+02  0.7816164E-02  0.1226708E+00
        -11   -1    0    0    0    0  0.00000000000E+00  0.00000000000E+00  0.45593999997E+02  0.45594000000E+02  0.51100000000E-03 0. -1.
         11   -1    0    0    0    0 -0.00000000000E+00 -0.00000000000E+00 -0.45593999997E+02  0.45594000000E+02  0.51100000000E-03 0.  1.
    9900012    2    1    2    0    0  0.14076154692E+02  0.24253025487E+01  0.12110193508E+02  0.72461627950E+02  0.70000075107E+02 0.  0.
        -12    1    1    2    0    0 -0.14076154692E+02 -0.24253025487E+01 -0.12110193508E+02  0.18726372050E+02  0.00000000000E+00 0.  1.
         11    1    3    3    0    0  0.12919205362E+02 -0.21567085063E+01  0.35460149740E+00  0.13102786011E+02  0.51100000000E-03 0. -1.
        -11    1    3    3    0    0 -0.39562625825E+01 -0.23905365571E+02  0.17451709883E+02  0.29861023004E+02  0.51100000000E-03 0.  1.
         12    1    3    3    0    0  0.51132119125E+01  0.28487376626E+02 -0.56961178724E+01  0.29497818935E+02  0.00000000000E+00 0. -1.
</event>
<event>
 7    1  0.4472359E-013  0.7246159E+02  0.7816164E-02  0.1226708E+00
        -11   -1    0    0    0    0  0.00000000000E+00  0.00000000000E+00  0.45593999997E+02  0.45594000000E+02  0.51100000000E-03 0. -1.
         11   -1    0    0    0    0 -0.00000000000E+00 -0.00000000000E+00 -0.45593999997E+02  0.45594000000E+02  0.51100000000E-03 0.  1.
    9900012    2    1    2    0    0 -0.21002272861E+01 -0.12017844869E+02  0.14207005047E+02  0.72461587040E+02  0.70000021814E+02 0.  0.
        -12    1    1    2    0    0  0.21002272861E+01  0.12017844869E+02 -0.14207005047E+02  0.18726412960E+02  0.00000000000E+00 0.  1.
         11    1    3    3    0    0  0.67240729122E+01  0.62956765519E+01  0.20417379711E+02  0.22399064585E+02  0.51100000000E-03 0. -1.
        -11    1    3    3    0    0  0.24538576754E+00  0.39877144388E+01 -0.21285479638E+02  0.21657186436E+02  0.51100000000E-03 0.  1.
         12    1    3    3    0    0 -0.90696859658E+01 -0.22301235860E+02  0.15075104974E+02  0.28405336019E+02  0.00000000000E+00 0. -1.
</event>
<event>
 7    1  0.2710146E-013  0.7246158E+02  0.7816164E-02  0.1226708E+00
        -11   -1    0    0    0    0  0.00000000000E+00  0.00000000000E+00  0.45593999997E+02  0.45594000000E+02  0.51100000000E-03 0.  1.
         11   -1    0    0    0    0 -0.00000000000E+00 -0.00000000000E+00 -0.45593999997E+02  0.45594000000E+02  0.51100000000E-03 0. -1.
    9900012    2    1    2    0    0  0.36991673393E+01  0.17374280669E+02 -0.59270135597E+01  0.72461575955E+02  0.70000007374E+02 0.  0.
        -12    1    1    2    0    0 -0.36991673393E+01 -0.17374280669E+02  0.59270135597E+01  0.18726424045E+02  0.00000000000E+00 0.  1.
         11    1    3    3    0    0 -0.47243409568E+01  0.13798894259E+02 -0.59072569717E+01  0.15736091174E+02  0.51100000000E-03 0. -1.
        -11    1    3    3    0    0  0.43682156129E+01  0.25333119853E+02 -0.15221277790E+02  0.29875333755E+02  0.51100000000E-03 0.  1.
        -12    1    3    3    0    0  0.40552926831E+01 -0.21757733443E+02  0.15201521202E+02  0.26850151027E+02  0.00000000000E+00 0.  1.
</event>
<event>
 7    1  0.2710146E-013  0.7246154E+02  0.7816164E-02  0.1226708E+00
        -11   -1    0    0    0    0  0.00000000000E+00  0.00000000000E+00  0.45593999997E+02  0.45594000000E+02  0.51100000000E-03 0. -1.
         11   -1    0    0    0    0 -0.00000000000E+00 -0.00000000000E+00 -0.45593999997E+02  0.45594000000E+02  0.51100000000E-03 0.  1.
    9900012    2    1    2    0    0 -0.18638248237E+01  0.60769793731E+01  0.17614679844E+02  0.72461535644E+02  0.69999954861E+02 0.  0.
        -12    1    1    2    0    0  0.18638248237E+01 -0.60769793731E+01 -0.17614679844E+02  0.18726464356E+02  0.00000000000E+00 0.  1.
         11    1    3    3    0    0  0.63100785646E+01 -0.18822368448E+02  0.15156554249E+02  0.24976384495E+02  0.51100000000E-03 0. -1.
        -11    1    3    3    0    0  0.52335446774E+00 -0.54500077623E+01  0.13076438959E+02  0.14176379673E+02  0.51100000000E-03 0.  1.
        -12    1    3    3    0    0 -0.86972578560E+01  0.30349355583E+02 -0.10618313364E+02  0.33308771476E+02  0.00000000000E+00 0.  1.
</event>
<event>
 7    1  0.2710146E-013  0.7246153E+02  0.7816164E-02  0.1226708E+00
        -11   -1    0    0    0    0  0.00000000000E+00  0.00000000000E+00  0.45593999997E+02  0.45594000000E+02  0.51100000000E-03 0.  1.
         11   -1    0    0    0    0 -0.00000000000E+00 -0.00000000000E+00 -0.45593999997E+02  0.45594000000E+02  0.51100000000E-03 0. -1.
    9900012    2    1    2    0    0 -0.15741955895E+02  0.63471452172E+01 -0.79110868954E+01  0.72461528798E+02  0.69999945943E+02 0.  0.
        -12    1    1    2    0    0  0.15741955895E+02 -0.63471452172E+01  0.79110868954E+01  0.18726471202E+02  0.00000000000E+00 0.  1.
         11    1    3    3    0    0 -0.25789126114E+01  0.95694657184E+00 -0.33719753460E+02  0.33831764817E+02  0.51100000000E-03 0. -1.
        -11    1    3    3    0    0  0.57536080476E+01 -0.45839832707E+01  0.64262311122E+01  0.97679759807E+01  0.51100000000E-03 0.  1.
        -12    1    3    3    0    0 -0.18916651331E+02  0.99741819161E+01  0.19382435452E+02  0.28861788000E+02  0.00000000000E+00 0.  1.
</event>
<event>
 7    1  0.2710146E-013  0.7246155E+02  0.7816164E-02  0.1226708E+00
        -11   -1    0    0    0    0  0.00000000000E+00  0.00000000000E+00  0.45593999997E+02  0.45594000000E+02  0.51100000000E-03 0.  1.
         11   -1    0    0    0    0 -0.00000000000E+00 -0.00000000000E+00 -0.45593999997E+02  0.45594000000E+02  0.51100000000E-03 0. -1.
    9900012    2    1    2    0    0 -0.13686413456E+02 -0.67969213362E+00 -0.12763223405E+02  0.72461554358E+02  0.69999979240E+02 0.  0.
        -12    1    1    2    0    0  0.13686413456E+02  0.67969213362E+00  0.12763223405E+02  0.18726445642E+02  0.00000000000E+00 0.  1.
         11    1    3    3    0    0  0.97581518759E+01  0.16024289753E+02  0.97176862941E+01  0.21128956844E+02  0.51100000000E-03 0. -1.
        -11    1    3    3    0    0  0.11937915809E+01  0.84913541716E+01  0.15026892240E+01  0.87055332502E+01  0.51100000000E-03 0.  1.
         12    1    3    3    0    0 -0.24638356913E+02 -0.25195336058E+02 -0.23983598924E+02  0.42627064264E+02  0.00000000000E+00 0. -1.
</event>
<event>
 7    1  0.2710146E-013  0.7246172E+02  0.7816164E-02  0.1226708E+00
        -11   -1    0    0    0    0  0.00000000000E+00  0.00000000000E+00  0.45593999997E+02  0.45594000000E+02  0.51100000000E-03 0. -1.
         11   -1    0    0    0    0 -0.00000000000E+00 -0.00000000000E+00 -0.45593999997E+02  0.45594000000E+02  0.51100000000E-03 0.  1.
    9900012    2    1    2    0    0 -0.13327697621E+02  0.13067916186E+02 -0.15085206072E+01  0.72461719223E+02  0.70000194006E+02 0.  0.
        -12    1    1    2    0    0  0.13327697621E+02 -0.13067916186E+02  0.15085206072E+01  0.18726280777E+02  0.00000000000E+00 0.  1.
         11    1    3    3    0    0 -0.45393830490E+01  0.67646458097E+01 -0.94582603321E+01  0.12482993238E+02  0.51100000000E-03 0. -1.
        -11    1    3    3    0    0 -0.29606561899E+02  0.17027954063E+02 -0.26836532169E+01  0.34259330436E+02  0.51100000000E-03 0.  1.
         12    1    3    3    0    0  0.20818247327E+02 -0.10724683687E+02  0.10633392942E+02  0.25719395549E+02  0.00000000000E+00 0. -1.
</event>
<event>
 7    1  0.2710146E-013  0.7246160E+02  0.7816164E-02  0.1226708E+00
        -11   -1    0    0    0    0  0.00000000000E+00  0.00000000000E+00  0.45593999997E+02  0.45594000000E+02  0.51100000000E-03 0. -1.
         11   -1    0    0    0    0 -0.00000000000E+00 -0.00000000000E+00 -0.45593999997E+02  0.45594000000E+02  0.51100000000E-03 0.  1.
    9900012    2    1    2    0    0  0.18240022637E+02 -0.25211892679E+01  0.34092852742E+01  0.72461600261E+02  0.70000039037E+02 0.  0.
        -12    1    1    2    0    0 -0.18240022637E+02  0.25211892679E+01 -0.34092852742E+01  0.18726399739E+02  0.00000000000E+00 0.  1.
         11    1    3    3    0    0  0.18236397682E+02 -0.16637266479E+02 -0.34276176702E+01  0.24922146767E+02  0.51100000000E-03 0. -1.
        -11    1    3    3    0    0 -0.33393408366E+01 -0.15899600650E+02  0.60236914479E+01  0.17327243202E+02  0.51100000000E-03 0.  1.
        -12    1    3    3    0    0  0.33429657917E+01  0.30015677862E+02  0.81321149638E+00  0.30212210292E+02  0.00000000000E+00 0.  1.
</event>
<event>
 7    1  0.2710146E-013  0.7246160E+02  0.7816164E-02  0.1226708E+00
        -11   -1    0    0    0    0  0.00000000000E+00  0.00000000000E+00  0.45593999997E+02  0.45594000000E+02  0.51100000000E-03 0. -1.
         11   -1    0    0    0    0 -0.00000000000E+00 -0.00000000000E+00 -0.45593999997E+02  0.45594000000E+02  0.51100000000E-03 0.  1.
    9900012    2    1    2    0    0 -0.17378676082E+02 -0.25857173634E+01  0.64787254088E+01  0.72461596193E+02  0.70000033737E+02 0.  0.
        -12    1    1    2    0    0  0.17378676082E+02  0.25857173634E+01 -0.64787254088E+01  0.18726403807E+02  0.00000000000E+00 0.  1.
         11    1    3    3    0    0  0.10216452367E+02 -0.10954060824E+00  0.15021723736E+02  0.18167005322E+02  0.51100000000E-03 0. -1.
        -11    1    3    3    0    0 -0.12128509348E+02  0.80861257646E+01  0.17144796912E+02  0.22504004762E+02  0.51100000000E-03 0.  1.
        -12    1    3    3    0    0 -0.15466619101E+02 -0.10562302520E+02 -0.25687795239E+02  0.31790586109E+02  0.00000000000E+00 0.  1.
</event>
<event>
 7    1  0.2710146E-013  0.7246154E+02  0.7816164E-02  0.1226708E+00
        -11   -1    0    0    0    0  0.00000000000E+00  0.00000000000E+00  0.45593999997E+02  0.45594000000E+02  0.51100000000E-03 0. -1.
         11   -1    0    0    0    0 -0.00000000000E+00 -0.00000000000E+00 -0.45593999997E+02  0.45594000000E+02  0.51100000000E-03 0.  1.
    9900012    2    1    2    0    0  0.76355285125E+01  0.86373827967E+01  0.14757191760E+02  0.72461537817E+02  0.69999957693E+02 0.  0.
        -12    1    1    2    0    0 -0.76355285125E+01 -0.86373827967E+01 -0.14757191760E+02  0.18726462183E+02  0.00000000000E+00 0.  1.
         11    1    3    3    0    0 -0.57992265845E+01 -0.18353219149E+02  0.16060955695E+02  0.25068425962E+02  0.51100000000E-03 0. -1.
        -11    1    3    3    0    0 -0.10805545749E+02  0.18960410528E+02 -0.12162784685E+01  0.21857180054E+02  0.51100000000E-03 0.  1.
        -12    1    3    3    0    0  0.24240300846E+02  0.80301914174E+01 -0.87485466565E-01  0.25535931802E+02  0.00000000000E+00 0.  1.
</event>
<event>
 7    1  0.2710146E-013  0.7246158E+02  0.7816164E-02  0.1226708E+00
        -11   -1    0    0    0    0  0.00000000000E+00  0.00000000000E+00  0.45593999997E+02  0.45594000000E+02  0.51100000000E-03 0. -1.
         11   -1    0    0    0    0 -0.00000000000E+00 -0.00000000000E+00 -0.45593999997E+02  0.45594000000E+02  0.51100000000E-03 0.  1.
    9900012    2    1    2    0    0  0.87120201053E+01 -0.13244842196E+02  0.99676374447E+01  0.72461576547E+02  0.70000008146E+02 0.  0.
        -12    1    1    2    0    0 -0.87120201053E+01  0.13244842196E+02 -0.99676374447E+01  0.18726423453E+02  0.00000000000E+00 0.  1.
         11    1    3    3    0    0 -0.18194916955E+02 -0.31618506500E+01 -0.18140804428E+01  0.18556486484E+02  0.51100000000E-03 0. -1.
        -11    1    3    3    0    0 -0.95392967647E+00 -0.20682319556E+02  0.12317606224E+02  0.24091320997E+02  0.51100000000E-03 0.  1.
        -12    1    3    3    0    0  0.27860866737E+02  0.10599328010E+02 -0.53588833664E+00  0.29813769066E+02  0.00000000000E+00 0.  1.
</event>
<event>
 7    1  0.2710146E-013  0.7246155E+02  0.7816164E-02  0.1226708E+00
        -11   -1    0    0    0    0  0.00000000000E+00  0.00000000000E+00  0.45593999997E+02  0.45594000000E+02  0.51100000000E-03 0. -1.
         11   -1    0    0    0    0 -0.00000000000E+00 -0.00000000000E+00 -0.45593999997E+02  0.45594000000E+02  0.51100000000E-03 0.  1.
    9900012    2    1    2    0    0  0.23293227191E+01 -0.89076372128E+01  0.16306685928E+02  0.72461554769E+02  0.69999979775E+02 0.  0.
        -12    1    1    2    0    0 -0.23293227191E+01  0.89076372128E+01 -0.16306685928E+02  0.18726445231E+02  0.00000000000E+00 0.  1.
         11    1    3    3    0    0 -0.21243462557E+02 -0.59342800511E+01  0.11078836598E+02  0.24682807817E+02  0.51100000000E-03 0. -1.
        -11    1    3    3    0    0 -0.92953459766E+01 -0.84002118874E+01  0.71226492418E+01  0.14411771198E+02  0.51100000000E-03 0.  1.
        -12    1    3    3    0    0  0.32868131252E+02  0.54268547258E+01 -0.18947999120E+01  0.33366975754E+02  0.00000000000E+00 0.  1.
</event>
<event>
 7    1  0.2710146E-013  0.7246162E+02  0.7816164E-02  0.1226708E+00
        -11   -1    0    0    0    0  0.00000000000E+00  0.00000000000E+00  0.45593999997E+02  0.45594000000E+02  0.51100000000E-03 0.  1.
         11   -1    0    0    0    0 -0.00000000000E+00 -0.00000000000E+00 -0.45593999997E+02  0.45594000000E+02  0.51100000000E-03 0. -1.
    9900012    2    1    2    0    0 -0.12363097654E+02 -0.13979619211E+02  0.15496457616E+01  0.72461619173E+02  0.70000063674E+02 0.  0.
        -12    1    1    2    0    0  0.12363097654E+02  0.13979619211E+02 -0.15496457616E+01  0.18726380827E+02  0.00000000000E+00 0.  1.
         11    1    3    3    0    0 -0.75943962638E+01  0.14322925588E+02 -0.13668335136E+02  0.21204821095E+02  0.51100000000E-03 0. -1.
        -11    1    3    3    0    0  0.10263050845E+02 -0.11668081035E+02 -0.92389303039E+01  0.18078499969E+02  0.51100000000E-03 0.  1.
        -12    1    3    3    0    0 -0.15031752236E+02 -0.16634463764E+02  0.24456911201E+02  0.33178298110E+02  0.00000000000E+00 0.  1.
</event>
<event>
 7    1  0.2710146E-013  0.7246160E+02  0.7816164E-02  0.1226708E+00
        -11   -1    0    0    0    0  0.00000000000E+00  0.00000000000E+00  0.45593999997E+02  0.45594000000E+02  0.51100000000E-03 0.  1.
         11   -1    0    0    0    0 -0.00000000000E+00 -0.00000000000E+00 -0.45593999997E+02  0.45594000000E+02  0.51100000000E-03 0. -1.
    9900012    2    1    2    0    0  0.13505698133E+02  0.23274898802E+00 -0.12969967958E+02  0.72461598237E+02  0.70000036401E+02 0.  0.
        -12    1    1    2    0    0 -0.13505698133E+02 -0.23274898802E+00  0.12969967958E+02  0.18726401763E+02  0.00000000000E+00 0.  1.
         11    1    3    3    0    0 -0.30544594358E+01 -0.24906397773E+01  0.11689244691E+01  0.41108872060E+01  0.51100000000E-03 0. -1.
        -11    1    3    3    0    0 -0.14886964195E+02  0.21666544124E+02 -0.17352000542E+02  0.31498456475E+02  0.51100000000E-03 0.  1.
         12    1    3    3    0    0  0.31447121764E+02 -0.18943155358E+02  0.32131081150E+01  0.36852254557E+02  0.00000000000E+00 0. -1.
</event>
<event>
 7    1  0.2862548E-013  0.7246157E+02  0.7816164E-02  0.1226708E+00
        -11   -1    0    0    0    0  0.00000000000E+00  0.00000000000E+00  0.45593999997E+02  0.45594000000E+02  0.51100000000E-03 0. -1.
         11   -1    0    0    0    0 -0.00000000000E+00 -0.00000000000E+00 -0.45593999997E+02  0.45594000000E+02  0.51100000000E-03 0.  1.
    9900012    2    1    2    0    0  0.13021819157E+02  0.53975918053E+01  0.12327915753E+02  0.72461567391E+02  0.69999996218E+02 0.  0.
        -12    1    1    2    0    0 -0.13021819157E+02 -0.53975918053E+01 -0.12327915753E+02  0.18726432609E+02  0.00000000000E+00 0.  1.
         11    1    3    3    0    0  0.81613751535E+01 -0.10817107858E+02  0.21206730022E+02  0.25166312112E+02  0.51100000000E-03 0. -1.
        -11    1    3    3    0    0 -0.17015236543E+02  0.18667232401E+01  0.47947418521E+01  0.17776177316E+02  0.51100000000E-03 0.  1.
        -12    1    3    3    0    0  0.21875680546E+02  0.14347976423E+02 -0.13673556121E+02  0.29519077963E+02  0.00000000000E+00 0.  1.
</event>
<event>
 7    1  0.2710146E-013  0.7246148E+02  0.7816164E-02  0.1226708E+00
        -11   -1    0    0    0    0  0.00000000000E+00  0.00000000000E+00  0.45593999997E+02  0.45594000000E+02  0.51100000000E-03 0. -1.
         11   -1    0    0    0    0 -0.00000000000E+00 -0.00000000000E+00 -0.45593999997E+02  0.45594000000E+02  0.51100000000E-03 0.  1.
    9900012    2    1    2    0    0  0.33910750612E+01  0.92358835071E+00  0.18393749947E+02  0.72461482902E+02  0.69999886155E+02 0.  0.
        -12    1    1    2    0    0 -0.33910750612E+01 -0.92358835071E+00 -0.18393749947E+02  0.18726517098E+02  0.00000000000E+00 0.  1.
         11    1    3    3    0    0 -0.56373741792E+01  0.21179072232E+02  0.48213658550E+00  0.21921805222E+02  0.51100000000E-03 0. -1.
        -11    1    3    3    0    0 -0.11602214541E+01  0.11726521732E+02 -0.13157454484E+01  0.11857006878E+02  0.51100000000E-03 0.  1.
         12    1    3    3    0    0  0.10188670694E+02 -0.31982005613E+02  0.19227358810E+02  0.38682670802E+02  0.00000000000E+00 0. -1.
</event>
<event>
 7    1  0.2710146E-013  0.7246159E+02  0.7816164E-02  0.1226708E+00
        -11   -1    0    0    0    0  0.00000000000E+00  0.00000000000E+00  0.45593999997E+02  0.45594000000E+02  0.51100000000E-03 0.  1.
         11   -1    0    0    0    0 -0.00000000000E+00 -0.00000000000E+00 -0.45593999997E+02  0.45594000000E+02  0.51100000000E-03 0. -1.
    9900012    2    1    2    0    0  0.95630862286E+00 -0.16845451808E+02 -0.81237095276E+01  0.72461590059E+02  0.70000025747E+02 0.  0.
        -12    1    1    2    0    0 -0.95630862286E+00  0.16845451808E+02  0.81237095276E+01  0.18726409941E+02  0.00000000000E+00 0.  1.
         11    1    3    3    0    0  0.16460093645E+02  0.45148310699E+01 -0.30596808271E+02  0.35035454314E+02  0.51100000000E-03 0. -1.
        -11    1    3    3    0    0 -0.77819417508E+01 -0.13781208592E+01  0.29296953986E+01  0.84285793527E+01  0.51100000000E-03 0.  1.
        -12    1    3    3    0    0 -0.77218432714E+01 -0.19982162018E+02  0.19543403344E+02  0.28997556392E+02  0.00000000000E+00 0.  1.
</event>
<event>
 7    1  0.2710146E-013  0.7246155E+02  0.7816164E-02  0.1226708E+00
        -11   -1    0    0    0    0  0.00000000000E+00  0.00000000000E+00  0.45593999997E+02  0.45594000000E+02  0.51100000000E-03 0.  1.
         11   -1    0    0    0    0 -0.00000000000E+00 -0.00000000000E+00 -0.45593999997E+02  0.45594000000E+02  0.51100000000E-03 0. -1.
    9900012    2    1    2    0    0  0.61054706309E+01 -0.11720533207E+02  0.13267720942E+02  0.72461545737E+02  0.69999968009E+02 0.  0.
        -12    1    1    2    0    0 -0.61054706309E+01  0.11720533207E+02 -0.13267720942E+02  0.18726454263E+02  0.00000000000E+00 0.  1.
         11    1    3    3    0    0 -0.12233744451E+02 -0.74129784343E+01 -0.21105607375E+02  0.25496341217E+02  0.51100000000E-03 0. -1.
        -11    1    3    3    0    0  0.31422768195E+00 -0.47965778855E+01 -0.28614623442E+01  0.55940920135E+01  0.51100000000E-03 0.  1.
        -12    1    3    3    0    0  0.18024987400E+02  0.48902311301E+00  0.37234790661E+02  0.41371112506E+02  0.00000000000E+00 0.  1.
</event>
<event>
 7    1  0.2710146E-013  0.7246163E+02  0.7816164E-02  0.1226708E+00
        -11   -1    0    0    0    0  0.00000000000E+00  0.00000000000E+00  0.45593999997E+02  0.45594000000E+02  0.51100000000E-03 0. -1.
         11   -1    0    0    0    0 -0.00000000000E+00 -0.00000000000E+00 -0.45593999997E+02  0.45594000000E+02  0.51100000000E-03 0.  1.
    9900012    2    1    2    0    0 -0.38586424073E+01  0.17915504570E+02  0.38499773335E+01  0.72461634877E+02  0.70000084131E+02 0.  0.
        -12    1    1    2    0    0  0.38586424073E+01 -0.17915504570E+02 -0.38499773335E+01  0.18726365123E+02  0.00000000000E+00 0.  1.
         11    1    3    3    0    0 -0.72084834050E+01  0.20841738522E+01 -0.56113178274E+01  0.93697866394E+01  0.51100000000E-03 0. -1.
        -11    1    3    3    0    0  0.16899708460E+02  0.34818292839E+02  0.26585507432E+01  0.38794091748E+02  0.51100000000E-03 0.  1.
         12    1    3    3    0    0 -0.13549867463E+02 -0.18986962120E+02  0.68027444177E+01  0.24297756490E+02  0.00000000000E+00 0. -1.
</event>
<event>
 7    1  0.2710146E-013  0.7246157E+02  0.7816164E-02  0.1226708E+00
        -11   -1    0    0    0    0  0.00000000000E+00  0.00000000000E+00  0.45593999997E+02  0.45594000000E+02  0.51100000000E-03 0.  1.
         11   -1    0    0    0    0 -0.00000000000E+00 -0.00000000000E+00 -0.45593999997E+02  0.45594000000E+02  0.51100000000E-03 0. -1.
    9900012    2    1    2    0    0  0.42996175037E+01  0.18120510548E+02 -0.19594759991E+01  0.72461570565E+02  0.70000000352E+02 0.  0.
        -12    1    1    2    0    0 -0.42996175037E+01 -0.18120510548E+02  0.19594759991E+01  0.18726429435E+02  0.00000000000E+00 0.  1.
         11    1    3    3    0    0  0.15189646755E+01  0.45374941769E+01  0.48827492475E+01  0.68364718654E+01  0.51100000000E-03 0. -1.
        -11    1    3    3    0    0 -0.52957774626E+01 -0.20452293514E+02  0.13584467724E+02  0.25117311411E+02  0.51100000000E-03 0.  1.
         12    1    3    3    0    0  0.80764302908E+01  0.34035309885E+02 -0.20426692971E+02  0.40507787288E+02  0.00000000000E+00 0. -1.
</event>
<event>
 7    1  0.2710146E-013  0.7246167E+02  0.7816164E-02  0.1226708E+00
        -11   -1    0    0    0    0  0.00000000000E+00  0.00000000000E+00  0.45593999997E+02  0.45594000000E+02  0.51100000000E-03 0.  1.
         11   -1    0    0    0    0 -0.00000000000E+00 -0.00000000000E+00 -0.45593999997E+02  0.45594000000E+02  0.51100000000E-03 0. -1.
    9900012    2    1    2    0    0 -0.11769819193E+02 -0.13065523423E+02 -0.64373148402E+01  0.72461666442E+02  0.70000125250E+02 0.  0.
        -12    1    1    2    0    0  0.11769819193E+02  0.13065523423E+02  0.64373148402E+01  0.18726333558E+02  0.00000000000E+00 0.  1.
         11    1    3    3    0    0 -0.14811045187E+02 -0.31594837559E+02 -0.10040749935E+02  0.36310018995E+02  0.51100000000E-03 0. -1.
        -11    1    3    3    0    0 -0.82096890968E+01  0.14795908200E+01 -0.89025260993E+01  0.12200129314E+02  0.51100000000E-03 0.  1.
        -12    1    3    3    0    0  0.11250915091E+02  0.17049723315E+02  0.12505961194E+02  0.23951518133E+02  0.00000000000E+00 0.  1.
</event>
<event>
 7    1  0.2710146E-013  0.7246156E+02  0.7816164E-02  0.1226708E+00
        -11   -1    0    0    0    0  0.00000000000E+00  0.00000000000E+00  0.45593999997E+02  0.45594000000E+02  0.51100000000E-03 0. -1.
         11   -1    0    0    0    0 -0.00000000000E+00 -0.00000000000E+00 -0.45593999997E+02  0.45594000000E+02  0.51100000000E-03 0.  1.
    9900012    2    1    2    0    0  0.14976224292E+02  0.88438053664E+01  0.69411408405E+01  0.72461558171E+02  0.69999984207E+02 0.  0.
        -12    1    1    2    0    0 -0.14976224292E+02 -0.88438053664E+01 -0.69411408405E+01  0.18726441829E+02  0.00000000000E+00 0.  1.
         11    1    3    3    0    0 -0.56895991877E+01  0.83313438710E+01  0.17398727917E+02  0.20112149637E+02  0.51100000000E-03 0. -1.
        -11    1    3    3    0    0  0.17484190637E+02  0.17547786836E+02  0.89425682813E+01  0.26336121066E+02  0.51100000000E-03 0.  1.
         12    1    3    3    0    0  0.31816328434E+01 -0.17035325341E+02 -0.19400155358E+02  0.26013287469E+02  0.00000000000E+00 0. -1.
</event>
<event>
 7    1  0.2710146E-013  0.7246134E+02  0.7816164E-02  0.1226709E+00
        -11   -1    0    0    0    0  0.00000000000E+00  0.00000000000E+00  0.45593999997E+02  0.45594000000E+02  0.51100000000E-03 0.  1.
         11   -1    0    0    0    0 -0.00000000000E+00 -0.00000000000E+00 -0.45593999997E+02  0.45594000000E+02  0.51100000000E-03 0. -1.
    9900012    2    1    2    0    0  0.92029612250E+01 -0.13388036989E+02 -0.93141790151E+01  0.72461335576E+02  0.69999694235E+02 0.  0.
        -12    1    1    2    0    0 -0.92029612250E+01  0.13388036989E+02  0.93141790151E+01  0.18726664424E+02  0.00000000000E+00 0.  1.
         11    1    3    3    0    0  0.14741861974E+02  0.10912549193E+02 -0.43485457557E+01  0.18849829569E+02  0.51100000000E-03 0. -1.
        -11    1    3    3    0    0  0.13830159860E+02  0.73559381509E+01 -0.51799736818E+01  0.16498947707E+02  0.51100000000E-03 0.  1.
        -12    1    3    3    0    0 -0.19369060609E+02 -0.31656524333E+02  0.21434042241E+00  0.37112558299E+02  0.00000000000E+00 0.  1.
</event>
<event>
 7    1  0.2710146E-013  0.7246158E+02  0.7816164E-02  0.1226708E+00
        -11   -1    0    0    0    0  0.00000000000E+00  0.00000000000E+00  0.45593999997E+02  0.45594000000E+02  0.51100000000E-03 0.  1.
         11   -1    0    0    0    0 -0.00000000000E+00 -0.00000000000E+00 -0.45593999997E+02  0.45594000000E+02  0.51100000000E-03 0. -1.
    9900012    2    1    2    0    0  0.32520680337E+01 -0.10801506610E+02 -0.14947579954E+02  0.72461584486E+02  0.70000018487E+02 0.  0.
        -12    1    1    2    0    0 -0.32520680337E+01  0.10801506610E+02  0.14947579954E+02  0.18726415514E+02  0.00000000000E+00 0.  1.
         11    1    3    3    0    0 -0.21152924387E+02 -0.63174512894E+01  0.90402748055E+01  0.23855459956E+02  0.51100000000E-03 0. -1.
        -11    1    3    3    0    0  0.61618852171E+01 -0.16320089170E+02 -0.17980745091E+01  0.17537024039E+02  0.51100000000E-03 0.  1.
         12    1    3    3    0    0  0.18243107203E+02  0.11836033850E+02 -0.22189780250E+02  0.31069100490E+02  0.00000000000E+00 0. -1.
</event>
<event>
 7    1  0.2710146E-013  0.7246162E+02  0.7816164E-02  0.1226708E+00
        -11   -1    0    0    0    0  0.00000000000E+00  0.00000000000E+00  0.45593999997E+02  0.45594000000E+02  0.51100000000E-03 0.  1.
         11   -1    0    0    0    0 -0.00000000000E+00 -0.00000000000E+00 -0.45593999997E+02  0.45594000000E+02  0.51100000000E-03 0. -1.
    9900012    2    1    2    0    0  0.17630694136E+02 -0.62200748236E+01 -0.10708411515E+01  0.72461617346E+02  0.70000061293E+02 0.  0.
        -12    1    1    2    0    0 -0.17630694136E+02  0.62200748236E+01  0.10708411515E+01  0.18726382654E+02  0.00000000000E+00 0.  1.
         11    1    3    3    0    0  0.45579491125E+01 -0.26679561866E+01  0.37295672475E+01  0.64654901161E+01  0.51100000000E-03 0. -1.
        -11    1    3    3    0    0 -0.47427019580E+01  0.28047462009E+02  0.38454746655E+01  0.28704372885E+02  0.51100000000E-03 0.  1.
         12    1    3    3    0    0  0.17815446982E+02 -0.31599580646E+02 -0.86458830645E+01  0.37291754345E+02  0.00000000000E+00 0. -1.
</event>
<event>
 7    1  0.2710146E-013  0.7246150E+02  0.7816164E-02  0.1226708E+00
        -11   -1    0    0    0    0  0.00000000000E+00  0.00000000000E+00  0.45593999997E+02  0.45594000000E+02  0.51100000000E-03 0.  1.
         11   -1    0    0    0    0 -0.00000000000E+00 -0.00000000000E+00 -0.45593999997E+02  0.45594000000E+02  0.51100000000E-03 0. -1.
    9900012    2    1    2    0    0 -0.17590929824E+02  0.54909684857E+01 -0.33302197020E+01  0.72461497117E+02  0.69999904673E+02 0.  0.
        -12    1    1    2    0    0  0.17590929824E+02 -0.54909684857E+01  0.33302197020E+01  0.18726502883E+02  0.00000000000E+00 0.  1.
         11    1    3    3    0    0  0.50080447814E+01  0.19288740846E+01 -0.11970621575E+02  0.13118568859E+02  0.51100000000E-03 0. -1.
        -11    1    3    3    0    0  0.81365992331E+01 -0.18141188606E+02  0.87359761654E+01  0.21716911635E+02  0.51100000000E-03 0.  1.
         12    1    3    3    0    0 -0.30735573838E+02  0.21703283007E+02 -0.95574292541E-01  0.37626016623E+02  0.00000000000E+00 0. -1.
</event>
<event>
 7    1  0.2710146E-013  0.7246158E+02  0.7816164E-02  0.1226708E+00
        -11   -1    0    0    0    0  0.00000000000E+00  0.00000000000E+00  0.45593999997E+02  0.45594000000E+02  0.51100000000E-03 0.  1.
         11   -1    0    0    0    0 -0.00000000000E+00 -0.00000000000E+00 -0.45593999997E+02  0.45594000000E+02  0.51100000000E-03 0. -1.
    9900012    2    1    2    0    0  0.27811690006E+01  0.82270733399E+01 -0.16590934957E+02  0.72461581242E+02  0.70000014261E+02 0.  0.
        -12    1    1    2    0    0 -0.27811690006E+01 -0.82270733399E+01  0.16590934957E+02  0.18726418758E+02  0.00000000000E+00 0.  1.
         11    1    3    3    0    0  0.10633211637E+02  0.15809135440E+02 -0.80381374094E+01  0.20678626800E+02  0.51100000000E-03 0. -1.
        -11    1    3    3    0    0  0.14628715269E+02 -0.63355743496E+01  0.13033485125E+02  0.20591516397E+02  0.51100000000E-03 0.  1.
        -12    1    3    3    0    0 -0.22480757905E+02 -0.12464877504E+01 -0.21586282672E+02  0.31191438045E+02  0.00000000000E+00 0.  1.
</event>
<event>
 7    1  0.2710146E-013  0.7246158E+02  0.7816164E-02  0.1226708E+00
        -11   -1    0    0    0    0  0.00000000000E+00  0.00000000000E+00  0.45593999997E+02  0.45594000000E+02  0.51100000000E-03 0.  1.
         11   -1    0    0    0    0 -0.00000000000E+00 -0.00000000000E+00 -0.45593999997E+02  0.45594000000E+02  0.51100000000E-03 0. -1.
    9900012    2    1    2    0    0  0.42467893723E+01 -0.52366016097E+00 -0.18231004892E+02  0.72461575373E+02  0.70000006616E+02 0.  0.
        -12    1    1    2    0    0 -0.42467893723E+01  0.52366016097E+00  0.18231004892E+02  0.18726424627E+02  0.00000000000E+00 0.  1.
         11    1    3    3    0    0  0.22810732113E+01  0.20747645208E+02 -0.16216518062E+02  0.26431865901E+02  0.51100000000E-03 0. -1.
        -11    1    3    3    0    0 -0.18751013030E+02 -0.13960424479E+02 -0.48607821394E+01  0.23877209732E+02  0.51100000000E-03 0.  1.
        -12    1    3    3    0    0  0.20716729191E+02 -0.73108808897E+01  0.28462953095E+01  0.22152499741E+02  0.00000000000E+00 0.  1.
</event>
<event>
 7    1  0.2710146E-013  0.7246157E+02  0.7816164E-02  0.1226708E+00
        -11   -1    0    0    0    0  0.00000000000E+00  0.00000000000E+00  0.45593999997E+02  0.45594000000E+02  0.51100000000E-03 0.  1.
         11   -1    0    0    0    0 -0.00000000000E+00 -0.00000000000E+00 -0.45593999997E+02  0.45594000000E+02  0.51100000000E-03 0. -1.
    9900012    2    1    2    0    0 -0.36128480136E+01  0.16648170545E+02 -0.77759216569E+01  0.72461569190E+02  0.69999998562E+02 0.  0.
        -12    1    1    2    0    0  0.36128480136E+01 -0.16648170545E+02  0.77759216569E+01  0.18726430810E+02  0.00000000000E+00 0.  1.
         11    1    3    3    0    0 -0.63522787581E+01 -0.34127374150E+01 -0.25716922183E+02  0.26708768390E+02  0.51100000000E-03 0. -1.
        -11    1    3    3    0    0 -0.67408845536E+01 -0.91097159634E+01  0.35778999500E+01  0.11883931076E+02  0.51100000000E-03 0.  1.
         12    1    3    3    0    0  0.94803152981E+01  0.29170623923E+02  0.14363100576E+02  0.33868869724E+02  0.00000000000E+00 0. -1.
</event>
<event>
 7    1  0.2710146E-013  0.7246159E+02  0.7816164E-02  0.1226708E+00
        -11   -1    0    0    0    0  0.00000000000E+00  0.00000000000E+00  0.45593999997E+02  0.45594000000E+02  0.51100000000E-03 0.  1.
         11   -1    0    0    0    0 -0.00000000000E+00 -0.00000000000E+00 -0.45593999997E+02  0.45594000000E+02  0.51100000000E-03 0. -1.
    9900012    2    1    2    0    0  0.81189899556E+01  0.13659847225E+02  0.99080351327E+01  0.72461585920E+02  0.70000020355E+02 0.  0.
        -12    1    1    2    0    0 -0.81189899556E+01 -0.13659847225E+02 -0.99080351327E+01  0.18726414080E+02  0.00000000000E+00 0.  1.
         11    1    3    3    0    0 -0.10445937290E+02  0.25482151507E+02  0.11771376614E+02  0.29950341550E+02  0.51100000000E-03 0. -1.
        -11    1    3    3    0    0 -0.70416269053E+01  0.38792271321E+01 -0.85528522902E+01  0.11738151267E+02  0.51100000000E-03 0.  1.
        -12    1    3    3    0    0  0.25606554151E+02 -0.15701531415E+02  0.66895108090E+01  0.30773093103E+02  0.00000000000E+00 0.  1.
</event>
<event>
 7    1  0.2710146E-013  0.7246162E+02  0.7816164E-02  0.1226708E+00
        -11   -1    0    0    0    0  0.00000000000E+00  0.00000000000E+00  0.45593999997E+02  0.45594000000E+02  0.51100000000E-03 0.  1.
         11   -1    0    0    0    0 -0.00000000000E+00 -0.00000000000E+00 -0.45593999997E+02  0.45594000000E+02  0.51100000000E-03 0. -1.
    9900012    2    1    2    0    0  0.17512749224E+02 -0.63805621121E+01  0.18081064769E+01  0.72461622687E+02  0.70000068251E+02 0.  0.
        -12    1    1    2    0    0 -0.17512749224E+02  0.63805621121E+01 -0.18081064769E+01  0.18726377313E+02  0.00000000000E+00 0.  1.
         11    1    3    3    0    0  0.76247844101E+01 -0.88125886474E+00 -0.19856364588E+02  0.21288240167E+02  0.51100000000E-03 0. -1.
        -11    1    3    3    0    0  0.51323892897E+01 -0.25298565077E+02  0.98335205143E+01  0.27623485312E+02  0.51100000000E-03 0.  1.
         12    1    3    3    0    0  0.47555755240E+01  0.19799261830E+02  0.11830950551E+02  0.23549897208E+02  0.00000000000E+00 0. -1.
</event>
<event>
 7    1  0.2710146E-013  0.7246154E+02  0.7816164E-02  0.1226708E+00
        -11   -1    0    0    0    0  0.00000000000E+00  0.00000000000E+00  0.45593999997E+02  0.45594000000E+02  0.51100000000E-03 0. -1.
         11   -1    0    0    0    0 -0.00000000000E+00 -0.00000000000E+00 -0.45593999997E+02  0.45594000000E+02  0.51100000000E-03 0.  1.
    9900012    2    1    2    0    0  0.29718744050E+00 -0.38569575393E+01  0.18322545599E+02  0.72461544941E+02  0.69999966973E+02 0.  0.
        -12    1    1    2    0    0 -0.29718744050E+00  0.38569575393E+01 -0.18322545599E+02  0.18726455059E+02  0.00000000000E+00 0.  1.
         11    1    3    3    0    0 -0.15124766428E+01 -0.78981300885E+01  0.56426491801E+01  0.98238248417E+01  0.51100000000E-03 0. -1.
        -11    1    3    3    0    0 -0.89196257921E+01  0.81342980235E+01  0.35279629725E+02  0.37287783554E+02  0.51100000000E-03 0.  1.
         12    1    3    3    0    0  0.10729289875E+02 -0.40931254743E+01 -0.22599733306E+02  0.25349936546E+02  0.00000000000E+00 0. -1.
</event>
<event>
 7    1  0.2710146E-013  0.7246165E+02  0.7816164E-02  0.1226708E+00
        -11   -1    0    0    0    0  0.00000000000E+00  0.00000000000E+00  0.45593999997E+02  0.45594000000E+02  0.51100000000E-03 0.  1.
         11   -1    0    0    0    0 -0.00000000000E+00 -0.00000000000E+00 -0.45593999997E+02  0.45594000000E+02  0.51100000000E-03 0. -1.
    9900012    2    1    2    0    0  0.66534149537E+01 -0.11854060848E+02 -0.12879808848E+02  0.72461650513E+02  0.70000104500E+02 0.  0.
        -12    1    1    2    0    0 -0.66534149537E+01  0.11854060848E+02  0.12879808848E+02  0.18726349487E+02  0.00000000000E+00 0.  1.
         11    1    3    3    0    0  0.50459325736E+01 -0.25230575567E+02 -0.20997309773E+02  0.33210395916E+02  0.51100000000E-03 0. -1.
        -11    1    3    3    0    0 -0.76084247482E+01  0.74825771982E+01 -0.12179999908E+02  0.16193501373E+02  0.51100000000E-03 0.  1.
        -12    1    3    3    0    0  0.92159071283E+01  0.58939375209E+01  0.20297500833E+02  0.23057753224E+02  0.00000000000E+00 0.  1.
</event>
<event>
 7    1  0.2710146E-013  0.7246156E+02  0.7816164E-02  0.1226708E+00
        -11   -1    0    0    0    0  0.00000000000E+00  0.00000000000E+00  0.45593999997E+02  0.45594000000E+02  0.51100000000E-03 0.  1.
         11   -1    0    0    0    0 -0.00000000000E+00 -0.00000000000E+00 -0.45593999997E+02  0.45594000000E+02  0.51100000000E-03 0. -1.
    9900012    2    1    2    0    0 -0.32454816000E+01  0.86243822755E+01 -0.16302340035E+02  0.72461563845E+02  0.69999991598E+02 0.  0.
        -12    1    1    2    0    0  0.32454816000E+01 -0.86243822755E+01  0.16302340035E+02  0.18726436155E+02  0.00000000000E+00 0.  1.
         11    1    3    3    0    0 -0.25188675009E+02  0.13957872561E+02 -0.27717212874E+02  0.39969181189E+02  0.51100000000E-03 0. -1.
        -11    1    3    3    0    0  0.77994335089E+01 -0.98063606938E+01 -0.17593427455E+01  0.12652713554E+02  0.51100000000E-03 0.  1.
        -12    1    3    3    0    0  0.14143759900E+02  0.44728704080E+01  0.13174215585E+02  0.19839669102E+02  0.00000000000E+00 0.  1.
</event>
<event>
 7    1  0.2710146E-013  0.7246165E+02  0.7816164E-02  0.1226708E+00
        -11   -1    0    0    0    0  0.00000000000E+00  0.00000000000E+00  0.45593999997E+02  0.45594000000E+02  0.51100000000E-03 0.  1.
         11   -1    0    0    0    0 -0.00000000000E+00 -0.00000000000E+00 -0.45593999997E+02  0.45594000000E+02  0.51100000000E-03 0. -1.
    9900012    2    1    2    0    0 -0.95084949835E+01  0.96278916873E+01 -0.12944819905E+02  0.72461651248E+02  0.70000105458E+02 0.  0.
        -12    1    1    2    0    0  0.95084949835E+01 -0.96278916873E+01  0.12944819905E+02  0.18726348752E+02  0.00000000000E+00 0.  1.
         11    1    3    3    0    0  0.27228489464E+00  0.16038297665E+02 -0.18766105307E+01  0.16150009239E+02  0.51100000000E-03 0. -1.
        -11    1    3    3    0    0  0.21348919318E+02 -0.85078856090E+01 -0.10081507289E+02  0.25095761855E+02  0.51100000000E-03 0.  1.
        -12    1    3    3    0    0 -0.31129699196E+02  0.20974796309E+01 -0.98670208505E+00  0.31215880155E+02  0.00000000000E+00 0.  1.
</event>
<event>
 7    1  0.2710146E-013  0.7246154E+02  0.7816164E-02  0.1226708E+00
        -11   -1    0    0    0    0  0.00000000000E+00  0.00000000000E+00  0.45593999997E+02  0.45594000000E+02  0.51100000000E-03 0. -1.
         11   -1    0    0    0    0 -0.00000000000E+00 -0.00000000000E+00 -0.45593999997E+02  0.45594000000E+02  0.51100000000E-03 0.  1.
    9900012    2    1    2    0    0 -0.61670998979E+01  0.16271649250E+02  0.69195742550E+01  0.72461542825E+02  0.69999964216E+02 0.  0.
        -12    1    1    2    0    0  0.61670998979E+01 -0.16271649250E+02 -0.69195742550E+01  0.18726457175E+02  0.00000000000E+00 0.  1.
         11    1    3    3    0    0  0.16085641010E+01  0.23504262265E+02 -0.82793028347E+01  0.24971677533E+02  0.51100000000E-03 0. -1.
        -11    1    3    3    0    0  0.53497144815E+01 -0.14379591073E+01 -0.13945395687E+02  0.15005373456E+02  0.51100000000E-03 0.  1.
        -12    1    3    3    0    0 -0.13125378480E+02 -0.57946539082E+01  0.29144272777E+02  0.32484491836E+02  0.00000000000E+00 0.  1.
</event>
<event>
 7    1  0.2710146E-013  0.7246149E+02  0.7816164E-02  0.1226708E+00
        -11   -1    0    0    0    0  0.00000000000E+00  0.00000000000E+00  0.45593999997E+02  0.45594000000E+02  0.51100000000E-03 0.  1.
         11   -1    0    0    0    0 -0.00000000000E+00 -0.00000000000E+00 -0.45593999997E+02  0.45594000000E+02  0.51100000000E-03 0. -1.
    9900012    2    1    2    0    0  0.12844837692E+02  0.45881302959E+01 -0.12831258965E+02  0.72461494678E+02  0.69999901496E+02 0.  0.
        -12    1    1    2    0    0 -0.12844837692E+02 -0.45881302959E+01  0.12831258965E+02  0.18726505322E+02  0.00000000000E+00 0.  1.
         11    1    3    3    0    0  0.13122975266E+02  0.10254187096E+02  0.24553210532E+02  0.29668518341E+02  0.51100000000E-03 0.  1.
        -11    1    3    3    0    0  0.28441886734E+01 -0.11718178991E+02 -0.14200639541E+02  0.18629634771E+02  0.51100000000E-03 0. -1.
        -12    1    3    3    0    0 -0.31223262480E+01  0.60521221905E+01 -0.23183829957E+02  0.24163341567E+02  0.00000000000E+00 0.  1.
</event>
<event>
 7    1  0.2710146E-013  0.7246155E+02  0.7816164E-02  0.1226708E+00
        -11   -1    0    0    0    0  0.00000000000E+00  0.00000000000E+00  0.45593999997E+02  0.45594000000E+02  0.51100000000E-03 0.  1.
         11   -1    0    0    0    0 -0.00000000000E+00 -0.00000000000E+00 -0.45593999997E+02  0.45594000000E+02  0.51100000000E-03 0. -1.
    9900012    2    1    2    0    0 -0.10108466896E+02  0.14871278893E+02 -0.52291463691E+01  0.72461547836E+02  0.69999970744E+02 0.  0.
        -12    1    1    2    0    0  0.10108466896E+02 -0.14871278893E+02  0.52291463691E+01  0.18726452164E+02  0.00000000000E+00 0.  1.
         11    1    3    3    0    0 -0.87493994754E+01  0.12260467470E+02  0.14373676456E+02  0.20820029512E+02  0.51100000000E-03 0. -1.
        -11    1    3    3    0    0  0.70365705121E+01  0.19995712078E+02  0.35529334347E+01  0.21493374847E+02  0.51100000000E-03 0.  1.
         12    1    3    3    0    0 -0.83956379331E+01 -0.17384900656E+02 -0.23155756260E+02  0.30148143476E+02  0.00000000000E+00 0. -1.
</event>
<event>
 7    1  0.2710146E-013  0.7246170E+02  0.7816164E-02  0.1226708E+00
        -11   -1    0    0    0    0  0.00000000000E+00  0.00000000000E+00  0.45593999997E+02  0.45594000000E+02  0.51100000000E-03 0.  1.
         11   -1    0    0    0    0 -0.00000000000E+00 -0.00000000000E+00 -0.45593999997E+02  0.45594000000E+02  0.51100000000E-03 0. -1.
    9900012    2    1    2    0    0 -0.85799332397E+01 -0.67556514507E+01 -0.15212504303E+02  0.72461698494E+02  0.70000167003E+02 0.  0.
        -12    1    1    2    0    0  0.85799332397E+01  0.67556514507E+01  0.15212504303E+02  0.18726301506E+02  0.00000000000E+00 0.  1.
         11    1    3    3    0    0  0.55342975727E+01  0.58259862709E+00 -0.32355495609E+02  0.32830564527E+02  0.51100000000E-03 0. -1.
        -11    1    3    3    0    0  0.72679471303E+01  0.64932537289E+01  0.18314376274E+01  0.99166306537E+01  0.51100000000E-03 0.  1.
        -12    1    3    3    0    0 -0.21382177943E+02 -0.13831503807E+02  0.15311553678E+02  0.29714503313E+02  0.00000000000E+00 0.  1.
</event>
<event>
 7    1  0.2710146E-013  0.7246157E+02  0.7816164E-02  0.1226708E+00
        -11   -1    0    0    0    0  0.00000000000E+00  0.00000000000E+00  0.45593999997E+02  0.45594000000E+02  0.51100000000E-03 0. -1.
         11   -1    0    0    0    0 -0.00000000000E+00 -0.00000000000E+00 -0.45593999997E+02  0.45594000000E+02  0.51100000000E-03 0.  1.
    9900012    2    1    2    0    0  0.22421930450E+01  0.14712588146E+02  0.11366236231E+02  0.72461574669E+02  0.70000005699E+02 0.  0.
        -12    1    1    2    0    0 -0.22421930450E+01 -0.14712588146E+02 -0.11366236231E+02  0.18726425331E+02  0.00000000000E+00 0.  1.
         11    1    3    3    0    0  0.29755964495E+01  0.63406186757E+01  0.58898769557E+01  0.91514081012E+01  0.51100000000E-03 0. -1.
        -11    1    3    3    0    0  0.16771794147E+02  0.12788103006E+02  0.27612203324E+02  0.34745682178E+02  0.51100000000E-03 0.  1.
        -12    1    3    3    0    0 -0.17505197551E+02 -0.44161335353E+01 -0.22135844049E+02  0.28564484390E+02  0.00000000000E+00 0.  1.
</event>
<event>
 7    1  0.2710146E-013  0.7246156E+02  0.7816164E-02  0.1226708E+00
        -11   -1    0    0    0    0  0.00000000000E+00  0.00000000000E+00  0.45593999997E+02  0.45594000000E+02  0.51100000000E-03 0.  1.
         11   -1    0    0    0    0 -0.00000000000E+00 -0.00000000000E+00 -0.45593999997E+02  0.45594000000E+02  0.51100000000E-03 0. -1.
    9900012    2    1    2    0    0  0.55950739986E+01 -0.17870122833E+02 -0.18271146501E+00  0.72461560760E+02  0.69999987580E+02 0.  0.
        -12    1    1    2    0    0 -0.55950739986E+01  0.17870122833E+02  0.18271146501E+00  0.18726439240E+02  0.00000000000E+00 0.  1.
         11    1    3    3    0    0  0.28331920955E+02 -0.96584720170E+01 -0.89566606183E+01  0.31244289021E+02  0.51100000000E-03 0. -1.
        -11    1    3    3    0    0 -0.57063726239E+01  0.11728222985E+02 -0.13404215589E+01  0.13111469525E+02  0.51100000000E-03 0.  1.
        -12    1    3    3    0    0 -0.17030474333E+02 -0.19939873801E+02  0.10114370712E+02  0.28105802214E+02  0.00000000000E+00 0.  1.
</event>
<event>
 7    1  0.2710146E-013  0.7246155E+02  0.7816164E-02  0.1226708E+00
        -11   -1    0    0    0    0  0.00000000000E+00  0.00000000000E+00  0.45593999997E+02  0.45594000000E+02  0.51100000000E-03 0.  1.
         11   -1    0    0    0    0 -0.00000000000E+00 -0.00000000000E+00 -0.45593999997E+02  0.45594000000E+02  0.51100000000E-03 0. -1.
    9900012    2    1    2    0    0  0.12247998141E+02  0.13784488836E+02 -0.32640699219E+01  0.72461554973E+02  0.69999980041E+02 0.  0.
        -12    1    1    2    0    0 -0.12247998141E+02 -0.13784488836E+02  0.32640699219E+01  0.18726445027E+02  0.00000000000E+00 0.  1.
         11    1    3    3    0    0  0.14711927456E+02 -0.27198270174E+00  0.55115413010E+01  0.15712793253E+02  0.51100000000E-03 0. -1.
        -11    1    3    3    0    0 -0.21462123132E+02  0.25931983886E+02 -0.53553716649E+01  0.34084755002E+02  0.51100000000E-03 0.  1.
         12    1    3    3    0    0  0.18998193817E+02 -0.11875512349E+02 -0.34202395579E+01  0.22664006717E+02  0.00000000000E+00 0. -1.
</event>
<event>
 7    1  0.2710146E-013  0.7246144E+02  0.7816164E-02  0.1226708E+00
        -11   -1    0    0    0    0  0.00000000000E+00  0.00000000000E+00  0.45593999997E+02  0.45594000000E+02  0.51100000000E-03 0.  1.
         11   -1    0    0    0    0 -0.00000000000E+00 -0.00000000000E+00 -0.45593999997E+02  0.45594000000E+02  0.51100000000E-03 0. -1.
    9900012    2    1    2    0    0  0.10291960221E+02  0.14828561948E+02 -0.49873175056E+01  0.72461440505E+02  0.69999830924E+02 0.  0.
        -12    1    1    2    0    0 -0.10291960221E+02 -0.14828561948E+02  0.49873175056E+01  0.18726559495E+02  0.00000000000E+00 0.  1.
         11    1    3    3    0    0 -0.10940022448E+02  0.22642758000E+02 -0.10131421573E+02  0.27111331290E+02  0.51100000000E-03 0. -1.
        -11    1    3    3    0    0  0.21082965090E+02  0.92067510859E+01  0.13194523251E+02  0.26520767836E+02  0.51100000000E-03 0.  1.
        -12    1    3    3    0    0  0.14901757932E+00 -0.17020947138E+02 -0.80504191835E+01  0.18829341378E+02  0.00000000000E+00 0.  1.
</event>
<event>
 7    1  0.2710146E-013  0.7246130E+02  0.7816164E-02  0.1226709E+00
        -11   -1    0    0    0    0  0.00000000000E+00  0.00000000000E+00  0.45593999997E+02  0.45594000000E+02  0.51100000000E-03 0.  1.
         11   -1    0    0    0    0 -0.00000000000E+00 -0.00000000000E+00 -0.45593999997E+02  0.45594000000E+02  0.51100000000E-03 0. -1.
    9900012    2    1    2    0    0 -0.18594085788E+02 -0.11750081035E+01  0.18890460647E+01  0.72461303405E+02  0.69999652326E+02 0.  0.
        -12    1    1    2    0    0  0.18594085788E+02  0.11750081035E+01 -0.18890460647E+01  0.18726696595E+02  0.00000000000E+00 0.  1.
         11    1    3    3    0    0  0.84480636672E+01  0.54790576164E+01  0.16892466995E+02  0.19665840779E+02  0.51100000000E-03 0. -1.
        -11    1    3    3    0    0  0.58531091994E+01 -0.66154190928E+01  0.85844104773E+01  0.12317254588E+02  0.51100000000E-03 0.  1.
        -12    1    3    3    0    0 -0.32895258654E+02 -0.38646627069E-01 -0.23587831408E+02  0.40478208039E+02  0.00000000000E+00 0.  1.
</event>
<event>
 7    1  0.2710146E-013  0.7246165E+02  0.7816164E-02  0.1226708E+00
        -11   -1    0    0    0    0  0.00000000000E+00  0.00000000000E+00  0.45593999997E+02  0.45594000000E+02  0.51100000000E-03 0.  1.
         11   -1    0    0    0    0 -0.00000000000E+00 -0.00000000000E+00 -0.45593999997E+02  0.45594000000E+02  0.51100000000E-03 0. -1.
    9900012    2    1    2    0    0 -0.10540248172E+02 -0.38639933703E+01 -0.14988290438E+02  0.72461651543E+02  0.70000105841E+02 0.  0.
        -12    1    1    2    0    0  0.10540248172E+02  0.38639933703E+01  0.14988290438E+02  0.18726348457E+02  0.00000000000E+00 0.  1.
         11    1    3    3    0    0 -0.14396739367E+02  0.35589629560E+00 -0.10203334181E+02  0.17649385124E+02  0.51100000000E-03 0. -1.
        -11    1    3    3    0    0  0.23566557085E+02 -0.17923207093E+02 -0.78001535978E+01  0.30618072469E+02  0.51100000000E-03 0.  1.
         12    1    3    3    0    0 -0.19710065889E+02  0.13703317427E+02  0.30151973415E+01  0.24194193949E+02  0.00000000000E+00 0. -1.
</event>
<event>
 7    1  0.2710146E-013  0.7246153E+02  0.7816164E-02  0.1226708E+00
        -11   -1    0    0    0    0  0.00000000000E+00  0.00000000000E+00  0.45593999997E+02  0.45594000000E+02  0.51100000000E-03 0. -1.
         11   -1    0    0    0    0 -0.00000000000E+00 -0.00000000000E+00 -0.45593999997E+02  0.45594000000E+02  0.51100000000E-03 0.  1.
    9900012    2    1    2    0    0 -0.76558204143E+01  0.11254919500E+02  0.12860640046E+02  0.72461525116E+02  0.69999941147E+02 0.  0.
        -12    1    1    2    0    0  0.76558204143E+01 -0.11254919500E+02 -0.12860640046E+02  0.18726474884E+02  0.00000000000E+00 0.  1.
         11    1    3    3    0    0 -0.79876409414E+01  0.94080444387E+01  0.17487235360E+02  0.21403670450E+02  0.51100000000E-03 0. -1.
        -11    1    3    3    0    0 -0.71435709055E+01 -0.20014701398E+02  0.10233856846E+02  0.23587087644E+02  0.51100000000E-03 0.  1.
        -12    1    3    3    0    0  0.74753914325E+01  0.21861576459E+02 -0.14860452160E+02  0.27470767021E+02  0.00000000000E+00 0.  1.
</event>
<event>
 7    1  0.2710146E-013  0.7246159E+02  0.7816164E-02  0.1226708E+00
        -11   -1    0    0    0    0  0.00000000000E+00  0.00000000000E+00  0.45593999997E+02  0.45594000000E+02  0.51100000000E-03 0.  1.
         11   -1    0    0    0    0 -0.00000000000E+00 -0.00000000000E+00 -0.45593999997E+02  0.45594000000E+02  0.51100000000E-03 0. -1.
    9900012    2    1    2    0    0 -0.88505388562E+01 -0.57489408223E+01 -0.15469202495E+02  0.72461585916E+02  0.70000020350E+02 0.  0.
        -12    1    1    2    0    0  0.88505388562E+01  0.57489408223E+01  0.15469202495E+02  0.18726414084E+02  0.00000000000E+00 0.  1.
         11    1    3    3    0    0  0.18868824149E+01 -0.19000099567E+02 -0.12289854647E+02  0.22706929258E+02  0.51100000000E-03 0. -1.
        -11    1    3    3    0    0  0.83999812076E+01  0.77875542177E+01 -0.20426669396E+02  0.23419105616E+02  0.51100000000E-03 0.  1.
         12    1    3    3    0    0 -0.19137402479E+02  0.54636045273E+01  0.17247321548E+02  0.26335551041E+02  0.00000000000E+00 0. -1.
</event>
<event>
 7    1  0.3026642E-013  0.7246158E+02  0.7816164E-02  0.1226708E+00
        -11   -1    0    0    0    0  0.00000000000E+00  0.00000000000E+00  0.45593999997E+02  0.45594000000E+02  0.51100000000E-03 0. -1.
         11   -1    0    0    0    0 -0.00000000000E+00 -0.00000000000E+00 -0.45593999997E+02  0.45594000000E+02  0.51100000000E-03 0.  1.
    9900012    2    1    2    0    0  0.12647676609E+02 -0.91212594196E+01  0.10369074137E+02  0.72461580281E+02  0.70000013010E+02 0.  0.
        -12    1    1    2    0    0 -0.12647676609E+02  0.91212594196E+01 -0.10369074137E+02  0.18726419719E+02  0.00000000000E+00 0.  1.
         11    1    3    3    0    0  0.31975169611E+00  0.33423566147E+01 -0.24880964836E+01  0.41790206101E+01  0.51100000000E-03 0. -1.
        -11    1    3    3    0    0  0.78012097178E+01  0.15985659310E+01 -0.25745924509E+02  0.26949339791E+02  0.51100000000E-03 0.  1.
         12    1    3    3    0    0  0.45267151952E+01 -0.14062181965E+02  0.38603095130E+02  0.41333219880E+02  0.00000000000E+00 0. -1.
</event>
<event>
 7    1  0.2710146E-013  0.7246143E+02  0.7816164E-02  0.1226708E+00
        -11   -1    0    0    0    0  0.00000000000E+00  0.00000000000E+00  0.45593999997E+02  0.45594000000E+02  0.51100000000E-03 0. -1.
         11   -1    0    0    0    0 -0.00000000000E+00 -0.00000000000E+00 -0.45593999997E+02  0.45594000000E+02  0.51100000000E-03 0.  1.
    9900012    2    1    2    0    0 -0.18278400596E+02  0.35261649431E+01  0.20373551216E+01  0.72461425742E+02  0.69999811693E+02 0.  0.
        -12    1    1    2    0    0  0.18278400596E+02 -0.35261649431E+01 -0.20373551216E+01  0.18726574258E+02  0.00000000000E+00 0.  1.
         11    1    3    3    0    0 -0.28791456821E+02  0.26947777075E+01  0.16192167289E+02  0.33142059299E+02  0.51100000000E-03 0. -1.
        -11    1    3    3    0    0  0.19312815124E+02  0.71344700869E+01  0.10960931664E+01  0.20617635944E+02  0.51100000000E-03 0.  1.
         12    1    3    3    0    0 -0.87997588996E+01 -0.63030828514E+01 -0.15250905334E+02  0.18701730498E+02  0.00000000000E+00 0. -1.
</event>
<event>
 7    1  0.2807464E-013  0.7246160E+02  0.7816164E-02  0.1226708E+00
        -11   -1    0    0    0    0  0.00000000000E+00  0.00000000000E+00  0.45593999997E+02  0.45594000000E+02  0.51100000000E-03 0. -1.
         11   -1    0    0    0    0 -0.00000000000E+00 -0.00000000000E+00 -0.45593999997E+02  0.45594000000E+02  0.51100000000E-03 0.  1.
    9900012    2    1    2    0    0  0.82258774562E+01  0.11410470565E+02  0.12361796027E+02  0.72461604206E+02  0.70000044176E+02 0.  0.
        -12    1    1    2    0    0 -0.82258774562E+01 -0.11410470565E+02 -0.12361796027E+02  0.18726395794E+02  0.00000000000E+00 0.  1.
         11    1    3    3    0    0 -0.33925498283E+01 -0.89896307494E+01 -0.30217226157E+01  0.10072420919E+02  0.51100000000E-03 0. -1.
        -11    1    3    3    0    0 -0.19609296336E+01  0.22153109789E+02 -0.16498601023E+02  0.27691322727E+02  0.51100000000E-03 0.  1.
         12    1    3    3    0    0  0.13579356918E+02 -0.17530084752E+01  0.31882119666E+02  0.34697860560E+02  0.00000000000E+00 0. -1.
</event>
<event>
 7    1  0.2710146E-013  0.7246147E+02  0.7816164E-02  0.1226708E+00
        -11   -1    0    0    0    0  0.00000000000E+00  0.00000000000E+00  0.45593999997E+02  0.45594000000E+02  0.51100000000E-03 0.  1.
         11   -1    0    0    0    0 -0.00000000000E+00 -0.00000000000E+00 -0.45593999997E+02  0.45594000000E+02  0.51100000000E-03 0. -1.
    9900012    2    1    2    0    0 -0.12635443918E+02  0.36727219314E+01 -0.13324395169E+02  0.72461472399E+02  0.69999872473E+02 0.  0.
        -12    1    1    2    0    0  0.12635443918E+02 -0.36727219314E+01  0.13324395169E+02  0.18726527601E+02  0.00000000000E+00 0.  1.
         11    1    3    3    0    0 -0.69930819458E+01  0.13777412694E+02  0.35622627186E+01  0.15855914088E+02  0.51100000000E-03 0. -1.
        -11    1    3    3    0    0 -0.80558188396E+01  0.21070878670E+02 -0.94935569152E+01  0.24474594343E+02  0.51100000000E-03 0.  1.
        -12    1    3    3    0    0  0.24134568679E+01 -0.31175569432E+02 -0.73931009724E+01  0.32130963967E+02  0.00000000000E+00 0.  1.
</event>
<event>
 7    1  0.2710146E-013  0.7246155E+02  0.7816164E-02  0.1226708E+00
        -11   -1    0    0    0    0  0.00000000000E+00  0.00000000000E+00  0.45593999997E+02  0.45594000000E+02  0.51100000000E-03 0. -1.
         11   -1    0    0    0    0 -0.00000000000E+00 -0.00000000000E+00 -0.45593999997E+02  0.45594000000E+02  0.51100000000E-03 0.  1.
    9900012    2    1    2    0    0 -0.10556681418E+01  0.14381219480E+02  0.11947636654E+02  0.72461549974E+02  0.69999973529E+02 0.  0.
        -12    1    1    2    0    0  0.10556681418E+01 -0.14381219480E+02 -0.11947636654E+02  0.18726450026E+02  0.00000000000E+00 0.  1.
         11    1    3    3    0    0 -0.23524705445E+02 -0.10177153825E+02  0.54223424868E+01  0.26199008083E+02  0.51100000000E-03 0. -1.
        -11    1    3    3    0    0  0.89785590802E+01 -0.48568356959E+01  0.92649242555E+01  0.13785579344E+02  0.51100000000E-03 0.  1.
         12    1    3    3    0    0  0.13490478223E+02  0.29415209000E+02 -0.27396300882E+01  0.32476962546E+02  0.00000000000E+00 0. -1.
</event>
<event>
 7    1  0.2710146E-013  0.7246156E+02  0.7816164E-02  0.1226708E+00
        -11   -1    0    0    0    0  0.00000000000E+00  0.00000000000E+00  0.45593999997E+02  0.45594000000E+02  0.51100000000E-03 0.  1.
         11   -1    0    0    0    0 -0.00000000000E+00 -0.00000000000E+00 -0.45593999997E+02  0.45594000000E+02  0.51100000000E-03 0. -1.
    9900012    2    1    2    0    0  0.49063085387E+01  0.81606308308E+01 -0.16124881996E+02  0.72461559377E+02  0.69999985778E+02 0.  0.
        -12    1    1    2    0    0 -0.49063085387E+01 -0.81606308308E+01  0.16124881996E+02  0.18726440623E+02  0.00000000000E+00 0.  1.
         11    1    3    3    0    0 -0.20160708057E+02 -0.95652202451E+01 -0.13208768048E+02  0.25931045897E+02  0.51100000000E-03 0.  1.
        -11    1    3    3    0    0  0.21145000604E+02 -0.24242886372E+01 -0.11601906339E+02  0.24240306452E+02  0.51100000000E-03 0. -1.
        -12    1    3    3    0    0  0.39220159915E+01  0.20150139713E+02  0.86857923906E+01  0.22290207028E+02  0.00000000000E+00 0.  1.
</event>
<event>
 7    1  0.2710146E-013  0.7246159E+02  0.7816164E-02  0.1226708E+00
        -11   -1    0    0    0    0  0.00000000000E+00  0.00000000000E+00  0.45593999997E+02  0.45594000000E+02  0.51100000000E-03 0.  1.
         11   -1    0    0    0    0 -0.00000000000E+00 -0.00000000000E+00 -0.45593999997E+02  0.45594000000E+02  0.51100000000E-03 0. -1.
    9900012    2    1    2    0    0  0.12190547317E+02  0.12659569105E+02 -0.64656374580E+01  0.72461585459E+02  0.70000019755E+02 0.  0.
        -12    1    1    2    0    0 -0.12190547317E+02 -0.12659569105E+02  0.64656374580E+01  0.18726414541E+02  0.00000000000E+00 0.  1.
         11    1    3    3    0    0 -0.28439435248E+01 -0.14687296551E+02 -0.24000945927E+02  0.28281621248E+02  0.51100000000E-03 0. -1.
        -11    1    3    3    0    0 -0.42427506245E+01  0.11411072035E+01  0.98012409290E+01  0.10740920934E+02  0.51100000000E-03 0.  1.
        -12    1    3    3    0    0  0.19277241466E+02  0.26205758452E+02  0.77340675397E+01  0.33439043277E+02  0.00000000000E+00 0.  1.
</event>
<event>
 7    1  0.2710146E-013  0.7246158E+02  0.7816164E-02  0.1226708E+00
        -11   -1    0    0    0    0  0.00000000000E+00  0.00000000000E+00  0.45593999997E+02  0.45594000000E+02  0.51100000000E-03 0. -1.
         11   -1    0    0    0    0 -0.00000000000E+00 -0.00000000000E+00 -0.45593999997E+02  0.45594000000E+02  0.51100000000E-03 0.  1.
    9900012    2    1    2    0    0  0.13535829760E+02  0.12703471484E+01  0.12878133187E+02  0.72461580600E+02  0.70000013425E+02 0.  0.
        -12    1    1    2    0    0 -0.13535829760E+02 -0.12703471484E+01 -0.12878133187E+02  0.18726419400E+02  0.00000000000E+00 0.  1.
         11    1    3    3    0    0 -0.10991104702E+02  0.13336519638E+02  0.12662956671E+02  0.21424696276E+02  0.51100000000E-03 0. -1.
        -11    1    3    3    0    0 -0.78003466362E+01  0.78925706433E+01 -0.58808481415E+01  0.12558760055E+02  0.51100000000E-03 0.  1.
         12    1    3    3    0    0  0.32327281098E+02 -0.19958743133E+02  0.60960246574E+01  0.38478124269E+02  0.00000000000E+00 0. -1.
</event>
<event>
 7    1  0.2710146E-013  0.7246155E+02  0.7816164E-02  0.1226708E+00
        -11   -1    0    0    0    0  0.00000000000E+00  0.00000000000E+00  0.45593999997E+02  0.45594000000E+02  0.51100000000E-03 0.  1.
         11   -1    0    0    0    0 -0.00000000000E+00 -0.00000000000E+00 -0.45593999997E+02  0.45594000000E+02  0.51100000000E-03 0. -1.
    9900012    2    1    2    0    0  0.12900396782E+01  0.14211129334E+02 -0.12126813891E+02  0.72461547735E+02  0.69999970612E+02 0.  0.
        -12    1    1    2    0    0 -0.12900396782E+01 -0.14211129334E+02  0.12126813891E+02  0.18726452265E+02  0.00000000000E+00 0.  1.
         11    1    3    3    0    0  0.43015987572E+01 -0.65021007358E+01  0.13213313892E+01  0.79074005051E+01  0.51100000000E-03 0. -1.
        -11    1    3    3    0    0  0.25721028134E+01 -0.56616348759E+01  0.20374073985E+02  0.21301941540E+02  0.51100000000E-03 0.  1.
         12    1    3    3    0    0 -0.55836618923E+01  0.26374864945E+02 -0.33822219265E+02  0.43252205690E+02  0.00000000000E+00 0. -1.
</event>
<event>
 7    1  0.2710146E-013  0.7246158E+02  0.7816164E-02  0.1226708E+00
        -11   -1    0    0    0    0  0.00000000000E+00  0.00000000000E+00  0.45593999997E+02  0.45594000000E+02  0.51100000000E-03 0.  1.
         11   -1    0    0    0    0 -0.00000000000E+00 -0.00000000000E+00 -0.45593999997E+02  0.45594000000E+02  0.51100000000E-03 0. -1.
    9900012    2    1    2    0    0  0.38563012143E+01  0.12644179281E+02 -0.13263953854E+02  0.72461580145E+02  0.70000012832E+02 0.  0.
        -12    1    1    2    0    0 -0.38563012143E+01 -0.12644179281E+02  0.13263953854E+02  0.18726419855E+02  0.00000000000E+00 0.  1.
         11    1    3    3    0    0  0.25325599461E+02  0.19655312010E+02 -0.24774188778E+02  0.40515154056E+02  0.51100000000E-03 0. -1.
        -11    1    3    3    0    0 -0.95801548361E+01  0.64849063215E+01  0.25250655278E+01  0.11841002190E+02  0.51100000000E-03 0.  1.
        -12    1    3    3    0    0 -0.11889143411E+02 -0.13496039051E+02  0.89851693960E+01  0.20105423899E+02  0.00000000000E+00 0.  1.
</event>
<event>
 7    1  0.2710146E-013  0.7246162E+02  0.7816164E-02  0.1226708E+00
        -11   -1    0    0    0    0  0.00000000000E+00  0.00000000000E+00  0.45593999997E+02  0.45594000000E+02  0.51100000000E-03 0. -1.
         11   -1    0    0    0    0 -0.00000000000E+00 -0.00000000000E+00 -0.45593999997E+02  0.45594000000E+02  0.51100000000E-03 0.  1.
    9900012    2    1    2    0    0  0.18453954475E+02 -0.17261556090E+01  0.26738438156E+01  0.72461615146E+02  0.70000058427E+02 0.  0.
        -12    1    1    2    0    0 -0.18453954475E+02  0.17261556090E+01 -0.26738438156E+01  0.18726384854E+02  0.00000000000E+00 0.  1.
         11    1    3    3    0    0  0.88651605262E+01  0.17469804307E+02  0.23296953974E+02  0.30439007842E+02  0.51100000000E-03 0. -1.
        -11    1    3    3    0    0  0.80714988263E+01  0.58601824353E+01 -0.74360431682E+00  0.10002188716E+02  0.51100000000E-03 0.  1.
        -12    1    3    3    0    0  0.15172951228E+01 -0.25056142351E+02 -0.19879505841E+02  0.32020418587E+02  0.00000000000E+00 0.  1.
</event>
<event>
 7    1  0.2710146E-013  0.7246155E+02  0.7816164E-02  0.1226708E+00
        -11   -1    0    0    0    0  0.00000000000E+00  0.00000000000E+00  0.45593999997E+02  0.45594000000E+02  0.51100000000E-03 0.  1.
         11   -1    0    0    0    0 -0.00000000000E+00 -0.00000000000E+00 -0.45593999997E+02  0.45594000000E+02  0.51100000000E-03 0. -1.
    9900012    2    1    2    0    0  0.15515405526E+02  0.10478367868E+02  0.39470072618E+00  0.72461553715E+02  0.69999978402E+02 0.  0.
        -12    1    1    2    0    0 -0.15515405526E+02 -0.10478367868E+02 -0.39470072618E+00  0.18726446285E+02  0.00000000000E+00 0.  1.
         11    1    3    3    0    0  0.83305463996E+01  0.32468759939E+01 -0.26094651841E+02  0.27583891350E+02  0.51100000000E-03 0. -1.
        -11    1    3    3    0    0  0.58101288353E+01  0.41551693867E+01 -0.77113791090E+01  0.10511346143E+02  0.51100000000E-03 0.  1.
        -12    1    3    3    0    0  0.13747302910E+01  0.30763224874E+01  0.34200731677E+02  0.34366316222E+02  0.00000000000E+00 0.  1.
</event>
<event>
 7    1  0.2710146E-013  0.7246157E+02  0.7816164E-02  0.1226708E+00
        -11   -1    0    0    0    0  0.00000000000E+00  0.00000000000E+00  0.45593999997E+02  0.45594000000E+02  0.51100000000E-03 0.  1.
         11   -1    0    0    0    0 -0.00000000000E+00 -0.00000000000E+00 -0.45593999997E+02  0.45594000000E+02  0.51100000000E-03 0. -1.
    9900012    2    1    2    0    0  0.13556069171E+02  0.10024992397E+02 -0.81493267963E+01  0.72461574523E+02  0.70000005508E+02 0.  0.
        -12    1    1    2    0    0 -0.13556069171E+02 -0.10024992397E+02  0.81493267963E+01  0.18726425477E+02  0.00000000000E+00 0.  1.
         11    1    3    3    0    0 -0.57894265642E+01  0.18030375962E+02 -0.14032144722E+02  0.23569323347E+02  0.51100000000E-03 0. -1.
        -11    1    3    3    0    0  0.11172880926E+02 -0.13391045147E+02 -0.16782809630E+02  0.24203637281E+02  0.51100000000E-03 0.  1.
        -12    1    3    3    0    0  0.81726148098E+01  0.53856615812E+01  0.22665627556E+02  0.24688613894E+02  0.00000000000E+00 0.  1.
</event>
<event>
 7    1  0.2710146E-013  0.7246166E+02  0.7816164E-02  0.1226708E+00
        -11   -1    0    0    0    0  0.00000000000E+00  0.00000000000E+00  0.45593999997E+02  0.45594000000E+02  0.51100000000E-03 0. -1.
         11   -1    0    0    0    0 -0.00000000000E+00 -0.00000000000E+00 -0.45593999997E+02  0.45594000000E+02  0.51100000000E-03 0.  1.
    9900012    2    1    2    0    0 -0.10788869507E+02  0.98431184835E+01  0.11721309615E+02  0.72461660640E+02  0.70000117692E+02 0.  0.
        -12    1    1    2    0    0  0.10788869507E+02 -0.98431184835E+01 -0.11721309615E+02  0.18726339360E+02  0.00000000000E+00 0.  1.
         11    1    3    3    0    0 -0.14901497790E+02 -0.16253789347E+02 -0.68969929539E+01  0.23104302989E+02  0.51100000000E-03 0. -1.
        -11    1    3    3    0    0  0.37089325970E+01 -0.27200614043E-01  0.22622971320E+02  0.22925002780E+02  0.51100000000E-03 0.  1.
        -12    1    3    3    0    0  0.40369568556E+00  0.26124108445E+02 -0.40046687505E+01  0.26432354871E+02  0.00000000000E+00 0.  1.
</event>
<event>
 7    1  0.2710146E-013  0.7246157E+02  0.7816164E-02  0.1226708E+00
        -11   -1    0    0    0    0  0.00000000000E+00  0.00000000000E+00  0.45593999997E+02  0.45594000000E+02  0.51100000000E-03 0.  1.
         11   -1    0    0    0    0 -0.00000000000E+00 -0.00000000000E+00 -0.45593999997E+02  0.45594000000E+02  0.51100000000E-03 0. -1.
    9900012    2    1    2    0    0 -0.11240133724E+02  0.11418938717E+02 -0.96925980776E+01  0.72461568812E+02  0.69999998069E+02 0.  0.
        -12    1    1    2    0    0  0.11240133724E+02 -0.11418938717E+02  0.96925980776E+01  0.18726431188E+02  0.00000000000E+00 0.  1.
         11    1    3    3    0    0 -0.25586121461E+01 -0.50736317538E+01 -0.13367049103E+02  0.14524676838E+02  0.51100000000E-03 0. -1.
        -11    1    3    3    0    0  0.12035625699E+02 -0.13853740238E+01 -0.18908763589E+02  0.22457000866E+02  0.51100000000E-03 0.  1.
        -12    1    3    3    0    0 -0.20717147277E+02  0.17877944494E+02  0.22583214614E+02  0.35479891107E+02  0.00000000000E+00 0.  1.
</event>
<event>
 7    1  0.2710146E-013  0.7246157E+02  0.7816164E-02  0.1226708E+00
        -11   -1    0    0    0    0  0.00000000000E+00  0.00000000000E+00  0.45593999997E+02  0.45594000000E+02  0.51100000000E-03 0. -1.
         11   -1    0    0    0    0 -0.00000000000E+00 -0.00000000000E+00 -0.45593999997E+02  0.45594000000E+02  0.51100000000E-03 0.  1.
    9900012    2    1    2    0    0  0.17073025260E+02  0.32549699606E+01  0.69710831382E+01  0.72461574258E+02  0.70000005163E+02 0.  0.
        -12    1    1    2    0    0 -0.17073025260E+02 -0.32549699606E+01 -0.69710831382E+01  0.18726425742E+02  0.00000000000E+00 0.  1.
         11    1    3    3    0    0  0.22439488413E+02  0.13290133320E+02  0.25123405314E+02  0.36212480980E+02  0.51100000000E-03 0. -1.
        -11    1    3    3    0    0  0.85801275480E+01  0.55545274352E+01 -0.39114289035E+01  0.10943977344E+02  0.51100000000E-03 0.  1.
        -12    1    3    3    0    0 -0.13946590701E+02 -0.15589690795E+02 -0.14240893272E+02  0.25305115934E+02  0.00000000000E+00 0.  1.
</event>
<event>
 7    1  0.2710146E-013  0.7246164E+02  0.7816164E-02  0.1226708E+00
        -11   -1    0    0    0    0  0.00000000000E+00  0.00000000000E+00  0.45593999997E+02  0.45594000000E+02  0.51100000000E-03 0. -1.
         11   -1    0    0    0    0 -0.00000000000E+00 -0.00000000000E+00 -0.45593999997E+02  0.45594000000E+02  0.51100000000E-03 0.  1.
    9900012    2    1    2    0    0  0.10371097006E+02 -0.12848141842E+02  0.88341536253E+01  0.72461636974E+02  0.70000086863E+02 0.  0.
        -12    1    1    2    0    0 -0.10371097006E+02  0.12848141842E+02 -0.88341536253E+01  0.18726363026E+02  0.00000000000E+00 0.  1.
         11    1    3    3    0    0  0.27930835655E+01 -0.35297629485E+02 -0.11720886289E+00  0.35408158682E+02  0.51100000000E-03 0. -1.
        -11    1    3    3    0    0  0.30855057947E+01 -0.45198607819E+01 -0.40210958262E+01  0.67910749812E+01  0.51100000000E-03 0.  1.
        -12    1    3    3    0    0  0.44925076462E+01  0.26969348425E+02  0.12972458314E+02  0.30262403311E+02  0.00000000000E+00 0.  1.
</event>
<event>
 7    1  0.2710146E-013  0.7246157E+02  0.7816164E-02  0.1226708E+00
        -11   -1    0    0    0    0  0.00000000000E+00  0.00000000000E+00  0.45593999997E+02  0.45594000000E+02  0.51100000000E-03 0.  1.
         11   -1    0    0    0    0 -0.00000000000E+00 -0.00000000000E+00 -0.45593999997E+02  0.45594000000E+02  0.51100000000E-03 0. -1.
    9900012    2    1    2    0    0  0.15735877197E+02 -0.10470695645E+01 -0.10097775829E+02  0.72461567811E+02  0.69999996765E+02 0.  0.
        -12    1    1    2    0    0 -0.15735877197E+02  0.10470695645E+01  0.10097775829E+02  0.18726432189E+02  0.00000000000E+00 0.  1.
         11    1    3    3    0    0  0.38311109657E+01  0.19425835508E+02 -0.14956603787E+02  0.24814118834E+02  0.51100000000E-03 0. -1.
        -11    1    3    3    0    0  0.36412329704E+01  0.10373959081E+02  0.10518032480E+02  0.15215341339E+02  0.51100000000E-03 0.  1.
         12    1    3    3    0    0  0.82635332607E+01 -0.30846864153E+02 -0.56592045225E+01  0.32432107638E+02  0.00000000000E+00 0. -1.
</event>
<event>
 7    1  0.2710146E-013  0.7246155E+02  0.7816164E-02  0.1226708E+00
        -11   -1    0    0    0    0  0.00000000000E+00  0.00000000000E+00  0.45593999997E+02  0.45594000000E+02  0.51100000000E-03 0.  1.
         11   -1    0    0    0    0 -0.00000000000E+00 -0.00000000000E+00 -0.45593999997E+02  0.45594000000E+02  0.51100000000E-03 0. -1.
    9900012    2    1    2    0    0  0.13760690359E+02  0.12677236882E+02  0.78155965042E+00  0.72461554272E+02  0.69999979128E+02 0.  0.
        -12    1    1    2    0    0 -0.13760690359E+02 -0.12677236882E+02 -0.78155965042E+00  0.18726445728E+02  0.00000000000E+00 0.  1.
         11    1    3    3    0    0  0.23059730523E+02 -0.47179809232E+01 -0.14487656998E+02  0.27638790157E+02  0.51100000000E-03 0. -1.
        -11    1    3    3    0    0  0.12938376026E+02  0.98873287526E+01 -0.92088170323E+00  0.16309778276E+02  0.51100000000E-03 0.  1.
        -12    1    3    3    0    0 -0.22237416190E+02  0.75078890526E+01  0.16190098352E+02  0.28512985839E+02  0.00000000000E+00 0.  1.
</event>
<event>
 7    1  0.2710146E-013  0.7246157E+02  0.7816164E-02  0.1226708E+00
        -11   -1    0    0    0    0  0.00000000000E+00  0.00000000000E+00  0.45593999997E+02  0.45594000000E+02  0.51100000000E-03 0.  1.
         11   -1    0    0    0    0 -0.00000000000E+00 -0.00000000000E+00 -0.45593999997E+02  0.45594000000E+02  0.51100000000E-03 0. -1.
    9900012    2    1    2    0    0 -0.28928925534E+01  0.15843920771E+02 -0.95540807624E+01  0.72461571832E+02  0.70000002003E+02 0.  0.
        -12    1    1    2    0    0  0.28928925534E+01 -0.15843920771E+02  0.95540807624E+01  0.18726428168E+02  0.00000000000E+00 0.  1.
         11    1    3    3    0    0 -0.55816492635E+00  0.40943796717E+01  0.13338489839E+02  0.13963910786E+02  0.51100000000E-03 0. -1.
        -11    1    3    3    0    0  0.55134557036E+01  0.74353202650E+01  0.16055763651E+02  0.18532936300E+02  0.51100000000E-03 0.  1.
         12    1    3    3    0    0 -0.78481833306E+01  0.43142208343E+01 -0.38948334252E+02  0.39964724746E+02  0.00000000000E+00 0. -1.
</event>
<event>
 7    1  0.2710146E-013  0.7246157E+02  0.7816164E-02  0.1226708E+00
        -11   -1    0    0    0    0  0.00000000000E+00  0.00000000000E+00  0.45593999997E+02  0.45594000000E+02  0.51100000000E-03 0.  1.
         11   -1    0    0    0    0 -0.00000000000E+00 -0.00000000000E+00 -0.45593999997E+02  0.45594000000E+02  0.51100000000E-03 0. -1.
    9900012    2    1    2    0    0  0.25800896270E+01 -0.17987764170E+02 -0.45235575609E+01  0.72461572276E+02  0.70000002581E+02 0.  0.
        -12    1    1    2    0    0 -0.25800896270E+01  0.17987764170E+02  0.45235575609E+01  0.18726427724E+02  0.00000000000E+00 0.  1.
         11    1    3    3    0    0  0.72775682177E+01  0.27359637577E+01 -0.27860696623E+02  0.28925195132E+02  0.51100000000E-03 0. -1.
        -11    1    3    3    0    0  0.66752110018E+01  0.44804145857E+01  0.12273848881E+01  0.81325906514E+01  0.51100000000E-03 0.  1.
        -12    1    3    3    0    0 -0.11372689592E+02 -0.25204142513E+02  0.22109754174E+02  0.35403786493E+02  0.00000000000E+00 0.  1.
</event>
<event>
 7    1  0.2710146E-013  0.7246153E+02  0.7816164E-02  0.1226708E+00
        -11   -1    0    0    0    0  0.00000000000E+00  0.00000000000E+00  0.45593999997E+02  0.45594000000E+02  0.51100000000E-03 0.  1.
         11   -1    0    0    0    0 -0.00000000000E+00 -0.00000000000E+00 -0.45593999997E+02  0.45594000000E+02  0.51100000000E-03 0. -1.
    9900012    2    1    2    0    0  0.43324237529E+01  0.51071886390E+01 -0.17487924935E+02  0.72461527030E+02  0.69999943640E+02 0.  0.
        -12    1    1    2    0    0 -0.43324237529E+01 -0.51071886390E+01  0.17487924935E+02  0.18726472970E+02  0.00000000000E+00 0.  1.
         11    1    3    3    0    0  0.41418410146E+01  0.86567482390E+01  0.12790608508E+02  0.15990428491E+02  0.51100000000E-03 0. -1.
        -11    1    3    3    0    0  0.23496372933E+02  0.21951888264E+01 -0.13531489602E+02  0.27202933778E+02  0.51100000000E-03 0.  1.
        -12    1    3    3    0    0 -0.23305790195E+02 -0.57447484264E+01 -0.16747043841E+02  0.29268164761E+02  0.00000000000E+00 0.  1.
</event>
<event>
 7    1  0.2710146E-013  0.7246161E+02  0.7816164E-02  0.1226708E+00
        -11   -1    0    0    0    0  0.00000000000E+00  0.00000000000E+00  0.45593999997E+02  0.45594000000E+02  0.51100000000E-03 0. -1.
         11   -1    0    0    0    0 -0.00000000000E+00 -0.00000000000E+00 -0.45593999997E+02  0.45594000000E+02  0.51100000000E-03 0.  1.
    9900012    2    1    2    0    0  0.31071930467E+01 -0.15484552377E+02  0.10062392353E+02  0.72461608174E+02  0.70000049345E+02 0.  0.
        -12    1    1    2    0    0 -0.31071930467E+01  0.15484552377E+02 -0.10062392353E+02  0.18726391826E+02  0.00000000000E+00 0.  1.
         11    1    3    3    0    0 -0.68664790484E+01 -0.31952273633E+01  0.28360793979E+02  0.29354601816E+02  0.51100000000E-03 0. -1.
        -11    1    3    3    0    0 -0.22644495670E+01 -0.67492067754E+01  0.97120594578E+01  0.12041745019E+02  0.51100000000E-03 0.  1.
        -12    1    3    3    0    0  0.12238121662E+02 -0.55401182387E+01 -0.28010461083E+02  0.31065261338E+02  0.00000000000E+00 0.  1.
</event>
<event>
 7    1  0.2710146E-013  0.7246146E+02  0.7816164E-02  0.1226708E+00
        -11   -1    0    0    0    0  0.00000000000E+00  0.00000000000E+00  0.45593999997E+02  0.45594000000E+02  0.51100000000E-03 0. -1.
         11   -1    0    0    0    0 -0.00000000000E+00 -0.00000000000E+00 -0.45593999997E+02  0.45594000000E+02  0.51100000000E-03 0.  1.
    9900012    2    1    2    0    0  0.10110939298E+02 -0.11824649465E+02 -0.10422571963E+02  0.72461456411E+02  0.69999851646E+02 0.  0.
        -12    1    1    2    0    0 -0.10110939298E+02  0.11824649465E+02  0.10422571963E+02  0.18726543589E+02  0.00000000000E+00 0.  1.
         11    1    3    3    0    0  0.20687233458E+02 -0.20309356198E+02 -0.90246396757E+01  0.30362406012E+02  0.51100000000E-03 0. -1.
        -11    1    3    3    0    0  0.45866572972E+01  0.21282536610E+02  0.23795057180E+01  0.21900818191E+02  0.51100000000E-03 0.  1.
         12    1    3    3    0    0 -0.15162951457E+02 -0.12797829877E+02 -0.37774380053E+01  0.20198232208E+02  0.00000000000E+00 0. -1.
</event>
<event>
 7    1  0.2710146E-013  0.7246160E+02  0.7816164E-02  0.1226708E+00
        -11   -1    0    0    0    0  0.00000000000E+00  0.00000000000E+00  0.45593999997E+02  0.45594000000E+02  0.51100000000E-03 0. -1.
         11   -1    0    0    0    0 -0.00000000000E+00 -0.00000000000E+00 -0.45593999997E+02  0.45594000000E+02  0.51100000000E-03 0.  1.
    9900012    2    1    2    0    0 -0.33260378027E+01 -0.75093756093E+01  0.16829281348E+02  0.72461602584E+02  0.70000042063E+02 0.  0.
        -12    1    1    2    0    0  0.33260378027E+01  0.75093756093E+01 -0.16829281348E+02  0.18726397416E+02  0.00000000000E+00 0.  1.
         11    1    3    3    0    0 -0.14200663478E+02 -0.21690989649E+02  0.16709016599E+02  0.30843947723E+02  0.51100000000E-03 0. -1.
        -11    1    3    3    0    0  0.48302235306E+01 -0.34046658740E+01 -0.15969063774E+02  0.17027442766E+02  0.51100000000E-03 0.  1.
        -12    1    3    3    0    0  0.60444021445E+01  0.17586279914E+02  0.16089328524E+02  0.24590212094E+02  0.00000000000E+00 0.  1.
</event>
<event>
 7    1  0.2710146E-013  0.7246159E+02  0.7816164E-02  0.1226708E+00
        -11   -1    0    0    0    0  0.00000000000E+00  0.00000000000E+00  0.45593999997E+02  0.45594000000E+02  0.51100000000E-03 0.  1.
         11   -1    0    0    0    0 -0.00000000000E+00 -0.00000000000E+00 -0.45593999997E+02  0.45594000000E+02  0.51100000000E-03 0. -1.
    9900012    2    1    2    0    0  0.78438532329E+01 -0.16961648086E+02 -0.12061815064E+01  0.72461590490E+02  0.70000026308E+02 0.  0.
        -12    1    1    2    0    0 -0.78438532329E+01  0.16961648086E+02  0.12061815064E+01  0.18726409510E+02  0.00000000000E+00 0.  1.
         11    1    3    3    0    0 -0.96038578410E+01 -0.90725458068E+01  0.59323656170E+01  0.14482338724E+02  0.51100000000E-03 0. -1.
        -11    1    3    3    0    0 -0.12327366948E+02 -0.19997540852E+02  0.42602000930E+01  0.23874985259E+02  0.51100000000E-03 0.  1.
         12    1    3    3    0    0  0.29775078022E+02  0.12108438574E+02 -0.11398747216E+02  0.34104266507E+02  0.00000000000E+00 0. -1.
</event>
<event>
 7    1  0.2710146E-013  0.7246158E+02  0.7816164E-02  0.1226708E+00
        -11   -1    0    0    0    0  0.00000000000E+00  0.00000000000E+00  0.45593999997E+02  0.45594000000E+02  0.51100000000E-03 0.  1.
         11   -1    0    0    0    0 -0.00000000000E+00 -0.00000000000E+00 -0.45593999997E+02  0.45594000000E+02  0.51100000000E-03 0. -1.
    9900012    2    1    2    0    0  0.96597414804E+01 -0.15861353596E+02 -0.24053398955E+01  0.72461580071E+02  0.70000012735E+02 0.  0.
        -12    1    1    2    0    0 -0.96597414804E+01  0.15861353596E+02  0.24053398955E+01  0.18726419929E+02  0.00000000000E+00 0.  1.
         11    1    3    3    0    0 -0.57744595166E+01 -0.37031050120E+01  0.41202768852E+01  0.80021279239E+01  0.51100000000E-03 0. -1.
        -11    1    3    3    0    0 -0.15026686773E+02 -0.83999771659E+01 -0.23697417557E+02  0.29290417049E+02  0.51100000000E-03 0.  1.
         12    1    3    3    0    0  0.30460887770E+02 -0.37582714179E+01  0.17171800776E+02  0.35169035098E+02  0.00000000000E+00 0. -1.
</event>
<event>
 7    1  0.2710146E-013  0.7246156E+02  0.7816164E-02  0.1226708E+00
        -11   -1    0    0    0    0  0.00000000000E+00  0.00000000000E+00  0.45593999997E+02  0.45594000000E+02  0.51100000000E-03 0.  1.
         11   -1    0    0    0    0 -0.00000000000E+00 -0.00000000000E+00 -0.45593999997E+02  0.45594000000E+02  0.51100000000E-03 0. -1.
    9900012    2    1    2    0    0 -0.18619676040E+02  0.16059488593E+00  0.19902993651E+01  0.72461563657E+02  0.69999991353E+02 0.  0.
        -12    1    1    2    0    0  0.18619676040E+02 -0.16059488593E+00 -0.19902993651E+01  0.18726436343E+02  0.00000000000E+00 0.  1.
         11    1    3    3    0    0  0.10471502884E+02 -0.24142801361E+01 -0.45513559000E+01  0.11670302567E+02  0.51100000000E-03 0. -1.
        -11    1    3    3    0    0 -0.54232207302E+00  0.24249917265E+02  0.57956525190E+01  0.24938768794E+02  0.51100000000E-03 0.  1.
         12    1    3    3    0    0 -0.28548856851E+02 -0.21675042243E+02  0.74600274601E+00  0.35852492296E+02  0.00000000000E+00 0. -1.
</event>
<event>
 7    1  0.2710146E-013  0.7246148E+02  0.7816164E-02  0.1226708E+00
        -11   -1    0    0    0    0  0.00000000000E+00  0.00000000000E+00  0.45593999997E+02  0.45594000000E+02  0.51100000000E-03 0. -1.
         11   -1    0    0    0    0 -0.00000000000E+00 -0.00000000000E+00 -0.45593999997E+02  0.45594000000E+02  0.51100000000E-03 0.  1.
    9900012    2    1    2    0    0 -0.62907845393E+00 -0.48152221025E+01  0.18085914977E+02  0.72461483395E+02  0.69999886798E+02 0.  0.
        -12    1    1    2    0    0  0.62907845393E+00  0.48152221025E+01 -0.18085914977E+02  0.18726516605E+02  0.00000000000E+00 0.  1.
         11    1    3    3    0    0 -0.10236562424E+02 -0.72961916775E+01 -0.65647160147E-01  0.12570836609E+02  0.51100000000E-03 0. -1.
        -11    1    3    3    0    0 -0.22944476289E+01  0.25897662816E+02 -0.29917430082E+01  0.26170669761E+02  0.51100000000E-03 0.  1.
         12    1    3    3    0    0  0.11901931599E+02 -0.23416693241E+02  0.21143305145E+02  0.33719977025E+02  0.00000000000E+00 0. -1.
</event>
<event>
 7    1  0.2710146E-013  0.7246156E+02  0.7816164E-02  0.1226708E+00
        -11   -1    0    0    0    0  0.00000000000E+00  0.00000000000E+00  0.45593999997E+02  0.45594000000E+02  0.51100000000E-03 0.  1.
         11   -1    0    0    0    0 -0.00000000000E+00 -0.00000000000E+00 -0.45593999997E+02  0.45594000000E+02  0.51100000000E-03 0. -1.
    9900012    2    1    2    0    0 -0.10751980840E+02 -0.33393723652E+01 -0.14964063058E+02  0.72461556585E+02  0.69999982141E+02 0.  0.
        -12    1    1    2    0    0  0.10751980840E+02  0.33393723652E+01  0.14964063058E+02  0.18726443415E+02  0.00000000000E+00 0.  1.
         11    1    3    3    0    0 -0.84694865264E+01  0.22757590520E+01  0.37893178723E+01  0.95535444460E+01  0.51100000000E-03 0. -1.
        -11    1    3    3    0    0 -0.28105464261E+02  0.82836808293E+01 -0.25702977345E+01  0.29413311954E+02  0.51100000000E-03 0.  1.
         12    1    3    3    0    0  0.25822969947E+02 -0.13898812246E+02 -0.16183083196E+02  0.33494700185E+02  0.00000000000E+00 0. -1.
</event>
<event>
 7    1  0.2710146E-013  0.7246160E+02  0.7816164E-02  0.1226708E+00
        -11   -1    0    0    0    0  0.00000000000E+00  0.00000000000E+00  0.45593999997E+02  0.45594000000E+02  0.51100000000E-03 0.  1.
         11   -1    0    0    0    0 -0.00000000000E+00 -0.00000000000E+00 -0.45593999997E+02  0.45594000000E+02  0.51100000000E-03 0. -1.
    9900012    2    1    2    0    0 -0.95824173376E+01 -0.37274843330E+01 -0.15651230997E+02  0.72461604373E+02  0.70000044393E+02 0.  0.
        -12    1    1    2    0    0  0.95824173376E+01  0.37274843330E+01  0.15651230997E+02  0.18726395627E+02  0.00000000000E+00 0.  1.
         11    1    3    3    0    0 -0.35406190713E+01  0.17061067899E+02  0.84116950315E+01  0.19348711452E+02  0.51100000000E-03 0. -1.
        -11    1    3    3    0    0 -0.49080804050E+01  0.46241740052E+01  0.90944416737E+01  0.11321709593E+02  0.51100000000E-03 0.  1.
         12    1    3    3    0    0 -0.11337178613E+01 -0.25412726238E+02 -0.33157367702E+02  0.41791183328E+02  0.00000000000E+00 0. -1.
</event>
<event>
 7    1  0.2710146E-013  0.7246157E+02  0.7816164E-02  0.1226708E+00
        -11   -1    0    0    0    0  0.00000000000E+00  0.00000000000E+00  0.45593999997E+02  0.45594000000E+02  0.51100000000E-03 0.  1.
         11   -1    0    0    0    0 -0.00000000000E+00 -0.00000000000E+00 -0.45593999997E+02  0.45594000000E+02  0.51100000000E-03 0. -1.
    9900012    2    1    2    0    0  0.68143833329E+01  0.16687715225E+02  0.50757669762E+01  0.72461572951E+02  0.70000003461E+02 0.  0.
        -12    1    1    2    0    0 -0.68143833329E+01 -0.16687715225E+02 -0.50757669762E+01  0.18726427049E+02  0.00000000000E+00 0.  1.
         11    1    3    3    0    0 -0.38144848070E+01 -0.47628953723E+01 -0.92474458580E+01  0.11079292479E+02  0.51100000000E-03 0. -1.
        -11    1    3    3    0    0 -0.17586231002E+01 -0.80208961011E+01 -0.15577536805E+02  0.17609292508E+02  0.51100000000E-03 0.  1.
        -12    1    3    3    0    0  0.12387491240E+02  0.29471506698E+02  0.29900749639E+02  0.43772987964E+02  0.00000000000E+00 0.  1.
</event>
<event>
 7    1  0.2710146E-013  0.7246146E+02  0.7816164E-02  0.1226708E+00
        -11   -1    0    0    0    0  0.00000000000E+00  0.00000000000E+00  0.45593999997E+02  0.45594000000E+02  0.51100000000E-03 0.  1.
         11   -1    0    0    0    0 -0.00000000000E+00 -0.00000000000E+00 -0.45593999997E+02  0.45594000000E+02  0.51100000000E-03 0. -1.
    9900012    2    1    2    0    0  0.85825631800E+01 -0.15965383580E+02  0.47042052689E+01  0.72461457051E+02  0.69999852479E+02 0.  0.
        -12    1    1    2    0    0 -0.85825631800E+01  0.15965383580E+02 -0.47042052689E+01  0.18726542949E+02  0.00000000000E+00 0.  1.
         11    1    3    3    0    0 -0.15064192827E+02 -0.12634087475E+02 -0.16205090573E+02  0.25478521005E+02  0.51100000000E-03 0. -1.
        -11    1    3    3    0    0  0.10111615228E+02 -0.78826156059E+01 -0.77370280431E+01  0.14974711834E+02  0.51100000000E-03 0.  1.
        -12    1    3    3    0    0  0.13535140779E+02  0.45513195001E+01  0.28646323885E+02  0.32008224212E+02  0.00000000000E+00 0.  1.
</event>
<event>
 7    1  0.2710146E-013  0.7246141E+02  0.7816164E-02  0.1226708E+00
        -11   -1    0    0    0    0  0.00000000000E+00  0.00000000000E+00  0.45593999997E+02  0.45594000000E+02  0.51100000000E-03 0.  1.
         11   -1    0    0    0    0 -0.00000000000E+00 -0.00000000000E+00 -0.45593999997E+02  0.45594000000E+02  0.51100000000E-03 0. -1.
    9900012    2    1    2    0    0  0.43445382179E+01  0.39240167978E+00 -0.18211433603E+02  0.72461406469E+02  0.69999786587E+02 0.  0.
        -12    1    1    2    0    0 -0.43445382179E+01 -0.39240167978E+00  0.18211433603E+02  0.18726593531E+02  0.00000000000E+00 0.  1.
         11    1    3    3    0    0  0.12089422504E+02  0.45538041056E+01 -0.37446138410E+02  0.39611924346E+02  0.51100000000E-03 0. -1.
        -11    1    3    3    0    0 -0.54690234129E+01 -0.10460050692E+01 -0.54935952320E+01  0.78220158866E+01  0.51100000000E-03 0.  1.
        -12    1    3    3    0    0 -0.22758608728E+01 -0.31153973567E+01  0.24728300039E+02  0.25027466237E+02  0.00000000000E+00 0.  1.
</event>
<event>
 7    1  0.2710146E-013  0.7246154E+02  0.7816164E-02  0.1226708E+00
        -11   -1    0    0    0    0  0.00000000000E+00  0.00000000000E+00  0.45593999997E+02  0.45594000000E+02  0.51100000000E-03 0.  1.
         11   -1    0    0    0    0 -0.00000000000E+00 -0.00000000000E+00 -0.45593999997E+02  0.45594000000E+02  0.51100000000E-03 0. -1.
    9900012    2    1    2    0    0  0.18016452714E+02 -0.18425521786E+01 -0.47636998771E+01  0.72461537348E+02  0.69999957082E+02 0.  0.
        -12    1    1    2    0    0 -0.18016452714E+02  0.18425521786E+01  0.47636998771E+01  0.18726462652E+02  0.00000000000E+00 0.  1.
         11    1    3    3    0    0  0.23284149817E+02 -0.28831356916E+02  0.81259043106E+01  0.37939808848E+02  0.51100000000E-03 0. -1.
        -11    1    3    3    0    0 -0.17617575681E+01 -0.11456135940E+01  0.16379729346E+01  0.26644278619E+01  0.51100000000E-03 0.  1.
        -12    1    3    3    0    0 -0.35059395348E+01  0.28134418332E+02 -0.14527577122E+02  0.31857300638E+02  0.00000000000E+00 0.  1.
</event>
<event>
 7    1  0.2710146E-013  0.7246165E+02  0.7816164E-02  0.1226708E+00
        -11   -1    0    0    0    0  0.00000000000E+00  0.00000000000E+00  0.45593999997E+02  0.45594000000E+02  0.51100000000E-03 0. -1.
         11   -1    0    0    0    0 -0.00000000000E+00 -0.00000000000E+00 -0.45593999997E+02  0.45594000000E+02  0.51100000000E-03 0.  1.
    9900012    2    1    2    0    0 -0.43511572452E+01  0.17398635209E+02  0.53880599556E+01  0.72461647804E+02  0.70000100970E+02 0.  0.
        -12    1    1    2    0    0  0.43511572452E+01 -0.17398635209E+02 -0.53880599556E+01  0.18726352196E+02  0.00000000000E+00 0.  1.
         11    1    3    3    0    0  0.41374577945E+01  0.22229206767E+02 -0.16579882036E+02  0.28038343016E+02  0.51100000000E-03 0. -1.
        -11    1    3    3    0    0  0.28426884194E+01 -0.13873778425E+02 -0.39707071328E+01  0.14708131106E+02  0.51100000000E-03 0.  1.
         12    1    3    3    0    0 -0.11331303459E+02  0.90432068663E+01  0.25938649125E+02  0.29715173681E+02  0.00000000000E+00 0. -1.
</event>
<event>
 7    1  0.2873275E-013  0.7246161E+02  0.7816164E-02  0.1226708E+00
        -11   -1    0    0    0    0  0.00000000000E+00  0.00000000000E+00  0.45593999997E+02  0.45594000000E+02  0.51100000000E-03 0. -1.
         11   -1    0    0    0    0 -0.00000000000E+00 -0.00000000000E+00 -0.45593999997E+02  0.45594000000E+02  0.51100000000E-03 0.  1.
    9900012    2    1    2    0    0 -0.10388746972E+02 -0.66000295466E+01  0.14113514291E+02  0.72461608481E+02  0.70000049746E+02 0.  0.
        -12    1    1    2    0    0  0.10388746972E+02  0.66000295466E+01 -0.14113514291E+02  0.18726391519E+02  0.00000000000E+00 0.  1.
         11    1    3    3    0    0 -0.35443432166E+01  0.51005029455E+01 -0.24392338143E+01  0.66728825103E+01  0.51100000000E-03 0.  1.
        -11    1    3    3    0    0  0.20608383410E+02 -0.39054393255E+01 -0.13023267277E+02  0.24689338062E+02  0.51100000000E-03 0. -1.
         12    1    3    3    0    0 -0.27452787165E+02 -0.77950931666E+01  0.29576015382E+02  0.41099387909E+02  0.00000000000E+00 0. -1.
</event>
<event>
 7    1  0.2710146E-013  0.7246147E+02  0.7816164E-02  0.1226708E+00
        -11   -1    0    0    0    0  0.00000000000E+00  0.00000000000E+00  0.45593999997E+02  0.45594000000E+02  0.51100000000E-03 0.  1.
         11   -1    0    0    0    0 -0.00000000000E+00 -0.00000000000E+00 -0.45593999997E+02  0.45594000000E+02  0.51100000000E-03 0. -1.
    9900012    2    1    2    0    0 -0.10350220238E+02 -0.15344333214E+02 -0.28473530033E+01  0.72461466956E+02  0.69999865382E+02 0.  0.
        -12    1    1    2    0    0  0.10350220238E+02  0.15344333214E+02  0.28473530033E+01  0.18726533044E+02  0.00000000000E+00 0.  1.
         11    1    3    3    0    0 -0.13401305373E+02 -0.43250449040E+01  0.30719451372E+01  0.14413113692E+02  0.51100000000E-03 0. -1.
        -11    1    3    3    0    0 -0.12456021602E+01 -0.27758185665E+02 -0.21223511674E+02  0.34964351048E+02  0.51100000000E-03 0.  1.
        -12    1    3    3    0    0  0.42966872958E+01  0.16738897356E+02  0.15304213533E+02  0.23084002215E+02  0.00000000000E+00 0.  1.
</event>
<event>
 7    1  0.2710146E-013  0.7246155E+02  0.7816164E-02  0.1226708E+00
        -11   -1    0    0    0    0  0.00000000000E+00  0.00000000000E+00  0.45593999997E+02  0.45594000000E+02  0.51100000000E-03 0.  1.
         11   -1    0    0    0    0 -0.00000000000E+00 -0.00000000000E+00 -0.45593999997E+02  0.45594000000E+02  0.51100000000E-03 0. -1.
    9900012    2    1    2    0    0  0.86590437841E+01 -0.24100124325E+01 -0.16428408292E+02  0.72461553509E+02  0.69999978134E+02 0.  0.
        -12    1    1    2    0    0 -0.86590437841E+01  0.24100124325E+01  0.16428408292E+02  0.18726446491E+02  0.00000000000E+00 0.  1.
         11    1    3    3    0    0 -0.10413720906E+02  0.85755731897E+00 -0.75153888708E+01  0.12870977345E+02  0.51100000000E-03 0. -1.
        -11    1    3    3    0    0 -0.35063948381E+01  0.18866657804E+02  0.11101627005E+02  0.22169612172E+02  0.51100000000E-03 0.  1.
         12    1    3    3    0    0  0.22579159529E+02 -0.22134227556E+02 -0.20014646426E+02  0.37420963992E+02  0.00000000000E+00 0. -1.
</event>
<event>
 7    1  0.2710146E-013  0.7246149E+02  0.7816164E-02  0.1226708E+00
        -11   -1    0    0    0    0  0.00000000000E+00  0.00000000000E+00  0.45593999997E+02  0.45594000000E+02  0.51100000000E-03 0. -1.
         11   -1    0    0    0    0 -0.00000000000E+00 -0.00000000000E+00 -0.45593999997E+02  0.45594000000E+02  0.51100000000E-03 0.  1.
    9900012    2    1    2    0    0 -0.97190470773E+01  0.52055099695E+01  0.15136879530E+02  0.72461485855E+02  0.69999890002E+02 0.  0.
        -12    1    1    2    0    0  0.97190470773E+01 -0.52055099695E+01 -0.15136879530E+02  0.18726514145E+02  0.00000000000E+00 0.  1.
         11    1    3    3    0    0 -0.81305893876E-01 -0.17369956116E+02 -0.75791880998E+00  0.17386673842E+02  0.51100000000E-03 0. -1.
        -11    1    3    3    0    0  0.26555549979E+01  0.21666370245E+02 -0.11761675617E+02  0.24795575926E+02  0.51100000000E-03 0.  1.
         12    1    3    3    0    0 -0.12293296181E+02  0.90909584048E+00  0.27656473957E+02  0.30279236086E+02  0.00000000000E+00 0. -1.
</event>
<event>
 7    1  0.2710146E-013  0.7246151E+02  0.7816164E-02  0.1226708E+00
        -11   -1    0    0    0    0  0.00000000000E+00  0.00000000000E+00  0.45593999997E+02  0.45594000000E+02  0.51100000000E-03 0.  1.
         11   -1    0    0    0    0 -0.00000000000E+00 -0.00000000000E+00 -0.45593999997E+02  0.45594000000E+02  0.51100000000E-03 0. -1.
    9900012    2    1    2    0    0  0.53706376602E+01  0.39009839050E+01  0.17510566129E+02  0.72461512063E+02  0.69999924142E+02 0.  0.
        -12    1    1    2    0    0 -0.53706376602E+01 -0.39009839050E+01 -0.17510566129E+02  0.18726487937E+02  0.00000000000E+00 0.  1.
         11    1    3    3    0    0  0.21465501225E+02 -0.70160153832E+01 -0.20919839937E+01  0.22679696030E+02  0.51100000000E-03 0. -1.
        -11    1    3    3    0    0  0.52795423110E+01  0.50280097880E+01  0.25759979509E+02  0.26771832101E+02  0.51100000000E-03 0.  1.
        -12    1    3    3    0    0 -0.21374405876E+02  0.58889895002E+01 -0.61574293866E+01  0.23009983932E+02  0.00000000000E+00 0.  1.
</event>
<event>
 7    1  0.2710146E-013  0.7246155E+02  0.7816164E-02  0.1226708E+00
        -11   -1    0    0    0    0  0.00000000000E+00  0.00000000000E+00  0.45593999997E+02  0.45594000000E+02  0.51100000000E-03 0.  1.
         11   -1    0    0    0    0 -0.00000000000E+00 -0.00000000000E+00 -0.45593999997E+02  0.45594000000E+02  0.51100000000E-03 0. -1.
    9900012    2    1    2    0    0 -0.22318581857E+01  0.12612492752E+02 -0.13661031966E+02  0.72461549222E+02  0.69999972549E+02 0.  0.
        -12    1    1    2    0    0  0.22318581857E+01 -0.12612492752E+02  0.13661031966E+02  0.18726450778E+02  0.00000000000E+00 0.  1.
         11    1    3    3    0    0  0.56139081699E+01  0.28049853495E+02 -0.23741169828E+02  0.37174633704E+02  0.51100000000E-03 0. -1.
        -11    1    3    3    0    0  0.20306986685E+01 -0.23114461110E+01 -0.93501959138E+01  0.98434081544E+01  0.51100000000E-03 0.  1.
        -12    1    3    3    0    0 -0.98764650241E+01 -0.13125914632E+02  0.19430333776E+02  0.25443507363E+02  0.00000000000E+00 0.  1.
</event>
<event>
 7    1  0.2710146E-013  0.7246121E+02  0.7816164E-02  0.1226709E+00
        -11   -1    0    0    0    0  0.00000000000E+00  0.00000000000E+00  0.45593999997E+02  0.45594000000E+02  0.51100000000E-03 0. -1.
         11   -1    0    0    0    0 -0.00000000000E+00 -0.00000000000E+00 -0.45593999997E+02  0.45594000000E+02  0.51100000000E-03 0.  1.
    9900012    2    1    2    0    0  0.16322168435E+01  0.11138065079E+02  0.14965698684E+02  0.72461207359E+02  0.69999527208E+02 0.  0.
        -12    1    1    2    0    0 -0.16322168435E+01 -0.11138065079E+02 -0.14965698684E+02  0.18726792641E+02  0.00000000000E+00 0.  1.
         11    1    3    3    0    0  0.69646488505E+01 -0.26855148319E+01  0.19105045506E+02  0.20511486722E+02  0.51100000000E-03 0. -1.
        -11    1    3    3    0    0  0.12612334453E+02  0.21035827103E+02 -0.15979567931E+02  0.29273257315E+02  0.51100000000E-03 0.  1.
         12    1    3    3    0    0 -0.17944766460E+02 -0.72122471928E+01  0.11840221109E+02  0.22676463322E+02  0.00000000000E+00 0. -1.
</event>
<event>
 7    1  0.2710146E-013  0.7246156E+02  0.7816164E-02  0.1226708E+00
        -11   -1    0    0    0    0  0.00000000000E+00  0.00000000000E+00  0.45593999997E+02  0.45594000000E+02  0.51100000000E-03 0.  1.
         11   -1    0    0    0    0 -0.00000000000E+00 -0.00000000000E+00 -0.45593999997E+02  0.45594000000E+02  0.51100000000E-03 0. -1.
    9900012    2    1    2    0    0 -0.35070223522E+01  0.11268704342E+01 -0.18360568211E+02  0.72461561262E+02  0.69999988234E+02 0.  0.
        -12    1    1    2    0    0  0.35070223522E+01 -0.11268704342E+01  0.18360568211E+02  0.18726438738E+02  0.00000000000E+00 0.  1.
         11    1    3    3    0    0 -0.16246940310E+01  0.13997915813E+02 -0.34099619529E+02  0.36896684541E+02  0.51100000000E-03 0. -1.
        -11    1    3    3    0    0  0.26194730284E+01  0.85253130342E+01  0.53746685619E+00  0.89348459506E+01  0.51100000000E-03 0.  1.
         12    1    3    3    0    0 -0.45018013496E+01 -0.21396358413E+02  0.15201584462E+02  0.26630030771E+02  0.00000000000E+00 0. -1.
</event>
<event>
 7    1  0.2710146E-013  0.7246155E+02  0.7816164E-02  0.1226708E+00
        -11   -1    0    0    0    0  0.00000000000E+00  0.00000000000E+00  0.45593999997E+02  0.45594000000E+02  0.51100000000E-03 0.  1.
         11   -1    0    0    0    0 -0.00000000000E+00 -0.00000000000E+00 -0.45593999997E+02  0.45594000000E+02  0.51100000000E-03 0. -1.
    9900012    2    1    2    0    0 -0.50417099810E+01 -0.14720731984E+02  0.10419276008E+02  0.72461545391E+02  0.69999967559E+02 0.  0.
        -12    1    1    2    0    0  0.50417099810E+01  0.14720731984E+02 -0.10419276008E+02  0.18726454609E+02  0.00000000000E+00 0.  1.
         11    1    3    3    0    0  0.34286000790E+01 -0.16364319361E+02 -0.13025012170E+02  0.21194272551E+02  0.51100000000E-03 0. -1.
        -11    1    3    3    0    0  0.13358742067E+02  0.24186677044E+01 -0.58025904778E+01  0.14764010282E+02  0.51100000000E-03 0.  1.
        -12    1    3    3    0    0 -0.21829052127E+02 -0.77508032743E+00  0.29246878656E+02  0.36503262559E+02  0.00000000000E+00 0.  1.
</event>
<event>
 7    1  0.2710146E-013  0.7246148E+02  0.7816164E-02  0.1226708E+00
        -11   -1    0    0    0    0  0.00000000000E+00  0.00000000000E+00  0.45593999997E+02  0.45594000000E+02  0.51100000000E-03 0.  1.
         11   -1    0    0    0    0 -0.00000000000E+00 -0.00000000000E+00 -0.45593999997E+02  0.45594000000E+02  0.51100000000E-03 0. -1.
    9900012    2    1    2    0    0 -0.18398335854E+02 -0.46831909469E+00 -0.34589564254E+01  0.72461482317E+02  0.69999885393E+02 0.  0.
        -12    1    1    2    0    0  0.18398335854E+02  0.46831909469E+00  0.34589564254E+01  0.18726517683E+02  0.00000000000E+00 0.  1.
         11    1    3    3    0    0 -0.11845731821E+02 -0.23900439395E+02 -0.75920463879E+01  0.27734302484E+02  0.51100000000E-03 0. -1.
        -11    1    3    3    0    0  0.14588685677E+02  0.68554536782E+01 -0.40931494414E+01  0.16630720596E+02  0.51100000000E-03 0.  1.
        -12    1    3    3    0    0 -0.21141289711E+02  0.16576666622E+02  0.82262394039E+01  0.28096459237E+02  0.00000000000E+00 0.  1.
</event>
<event>
 7    1  0.2710146E-013  0.7246156E+02  0.7816164E-02  0.1226708E+00
        -11   -1    0    0    0    0  0.00000000000E+00  0.00000000000E+00  0.45593999997E+02  0.45594000000E+02  0.51100000000E-03 0.  1.
         11   -1    0    0    0    0 -0.00000000000E+00 -0.00000000000E+00 -0.45593999997E+02  0.45594000000E+02  0.51100000000E-03 0. -1.
    9900012    2    1    2    0    0  0.13499021734E+02  0.59073772226E+01 -0.11556761149E+02  0.72461563562E+02  0.69999991229E+02 0.  0.
        -12    1    1    2    0    0 -0.13499021734E+02 -0.59073772226E+01  0.11556761149E+02  0.18726436438E+02  0.00000000000E+00 0.  1.
         11    1    3    3    0    0 -0.20518681634E+02 -0.13101985377E+02 -0.10533927652E+02  0.26526250185E+02  0.51100000000E-03 0. -1.
        -11    1    3    3    0    0  0.88749708074E+01 -0.45794177509E+01 -0.51096145562E+01  0.11218036145E+02  0.51100000000E-03 0.  1.
        -12    1    3    3    0    0  0.25142732561E+02  0.23588780350E+02  0.40867810587E+01  0.34717277233E+02  0.00000000000E+00 0.  1.
</event>
<event>
 7    1  0.2710146E-013  0.7246157E+02  0.7816164E-02  0.1226708E+00
        -11   -1    0    0    0    0  0.00000000000E+00  0.00000000000E+00  0.45593999997E+02  0.45594000000E+02  0.51100000000E-03 0.  1.
         11   -1    0    0    0    0 -0.00000000000E+00 -0.00000000000E+00 -0.45593999997E+02  0.45594000000E+02  0.51100000000E-03 0. -1.
    9900012    2    1    2    0    0 -0.90176406874E+01 -0.13445359994E+02 -0.94118869545E+01  0.72461570415E+02  0.70000000158E+02 0.  0.
        -12    1    1    2    0    0  0.90176406874E+01  0.13445359994E+02  0.94118869545E+01  0.18726429585E+02  0.00000000000E+00 0.  1.
         11    1    3    3    0    0  0.17744541024E+02 -0.37868509844E+01  0.80346326996E+01  0.19843495141E+02  0.51100000000E-03 0. -1.
        -11    1    3    3    0    0 -0.15284007292E+02  0.94937992312E+01  0.71834851396E+01  0.19373578961E+02  0.51100000000E-03 0.  1.
         12    1    3    3    0    0 -0.11478174420E+02 -0.19152308241E+02 -0.24630004794E+02  0.33244496313E+02  0.00000000000E+00 0. -1.
</event>
<event>
 7    1  0.2710146E-013  0.7246208E+02  0.7816164E-02  0.1226707E+00
        -11   -1    0    0    0    0  0.00000000000E+00  0.00000000000E+00  0.45593999997E+02  0.45594000000E+02  0.51100000000E-03 0.  1.
         11   -1    0    0    0    0 -0.00000000000E+00 -0.00000000000E+00 -0.45593999997E+02  0.45594000000E+02  0.51100000000E-03 0. -1.
    9900012    2    1    2    0    0  0.15755968849E+02  0.12395931566E+01  0.10043549194E+02  0.72462081438E+02  0.70000665857E+02 0.  0.
        -12    1    1    2    0    0 -0.15755968849E+02 -0.12395931566E+01 -0.10043549194E+02  0.18725918562E+02  0.00000000000E+00 0.  1.
         11    1    3    3    0    0  0.23427175793E+02  0.20233894453E+02  0.23293232443E+02  0.38740388850E+02  0.51100000000E-03 0. -1.
        -11    1    3    3    0    0  0.13672009810E+01  0.35700960253E+01  0.26719268345E+01  0.46641202196E+01  0.51100000000E-03 0.  1.
        -12    1    3    3    0    0 -0.90384079249E+01 -0.22564397321E+02 -0.15921610084E+02  0.29057572369E+02  0.00000000000E+00 0.  1.
</event>
<event>
 7    1  0.2710146E-013  0.7246153E+02  0.7816164E-02  0.1226708E+00
        -11   -1    0    0    0    0  0.00000000000E+00  0.00000000000E+00  0.45593999997E+02  0.45594000000E+02  0.51100000000E-03 0. -1.
         11   -1    0    0    0    0 -0.00000000000E+00 -0.00000000000E+00 -0.45593999997E+02  0.45594000000E+02  0.51100000000E-03 0.  1.
    9900012    2    1    2    0    0  0.46519203109E+01 -0.18036634977E+02 -0.19287462241E+01  0.72461531409E+02  0.69999949345E+02 0.  0.
        -12    1    1    2    0    0 -0.46519203109E+01  0.18036634977E+02  0.19287462241E+01  0.18726468591E+02  0.00000000000E+00 0.  1.
         11    1    3    3    0    0  0.13400183719E+02 -0.18260552135E+02  0.23906871810E+02  0.32932525078E+02  0.51100000000E-03 0. -1.
        -11    1    3    3    0    0  0.40788762929E+01 -0.51754801106E+01  0.32035982255E+01  0.73270640805E+01  0.51100000000E-03 0.  1.
        -12    1    3    3    0    0 -0.12827139702E+02  0.53993972684E+01 -0.29039216259E+02  0.32201942251E+02  0.00000000000E+00 0.  1.
</event>
<event>
 7    1  0.2710146E-013  0.7246156E+02  0.7816164E-02  0.1226708E+00
        -11   -1    0    0    0    0  0.00000000000E+00  0.00000000000E+00  0.45593999997E+02  0.45594000000E+02  0.51100000000E-03 0.  1.
         11   -1    0    0    0    0 -0.00000000000E+00 -0.00000000000E+00 -0.45593999997E+02  0.45594000000E+02  0.51100000000E-03 0. -1.
    9900012    2    1    2    0    0 -0.20894824583E+01 -0.97846946686E+01 -0.15829503675E+02  0.72461564854E+02  0.69999992913E+02 0.  0.
        -12    1    1    2    0    0  0.20894824583E+01  0.97846946686E+01  0.15829503675E+02  0.18726435146E+02  0.00000000000E+00 0.  1.
         11    1    3    3    0    0  0.14147972850E+01 -0.15813242965E+02 -0.25133902222E+01  0.16074123152E+02  0.51100000000E-03 0. -1.
        -11    1    3    3    0    0  0.20037040787E+02 -0.38901487351E+01  0.91500631457E+01  0.22368279248E+02  0.51100000000E-03 0.  1.
         12    1    3    3    0    0 -0.23541320530E+02  0.99186970319E+01 -0.22466176598E+02  0.34019162454E+02  0.00000000000E+00 0. -1.
</event>
<event>
 7    1  0.2710146E-013  0.7246157E+02  0.7816164E-02  0.1226708E+00
        -11   -1    0    0    0    0  0.00000000000E+00  0.00000000000E+00  0.45593999997E+02  0.45594000000E+02  0.51100000000E-03 0. -1.
         11   -1    0    0    0    0 -0.00000000000E+00 -0.00000000000E+00 -0.45593999997E+02  0.45594000000E+02  0.51100000000E-03 0.  1.
    9900012    2    1    2    0    0  0.44960784986E+00 -0.17051698195E+02 -0.77276501442E+01  0.72461571208E+02  0.70000001191E+02 0.  0.
        -12    1    1    2    0    0 -0.44960784986E+00  0.17051698195E+02  0.77276501442E+01  0.18726428792E+02  0.00000000000E+00 0.  1.
         11    1    3    3    0    0  0.14446225380E+02 -0.29964034041E+02  0.85617909329E+01  0.34348814070E+02  0.51100000000E-03 0. -1.
        -11    1    3    3    0    0 -0.27479148826E+01  0.32673388657E+01 -0.21867287506E+02  0.22280143684E+02  0.51100000000E-03 0.  1.
        -12    1    3    3    0    0 -0.11248702648E+02  0.96449969806E+01  0.55778464288E+01  0.15832613454E+02  0.00000000000E+00 0.  1.
</event>
<event>
 7    1  0.2710146E-013  0.7246162E+02  0.7816164E-02  0.1226708E+00
        -11   -1    0    0    0    0  0.00000000000E+00  0.00000000000E+00  0.45593999997E+02  0.45594000000E+02  0.51100000000E-03 0.  1.
         11   -1    0    0    0    0 -0.00000000000E+00 -0.00000000000E+00 -0.45593999997E+02  0.45594000000E+02  0.51100000000E-03 0. -1.
    9900012    2    1    2    0    0  0.15361018327E+02 -0.35615481801E+01 -0.10101074659E+02  0.72461622380E+02  0.70000067851E+02 0.  0.
        -12    1    1    2    0    0 -0.15361018327E+02  0.35615481801E+01  0.10101074659E+02  0.18726377620E+02  0.00000000000E+00 0.  1.
         11    1    3    3    0    0  0.19548639781E+02  0.19786963789E+01  0.27454863673E+01  0.19839411591E+02  0.51100000000E-03 0. -1.
        -11    1    3    3    0    0  0.15637017426E+02 -0.20792452864E+02 -0.67062183393E+01  0.26866629390E+02  0.51100000000E-03 0.  1.
        -12    1    3    3    0    0 -0.19824638879E+02  0.15252208305E+02 -0.61403426874E+01  0.25755581399E+02  0.00000000000E+00 0.  1.
</event>
<event>
 7    1  0.2710146E-013  0.7246159E+02  0.7816164E-02  0.1226708E+00
        -11   -1    0    0    0    0  0.00000000000E+00  0.00000000000E+00  0.45593999997E+02  0.45594000000E+02  0.51100000000E-03 0.  1.
         11   -1    0    0    0    0 -0.00000000000E+00 -0.00000000000E+00 -0.45593999997E+02  0.45594000000E+02  0.51100000000E-03 0. -1.
    9900012    2    1    2    0    0 -0.39762533822E+01 -0.57300171748E+01 -0.17379146637E+02  0.72461590157E+02  0.70000025875E+02 0.  0.
        -12    1    1    2    0    0  0.39762533822E+01  0.57300171748E+01  0.17379146637E+02  0.18726409843E+02  0.00000000000E+00 0.  1.
         11    1    3    3    0    0  0.89733248710E+01  0.54879916923E+01 -0.68947298175E+01  0.12576800530E+02  0.51100000000E-03 0. -1.
        -11    1    3    3    0    0 -0.14965863959E+01 -0.65181858763E+00  0.22944470590E+02  0.23002464417E+02  0.51100000000E-03 0.  1.
         12    1    3    3    0    0 -0.11452991857E+02 -0.10566190279E+02 -0.33428887409E+02  0.36882325211E+02  0.00000000000E+00 0. -1.
</event>
<event>
 7    1  0.2710146E-013  0.7246149E+02  0.7816164E-02  0.1226708E+00
        -11   -1    0    0    0    0  0.00000000000E+00  0.00000000000E+00  0.45593999997E+02  0.45594000000E+02  0.51100000000E-03 0. -1.
         11   -1    0    0    0    0 -0.00000000000E+00 -0.00000000000E+00 -0.45593999997E+02  0.45594000000E+02  0.51100000000E-03 0.  1.
    9900012    2    1    2    0    0 -0.11422416480E+02  0.17852212297E+01 -0.14731725708E+02  0.72461485230E+02  0.69999889188E+02 0.  0.
        -12    1    1    2    0    0  0.11422416480E+02 -0.17852212297E+01  0.14731725708E+02  0.18726514770E+02  0.00000000000E+00 0.  1.
         11    1    3    3    0    0  0.48988365954E+01 -0.29117983351E+01  0.15436275282E+02  0.16454657832E+02  0.51100000000E-03 0. -1.
        -11    1    3    3    0    0 -0.14337837763E+02  0.23582198734E+02 -0.22176577961E+02  0.35404721424E+02  0.51100000000E-03 0.  1.
         12    1    3    3    0    0 -0.19834153121E+01 -0.18885179169E+02 -0.79914230290E+01  0.20602105974E+02  0.00000000000E+00 0. -1.
</event>
<event>
 7    1  0.2710146E-013  0.7246151E+02  0.7816164E-02  0.1226708E+00
        -11   -1    0    0    0    0  0.00000000000E+00  0.00000000000E+00  0.45593999997E+02  0.45594000000E+02  0.51100000000E-03 0. -1.
         11   -1    0    0    0    0 -0.00000000000E+00 -0.00000000000E+00 -0.45593999997E+02  0.45594000000E+02  0.51100000000E-03 0.  1.
    9900012    2    1    2    0    0 -0.89261335092E+01 -0.15822390407E+02 -0.45450400221E+01  0.72461513773E+02  0.69999926371E+02 0.  0.
        -12    1    1    2    0    0  0.89261335092E+01  0.15822390407E+02  0.45450400221E+01  0.18726486227E+02  0.00000000000E+00 0.  1.
         11    1    3    3    0    0 -0.22710013009E+02 -0.19058678690E+02 -0.13618660363E+02  0.32625846114E+02  0.51100000000E-03 0. -1.
        -11    1    3    3    0    0  0.88074291605E+00 -0.15139259213E+02  0.84793742778E+01  0.17374483187E+02  0.51100000000E-03 0.  1.
        -12    1    3    3    0    0  0.12903136584E+02  0.18375547497E+02  0.59424606290E+00  0.22461184472E+02  0.00000000000E+00 0.  1.
</event>
<event>
 7    1  0.2710146E-013  0.7246164E+02  0.7816164E-02  0.1226708E+00
        -11   -1    0    0    0    0  0.00000000000E+00  0.00000000000E+00  0.45593999997E+02  0.45594000000E+02  0.51100000000E-03 0.  1.
         11   -1    0    0    0    0 -0.00000000000E+00 -0.00000000000E+00 -0.45593999997E+02  0.45594000000E+02  0.51100000000E-03 0. -1.
    9900012    2    1    2    0    0 -0.14501895380E+00 -0.99433487273E+01 -0.15867742994E+02  0.72461642048E+02  0.70000093473E+02 0.  0.
        -12    1    1    2    0    0  0.14501895380E+00  0.99433487273E+01  0.15867742994E+02  0.18726357952E+02  0.00000000000E+00 0.  1.
         11    1    3    3    0    0  0.12123869912E+02 -0.36132594176E+01 -0.82599994564E+00  0.12677781408E+02  0.51100000000E-03 0. -1.
        -11    1    3    3    0    0 -0.99735776392E+01 -0.25352965011E+02  0.93159963413E+01  0.28792930971E+02  0.51100000000E-03 0.  1.
         12    1    3    3    0    0 -0.22953112265E+01  0.19022875702E+02 -0.24357739390E+02  0.30990929669E+02  0.00000000000E+00 0. -1.
</event>
<event>
 7    1  0.2710146E-013  0.7246129E+02  0.7816164E-02  0.1226709E+00
        -11   -1    0    0    0    0  0.00000000000E+00  0.00000000000E+00  0.45593999997E+02  0.45594000000E+02  0.51100000000E-03 0.  1.
         11   -1    0    0    0    0 -0.00000000000E+00 -0.00000000000E+00 -0.45593999997E+02  0.45594000000E+02  0.51100000000E-03 0. -1.
    9900012    2    1    2    0    0 -0.13347896236E+02  0.81084946948E+01 -0.10333237525E+02  0.72461285983E+02  0.69999629631E+02 0.  0.
        -12    1    1    2    0    0  0.13347896236E+02 -0.81084946948E+01  0.10333237525E+02  0.18726714017E+02  0.00000000000E+00 0.  1.
         11    1    3    3    0    0  0.95339382055E+01  0.18801166173E+01 -0.70492477501E+01  0.12005111841E+02  0.51100000000E-03 0. -1.
        -11    1    3    3    0    0  0.68656308570E+01  0.10972010544E+02  0.18997689288E+02  0.22987694556E+02  0.51100000000E-03 0.  1.
         12    1    3    3    0    0 -0.29747465298E+02 -0.47436324670E+01 -0.22281679063E+02  0.37468479586E+02  0.00000000000E+00 0. -1.
</event>
<event>
 7    1  0.2710146E-013  0.7246159E+02  0.7816164E-02  0.1226708E+00
        -11   -1    0    0    0    0  0.00000000000E+00  0.00000000000E+00  0.45593999997E+02  0.45594000000E+02  0.51100000000E-03 0.  1.
         11   -1    0    0    0    0 -0.00000000000E+00 -0.00000000000E+00 -0.45593999997E+02  0.45594000000E+02  0.51100000000E-03 0. -1.
    9900012    2    1    2    0    0 -0.57981915732E+01  0.14616256752E+02 -0.10169785692E+02  0.72461587423E+02  0.70000022314E+02 0.  0.
        -12    1    1    2    0    0  0.57981915732E+01 -0.14616256752E+02  0.10169785692E+02  0.18726412577E+02  0.00000000000E+00 0.  1.
         11    1    3    3    0    0 -0.17345120690E+01 -0.83637786021E+01 -0.10958323264E+02  0.13894105715E+02  0.51100000000E-03 0. -1.
        -11    1    3    3    0    0  0.56894409612E+01  0.69252111633E+01  0.25785558475E+02  0.27298778622E+02  0.51100000000E-03 0.  1.
         12    1    3    3    0    0 -0.97531204654E+01  0.16054824191E+02 -0.24997020904E+02  0.31268703086E+02  0.00000000000E+00 0. -1.
</event>
<event>
 7    1  0.2710146E-013  0.7246157E+02  0.7816164E-02  0.1226708E+00
        -11   -1    0    0    0    0  0.00000000000E+00  0.00000000000E+00  0.45593999997E+02  0.45594000000E+02  0.51100000000E-03 0.  1.
         11   -1    0    0    0    0 -0.00000000000E+00 -0.00000000000E+00 -0.45593999997E+02  0.45594000000E+02  0.51100000000E-03 0. -1.
    9900012    2    1    2    0    0 -0.85344735946E+01  0.13155716180E+02 -0.10235684864E+02  0.72461565412E+02  0.69999993639E+02 0.  0.
        -12    1    1    2    0    0  0.85344735946E+01 -0.13155716180E+02  0.10235684864E+02  0.18726434588E+02  0.00000000000E+00 0.  1.
         11    1    3    3    0    0  0.33559764879E+01 -0.23124602074E+01  0.11965208680E+02  0.12640263819E+02  0.51100000000E-03 0. -1.
        -11    1    3    3    0    0 -0.26787577278E+00 -0.10564372087E+02  0.11540638991E+02  0.15648132911E+02  0.51100000000E-03 0.  1.
         12    1    3    3    0    0 -0.11622574310E+02  0.26032548474E+02 -0.33741532534E+02  0.44173168682E+02  0.00000000000E+00 0. -1.
</event>
<event>
 7    1  0.2710146E-013  0.7246180E+02  0.7816164E-02  0.1226707E+00
        -11   -1    0    0    0    0  0.00000000000E+00  0.00000000000E+00  0.45593999997E+02  0.45594000000E+02  0.51100000000E-03 0.  1.
         11   -1    0    0    0    0 -0.00000000000E+00 -0.00000000000E+00 -0.45593999997E+02  0.45594000000E+02  0.51100000000E-03 0. -1.
    9900012    2    1    2    0    0 -0.18520771527E+02  0.14680140448E+01 -0.23444815512E+01  0.72461798118E+02  0.70000296782E+02 0.  0.
        -12    1    1    2    0    0  0.18520771527E+02 -0.14680140448E+01  0.23444815512E+01  0.18726201882E+02  0.00000000000E+00 0.  1.
         11    1    3    3    0    0 -0.14769319817E+02  0.77130123291E+01  0.55417498765E+01  0.17559452127E+02  0.51100000000E-03 0. -1.
        -11    1    3    3    0    0 -0.10502379865E+02 -0.22640194937E+02  0.12476209146E+02  0.27902225799E+02  0.51100000000E-03 0.  1.
         12    1    3    3    0    0  0.67509281552E+01  0.16395196653E+02 -0.20362440574E+02  0.27000120192E+02  0.00000000000E+00 0. -1.
</event>
<event>
 7    1  0.2710146E-013  0.7246160E+02  0.7816164E-02  0.1226708E+00
        -11   -1    0    0    0    0  0.00000000000E+00  0.00000000000E+00  0.45593999997E+02  0.45594000000E+02  0.51100000000E-03 0.  1.
         11   -1    0    0    0    0 -0.00000000000E+00 -0.00000000000E+00 -0.45593999997E+02  0.45594000000E+02  0.51100000000E-03 0. -1.
    9900012    2    1    2    0    0 -0.59456344800E+01  0.10068477593E+02 -0.14627140378E+02  0.72461600291E+02  0.70000039077E+02 0.  0.
        -12    1    1    2    0    0  0.59456344800E+01 -0.10068477593E+02  0.14627140378E+02  0.18726399709E+02  0.00000000000E+00 0.  1.
         11    1    3    3    0    0  0.13125817110E+02  0.78968577596E+01 -0.24846766296E+02  0.29189197195E+02  0.51100000000E-03 0. -1.
        -11    1    3    3    0    0  0.68529001580E+01  0.59694018992E+01 -0.73815335675E+01  0.11708246567E+02  0.51100000000E-03 0.  1.
        -12    1    3    3    0    0 -0.25924351748E+02 -0.37977820658E+01  0.17601159485E+02  0.31564156529E+02  0.00000000000E+00 0.  1.
</event>
<event>
 7    1  0.2710146E-013  0.7246166E+02  0.7816164E-02  0.1226708E+00
        -11   -1    0    0    0    0  0.00000000000E+00  0.00000000000E+00  0.45593999997E+02  0.45594000000E+02  0.51100000000E-03 0.  1.
         11   -1    0    0    0    0 -0.00000000000E+00 -0.00000000000E+00 -0.45593999997E+02  0.45594000000E+02  0.51100000000E-03 0. -1.
    9900012    2    1    2    0    0  0.70336399649E+00  0.54913236282E+01 -0.17889284882E+02  0.72461658401E+02  0.70000114775E+02 0.  0.
        -12    1    1    2    0    0 -0.70336399649E+00 -0.54913236282E+01  0.17889284882E+02  0.18726341599E+02  0.00000000000E+00 0.  1.
         11    1    3    3    0    0 -0.43789275096E+01 -0.10299900745E+02 -0.12164352759E+01  0.11258004998E+02  0.51100000000E-03 0. -1.
        -11    1    3    3    0    0  0.45542066701E+01 -0.14400381174E+02 -0.25593197153E+02  0.29717394185E+02  0.51100000000E-03 0.  1.
        -12    1    3    3    0    0  0.52808483598E+00  0.30191605548E+02  0.89203475471E+01  0.31486259217E+02  0.00000000000E+00 0.  1.
</event>
<event>
 7    1  0.2710146E-013  0.7246157E+02  0.7816164E-02  0.1226708E+00
        -11   -1    0    0    0    0  0.00000000000E+00  0.00000000000E+00  0.45593999997E+02  0.45594000000E+02  0.51100000000E-03 0.  1.
         11   -1    0    0    0    0 -0.00000000000E+00 -0.00000000000E+00 -0.45593999997E+02  0.45594000000E+02  0.51100000000E-03 0. -1.
    9900012    2    1    2    0    0  0.12107187256E+02 -0.14285045460E+02 -0.18105059884E+00  0.72461567175E+02  0.69999995937E+02 0.  0.
        -12    1    1    2    0    0 -0.12107187256E+02  0.14285045460E+02  0.18105059884E+00  0.18726432825E+02  0.00000000000E+00 0.  1.
         11    1    3    3    0    0 -0.61295308930E+01 -0.18290207702E+02 -0.16404480112E+02  0.25322121056E+02  0.51100000000E-03 0. -1.
        -11    1    3    3    0    0 -0.12172725854E+02  0.54004453368E+01  0.17464826133E+01  0.13430944357E+02  0.51100000000E-03 0.  1.
        -12    1    3    3    0    0  0.30409444003E+02 -0.13952830943E+01  0.14476946900E+02  0.33708501762E+02  0.00000000000E+00 0.  1.
</event>
<event>
 7    1  0.2710146E-013  0.7246157E+02  0.7816164E-02  0.1226708E+00
        -11   -1    0    0    0    0  0.00000000000E+00  0.00000000000E+00  0.45593999997E+02  0.45594000000E+02  0.51100000000E-03 0. -1.
         11   -1    0    0    0    0 -0.00000000000E+00 -0.00000000000E+00 -0.45593999997E+02  0.45594000000E+02  0.51100000000E-03 0.  1.
    9900012    2    1    2    0    0 -0.14153571429E+02  0.11320215565E+02  0.47125565413E+01  0.72461573384E+02  0.70000004025E+02 0.  0.
        -12    1    1    2    0    0  0.14153571429E+02 -0.11320215565E+02 -0.47125565413E+01  0.18726426616E+02  0.00000000000E+00 0.  1.
         11    1    3    3    0    0 -0.26958512461E+01  0.85729231303E+01 -0.11917765167E+02  0.14926344220E+02  0.51100000000E-03 0. -1.
        -11    1    3    3    0    0  0.21215145652E+02 -0.34373505841E+01  0.34578215338E+01  0.21768195013E+02  0.51100000000E-03 0.  1.
         12    1    3    3    0    0 -0.32672865835E+02  0.61846430192E+01  0.13172500174E+02  0.35767034152E+02  0.00000000000E+00 0. -1.
</event>
<event>
 7    1  0.2710146E-013  0.7246157E+02  0.7816164E-02  0.1226708E+00
        -11   -1    0    0    0    0  0.00000000000E+00  0.00000000000E+00  0.45593999997E+02  0.45594000000E+02  0.51100000000E-03 0.  1.
         11   -1    0    0    0    0 -0.00000000000E+00 -0.00000000000E+00 -0.45593999997E+02  0.45594000000E+02  0.51100000000E-03 0. -1.
    9900012    2    1    2    0    0  0.67711923100E+01  0.17200491108E+02  0.29955095786E+01  0.72461574359E+02  0.70000005295E+02 0.  0.
        -12    1    1    2    0    0 -0.67711923100E+01 -0.17200491108E+02 -0.29955095786E+01  0.18726425641E+02  0.00000000000E+00 0.  1.
         11    1    3    3    0    0 -0.19595767724E+01  0.40256117080E+01 -0.26432471509E+02  0.26808973145E+02  0.51100000000E-03 0. -1.
        -11    1    3    3    0    0  0.18814519956E+02  0.61032360069E+01  0.88474170676E+01  0.21668235737E+02  0.51100000000E-03 0.  1.
        -12    1    3    3    0    0 -0.10083750874E+02  0.70716433931E+01  0.20580564020E+02  0.23984365477E+02  0.00000000000E+00 0.  1.
</event>
<event>
 7    1  0.2710146E-013  0.7246161E+02  0.7816164E-02  0.1226708E+00
        -11   -1    0    0    0    0  0.00000000000E+00  0.00000000000E+00  0.45593999997E+02  0.45594000000E+02  0.51100000000E-03 0. -1.
         11   -1    0    0    0    0 -0.00000000000E+00 -0.00000000000E+00 -0.45593999997E+02  0.45594000000E+02  0.51100000000E-03 0.  1.
    9900012    2    1    2    0    0  0.14550094395E+02  0.87300253231E+01  0.79220632563E+01  0.72461610191E+02  0.70000051972E+02 0.  0.
        -12    1    1    2    0    0 -0.14550094395E+02 -0.87300253231E+01 -0.79220632563E+01  0.18726389809E+02  0.00000000000E+00 0.  1.
         11    1    3    3    0    0 -0.21774356665E+01  0.19642010887E+02  0.15938876921E+02  0.25388927026E+02  0.51100000000E-03 0. -1.
        -11    1    3    3    0    0  0.98669167895E+01  0.14505250442E+02  0.42161049998E+01  0.18042557439E+02  0.51100000000E-03 0.  1.
        -12    1    3    3    0    0  0.68606132722E+01 -0.25417236005E+02 -0.12232918664E+02  0.29030125726E+02  0.00000000000E+00 0.  1.
</event>
<event>
 7    1  0.2710146E-013  0.7246154E+02  0.7816164E-02  0.1226708E+00
        -11   -1    0    0    0    0  0.00000000000E+00  0.00000000000E+00  0.45593999997E+02  0.45594000000E+02  0.51100000000E-03 0. -1.
         11   -1    0    0    0    0 -0.00000000000E+00 -0.00000000000E+00 -0.45593999997E+02  0.45594000000E+02  0.51100000000E-03 0.  1.
    9900012    2    1    2    0    0 -0.18336524745E+01  0.14126215941E+02  0.12155984794E+02  0.72461542125E+02  0.69999963305E+02 0.  0.
        -12    1    1    2    0    0  0.18336524745E+01 -0.14126215941E+02 -0.12155984794E+02  0.18726457875E+02  0.00000000000E+00 0.  1.
         11    1    3    3    0    0 -0.15355621476E+02 -0.12187790921E+02  0.71956140352E+01  0.20883347913E+02  0.51100000000E-03 0. -1.
        -11    1    3    3    0    0  0.77433949314E+01 -0.46418428485E+01  0.15864255986E+02  0.18253259664E+02  0.51100000000E-03 0.  1.
        -12    1    3    3    0    0  0.57785740703E+01  0.30955849711E+02 -0.10903885227E+02  0.33324934549E+02  0.00000000000E+00 0.  1.
</event>
<event>
 7    1  0.2710146E-013  0.7246159E+02  0.7816164E-02  0.1226708E+00
        -11   -1    0    0    0    0  0.00000000000E+00  0.00000000000E+00  0.45593999997E+02  0.45594000000E+02  0.51100000000E-03 0. -1.
         11   -1    0    0    0    0 -0.00000000000E+00 -0.00000000000E+00 -0.45593999997E+02  0.45594000000E+02  0.51100000000E-03 0.  1.
    9900012    2    1    2    0    0  0.23666017294E+01 -0.14243882483E+02  0.11924321071E+02  0.72461590175E+02  0.70000025898E+02 0.  0.
        -12    1    1    2    0    0 -0.23666017294E+01  0.14243882483E+02 -0.11924321071E+02  0.18726409825E+02  0.00000000000E+00 0.  1.
         11    1    3    3    0    0 -0.54068995230E+01  0.73898825582E+01  0.32005163112E+02  0.33289268432E+02  0.51100000000E-03 0. -1.
        -11    1    3    3    0    0  0.43808408193E+01  0.48725325169E+01 -0.63669318370E+01  0.91362552881E+01  0.51100000000E-03 0.  1.
         12    1    3    3    0    0  0.33926604330E+01 -0.26506297558E+02 -0.13713910203E+02  0.30036066455E+02  0.00000000000E+00 0. -1.
</event>
<event>
 7    1  0.2710146E-013  0.7246156E+02  0.7816164E-02  0.1226708E+00
        -11   -1    0    0    0    0  0.00000000000E+00  0.00000000000E+00  0.45593999997E+02  0.45594000000E+02  0.51100000000E-03 0.  1.
         11   -1    0    0    0    0 -0.00000000000E+00 -0.00000000000E+00 -0.45593999997E+02  0.45594000000E+02  0.51100000000E-03 0. -1.
    9900012    2    1    2    0    0 -0.18153479984E+01  0.11529494042E+02 -0.14644279131E+02  0.72461557933E+02  0.69999983897E+02 0.  0.
        -12    1    1    2    0    0  0.18153479984E+01 -0.11529494042E+02  0.14644279131E+02  0.18726442067E+02  0.00000000000E+00 0.  1.
         11    1    3    3    0    0  0.48400840620E+01 -0.50737665249E+01 -0.32059224057E+02  0.32817120042E+02  0.51100000000E-03 0. -1.
        -11    1    3    3    0    0  0.24028823291E+00 -0.70890563131E+01 -0.29190208211E+01  0.76702764396E+01  0.51100000000E-03 0.  1.
        -12    1    3    3    0    0 -0.68957202933E+01  0.23692316880E+02  0.20333965747E+02  0.31974161451E+02  0.00000000000E+00 0.  1.
</event>
<event>
 7    1  0.2710146E-013  0.7246158E+02  0.7816164E-02  0.1226708E+00
        -11   -1    0    0    0    0  0.00000000000E+00  0.00000000000E+00  0.45593999997E+02  0.45594000000E+02  0.51100000000E-03 0.  1.
         11   -1    0    0    0    0 -0.00000000000E+00 -0.00000000000E+00 -0.45593999997E+02  0.45594000000E+02  0.51100000000E-03 0. -1.
    9900012    2    1    2    0    0 -0.17449410111E+01 -0.14281271717E+00 -0.18644397492E+02  0.72461580896E+02  0.70000013811E+02 0.  0.
        -12    1    1    2    0    0  0.17449410111E+01  0.14281271717E+00  0.18644397492E+02  0.18726419104E+02  0.00000000000E+00 0.  1.
         11    1    3    3    0    0  0.10890417035E+02 -0.77197091720E+01 -0.22448507456E+02  0.26117629681E+02  0.51100000000E-03 0. -1.
        -11    1    3    3    0    0 -0.27147389026E+01 -0.15019144980E+02 -0.98261196893E+01  0.18152056402E+02  0.51100000000E-03 0.  1.
        -12    1    3    3    0    0 -0.99206191436E+01  0.22596041434E+02  0.13630229653E+02  0.28191894812E+02  0.00000000000E+00 0.  1.
</event>
<event>
 7    1  0.2710146E-013  0.7246159E+02  0.7816164E-02  0.1226708E+00
        -11   -1    0    0    0    0  0.00000000000E+00  0.00000000000E+00  0.45593999997E+02  0.45594000000E+02  0.51100000000E-03 0. -1.
         11   -1    0    0    0    0 -0.00000000000E+00 -0.00000000000E+00 -0.45593999997E+02  0.45594000000E+02  0.51100000000E-03 0.  1.
    9900012    2    1    2    0    0  0.15789473321E+02  0.60366077270E+01  0.80579333345E+01  0.72461591101E+02  0.70000027105E+02 0.  0.
        -12    1    1    2    0    0 -0.15789473321E+02 -0.60366077270E+01 -0.80579333345E+01  0.18726408899E+02  0.00000000000E+00 0.  1.
         11    1    3    3    0    0  0.43560819590E+01  0.28858938349E-01  0.18102482138E+02  0.18619241195E+02  0.51100000000E-03 0. -1.
        -11    1    3    3    0    0  0.14032385589E+02 -0.20543857329E+02  0.11613561829E+01  0.24905956471E+02  0.51100000000E-03 0.  1.
         12    1    3    3    0    0 -0.25989942269E+01  0.26551606118E+02 -0.11205904986E+02  0.28936393435E+02  0.00000000000E+00 0. -1.
</event>
<event>
 7    1  0.2710146E-013  0.7246161E+02  0.7816164E-02  0.1226708E+00
        -11   -1    0    0    0    0  0.00000000000E+00  0.00000000000E+00  0.45593999997E+02  0.45594000000E+02  0.51100000000E-03 0.  1.
         11   -1    0    0    0    0 -0.00000000000E+00 -0.00000000000E+00 -0.45593999997E+02  0.45594000000E+02  0.51100000000E-03 0. -1.
    9900012    2    1    2    0    0  0.13147704506E+01 -0.17353823510E+02 -0.69133100837E+01  0.72461610384E+02  0.70000052224E+02 0.  0.
        -12    1    1    2    0    0 -0.13147704506E+01  0.17353823510E+02  0.69133100837E+01  0.18726389616E+02  0.00000000000E+00 0.  1.
         11    1    3    3    0    0 -0.18224984084E+02 -0.28596666444E+02 -0.56459679386E+01  0.34377264737E+02  0.51100000000E-03 0. -1.
        -11    1    3    3    0    0 -0.49178684400E+00 -0.73757942285E+01 -0.69565947383E+01  0.10150783488E+02  0.51100000000E-03 0.  1.
        -12    1    3    3    0    0  0.20031541379E+02  0.18618637163E+02  0.56892525932E+01  0.27933562159E+02  0.00000000000E+00 0.  1.
</event>
<event>
 7    1  0.2710146E-013  0.7246157E+02  0.7816164E-02  0.1226708E+00
        -11   -1    0    0    0    0  0.00000000000E+00  0.00000000000E+00  0.45593999997E+02  0.45594000000E+02  0.51100000000E-03 0.  1.
         11   -1    0    0    0    0 -0.00000000000E+00 -0.00000000000E+00 -0.45593999997E+02  0.45594000000E+02  0.51100000000E-03 0. -1.
    9900012    2    1    2    0    0 -0.92531021224E+01 -0.13639544226E+02 -0.88894310158E+01  0.72461573502E+02  0.70000004179E+02 0.  0.
        -12    1    1    2    0    0  0.92531021224E+01  0.13639544226E+02  0.88894310158E+01  0.18726426498E+02  0.00000000000E+00 0.  1.
         11    1    3    3    0    0 -0.97394217474E+01  0.67911406707E+01  0.14176712219E+02  0.18492027936E+02  0.51100000000E-03 0. -1.
        -11    1    3    3    0    0 -0.19421588016E+02 -0.20639048027E+02 -0.95501503076E+01  0.29906082253E+02  0.51100000000E-03 0.  1.
         12    1    3    3    0    0  0.19907907641E+02  0.20836313052E+00 -0.13515992927E+02  0.24063463314E+02  0.00000000000E+00 0. -1.
</event>
<event>
 7    1  0.2710146E-013  0.7246155E+02  0.7816164E-02  0.1226708E+00
        -11   -1    0    0    0    0  0.00000000000E+00  0.00000000000E+00  0.45593999997E+02  0.45594000000E+02  0.51100000000E-03 0. -1.
         11   -1    0    0    0    0 -0.00000000000E+00 -0.00000000000E+00 -0.45593999997E+02  0.45594000000E+02  0.51100000000E-03 0.  1.
    9900012    2    1    2    0    0 -0.17380916532E+02  0.45604004046E+01  0.52712760816E+01  0.72461551782E+02  0.69999975884E+02 0.  0.
        -12    1    1    2    0    0  0.17380916532E+02 -0.45604004046E+01 -0.52712760816E+01  0.18726448218E+02  0.00000000000E+00 0.  1.
         11    1    3    3    0    0 -0.18245406266E+02 -0.17572710980E+02  0.27109594325E+02  0.37102899155E+02  0.51100000000E-03 0. -1.
        -11    1    3    3    0    0 -0.56317322695E+01  0.34720301754E+01 -0.10871529835E+01  0.67047224972E+01  0.51100000000E-03 0.  1.
        -12    1    3    3    0    0  0.64962220033E+01  0.18661081209E+02 -0.20751165260E+02  0.28653930129E+02  0.00000000000E+00 0.  1.
</event>
<event>
 7    1  0.2710146E-013  0.7246156E+02  0.7816164E-02  0.1226708E+00
        -11   -1    0    0    0    0  0.00000000000E+00  0.00000000000E+00  0.45593999997E+02  0.45594000000E+02  0.51100000000E-03 0. -1.
         11   -1    0    0    0    0 -0.00000000000E+00 -0.00000000000E+00 -0.45593999997E+02  0.45594000000E+02  0.51100000000E-03 0.  1.
    9900012    2    1    2    0    0  0.16388929652E+02 -0.34729141848E+01 -0.83678894784E+01  0.72461555533E+02  0.69999980770E+02 0.  0.
        -12    1    1    2    0    0 -0.16388929652E+02  0.34729141848E+01  0.83678894784E+01  0.18726444467E+02  0.00000000000E+00 0.  1.
         11    1    3    3    0    0  0.16637594806E+02 -0.63139671613E+00  0.59759216148E+01  0.17689541038E+02  0.51100000000E-03 0. -1.
        -11    1    3    3    0    0  0.12230931142E+02  0.15565441820E+01 -0.31080413228E+02  0.33436665400E+02  0.51100000000E-03 0.  1.
         12    1    3    3    0    0 -0.12479596296E+02 -0.43980616507E+01  0.16736602135E+02  0.21335349095E+02  0.00000000000E+00 0. -1.
</event>
<event>
 7    1  0.2710146E-013  0.7246168E+02  0.7816164E-02  0.1226708E+00
        -11   -1    0    0    0    0  0.00000000000E+00  0.00000000000E+00  0.45593999997E+02  0.45594000000E+02  0.51100000000E-03 0. -1.
         11   -1    0    0    0    0 -0.00000000000E+00 -0.00000000000E+00 -0.45593999997E+02  0.45594000000E+02  0.51100000000E-03 0.  1.
    9900012    2    1    2    0    0 -0.13078000934E+02 -0.95708473467E+01  0.93829535808E+01  0.72461680413E+02  0.70000143450E+02 0.  0.
        -12    1    1    2    0    0  0.13078000934E+02  0.95708473467E+01 -0.93829535808E+01  0.18726319587E+02  0.00000000000E+00 0.  1.
         11    1    3    3    0    0 -0.36934502127E+01 -0.72899714272E+01 -0.28600325521E+01  0.86582356369E+01  0.51100000000E-03 0. -1.
        -11    1    3    3    0    0 -0.96668921766E+01 -0.13502602970E+02 -0.22116386157E+02  0.27656891153E+02  0.51100000000E-03 0.  1.
         12    1    3    3    0    0  0.28234145534E+00  0.11221727051E+02  0.34359372290E+02  0.36146553624E+02  0.00000000000E+00 0. -1.
</event>
<event>
 7    1  0.2710146E-013  0.7246156E+02  0.7816164E-02  0.1226708E+00
        -11   -1    0    0    0    0  0.00000000000E+00  0.00000000000E+00  0.45593999997E+02  0.45594000000E+02  0.51100000000E-03 0. -1.
         11   -1    0    0    0    0 -0.00000000000E+00 -0.00000000000E+00 -0.45593999997E+02  0.45594000000E+02  0.51100000000E-03 0.  1.
    9900012    2    1    2    0    0  0.15692107713E+02 -0.88889577790E+01 -0.50422028929E+01  0.72461558136E+02  0.69999984162E+02 0.  0.
        -12    1    1    2    0    0 -0.15692107713E+02  0.88889577790E+01  0.50422028929E+01  0.18726441864E+02  0.00000000000E+00 0.  1.
         11    1    3    3    0    0 -0.97752161704E+01 -0.15454394351E+02  0.19786984013E+02  0.26942863480E+02  0.51100000000E-03 0. -1.
        -11    1    3    3    0    0 -0.45626954577E+01 -0.22298932447E+01  0.71018329620E+00  0.51278625467E+01  0.51100000000E-03 0.  1.
        -12    1    3    3    0    0  0.30030019341E+02  0.87953298165E+01 -0.25539370202E+02  0.40390832109E+02  0.00000000000E+00 0.  1.
</event>
<event>
 7    1  0.2710146E-013  0.7246156E+02  0.7816164E-02  0.1226708E+00
        -11   -1    0    0    0    0  0.00000000000E+00  0.00000000000E+00  0.45593999997E+02  0.45594000000E+02  0.51100000000E-03 0.  1.
         11   -1    0    0    0    0 -0.00000000000E+00 -0.00000000000E+00 -0.45593999997E+02  0.45594000000E+02  0.51100000000E-03 0. -1.
    9900012    2    1    2    0    0 -0.17371348478E+02  0.58667819289E+01 -0.38074480033E+01  0.72461560444E+02  0.69999987169E+02 0.  0.
        -12    1    1    2    0    0  0.17371348478E+02 -0.58667819289E+01  0.38074480033E+01  0.18726439556E+02  0.00000000000E+00 0.  1.
         11    1    3    3    0    0  0.50053525064E+01 -0.88940400705E+01  0.94286651126E+01  0.13894503538E+02  0.51100000000E-03 0. -1.
        -11    1    3    3    0    0  0.65776805944E+01  0.20050865828E+02 -0.19206393717E+02  0.28533991350E+02  0.51100000000E-03 0.  1.
         12    1    3    3    0    0 -0.28954381578E+02 -0.52900438289E+01  0.59702806013E+01  0.30033065557E+02  0.00000000000E+00 0. -1.
</event>
<event>
 7    1  0.2710146E-013  0.7246160E+02  0.7816164E-02  0.1226708E+00
        -11   -1    0    0    0    0  0.00000000000E+00  0.00000000000E+00  0.45593999997E+02  0.45594000000E+02  0.51100000000E-03 0.  1.
         11   -1    0    0    0    0 -0.00000000000E+00 -0.00000000000E+00 -0.45593999997E+02  0.45594000000E+02  0.51100000000E-03 0. -1.
    9900012    2    1    2    0    0 -0.24059631372E+00  0.15911239525E+02 -0.98718168428E+01  0.72461596245E+02  0.70000033806E+02 0.  0.
        -12    1    1    2    0    0  0.24059631372E+00 -0.15911239525E+02  0.98718168428E+01  0.18726403755E+02  0.00000000000E+00 0.  1.
         11    1    3    3    0    0  0.80244881504E+01  0.10080754948E+00 -0.19513038688E+02  0.21098844786E+02  0.51100000000E-03 0. -1.
        -11    1    3    3    0    0  0.10024776170E+02 -0.43878565816E+01 -0.12238156012E+02  0.16417121717E+02  0.51100000000E-03 0.  1.
        -12    1    3    3    0    0 -0.18289860634E+02  0.20198288557E+02  0.21879377857E+02  0.34945629742E+02  0.00000000000E+00 0.  1.
</event>
<event>
 7    1  0.2710146E-013  0.7246165E+02  0.7816164E-02  0.1226708E+00
        -11   -1    0    0    0    0  0.00000000000E+00  0.00000000000E+00  0.45593999997E+02  0.45594000000E+02  0.51100000000E-03 0.  1.
         11   -1    0    0    0    0 -0.00000000000E+00 -0.00000000000E+00 -0.45593999997E+02  0.45594000000E+02  0.51100000000E-03 0. -1.
    9900012    2    1    2    0    0  0.13467721473E+02 -0.30114210977E+01 -0.12658126220E+02  0.72461645894E+02  0.70000098483E+02 0.  0.
        -12    1    1    2    0    0 -0.13467721473E+02  0.30114210977E+01  0.12658126220E+02  0.18726354106E+02  0.00000000000E+00 0.  1.
         11    1    3    3    0    0  0.47979967119E+01 -0.13652360658E+02 -0.14912552319E+02  0.20779603964E+02  0.51100000000E-03 0. -1.
        -11    1    3    3    0    0 -0.14701148513E+02  0.60838191322E+01 -0.15320477160E+02  0.22087409162E+02  0.51100000000E-03 0.  1.
        -12    1    3    3    0    0  0.23370873273E+02  0.45571204277E+01  0.17574903258E+02  0.29594632768E+02  0.00000000000E+00 0.  1.
</event>
<event>
 7    1  0.2710146E-013  0.7246159E+02  0.7816164E-02  0.1226708E+00
        -11   -1    0    0    0    0  0.00000000000E+00  0.00000000000E+00  0.45593999997E+02  0.45594000000E+02  0.51100000000E-03 0. -1.
         11   -1    0    0    0    0 -0.00000000000E+00 -0.00000000000E+00 -0.45593999997E+02  0.45594000000E+02  0.51100000000E-03 0.  1.
    9900012    2    1    2    0    0  0.13033144217E+02  0.78077367351E+01  0.10947831176E+02  0.72461585272E+02  0.70000019511E+02 0.  0.
        -12    1    1    2    0    0 -0.13033144217E+02 -0.78077367351E+01 -0.10947831176E+02  0.18726414728E+02  0.00000000000E+00 0.  1.
         11    1    3    3    0    0  0.15247082554E+02  0.22579199017E+02  0.42054445316E+01  0.27567726033E+02  0.51100000000E-03 0. -1.
        -11    1    3    3    0    0  0.13036378728E+02 -0.55255246773E+01 -0.12335103553E+02  0.18778534906E+02  0.51100000000E-03 0.  1.
        -12    1    3    3    0    0 -0.15250317065E+02 -0.92459376047E+01  0.19077490197E+02  0.26115324332E+02  0.00000000000E+00 0.  1.
</event>
<event>
 7    1  0.2710146E-013  0.7246159E+02  0.7816164E-02  0.1226708E+00
        -11   -1    0    0    0    0  0.00000000000E+00  0.00000000000E+00  0.45593999997E+02  0.45594000000E+02  0.51100000000E-03 0.  1.
         11   -1    0    0    0    0 -0.00000000000E+00 -0.00000000000E+00 -0.45593999997E+02  0.45594000000E+02  0.51100000000E-03 0. -1.
    9900012    2    1    2    0    0  0.28354737164E+00 -0.63040915649E+01 -0.17631119620E+02  0.72461592212E+02  0.70000028552E+02 0.  0.
        -12    1    1    2    0    0 -0.28354737164E+00  0.63040915649E+01  0.17631119620E+02  0.18726407788E+02  0.00000000000E+00 0.  1.
         11    1    3    3    0    0  0.22155975588E+01  0.13210466485E+02 -0.25318643266E+02  0.28643655395E+02  0.51100000000E-03 0. -1.
        -11    1    3    3    0    0  0.36717457696E+00 -0.21813239278E+02 -0.11289582239E+02  0.24564341888E+02  0.51100000000E-03 0.  1.
        -12    1    3    3    0    0 -0.22992247641E+01  0.22986812286E+01  0.18977105886E+02  0.19253594929E+02  0.00000000000E+00 0.  1.
</event>
<event>
 7    1  0.2710146E-013  0.7246151E+02  0.7816164E-02  0.1226708E+00
        -11   -1    0    0    0    0  0.00000000000E+00  0.00000000000E+00  0.45593999997E+02  0.45594000000E+02  0.51100000000E-03 0. -1.
         11   -1    0    0    0    0 -0.00000000000E+00 -0.00000000000E+00 -0.45593999997E+02  0.45594000000E+02  0.51100000000E-03 0.  1.
    9900012    2    1    2    0    0 -0.14607652093E+02 -0.36699479391E+01 -0.11127872571E+02  0.72461506322E+02  0.69999916664E+02 0.  0.
        -12    1    1    2    0    0  0.14607652093E+02  0.36699479391E+01  0.11127872571E+02  0.18726493678E+02  0.00000000000E+00 0.  1.
         11    1    3    3    0    0  0.15892157009E+02 -0.14015584184E+02  0.52025129873E+01  0.21818877058E+02  0.51100000000E-03 0. -1.
        -11    1    3    3    0    0  0.38858700010E+01  0.89745804401E+01  0.41195445117E+01  0.10611961505E+02  0.51100000000E-03 0.  1.
        -12    1    3    3    0    0 -0.34385679102E+02  0.13710558048E+01 -0.20449930070E+02  0.40030667759E+02  0.00000000000E+00 0.  1.
</event>
<event>
 7    1  0.2710146E-013  0.7246159E+02  0.7816164E-02  0.1226708E+00
        -11   -1    0    0    0    0  0.00000000000E+00  0.00000000000E+00  0.45593999997E+02  0.45594000000E+02  0.51100000000E-03 0. -1.
         11   -1    0    0    0    0 -0.00000000000E+00 -0.00000000000E+00 -0.45593999997E+02  0.45594000000E+02  0.51100000000E-03 0.  1.
    9900012    2    1    2    0    0 -0.38680014329E+01  0.12685561383E+02  0.13220954476E+02  0.72461587104E+02  0.70000021898E+02 0.  0.
        -12    1    1    2    0    0  0.38680014329E+01 -0.12685561383E+02 -0.13220954476E+02  0.18726412896E+02  0.00000000000E+00 0.  1.
         11    1    3    3    0    0  0.78433803367E+01 -0.10374291238E+02  0.77454011557E+01  0.15137231356E+02  0.51100000000E-03 0. -1.
        -11    1    3    3    0    0 -0.21908808356E+02 -0.67595324498E+01  0.10831584675E+02  0.25357649523E+02  0.51100000000E-03 0.  1.
        -12    1    3    3    0    0  0.10197426586E+02  0.29819385071E+02 -0.53560313546E+01  0.31966706225E+02  0.00000000000E+00 0.  1.
</event>
<event>
 7    1  0.2710146E-013  0.7246158E+02  0.7816164E-02  0.1226708E+00
        -11   -1    0    0    0    0  0.00000000000E+00  0.00000000000E+00  0.45593999997E+02  0.45594000000E+02  0.51100000000E-03 0.  1.
         11   -1    0    0    0    0 -0.00000000000E+00 -0.00000000000E+00 -0.45593999997E+02  0.45594000000E+02  0.51100000000E-03 0. -1.
    9900012    2    1    2    0    0  0.60201822385E+01 -0.14041063081E+02 -0.10829805710E+02  0.72461581807E+02  0.70000014997E+02 0.  0.
        -12    1    1    2    0    0 -0.60201822385E+01  0.14041063081E+02  0.10829805710E+02  0.18726418193E+02  0.00000000000E+00 0.  1.
         11    1    3    3    0    0 -0.13787471710E+02 -0.17336333664E+02 -0.31836695205E+02  0.38784249417E+02  0.51100000000E-03 0. -1.
        -11    1    3    3    0    0 -0.58856103067E+00 -0.13512442339E+01  0.98685467515E+01  0.99779998153E+01  0.51100000000E-03 0.  1.
        -12    1    3    3    0    0  0.20396214979E+02  0.46465148170E+01  0.11138342743E+02  0.23699332574E+02  0.00000000000E+00 0.  1.
</event>
<event>
 7    1  0.2710146E-013  0.7246156E+02  0.7816164E-02  0.1226708E+00
        -11   -1    0    0    0    0  0.00000000000E+00  0.00000000000E+00  0.45593999997E+02  0.45594000000E+02  0.51100000000E-03 0. -1.
         11   -1    0    0    0    0 -0.00000000000E+00 -0.00000000000E+00 -0.45593999997E+02  0.45594000000E+02  0.51100000000E-03 0.  1.
    9900012    2    1    2    0    0 -0.51717003602E+01  0.41306275187E+01  0.17517735268E+02  0.72461558340E+02  0.69999984428E+02 0.  0.
        -12    1    1    2    0    0  0.51717003602E+01 -0.41306275187E+01 -0.17517735268E+02  0.18726441660E+02  0.00000000000E+00 0.  1.
         11    1    3    3    0    0 -0.67548521470E+01 -0.27045198230E+01  0.32139538155E+02  0.32952881028E+02  0.51100000000E-03 0. -1.
        -11    1    3    3    0    0 -0.15942056818E+02  0.58942403985E+00 -0.17588153120E+00  0.15953918981E+02  0.51100000000E-03 0.  1.
        -12    1    3    3    0    0  0.17525208605E+02  0.62457233018E+01 -0.14445921356E+02  0.23554758331E+02  0.00000000000E+00 0.  1.
</event>
<event>
 7    1  0.2710146E-013  0.7246157E+02  0.7816164E-02  0.1226708E+00
        -11   -1    0    0    0    0  0.00000000000E+00  0.00000000000E+00  0.45593999997E+02  0.45594000000E+02  0.51100000000E-03 0.  1.
         11   -1    0    0    0    0 -0.00000000000E+00 -0.00000000000E+00 -0.45593999997E+02  0.45594000000E+02  0.51100000000E-03 0. -1.
    9900012    2    1    2    0    0 -0.17599984515E+02  0.48216433362E+01 -0.42037385189E+01  0.72461571699E+02  0.70000001830E+02 0.  0.
        -12    1    1    2    0    0  0.17599984515E+02 -0.48216433362E+01  0.42037385189E+01  0.18726428301E+02  0.00000000000E+00 0.  1.
         11    1    3    3    0    0  0.11100863664E+01  0.13780198594E+02  0.17782916444E+01  0.13938740490E+02  0.51100000000E-03 0. -1.
        -11    1    3    3    0    0 -0.21177378935E+02 -0.14329428075E+02  0.19631138708E+02  0.32236555256E+02  0.51100000000E-03 0.  1.
         12    1    3    3    0    0  0.24673080539E+01  0.53708728173E+01 -0.25613168871E+02  0.26286275953E+02  0.00000000000E+00 0. -1.
</event>
<event>
 7    1  0.2710146E-013  0.7246151E+02  0.7816164E-02  0.1226708E+00
        -11   -1    0    0    0    0  0.00000000000E+00  0.00000000000E+00  0.45593999997E+02  0.45594000000E+02  0.51100000000E-03 0. -1.
         11   -1    0    0    0    0 -0.00000000000E+00 -0.00000000000E+00 -0.45593999997E+02  0.45594000000E+02  0.51100000000E-03 0.  1.
    9900012    2    1    2    0    0  0.49859549775E+01  0.16793102518E+01  0.17972241567E+02  0.72461513493E+02  0.69999926006E+02 0.  0.
        -12    1    1    2    0    0 -0.49859549775E+01 -0.16793102518E+01 -0.17972241567E+02  0.18726486507E+02  0.00000000000E+00 0.  1.
         11    1    3    3    0    0 -0.70249057778E+00  0.25083499479E+02  0.23135265628E+02  0.34130865138E+02  0.51100000000E-03 0. -1.
        -11    1    3    3    0    0  0.67300750676E+01  0.22647043986E+01  0.69429643779E+01  0.99311404703E+01  0.51100000000E-03 0.  1.
        -12    1    3    3    0    0 -0.10416295123E+01 -0.25668893626E+02 -0.12105988440E+02  0.28399507885E+02  0.00000000000E+00 0.  1.
</event>
<event>
 7    1  0.2710146E-013  0.7246155E+02  0.7816164E-02  0.1226708E+00
        -11   -1    0    0    0    0  0.00000000000E+00  0.00000000000E+00  0.45593999997E+02  0.45594000000E+02  0.51100000000E-03 0. -1.
         11   -1    0    0    0    0 -0.00000000000E+00 -0.00000000000E+00 -0.45593999997E+02  0.45594000000E+02  0.51100000000E-03 0.  1.
    9900012    2    1    2    0    0  0.11088353650E+02 -0.65555502178E+01  0.13592388557E+02  0.72461552071E+02  0.69999976261E+02 0.  0.
        -12    1    1    2    0    0 -0.11088353650E+02  0.65555502178E+01 -0.13592388557E+02  0.18726447929E+02  0.00000000000E+00 0.  1.
         11    1    3    3    0    0 -0.16030487036E+02 -0.56100854761E+01  0.21325296764E+01  0.17117162637E+02  0.51100000000E-03 0. -1.
        -11    1    3    3    0    0  0.11299292215E+02  0.66707586847E+01  0.28188827431E+02  0.31093134583E+02  0.51100000000E-03 0.  1.
        -12    1    3    3    0    0  0.15819548471E+02 -0.76162234264E+01 -0.16728968550E+02  0.24251254851E+02  0.00000000000E+00 0.  1.
</event>
<event>
 7    1  0.2710146E-013  0.7246157E+02  0.7816164E-02  0.1226708E+00
        -11   -1    0    0    0    0  0.00000000000E+00  0.00000000000E+00  0.45593999997E+02  0.45594000000E+02  0.51100000000E-03 0.  1.
         11   -1    0    0    0    0 -0.00000000000E+00 -0.00000000000E+00 -0.45593999997E+02  0.45594000000E+02  0.51100000000E-03 0. -1.
    9900012    2    1    2    0    0  0.16644909085E+02 -0.38827062985E+01 -0.76518452691E+01  0.72461571011E+02  0.70000000934E+02 0.  0.
        -12    1    1    2    0    0 -0.16644909085E+02  0.38827062985E+01  0.76518452691E+01  0.18726428989E+02  0.00000000000E+00 0.  1.
         11    1    3    3    0    0  0.21372577736E+02  0.13876977360E+02 -0.10934012942E+01  0.25505942569E+02  0.51100000000E-03 0. -1.
        -11    1    3    3    0    0  0.11067774688E+02 -0.20860011388E+02  0.83187413115E+01  0.25036716417E+02  0.51100000000E-03 0.  1.
        -12    1    3    3    0    0 -0.15795443339E+02  0.31003277303E+01 -0.14877185286E+02  0.21918912025E+02  0.00000000000E+00 0.  1.
</event>
<event>
 7    1  0.2710146E-013  0.7246159E+02  0.7816164E-02  0.1226708E+00
        -11   -1    0    0    0    0  0.00000000000E+00  0.00000000000E+00  0.45593999997E+02  0.45594000000E+02  0.51100000000E-03 0.  1.
         11   -1    0    0    0    0 -0.00000000000E+00 -0.00000000000E+00 -0.45593999997E+02  0.45594000000E+02  0.51100000000E-03 0. -1.
    9900012    2    1    2    0    0 -0.14652059359E+02 -0.87927282580E+01 -0.76605260710E+01  0.72461586212E+02  0.70000020736E+02 0.  0.
        -12    1    1    2    0    0  0.14652059359E+02  0.87927282580E+01  0.76605260710E+01  0.18726413788E+02  0.00000000000E+00 0.  1.
         11    1    3    3    0    0 -0.28270963305E+02 -0.28235901312E+01 -0.91431737001E+01  0.29846568530E+02  0.51100000000E-03 0. -1.
        -11    1    3    3    0    0 -0.11061273483E+02 -0.54022277046E+00 -0.99418179392E+01  0.14882316887E+02  0.51100000000E-03 0.  1.
        -12    1    3    3    0    0  0.24680177430E+02 -0.54289153564E+01  0.11424465568E+02  0.27732700796E+02  0.00000000000E+00 0.  1.
</event>
<event>
 7    1  0.2710146E-013  0.7246155E+02  0.7816164E-02  0.1226708E+00
        -11   -1    0    0    0    0  0.00000000000E+00  0.00000000000E+00  0.45593999997E+02  0.45594000000E+02  0.51100000000E-03 0. -1.
         11   -1    0    0    0    0 -0.00000000000E+00 -0.00000000000E+00 -0.45593999997E+02  0.45594000000E+02  0.51100000000E-03 0.  1.
    9900012    2    1    2    0    0 -0.55980030716E+01 -0.17425467105E+02 -0.39617409176E+01  0.72461549901E+02  0.69999973433E+02 0.  0.
        -12    1    1    2    0    0  0.55980030716E+01  0.17425467105E+02  0.39617409176E+01  0.18726450099E+02  0.00000000000E+00 0.  1.
         11    1    3    3    0    0  0.18922787177E+02 -0.11082152911E+02  0.15292197099E+02  0.26734570879E+02  0.51100000000E-03 0. -1.
        -11    1    3    3    0    0 -0.15078469686E+02 -0.19566969145E+02 -0.80167162758E+01  0.25971027506E+02  0.51100000000E-03 0.  1.
        -12    1    3    3    0    0 -0.94423205623E+01  0.13223654951E+02 -0.11237221741E+02  0.19755951516E+02  0.00000000000E+00 0.  1.
</event>
<event>
 7    1  0.2710146E-013  0.7246168E+02  0.7816164E-02  0.1226708E+00
        -11   -1    0    0    0    0  0.00000000000E+00  0.00000000000E+00  0.45593999997E+02  0.45594000000E+02  0.51100000000E-03 0.  1.
         11   -1    0    0    0    0 -0.00000000000E+00 -0.00000000000E+00 -0.45593999997E+02  0.45594000000E+02  0.51100000000E-03 0. -1.
    9900012    2    1    2    0    0  0.16731252838E+02  0.80599311308E+01 -0.24037308452E+01  0.72461675391E+02  0.70000136908E+02 0.  0.
        -12    1    1    2    0    0 -0.16731252838E+02 -0.80599311308E+01  0.24037308452E+01  0.18726324609E+02  0.00000000000E+00 0.  1.
         11    1    3    3    0    0 -0.76860811278E+01 -0.22540498337E+00  0.12189718672E+02  0.14412352066E+02  0.51100000000E-03 0. -1.
        -11    1    3    3    0    0  0.15070877960E+01 -0.16218418711E+02  0.74479640234E+01  0.17910348613E+02  0.51100000000E-03 0.  1.
         12    1    3    3    0    0  0.22910246170E+02  0.24503754825E+02 -0.22041413541E+02  0.40138974712E+02  0.00000000000E+00 0. -1.
</event>
<event>
 7    1  0.2710146E-013  0.7246159E+02  0.7816164E-02  0.1226708E+00
        -11   -1    0    0    0    0  0.00000000000E+00  0.00000000000E+00  0.45593999997E+02  0.45594000000E+02  0.51100000000E-03 0.  1.
         11   -1    0    0    0    0 -0.00000000000E+00 -0.00000000000E+00 -0.45593999997E+02  0.45594000000E+02  0.51100000000E-03 0. -1.
    9900012    2    1    2    0    0  0.54855851305E+01 -0.17692809465E+02 -0.27479915097E+01  0.72461585279E+02  0.70000019520E+02 0.  0.
        -12    1    1    2    0    0 -0.54855851305E+01  0.17692809465E+02  0.27479915097E+01  0.18726414721E+02  0.00000000000E+00 0.  1.
         11    1    3    3    0    0  0.15809461782E+02 -0.83432556357E+01  0.18781403993E+02  0.25928558244E+02  0.51100000000E-03 0. -1.
        -11    1    3    3    0    0  0.49433171347E+01  0.67039109311E+01  0.66708560187E+01  0.10671416323E+02  0.51100000000E-03 0.  1.
         12    1    3    3    0    0 -0.15267193786E+02 -0.16053464760E+02 -0.28200251521E+02  0.35861610711E+02  0.00000000000E+00 0. -1.
</event>
<event>
 7    1  0.2710146E-013  0.7246155E+02  0.7816164E-02  0.1226708E+00
        -11   -1    0    0    0    0  0.00000000000E+00  0.00000000000E+00  0.45593999997E+02  0.45594000000E+02  0.51100000000E-03 0. -1.
         11   -1    0    0    0    0 -0.00000000000E+00 -0.00000000000E+00 -0.45593999997E+02  0.45594000000E+02  0.51100000000E-03 0.  1.
    9900012    2    1    2    0    0  0.10052817774E+02  0.10018956874E+02  0.12216439319E+02  0.72461547275E+02  0.69999970013E+02 0.  0.
        -12    1    1    2    0    0 -0.10052817774E+02 -0.10018956874E+02 -0.12216439319E+02  0.18726452725E+02  0.00000000000E+00 0.  1.
         11    1    3    3    0    0  0.78648526891E+01  0.63033276366E+01  0.23570549953E+02  0.25635106251E+02  0.51100000000E-03 0. -1.
        -11    1    3    3    0    0 -0.15158871556E+02 -0.58686762105E+01  0.88639566602E+01  0.18514925743E+02  0.51100000000E-03 0.  1.
         12    1    3    3    0    0  0.17346836641E+02  0.95843054484E+01 -0.20218067295E+02  0.28311515281E+02  0.00000000000E+00 0. -1.
</event>
<event>
 7    1  0.2710146E-013  0.7246152E+02  0.7816164E-02  0.1226708E+00
        -11   -1    0    0    0    0  0.00000000000E+00  0.00000000000E+00  0.45593999997E+02  0.45594000000E+02  0.51100000000E-03 0. -1.
         11   -1    0    0    0    0 -0.00000000000E+00 -0.00000000000E+00 -0.45593999997E+02  0.45594000000E+02  0.51100000000E-03 0.  1.
    9900012    2    1    2    0    0 -0.10259566790E+02  0.11274212044E+02  0.10877251232E+02  0.72461517087E+02  0.69999930687E+02 0.  0.
        -12    1    1    2    0    0  0.10259566790E+02 -0.11274212044E+02 -0.10877251232E+02  0.18726482913E+02  0.00000000000E+00 0.  1.
         11    1    3    3    0    0  0.90406786017E+01  0.32041148098E+01  0.75701069959E+01  0.12219113777E+02  0.51100000000E-03 0. -1.
        -11    1    3    3    0    0 -0.19577174954E+02  0.14060121171E+02 -0.22966697663E+02  0.33292972057E+02  0.51100000000E-03 0.  1.
         12    1    3    3    0    0  0.27692956199E+00 -0.59900239374E+01  0.26273841899E+02  0.26949431254E+02  0.00000000000E+00 0. -1.
</event>
<event>
 7    1  0.2710146E-013  0.7246157E+02  0.7816164E-02  0.1226708E+00
        -11   -1    0    0    0    0  0.00000000000E+00  0.00000000000E+00  0.45593999997E+02  0.45594000000E+02  0.51100000000E-03 0. -1.
         11   -1    0    0    0    0 -0.00000000000E+00 -0.00000000000E+00 -0.45593999997E+02  0.45594000000E+02  0.51100000000E-03 0.  1.
    9900012    2    1    2    0    0 -0.28633193867E+01 -0.12645193386E+02  0.13512201009E+02  0.72461572423E+02  0.70000002774E+02 0.  0.
        -12    1    1    2    0    0  0.28633193867E+01  0.12645193386E+02 -0.13512201009E+02  0.18726427577E+02  0.00000000000E+00 0.  1.
         11    1    3    3    0    0 -0.19640557511E+02 -0.16959488322E+02  0.14926291476E+02  0.29936097290E+02  0.51100000000E-03 0. -1.
        -11    1    3    3    0    0 -0.86091383685E+01 -0.98923766799E+01  0.18812796125E+01  0.13248229809E+02  0.51100000000E-03 0.  1.
        -12    1    3    3    0    0  0.25386376492E+02  0.14206671617E+02 -0.32953700795E+01  0.29277245324E+02  0.00000000000E+00 0.  1.
</event>
<event>
 7    1  0.2710146E-013  0.7246149E+02  0.7816164E-02  0.1226708E+00
        -11   -1    0    0    0    0  0.00000000000E+00  0.00000000000E+00  0.45593999997E+02  0.45594000000E+02  0.51100000000E-03 0.  1.
         11   -1    0    0    0    0 -0.00000000000E+00 -0.00000000000E+00 -0.45593999997E+02  0.45594000000E+02  0.51100000000E-03 0. -1.
    9900012    2    1    2    0    0  0.15561296641E+02 -0.18524135268E+01  0.10251677392E+02  0.72461487288E+02  0.69999891868E+02 0.  0.
        -12    1    1    2    0    0 -0.15561296641E+02  0.18524135268E+01 -0.10251677392E+02  0.18726512712E+02  0.00000000000E+00 0.  1.
         11    1    3    3    0    0  0.18068712889E+02  0.13971598819E+01  0.14622064571E+02  0.23285944554E+02  0.51100000000E-03 0. -1.
        -11    1    3    3    0    0  0.14011800954E+02 -0.20670461634E+02 -0.20525118124E+01  0.25056164015E+02  0.51100000000E-03 0.  1.
         12    1    3    3    0    0 -0.16519217203E+02  0.17420888225E+02 -0.23178753671E+01  0.24119378718E+02  0.00000000000E+00 0. -1.
</event>
<event>
 7    1  0.2710146E-013  0.7246144E+02  0.7816164E-02  0.1226708E+00
        -11   -1    0    0    0    0  0.00000000000E+00  0.00000000000E+00  0.45593999997E+02  0.45594000000E+02  0.51100000000E-03 0.  1.
         11   -1    0    0    0    0 -0.00000000000E+00 -0.00000000000E+00 -0.45593999997E+02  0.45594000000E+02  0.51100000000E-03 0. -1.
    9900012    2    1    2    0    0  0.94125351392E+01 -0.16103057945E+02 -0.16673133869E+01  0.72461435263E+02  0.69999824096E+02 0.  0.
        -12    1    1    2    0    0 -0.94125351392E+01  0.16103057945E+02  0.16673133869E+01  0.18726564737E+02  0.00000000000E+00 0.  1.
         11    1    3    3    0    0  0.20451054945E+02  0.12617209969E+02 -0.10415273658E+02  0.26190027900E+02  0.51100000000E-03 0. -1.
        -11    1    3    3    0    0 -0.16930893560E+02 -0.54899224922E+01  0.12855680094E+02  0.21955931241E+02  0.51100000000E-03 0.  1.
        -12    1    3    3    0    0  0.58923737538E+01 -0.23230345422E+02 -0.41077198239E+01  0.24315476122E+02  0.00000000000E+00 0.  1.
</event>
<event>
 7    1  0.2710146E-013  0.7246155E+02  0.7816164E-02  0.1226708E+00
        -11   -1    0    0    0    0  0.00000000000E+00  0.00000000000E+00  0.45593999997E+02  0.45594000000E+02  0.51100000000E-03 0. -1.
         11   -1    0    0    0    0 -0.00000000000E+00 -0.00000000000E+00 -0.45593999997E+02  0.45594000000E+02  0.51100000000E-03 0.  1.
    9900012    2    1    2    0    0  0.66901349857E+01 -0.16632714350E+02 -0.54106262026E+01  0.72461548956E+02  0.69999972203E+02 0.  0.
        -12    1    1    2    0    0 -0.66901349857E+01  0.16632714350E+02  0.54106262026E+01  0.18726451044E+02  0.00000000000E+00 0.  1.
         11    1    3    3    0    0  0.71385922748E+01 -0.21341625672E+02  0.51178267549E+00  0.22509695861E+02  0.51100000000E-03 0. -1.
        -11    1    3    3    0    0 -0.98980090329E+01 -0.20418639292E+02 -0.14627182413E+01  0.22738314763E+02  0.51100000000E-03 0.  1.
        -12    1    3    3    0    0  0.94495517438E+01  0.25127550613E+02 -0.44596906368E+01  0.27213538332E+02  0.00000000000E+00 0.  1.
</event>
<event>
 7    1  0.2710146E-013  0.7246149E+02  0.7816164E-02  0.1226708E+00
        -11   -1    0    0    0    0  0.00000000000E+00  0.00000000000E+00  0.45593999997E+02  0.45594000000E+02  0.51100000000E-03 0.  1.
         11   -1    0    0    0    0 -0.00000000000E+00 -0.00000000000E+00 -0.45593999997E+02  0.45594000000E+02  0.51100000000E-03 0. -1.
    9900012    2    1    2    0    0 -0.14826880017E+02  0.39940475627E+01 -0.10718836109E+02  0.72461488458E+02  0.69999893393E+02 0.  0.
        -12    1    1    2    0    0  0.14826880017E+02 -0.39940475627E+01  0.10718836109E+02  0.18726511542E+02  0.00000000000E+00 0.  1.
         11    1    3    3    0    0 -0.13533447231E+02  0.63209048891E+01 -0.29488957185E+02  0.33056113333E+02  0.51100000000E-03 0. -1.
        -11    1    3    3    0    0  0.69513419535E+01  0.46295907090E+01 -0.73625190253E+01  0.11133775269E+02  0.51100000000E-03 0.  1.
        -12    1    3    3    0    0 -0.82447747396E+01 -0.69564480354E+01  0.26132640101E+02  0.28271599856E+02  0.00000000000E+00 0.  1.
</event>
<event>
 7    1  0.2710146E-013  0.7246157E+02  0.7816164E-02  0.1226708E+00
        -11   -1    0    0    0    0  0.00000000000E+00  0.00000000000E+00  0.45593999997E+02  0.45594000000E+02  0.51100000000E-03 0.  1.
         11   -1    0    0    0    0 -0.00000000000E+00 -0.00000000000E+00 -0.45593999997E+02  0.45594000000E+02  0.51100000000E-03 0. -1.
    9900012    2    1    2    0    0  0.39433390235E+01  0.81705779733E+01 -0.16382034303E+02  0.72461566411E+02  0.69999994941E+02 0.  0.
        -12    1    1    2    0    0 -0.39433390235E+01 -0.81705779733E+01  0.16382034303E+02  0.18726433589E+02  0.00000000000E+00 0.  1.
         11    1    3    3    0    0 -0.15893763873E+02 -0.13090839584E+02 -0.12953115158E+02  0.24326220496E+02  0.51100000000E-03 0. -1.
        -11    1    3    3    0    0  0.20314914325E+02 -0.49325681727E+01 -0.61630848319E+01  0.21794714674E+02  0.51100000000E-03 0.  1.
        -12    1    3    3    0    0 -0.47781142817E+00  0.26193985730E+02  0.27341656868E+01  0.26340631241E+02  0.00000000000E+00 0.  1.
</event>
<event>
 7    1  0.2710146E-013  0.7246156E+02  0.7816164E-02  0.1226708E+00
        -11   -1    0    0    0    0  0.00000000000E+00  0.00000000000E+00  0.45593999997E+02  0.45594000000E+02  0.51100000000E-03 0.  1.
         11   -1    0    0    0    0 -0.00000000000E+00 -0.00000000000E+00 -0.45593999997E+02  0.45594000000E+02  0.51100000000E-03 0. -1.
    9900012    2    1    2    0    0  0.65215536538E+01 -0.17527586279E+02  0.96570648852E+00  0.72461560620E+02  0.69999987398E+02 0.  0.
        -12    1    1    2    0    0 -0.65215536538E+01  0.17527586279E+02 -0.96570648852E+00  0.18726439380E+02  0.00000000000E+00 0.  1.
         11    1    3    3    0    0 -0.84750032718E+01 -0.17459149466E+02 -0.22733828551E+01  0.19540108762E+02  0.51100000000E-03 0. -1.
        -11    1    3    3    0    0 -0.79175419087E+01 -0.20558926785E+02  0.25097564426E+01  0.22173313196E+02  0.51100000000E-03 0.  1.
         12    1    3    3    0    0  0.22914098834E+02  0.20490489973E+02  0.72933290096E+00  0.30748138662E+02  0.00000000000E+00 0. -1.
</event>
<event>
 7    1  0.2710146E-013  0.7246156E+02  0.7816164E-02  0.1226708E+00
        -11   -1    0    0    0    0  0.00000000000E+00  0.00000000000E+00  0.45593999997E+02  0.45594000000E+02  0.51100000000E-03 0.  1.
         11   -1    0    0    0    0 -0.00000000000E+00 -0.00000000000E+00 -0.45593999997E+02  0.45594000000E+02  0.51100000000E-03 0. -1.
    9900012    2    1    2    0    0  0.61492027883E+01  0.39714811617E+01 -0.17236421596E+02  0.72461559148E+02  0.69999985480E+02 0.  0.
        -12    1    1    2    0    0 -0.61492027883E+01 -0.39714811617E+01  0.17236421596E+02  0.18726440852E+02  0.00000000000E+00 0.  1.
         11    1    3    3    0    0  0.79331119540E+01  0.31919830505E+01 -0.96472100845E+01  0.12891535352E+02  0.51100000000E-03 0. -1.
        -11    1    3    3    0    0  0.99627313289E+01  0.22277080387E+02  0.12927405218E+02  0.27615976029E+02  0.51100000000E-03 0.  1.
         12    1    3    3    0    0 -0.11746640495E+02 -0.21497582276E+02 -0.20516616729E+02  0.31954047766E+02  0.00000000000E+00 0. -1.
</event>
<event>
 7    1  0.2710146E-013  0.7246155E+02  0.7816164E-02  0.1226708E+00
        -11   -1    0    0    0    0  0.00000000000E+00  0.00000000000E+00  0.45593999997E+02  0.45594000000E+02  0.51100000000E-03 0.  1.
         11   -1    0    0    0    0 -0.00000000000E+00 -0.00000000000E+00 -0.45593999997E+02  0.45594000000E+02  0.51100000000E-03 0. -1.
    9900012    2    1    2    0    0 -0.20739928512E+01  0.12596539345E+02 -0.13700575124E+02  0.72461547892E+02  0.69999970817E+02 0.  0.
        -12    1    1    2    0    0  0.20739928512E+01 -0.12596539345E+02  0.13700575124E+02  0.18726452108E+02  0.00000000000E+00 0.  1.
         11    1    3    3    0    0  0.23043328155E+01  0.22062119124E+02  0.16333937627E+02  0.27547133583E+02  0.51100000000E-03 0. -1.
        -11    1    3    3    0    0  0.56585978734E+01  0.98996252239E+01 -0.81453209759E+01  0.14013156801E+02  0.51100000000E-03 0.  1.
        -12    1    3    3    0    0 -0.10036923540E+02 -0.19365205004E+02 -0.21889191776E+02  0.30901257508E+02  0.00000000000E+00 0.  1.
</event>
<event>
 7    1  0.2710146E-013  0.7246155E+02  0.7816164E-02  0.1226708E+00
        -11   -1    0    0    0    0  0.00000000000E+00  0.00000000000E+00  0.45593999997E+02  0.45594000000E+02  0.51100000000E-03 0.  1.
         11   -1    0    0    0    0 -0.00000000000E+00 -0.00000000000E+00 -0.45593999997E+02  0.45594000000E+02  0.51100000000E-03 0. -1.
    9900012    2    1    2    0    0  0.11993148350E+02  0.19334815011E+01 -0.14251530549E+02  0.72461545956E+02  0.69999968295E+02 0.  0.
        -12    1    1    2    0    0 -0.11993148350E+02 -0.19334815011E+01  0.14251530549E+02  0.18726454044E+02  0.00000000000E+00 0.  1.
         11    1    3    3    0    0 -0.63163763688E-01  0.11647747302E+02 -0.12788914906E+02  0.17298275972E+02  0.51100000000E-03 0. -1.
        -11    1    3    3    0    0 -0.15073215853E+01  0.17103048705E+02 -0.14434556708E+02  0.22430843073E+02  0.51100000000E-03 0.  1.
        -12    1    3    3    0    0  0.13563633699E+02 -0.26817314506E+02  0.12971941065E+02  0.32732426911E+02  0.00000000000E+00 0.  1.
</event>
<event>
 7    1  0.2710146E-013  0.7246152E+02  0.7816164E-02  0.1226708E+00
        -11   -1    0    0    0    0  0.00000000000E+00  0.00000000000E+00  0.45593999997E+02  0.45594000000E+02  0.51100000000E-03 0.  1.
         11   -1    0    0    0    0 -0.00000000000E+00 -0.00000000000E+00 -0.45593999997E+02  0.45594000000E+02  0.51100000000E-03 0. -1.
    9900012    2    1    2    0    0  0.14959540931E+02  0.37984464913E+01 -0.10604954446E+02  0.72461518231E+02  0.69999932178E+02 0.  0.
        -12    1    1    2    0    0 -0.14959540931E+02 -0.37984464913E+01  0.10604954446E+02  0.18726481769E+02  0.00000000000E+00 0.  1.
         11    1    3    3    0    0 -0.58116533999E+01  0.23533128407E+01 -0.34202202390E+02  0.34772173432E+02  0.51100000000E-03 0. -1.
        -11    1    3    3    0    0  0.16755062110E+02  0.20787023392E+01  0.35742265263E+01  0.17257699883E+02  0.51100000000E-03 0.  1.
        -12    1    3    3    0    0  0.40161322214E+01 -0.63356868858E+00  0.20023021418E+02  0.20431644917E+02  0.00000000000E+00 0.  1.
</event>
<event>
 7    1  0.2710146E-013  0.7246162E+02  0.7816164E-02  0.1226708E+00
        -11   -1    0    0    0    0  0.00000000000E+00  0.00000000000E+00  0.45593999997E+02  0.45594000000E+02  0.51100000000E-03 0.  1.
         11   -1    0    0    0    0 -0.00000000000E+00 -0.00000000000E+00 -0.45593999997E+02  0.45594000000E+02  0.51100000000E-03 0. -1.
    9900012    2    1    2    0    0  0.33490005667E+01 -0.30805686830E+01 -0.18165124599E+02  0.72461615942E+02  0.70000059464E+02 0.  0.
        -12    1    1    2    0    0 -0.33490005667E+01  0.30805686830E+01  0.18165124599E+02  0.18726384058E+02  0.00000000000E+00 0.  1.
         11    1    3    3    0    0 -0.73290879086E+01 -0.24578747294E+02 -0.15026618761E+01  0.25692184436E+02  0.51100000000E-03 0. -1.
        -11    1    3    3    0    0 -0.66848650124E+01 -0.59084680658E+01  0.22695973959E+01  0.92058941835E+01  0.51100000000E-03 0.  1.
        -12    1    3    3    0    0  0.17362953488E+02  0.27406646676E+02 -0.18932060119E+02  0.37563537323E+02  0.00000000000E+00 0.  1.
</event>
<event>
 7    1  0.2710146E-013  0.7246136E+02  0.7816164E-02  0.1226709E+00
        -11   -1    0    0    0    0  0.00000000000E+00  0.00000000000E+00  0.45593999997E+02  0.45594000000E+02  0.51100000000E-03 0.  1.
         11   -1    0    0    0    0 -0.00000000000E+00 -0.00000000000E+00 -0.45593999997E+02  0.45594000000E+02  0.51100000000E-03 0. -1.
    9900012    2    1    2    0    0  0.12753707818E+02  0.11901647390E+02 -0.68103500496E+01  0.72461357442E+02  0.69999722720E+02 0.  0.
        -12    1    1    2    0    0 -0.12753707818E+02 -0.11901647390E+02  0.68103500496E+01  0.18726642558E+02  0.00000000000E+00 0.  1.
         11    1    3    3    0    0 -0.62989975429E+00 -0.10156578167E+02 -0.54613712559E+01  0.11549001257E+02  0.51100000000E-03 0. -1.
        -11    1    3    3    0    0  0.31636104255E+02  0.12164666486E+02 -0.13920343526E+02  0.36641481510E+02  0.51100000000E-03 0.  1.
         12    1    3    3    0    0 -0.18252496682E+02  0.98935590720E+01  0.12571364732E+02  0.24270874675E+02  0.00000000000E+00 0. -1.
</event>
<event>
 7    1  0.2710146E-013  0.7246152E+02  0.7816164E-02  0.1226708E+00
        -11   -1    0    0    0    0  0.00000000000E+00  0.00000000000E+00  0.45593999997E+02  0.45594000000E+02  0.51100000000E-03 0. -1.
         11   -1    0    0    0    0 -0.00000000000E+00 -0.00000000000E+00 -0.45593999997E+02  0.45594000000E+02  0.51100000000E-03 0.  1.
    9900012    2    1    2    0    0  0.81642146536E+00  0.18658424351E+02  0.13703031352E+01  0.72461519445E+02  0.69999933760E+02 0.  0.
        -12    1    1    2    0    0 -0.81642146536E+00 -0.18658424351E+02 -0.13703031352E+01  0.18726480555E+02  0.00000000000E+00 0.  1.
         11    1    3    3    0    0 -0.55127523501E+01  0.25631021894E+02  0.40729851420E+00  0.26220328261E+02  0.51100000000E-03 0. -1.
        -11    1    3    3    0    0 -0.17039517351E+02  0.39852492056E+00 -0.95954281847E+01  0.19559555618E+02  0.51100000000E-03 0.  1.
        -12    1    3    3    0    0  0.23368691166E+02 -0.73711224628E+01  0.10558432806E+02  0.26681635566E+02  0.00000000000E+00 0.  1.
</event>
<event>
 7    1  0.2710146E-013  0.7246173E+02  0.7816164E-02  0.1226708E+00
        -11   -1    0    0    0    0  0.00000000000E+00  0.00000000000E+00  0.45593999997E+02  0.45594000000E+02  0.51100000000E-03 0. -1.
         11   -1    0    0    0    0 -0.00000000000E+00 -0.00000000000E+00 -0.45593999997E+02  0.45594000000E+02  0.51100000000E-03 0.  1.
    9900012    2    1    2    0    0 -0.87982539104E+01  0.91109172005E+01 -0.13793292760E+02  0.72461734775E+02  0.70000214266E+02 0.  0.
        -12    1    1    2    0    0  0.87982539104E+01 -0.91109172005E+01  0.13793292760E+02  0.18726265225E+02  0.00000000000E+00 0.  1.
         11    1    3    3    0    0 -0.31017521688E+02 -0.25270193345E+01  0.13633283777E+02  0.33975563353E+02  0.51100000000E-03 0. -1.
        -11    1    3    3    0    0  0.52669125597E+00  0.38906305458E+01 -0.47502998384E+01  0.61627719850E+01  0.51100000000E-03 0.  1.
        -12    1    3    3    0    0  0.21692576521E+02  0.77473059892E+01 -0.22676276699E+02  0.32323399437E+02  0.00000000000E+00 0.  1.
</event>
<event>
 7    1  0.2710146E-013  0.7246157E+02  0.7816164E-02  0.1226708E+00
        -11   -1    0    0    0    0  0.00000000000E+00  0.00000000000E+00  0.45593999997E+02  0.45594000000E+02  0.51100000000E-03 0.  1.
         11   -1    0    0    0    0 -0.00000000000E+00 -0.00000000000E+00 -0.45593999997E+02  0.45594000000E+02  0.51100000000E-03 0. -1.
    9900012    2    1    2    0    0 -0.14527483482E+02 -0.47629050632E+01 -0.10814158739E+02  0.72461572947E+02  0.70000003455E+02 0.  0.
        -12    1    1    2    0    0  0.14527483482E+02  0.47629050632E+01  0.10814158739E+02  0.18726427053E+02  0.00000000000E+00 0.  1.
         11    1    3    3    0    0  0.97781331877E+01  0.13124506978E+02 -0.87767027678E+01  0.18571351157E+02  0.51100000000E-03 0. -1.
        -11    1    3    3    0    0 -0.52264231889E+01  0.14514258749E+02  0.36720064344E+01  0.15857579825E+02  0.51100000000E-03 0.  1.
         12    1    3    3    0    0 -0.19079193481E+02 -0.32401670790E+02 -0.57094624052E+01  0.38032641965E+02  0.00000000000E+00 0. -1.
</event>
<event>
 7    1  0.2710146E-013  0.7246152E+02  0.7816164E-02  0.1226708E+00
        -11   -1    0    0    0    0  0.00000000000E+00  0.00000000000E+00  0.45593999997E+02  0.45594000000E+02  0.51100000000E-03 0.  1.
         11   -1    0    0    0    0 -0.00000000000E+00 -0.00000000000E+00 -0.45593999997E+02  0.45594000000E+02  0.51100000000E-03 0. -1.
    9900012    2    1    2    0    0  0.16777389107E+02 -0.79885873212E+01 -0.23200849845E+01  0.72461518564E+02  0.69999932612E+02 0.  0.
        -12    1    1    2    0    0 -0.16777389107E+02  0.79885873212E+01  0.23200849845E+01  0.18726481436E+02  0.00000000000E+00 0.  1.
         11    1    3    3    0    0  0.34472381486E+01 -0.13644630711E+02  0.20114924358E+01  0.14216381402E+02  0.51100000000E-03 0. -1.
        -11    1    3    3    0    0  0.12936418563E+02 -0.22207102365E+02  0.91613565664E+01  0.27284368695E+02  0.51100000000E-03 0.  1.
        -12    1    3    3    0    0  0.39373239601E+00  0.27863145754E+02 -0.13492933987E+02  0.30960768467E+02  0.00000000000E+00 0.  1.
</event>
<event>
 7    1  0.2710146E-013  0.7246157E+02  0.7816164E-02  0.1226708E+00
        -11   -1    0    0    0    0  0.00000000000E+00  0.00000000000E+00  0.45593999997E+02  0.45594000000E+02  0.51100000000E-03 0.  1.
         11   -1    0    0    0    0 -0.00000000000E+00 -0.00000000000E+00 -0.45593999997E+02  0.45594000000E+02  0.51100000000E-03 0. -1.
    9900012    2    1    2    0    0  0.66212859523E+01  0.16280907241E+02  0.64629450725E+01  0.72461574093E+02  0.70000004948E+02 0.  0.
        -12    1    1    2    0    0 -0.66212859523E+01 -0.16280907241E+02 -0.64629450725E+01  0.18726425907E+02  0.00000000000E+00 0.  1.
         11    1    3    3    0    0  0.94694734034E+01 -0.22945665925E+02 -0.24976534432E+00  0.24824119204E+02  0.51100000000E-03 0. -1.
        -11    1    3    3    0    0 -0.90161163724E+01  0.17975991032E+01  0.20377214693E+01  0.94166886974E+01  0.51100000000E-03 0.  1.
        -12    1    3    3    0    0  0.61679289213E+01  0.37428974063E+02  0.46749889475E+01  0.38220766191E+02  0.00000000000E+00 0.  1.
</event>
<event>
 7    1  0.2710146E-013  0.7246153E+02  0.7816164E-02  0.1226708E+00
        -11   -1    0    0    0    0  0.00000000000E+00  0.00000000000E+00  0.45593999997E+02  0.45594000000E+02  0.51100000000E-03 0. -1.
         11   -1    0    0    0    0 -0.00000000000E+00 -0.00000000000E+00 -0.45593999997E+02  0.45594000000E+02  0.51100000000E-03 0.  1.
    9900012    2    1    2    0    0  0.75393579742E+01 -0.25722727113E+01  0.16947628724E+02  0.72461531434E+02  0.69999949378E+02 0.  0.
        -12    1    1    2    0    0 -0.75393579742E+01  0.25722727113E+01 -0.16947628724E+02  0.18726468566E+02  0.00000000000E+00 0.  1.
         11    1    3    3    0    0  0.15459713683E+01  0.42890397010E+01 -0.58590637378E+01  0.74239152186E+01  0.51100000000E-03 0. -1.
        -11    1    3    3    0    0  0.22578141625E+02 -0.22267127260E+02 -0.15978145143E+01  0.31751384964E+02  0.51100000000E-03 0.  1.
         12    1    3    3    0    0 -0.16584755019E+02  0.15405814848E+02  0.24404506976E+02  0.33286231252E+02  0.00000000000E+00 0. -1.
</event>
<event>
 7    1  0.2710146E-013  0.7246157E+02  0.7816164E-02  0.1226708E+00
        -11   -1    0    0    0    0  0.00000000000E+00  0.00000000000E+00  0.45593999997E+02  0.45594000000E+02  0.51100000000E-03 0.  1.
         11   -1    0    0    0    0 -0.00000000000E+00 -0.00000000000E+00 -0.45593999997E+02  0.45594000000E+02  0.51100000000E-03 0. -1.
    9900012    2    1    2    0    0 -0.11788178518E+02  0.14547950129E+02 -0.27414600283E+00  0.72461570501E+02  0.70000000270E+02 0.  0.
        -12    1    1    2    0    0  0.11788178518E+02 -0.14547950129E+02  0.27414600283E+00  0.18726429499E+02  0.00000000000E+00 0.  1.
         11    1    3    3    0    0 -0.19989493993E+02  0.30623443265E+01  0.55368013803E+01  0.20966973855E+02  0.51100000000E-03 0. -1.
        -11    1    3    3    0    0  0.11186699466E+01  0.21483828710E+02  0.15772747661E+02  0.26675567239E+02  0.51100000000E-03 0.  1.
        -12    1    3    3    0    0  0.70826455283E+01 -0.99982229070E+01 -0.21583695044E+02  0.24819029407E+02  0.00000000000E+00 0.  1.
</event>
<event>
 7    1  0.2710146E-013  0.7246159E+02  0.7816164E-02  0.1226708E+00
        -11   -1    0    0    0    0  0.00000000000E+00  0.00000000000E+00  0.45593999997E+02  0.45594000000E+02  0.51100000000E-03 0. -1.
         11   -1    0    0    0    0 -0.00000000000E+00 -0.00000000000E+00 -0.45593999997E+02  0.45594000000E+02  0.51100000000E-03 0.  1.
    9900012    2    1    2    0    0  0.30174687412E+01  0.14776912766E+02  0.11100279489E+02  0.72461588886E+02  0.70000024219E+02 0.  0.
        -12    1    1    2    0    0 -0.30174687412E+01 -0.14776912766E+02 -0.11100279489E+02  0.18726411114E+02  0.00000000000E+00 0.  1.
         11    1    3    3    0    0 -0.25540787852E+01  0.15115658036E+02  0.32652350167E+02  0.36071906077E+02  0.51100000000E-03 0. -1.
        -11    1    3    3    0    0 -0.93783018856E+01 -0.51828989190E+00  0.87788473030E+00  0.94335493072E+01  0.51100000000E-03 0.  1.
        -12    1    3    3    0    0  0.14949849412E+02  0.17954462182E+00 -0.22429955409E+02  0.26956133502E+02  0.00000000000E+00 0.  1.
</event>
<event>
 7    1  0.2710146E-013  0.7246151E+02  0.7816164E-02  0.1226708E+00
        -11   -1    0    0    0    0  0.00000000000E+00  0.00000000000E+00  0.45593999997E+02  0.45594000000E+02  0.51100000000E-03 0. -1.
         11   -1    0    0    0    0 -0.00000000000E+00 -0.00000000000E+00 -0.45593999997E+02  0.45594000000E+02  0.51100000000E-03 0.  1.
    9900012    2    1    2    0    0 -0.27130825570E+01  0.11679494542E+02  0.14384370216E+02  0.72461507637E+02  0.69999918377E+02 0.  0.
        -12    1    1    2    0    0  0.27130825570E+01 -0.11679494542E+02 -0.14384370216E+02  0.18726492363E+02  0.00000000000E+00 0.  1.
         11    1    3    3    0    0 -0.20570554297E+02  0.40253502894E+01 -0.92876286159E+01  0.22926211955E+02  0.51100000000E-03 0. -1.
        -11    1    3    3    0    0 -0.10243120379E+02  0.61517624496E+01  0.16716577875E+02  0.20547741298E+02  0.51100000000E-03 0.  1.
         12    1    3    3    0    0  0.28100592119E+02  0.15023818030E+01  0.69554209563E+01  0.28987554384E+02  0.00000000000E+00 0. -1.
</event>
<event>
 7    1  0.2710146E-013  0.7246159E+02  0.7816164E-02  0.1226708E+00
        -11   -1    0    0    0    0  0.00000000000E+00  0.00000000000E+00  0.45593999997E+02  0.45594000000E+02  0.51100000000E-03 0. -1.
         11   -1    0    0    0    0 -0.00000000000E+00 -0.00000000000E+00 -0.45593999997E+02  0.45594000000E+02  0.51100000000E-03 0.  1.
    9900012    2    1    2    0    0  0.12296793346E+02  0.14042164896E+02  0.15116319989E+01  0.72461586759E+02  0.70000021448E+02 0.  0.
        -12    1    1    2    0    0 -0.12296793346E+02 -0.14042164896E+02 -0.15116319989E+01  0.18726413241E+02  0.00000000000E+00 0.  1.
         11    1    3    3    0    0 -0.20180955543E+01  0.13482559942E+01 -0.18683950357E+02  0.18840926333E+02  0.51100000000E-03 0.  1.
        -11    1    3    3    0    0  0.15400766599E+02  0.23429958222E+02 -0.28411174054E+01  0.28181882522E+02  0.51100000000E-03 0. -1.
         12    1    3    3    0    0 -0.10858776982E+01 -0.10736049320E+02  0.23036699761E+02  0.25438777904E+02  0.00000000000E+00 0. -1.
</event>
<event>
 7    1  0.2710146E-013  0.7246159E+02  0.7816164E-02  0.1226708E+00
        -11   -1    0    0    0    0  0.00000000000E+00  0.00000000000E+00  0.45593999997E+02  0.45594000000E+02  0.51100000000E-03 0.  1.
         11   -1    0    0    0    0 -0.00000000000E+00 -0.00000000000E+00 -0.45593999997E+02  0.45594000000E+02  0.51100000000E-03 0. -1.
    9900012    2    1    2    0    0 -0.73133830771E+01  0.17200395440E+02 -0.11573045921E+01  0.72461587390E+02  0.70000022270E+02 0.  0.
        -12    1    1    2    0    0  0.73133830771E+01 -0.17200395440E+02  0.11573045921E+01  0.18726412610E+02  0.00000000000E+00 0.  1.
         11    1    3    3    0    0  0.22465095334E+01  0.13623086068E+02  0.16207482216E+02  0.21291260158E+02  0.51100000000E-03 0. -1.
        -11    1    3    3    0    0  0.95568487065E+01  0.11462231242E+02  0.91802698947E+01  0.17521228777E+02  0.51100000000E-03 0.  1.
         12    1    3    3    0    0 -0.19116741317E+02 -0.78849218698E+01 -0.26545056703E+02  0.33649098455E+02  0.00000000000E+00 0. -1.
</event>
<event>
 7    1  0.2710146E-013  0.7246157E+02  0.7816164E-02  0.1226708E+00
        -11   -1    0    0    0    0  0.00000000000E+00  0.00000000000E+00  0.45593999997E+02  0.45594000000E+02  0.51100000000E-03 0. -1.
         11   -1    0    0    0    0 -0.00000000000E+00 -0.00000000000E+00 -0.45593999997E+02  0.45594000000E+02  0.51100000000E-03 0.  1.
    9900012    2    1    2    0    0 -0.11977981729E+01 -0.16842865678E+02  0.80970632274E+01  0.72461567408E+02  0.69999996241E+02 0.  0.
        -12    1    1    2    0    0  0.11977981729E+01  0.16842865678E+02 -0.80970632274E+01  0.18726432592E+02  0.00000000000E+00 0.  1.
         11    1    3    3    0    0  0.26267936191E+02 -0.21989654890E+02  0.18925305962E+01  0.34309343716E+02  0.51100000000E-03 0. -1.
        -11    1    3    3    0    0 -0.18705146090E+01 -0.78552301379E+01 -0.19524466670E+01  0.83075576237E+01  0.51100000000E-03 0.  1.
         12    1    3    3    0    0 -0.25595219755E+02  0.13002019351E+02  0.81569792982E+01  0.29844666069E+02  0.00000000000E+00 0. -1.
</event>
<event>
 7    1  0.2710146E-013  0.7246151E+02  0.7816164E-02  0.1226708E+00
        -11   -1    0    0    0    0  0.00000000000E+00  0.00000000000E+00  0.45593999997E+02  0.45594000000E+02  0.51100000000E-03 0. -1.
         11   -1    0    0    0    0 -0.00000000000E+00 -0.00000000000E+00 -0.45593999997E+02  0.45594000000E+02  0.51100000000E-03 0.  1.
    9900012    2    1    2    0    0  0.10372464315E+02 -0.61392419386E+01  0.14331893749E+02  0.72461508445E+02  0.69999919429E+02 0.  0.
        -12    1    1    2    0    0 -0.10372464315E+02  0.61392419386E+01 -0.14331893749E+02  0.18726491555E+02  0.00000000000E+00 0.  1.
         11    1    3    3    0    0  0.71318240556E-01 -0.89917872457E+01 -0.38816247500E+01  0.97940969530E+01  0.51100000000E-03 0. -1.
        -11    1    3    3    0    0 -0.59745897294E+01 -0.13772770605E+02 -0.15582091515E+02  0.21637617910E+02  0.51100000000E-03 0.  1.
         12    1    3    3    0    0  0.16275735803E+02  0.16625315912E+02  0.33795610014E+02  0.41029793582E+02  0.00000000000E+00 0. -1.
</event>
<event>
 7    1  0.2710146E-013  0.7246121E+02  0.7816164E-02  0.1226709E+00
        -11   -1    0    0    0    0  0.00000000000E+00  0.00000000000E+00  0.45593999997E+02  0.45594000000E+02  0.51100000000E-03 0.  1.
         11   -1    0    0    0    0 -0.00000000000E+00 -0.00000000000E+00 -0.45593999997E+02  0.45594000000E+02  0.51100000000E-03 0. -1.
    9900012    2    1    2    0    0 -0.15302616096E+02  0.10597154842E+02  0.20550061437E+01  0.72461206351E+02  0.69999525894E+02 0.  0.
        -12    1    1    2    0    0  0.15302616096E+02 -0.10597154842E+02 -0.20550061437E+01  0.18726793649E+02  0.00000000000E+00 0.  1.
         11    1    3    3    0    0  0.15192617592E+01  0.13739464739E+02 -0.51257300401E+01  0.14742935811E+02  0.51100000000E-03 0. -1.
        -11    1    3    3    0    0  0.62220815250E+01  0.17101040949E+02  0.17607634475E+02  0.25321703973E+02  0.51100000000E-03 0.  1.
         12    1    3    3    0    0 -0.23043959380E+02 -0.20243350846E+02 -0.10426898291E+02  0.32396566567E+02  0.00000000000E+00 0. -1.
</event>
<event>
 7    1  0.2710146E-013  0.7246158E+02  0.7816164E-02  0.1226708E+00
        -11   -1    0    0    0    0  0.00000000000E+00  0.00000000000E+00  0.45593999997E+02  0.45594000000E+02  0.51100000000E-03 0.  1.
         11   -1    0    0    0    0 -0.00000000000E+00 -0.00000000000E+00 -0.45593999997E+02  0.45594000000E+02  0.51100000000E-03 0. -1.
    9900012    2    1    2    0    0  0.18713373907E+02  0.51244704691E+00  0.47509427476E+00  0.72461583377E+02  0.70000017042E+02 0.  0.
        -12    1    1    2    0    0 -0.18713373907E+02 -0.51244704691E+00 -0.47509427476E+00  0.18726416623E+02  0.00000000000E+00 0.  1.
         11    1    3    3    0    0  0.91306342117E+01  0.13635799077E+02 -0.17116695841E+02  0.23712544661E+02  0.51100000000E-03 0. -1.
        -11    1    3    3    0    0  0.24185516075E+02  0.34993073609E+00  0.36151473122E+01  0.24456715432E+02  0.51100000000E-03 0.  1.
         12    1    3    3    0    0 -0.14602776380E+02 -0.13473282766E+02  0.13976642803E+02  0.24292323284E+02  0.00000000000E+00 0. -1.
</event>
<event>
 7    1  0.2710146E-013  0.7246157E+02  0.7816164E-02  0.1226708E+00
        -11   -1    0    0    0    0  0.00000000000E+00  0.00000000000E+00  0.45593999997E+02  0.45594000000E+02  0.51100000000E-03 0.  1.
         11   -1    0    0    0    0 -0.00000000000E+00 -0.00000000000E+00 -0.45593999997E+02  0.45594000000E+02  0.51100000000E-03 0. -1.
    9900012    2    1    2    0    0  0.12564626357E+02  0.91559929259E+01 -0.10439204694E+02  0.72461573844E+02  0.70000004624E+02 0.  0.
        -12    1    1    2    0    0 -0.12564626357E+02 -0.91559929259E+01  0.10439204694E+02  0.18726426156E+02  0.00000000000E+00 0.  1.
         11    1    3    3    0    0  0.10074240045E+02 -0.66492871570E+01  0.28731128447E+01  0.12407985730E+02  0.51100000000E-03 0. -1.
        -11    1    3    3    0    0  0.16490510547E+02 -0.88460331776E+01  0.11848541510E+02  0.22148976889E+02  0.51100000000E-03 0.  1.
         12    1    3    3    0    0 -0.14000124235E+02  0.24651313260E+02 -0.25160859048E+02  0.37904611225E+02  0.00000000000E+00 0. -1.
</event>
<event>
 7    1  0.2710146E-013  0.7246156E+02  0.7816164E-02  0.1226708E+00
        -11   -1    0    0    0    0  0.00000000000E+00  0.00000000000E+00  0.45593999997E+02  0.45594000000E+02  0.51100000000E-03 0. -1.
         11   -1    0    0    0    0 -0.00000000000E+00 -0.00000000000E+00 -0.45593999997E+02  0.45594000000E+02  0.51100000000E-03 0.  1.
    9900012    2    1    2    0    0  0.13138667351E+02 -0.91585170935E+01  0.97044612691E+01  0.72461559237E+02  0.69999985596E+02 0.  0.
        -12    1    1    2    0    0 -0.13138667351E+02  0.91585170935E+01 -0.97044612691E+01  0.18726440763E+02  0.00000000000E+00 0.  1.
         11    1    3    3    0    0  0.85639316156E+01 -0.42630926683E-01  0.17410895757E+02  0.19403144937E+02  0.51100000000E-03 0. -1.
        -11    1    3    3    0    0 -0.12317205809E+02  0.16600317265E+02  0.20710972351E+01  0.20774348034E+02  0.51100000000E-03 0.  1.
        -12    1    3    3    0    0  0.16891941544E+02 -0.25716203431E+02 -0.97775317236E+01  0.32284066266E+02  0.00000000000E+00 0.  1.
</event>
<event>
 7    1  0.2710146E-013  0.7246162E+02  0.7816164E-02  0.1226708E+00
        -11   -1    0    0    0    0  0.00000000000E+00  0.00000000000E+00  0.45593999997E+02  0.45594000000E+02  0.51100000000E-03 0. -1.
         11   -1    0    0    0    0 -0.00000000000E+00 -0.00000000000E+00 -0.45593999997E+02  0.45594000000E+02  0.51100000000E-03 0.  1.
    9900012    2    1    2    0    0 -0.14588047745E+02 -0.11680761681E+02  0.11940712186E+01  0.72461624576E+02  0.70000070711E+02 0.  0.
        -12    1    1    2    0    0  0.14588047745E+02  0.11680761681E+02 -0.11940712186E+01  0.18726375424E+02  0.00000000000E+00 0.  1.
         11    1    3    3    0    0 -0.26509637014E+02  0.13680783588E+02  0.79469995143E+01  0.30871985614E+02  0.51100000000E-03 0. -1.
        -11    1    3    3    0    0 -0.68306424762E+01  0.15169553600E+01 -0.53111372120E+01  0.87844754509E+01  0.51100000000E-03 0.  1.
        -12    1    3    3    0    0  0.18752231744E+02 -0.26878500629E+02 -0.14417910838E+01  0.32805163511E+02  0.00000000000E+00 0.  1.
</event>
<event>
 7    1  0.2710146E-013  0.7246161E+02  0.7816164E-02  0.1226708E+00
        -11   -1    0    0    0    0  0.00000000000E+00  0.00000000000E+00  0.45593999997E+02  0.45594000000E+02  0.51100000000E-03 0.  1.
         11   -1    0    0    0    0 -0.00000000000E+00 -0.00000000000E+00 -0.45593999997E+02  0.45594000000E+02  0.51100000000E-03 0. -1.
    9900012    2    1    2    0    0  0.12747512715E+01  0.11077782018E+02 -0.15044443138E+02  0.72461614482E+02  0.70000057563E+02 0.  0.
        -12    1    1    2    0    0 -0.12747512715E+01 -0.11077782018E+02  0.15044443138E+02  0.18726385518E+02  0.00000000000E+00 0.  1.
         11    1    3    3    0    0  0.89478159651E+01 -0.62990595175E+01  0.21022409929E+02  0.23699858245E+02  0.51100000000E-03 0. -1.
        -11    1    3    3    0    0  0.30449317691E+01  0.19956793081E+01  0.34549099163E+01  0.50190385703E+01  0.51100000000E-03 0.  1.
         12    1    3    3    0    0 -0.10717996463E+02  0.15381162227E+02 -0.39521762983E+02  0.43742717667E+02  0.00000000000E+00 0. -1.
</event>
<event>
 7    1  0.2710146E-013  0.7246150E+02  0.7816164E-02  0.1226708E+00
        -11   -1    0    0    0    0  0.00000000000E+00  0.00000000000E+00  0.45593999997E+02  0.45594000000E+02  0.51100000000E-03 0.  1.
         11   -1    0    0    0    0 -0.00000000000E+00 -0.00000000000E+00 -0.45593999997E+02  0.45594000000E+02  0.51100000000E-03 0. -1.
    9900012    2    1    2    0    0  0.15547305740E+02 -0.34360049693E+01 -0.98568313850E+01  0.72461495497E+02  0.69999902563E+02 0.  0.
        -12    1    1    2    0    0 -0.15547305740E+02  0.34360049693E+01  0.98568313850E+01  0.18726504503E+02  0.00000000000E+00 0.  1.
         11    1    3    3    0    0  0.11039828426E+01  0.69569905217E+00  0.17855532816E+01  0.22115551249E+01  0.51100000000E-03 0. -1.
        -11    1    3    3    0    0 -0.13273678327E+02  0.95998439899E+01  0.20099267298E+02  0.25929290139E+02  0.51100000000E-03 0.  1.
         12    1    3    3    0    0  0.27717001225E+02 -0.13731548011E+02 -0.31741651964E+02  0.44320650233E+02  0.00000000000E+00 0. -1.
</event>
<event>
 7    1  0.2710146E-013  0.7246159E+02  0.7816164E-02  0.1226708E+00
        -11   -1    0    0    0    0  0.00000000000E+00  0.00000000000E+00  0.45593999997E+02  0.45594000000E+02  0.51100000000E-03 0. -1.
         11   -1    0    0    0    0 -0.00000000000E+00 -0.00000000000E+00 -0.45593999997E+02  0.45594000000E+02  0.51100000000E-03 0.  1.
    9900012    2    1    2    0    0 -0.12849504614E+02 -0.75073935070E+00  0.13601661235E+02  0.72461586389E+02  0.70000020966E+02 0.  0.
        -12    1    1    2    0    0  0.12849504614E+02  0.75073935070E+00 -0.13601661235E+02  0.18726413611E+02  0.00000000000E+00 0.  1.
         11    1    3    3    0    0  0.53706335571E+01  0.22793600776E+02 -0.31277992647E+01  0.23625728976E+02  0.51100000000E-03 0. -1.
        -11    1    3    3    0    0  0.32494171370E+01 -0.21701303322E+02  0.65627570311E+00  0.21953040237E+02  0.51100000000E-03 0.  1.
         12    1    3    3    0    0 -0.21469555308E+02 -0.18430368048E+01  0.16073184797E+02  0.26882817176E+02  0.00000000000E+00 0. -1.
</event>
<event>
 7    1  0.2710146E-013  0.7246158E+02  0.7816164E-02  0.1226708E+00
        -11   -1    0    0    0    0  0.00000000000E+00  0.00000000000E+00  0.45593999997E+02  0.45594000000E+02  0.51100000000E-03 0. -1.
         11   -1    0    0    0    0 -0.00000000000E+00 -0.00000000000E+00 -0.45593999997E+02  0.45594000000E+02  0.51100000000E-03 0.  1.
    9900012    2    1    2    0    0 -0.42536805499E+01  0.41003886775E+01  0.17769970433E+02  0.72461579234E+02  0.70000011646E+02 0.  0.
        -12    1    1    2    0    0  0.42536805499E+01 -0.41003886775E+01 -0.17769970433E+02  0.18726420766E+02  0.00000000000E+00 0.  1.
         11    1    3    3    0    0  0.15785358547E+02  0.51009639960E+01 -0.14837153148E+02  0.22256201202E+02  0.51100000000E-03 0. -1.
        -11    1    3    3    0    0 -0.25316463868E+01  0.13592909739E+02  0.57341458887E+01  0.14968528916E+02  0.51100000000E-03 0.  1.
         12    1    3    3    0    0 -0.17507392710E+02 -0.14593485057E+02  0.26872977692E+02  0.35236849116E+02  0.00000000000E+00 0. -1.
</event>
<event>
 7    1  0.2710146E-013  0.7246151E+02  0.7816164E-02  0.1226708E+00
        -11   -1    0    0    0    0  0.00000000000E+00  0.00000000000E+00  0.45593999997E+02  0.45594000000E+02  0.51100000000E-03 0. -1.
         11   -1    0    0    0    0 -0.00000000000E+00 -0.00000000000E+00 -0.45593999997E+02  0.45594000000E+02  0.51100000000E-03 0.  1.
    9900012    2    1    2    0    0  0.51905120723E+01 -0.16063404842E+02  0.81059779685E+01  0.72461514224E+02  0.69999926958E+02 0.  0.
        -12    1    1    2    0    0 -0.51905120723E+01  0.16063404842E+02 -0.81059779685E+01  0.18726485776E+02  0.00000000000E+00 0.  1.
         11    1    3    3    0    0  0.23884129918E+01 -0.10986484685E+01  0.10953931024E+02  0.11264996681E+02  0.51100000000E-03 0. -1.
        -11    1    3    3    0    0 -0.25467659908E+02  0.45887813222E+01  0.38917351453E+01  0.26168764165E+02  0.51100000000E-03 0.  1.
         12    1    3    3    0    0  0.28269758988E+02 -0.19553537696E+02 -0.67396882006E+01  0.35027753378E+02  0.00000000000E+00 0. -1.
</event>
<event>
 7    1  0.4070555E-013  0.7246154E+02  0.7816164E-02  0.1226708E+00
        -11   -1    0    0    0    0  0.00000000000E+00  0.00000000000E+00  0.45593999997E+02  0.45594000000E+02  0.51100000000E-03 0. -1.
         11   -1    0    0    0    0 -0.00000000000E+00 -0.00000000000E+00 -0.45593999997E+02  0.45594000000E+02  0.51100000000E-03 0.  1.
    9900012    2    1    2    0    0 -0.94199348463E+01  0.91372779809E+01  0.13358716777E+02  0.72461539167E+02  0.69999959451E+02 0.  0.
        -12    1    1    2    0    0  0.94199348463E+01 -0.91372779809E+01 -0.13358716777E+02  0.18726460833E+02  0.00000000000E+00 0.  1.
         11    1    3    3    0    0 -0.11487975442E+02  0.12144154315E+02 -0.28193445195E+01  0.16952957487E+02  0.51100000000E-03 0. -1.
        -11    1    3    3    0    0 -0.15236374506E+02 -0.16979155362E+02 -0.65236283777E+01  0.23727548385E+02  0.51100000000E-03 0.  1.
         12    1    3    3    0    0  0.17304415102E+02  0.13972279028E+02  0.22701689674E+02  0.31781033295E+02  0.00000000000E+00 0. -1.
</event>
<event>
 7    1  0.2710146E-013  0.7246168E+02  0.7816164E-02  0.1226708E+00
        -11   -1    0    0    0    0  0.00000000000E+00  0.00000000000E+00  0.45593999997E+02  0.45594000000E+02  0.51100000000E-03 0. -1.
         11   -1    0    0    0    0 -0.00000000000E+00 -0.00000000000E+00 -0.45593999997E+02  0.45594000000E+02  0.51100000000E-03 0.  1.
    9900012    2    1    2    0    0 -0.17033470293E+02 -0.59050285360E+01 -0.50662287961E+01  0.72461677712E+02  0.70000139931E+02 0.  0.
        -12    1    1    2    0    0  0.17033470293E+02  0.59050285360E+01  0.50662287961E+01  0.18726322288E+02  0.00000000000E+00 0.  1.
         11    1    3    3    0    0 -0.18358457683E+02 -0.74207265695E+01 -0.20275377340E+01  0.19905051139E+02  0.51100000000E-03 0. -1.
        -11    1    3    3    0    0 -0.37476351268E+01 -0.21224087282E+02 -0.15105182842E+02  0.26318685357E+02  0.51100000000E-03 0.  1.
         12    1    3    3    0    0  0.50726225175E+01  0.22739785315E+02  0.12066491779E+02  0.26237941216E+02  0.00000000000E+00 0. -1.
</event>
<event>
 7    1  0.2710146E-013  0.7246154E+02  0.7816164E-02  0.1226708E+00
        -11   -1    0    0    0    0  0.00000000000E+00  0.00000000000E+00  0.45593999997E+02  0.45594000000E+02  0.51100000000E-03 0.  1.
         11   -1    0    0    0    0 -0.00000000000E+00 -0.00000000000E+00 -0.45593999997E+02  0.45594000000E+02  0.51100000000E-03 0. -1.
    9900012    2    1    2    0    0 -0.17318959278E+02  0.23911817703E+01  0.67093997079E+01  0.72461544244E+02  0.69999966065E+02 0.  0.
        -12    1    1    2    0    0  0.17318959278E+02 -0.23911817703E+01 -0.67093997079E+01  0.18726455756E+02  0.00000000000E+00 0.  1.
         11    1    3    3    0    0 -0.17079411623E+02 -0.58671184274E+01  0.82729579199E+00  0.18077992107E+02  0.51100000000E-03 0. -1.
        -11    1    3    3    0    0  0.29750736096E+01 -0.18739581941E+02  0.16549129723E+02  0.25177305042E+02  0.51100000000E-03 0.  1.
         12    1    3    3    0    0 -0.32146212648E+01  0.26997882139E+02 -0.10667025807E+02  0.29206247096E+02  0.00000000000E+00 0. -1.
</event>
<event>
 7    1  0.2710146E-013  0.7246154E+02  0.7816164E-02  0.1226708E+00
        -11   -1    0    0    0    0  0.00000000000E+00  0.00000000000E+00  0.45593999997E+02  0.45594000000E+02  0.51100000000E-03 0.  1.
         11   -1    0    0    0    0 -0.00000000000E+00 -0.00000000000E+00 -0.45593999997E+02  0.45594000000E+02  0.51100000000E-03 0. -1.
    9900012    2    1    2    0    0 -0.32743540917E+00 -0.59346108054E-01 -0.18723501308E+02  0.72461541789E+02  0.69999962867E+02 0.  0.
        -12    1    1    2    0    0  0.32743540917E+00  0.59346108054E-01  0.18723501308E+02  0.18726458211E+02  0.00000000000E+00 0.  1.
         11    1    3    3    0    0 -0.28759343808E+02 -0.20551095673E+01 -0.13543933984E+02  0.31855321056E+02  0.51100000000E-03 0. -1.
        -11    1    3    3    0    0 -0.20313215667E+01 -0.70927176785E+01  0.26962031627E+01  0.78550889957E+01  0.51100000000E-03 0.  1.
        -12    1    3    3    0    0  0.30463229965E+02  0.90884811377E+01 -0.78757704861E+01  0.32751131737E+02  0.00000000000E+00 0.  1.
</event>
<event>
 7    1  0.2710146E-013  0.7246156E+02  0.7816164E-02  0.1226708E+00
        -11   -1    0    0    0    0  0.00000000000E+00  0.00000000000E+00  0.45593999997E+02  0.45594000000E+02  0.51100000000E-03 0. -1.
         11   -1    0    0    0    0 -0.00000000000E+00 -0.00000000000E+00 -0.45593999997E+02  0.45594000000E+02  0.51100000000E-03 0.  1.
    9900012    2    1    2    0    0 -0.33120641790E+01 -0.44245562377E+01  0.17892261171E+02  0.72461562089E+02  0.69999989311E+02 0.  0.
        -12    1    1    2    0    0  0.33120641790E+01  0.44245562377E+01 -0.17892261171E+02  0.18726437911E+02  0.00000000000E+00 0.  1.
         11    1    3    3    0    0  0.11132510455E+02  0.16486219201E+01 -0.60530889624E+00  0.11270188214E+02  0.51100000000E-03 0. -1.
        -11    1    3    3    0    0 -0.11201019870E+02  0.24335715436E+02  0.14166605570E+02  0.30304828090E+02  0.51100000000E-03 0.  1.
         12    1    3    3    0    0 -0.32435547632E+01 -0.30408893594E+02  0.43309644973E+01  0.30886545786E+02  0.00000000000E+00 0. -1.
</event>
<event>
 7    1  0.2710146E-013  0.7246157E+02  0.7816164E-02  0.1226708E+00
        -11   -1    0    0    0    0  0.00000000000E+00  0.00000000000E+00  0.45593999997E+02  0.45594000000E+02  0.51100000000E-03 0. -1.
         11   -1    0    0    0    0 -0.00000000000E+00 -0.00000000000E+00 -0.45593999997E+02  0.45594000000E+02  0.51100000000E-03 0.  1.
    9900012    2    1    2    0    0  0.73850206424E+01  0.10800184631E+02  0.13397639540E+02  0.72461567793E+02  0.69999996742E+02 0.  0.
        -12    1    1    2    0    0 -0.73850206424E+01 -0.10800184631E+02 -0.13397639540E+02  0.18726432207E+02  0.00000000000E+00 0.  1.
         11    1    3    3    0    0  0.11015116600E+02  0.24448563098E+02  0.50709362408E+01  0.27290647224E+02  0.51100000000E-03 0. -1.
        -11    1    3    3    0    0  0.57675570125E+01 -0.26889695936E+00 -0.15348557733E+02  0.16398635438E+02  0.51100000000E-03 0.  1.
        -12    1    3    3    0    0 -0.93976529700E+01 -0.13379481508E+02  0.23675261032E+02  0.28772285132E+02  0.00000000000E+00 0.  1.
</event>
<event>
 7    1  0.2710146E-013  0.7246155E+02  0.7816164E-02  0.1226708E+00
        -11   -1    0    0    0    0  0.00000000000E+00  0.00000000000E+00  0.45593999997E+02  0.45594000000E+02  0.51100000000E-03 0. -1.
         11   -1    0    0    0    0 -0.00000000000E+00 -0.00000000000E+00 -0.45593999997E+02  0.45594000000E+02  0.51100000000E-03 0.  1.
    9900012    2    1    2    0    0  0.95217719152E+01  0.15697743009E+02 -0.36873500949E+01  0.72461552747E+02  0.69999977142E+02 0.  0.
        -12    1    1    2    0    0 -0.95217719152E+01 -0.15697743009E+02  0.36873500949E+01  0.18726447253E+02  0.00000000000E+00 0.  1.
         11    1    3    3    0    0 -0.23524743594E+02  0.26524416714E+01 -0.12353993871E+02  0.26703373809E+02  0.51100000000E-03 0. -1.
        -11    1    3    3    0    0 -0.47237092018E+01  0.37064230435E+01  0.71951815663E+00  0.60472065485E+01  0.51100000000E-03 0.  1.
         12    1    3    3    0    0  0.37770224711E+02  0.93388782943E+01  0.79471256193E+01  0.39710972389E+02  0.00000000000E+00 0. -1.
</event>
<event>
 7    1  0.2710146E-013  0.7246152E+02  0.7816164E-02  0.1226708E+00
        -11   -1    0    0    0    0  0.00000000000E+00  0.00000000000E+00  0.45593999997E+02  0.45594000000E+02  0.51100000000E-03 0. -1.
         11   -1    0    0    0    0 -0.00000000000E+00 -0.00000000000E+00 -0.45593999997E+02  0.45594000000E+02  0.51100000000E-03 0.  1.
    9900012    2    1    2    0    0 -0.16989007329E+02 -0.92368928390E+00  0.78231428335E+01  0.72461517797E+02  0.69999931612E+02 0.  0.
        -12    1    1    2    0    0  0.16989007329E+02  0.92368928390E+00 -0.78231428335E+01  0.18726482203E+02  0.00000000000E+00 0.  1.
         11    1    3    3    0    0  0.91210787612E+01 -0.61549303908E+01 -0.53418703886E+01  0.12231632164E+02  0.51100000000E-03 0. -1.
        -11    1    3    3    0    0 -0.31721839586E+00 -0.54075416740E+01 -0.17766534594E+02  0.18573957204E+02  0.51100000000E-03 0.  1.
         12    1    3    3    0    0 -0.25792867694E+02  0.10638782781E+02  0.30931547816E+02  0.41655928429E+02  0.00000000000E+00 0. -1.
</event>
<event>
 7    1  0.2710146E-013  0.7246140E+02  0.7816164E-02  0.1226708E+00
        -11   -1    0    0    0    0  0.00000000000E+00  0.00000000000E+00  0.45593999997E+02  0.45594000000E+02  0.51100000000E-03 0. -1.
         11   -1    0    0    0    0 -0.00000000000E+00 -0.00000000000E+00 -0.45593999997E+02  0.45594000000E+02  0.51100000000E-03 0.  1.
    9900012    2    1    2    0    0  0.69948487796E+01 -0.12629160153E+02 -0.11927366596E+02  0.72461396743E+02  0.69999773917E+02 0.  0.
        -12    1    1    2    0    0 -0.69948487796E+01  0.12629160153E+02  0.11927366596E+02  0.18726603257E+02  0.00000000000E+00 0.  1.
         11    1    3    3    0    0 -0.11009426291E+01 -0.16135456523E+02 -0.14810921111E+02  0.21930080171E+02  0.51100000000E-03 0. -1.
        -11    1    3    3    0    0  0.78923850860E+01 -0.93160655369E+01 -0.20500880222E+02  0.23861368560E+02  0.51100000000E-03 0.  1.
        -12    1    3    3    0    0  0.20340632271E+00  0.12822361906E+02  0.23384434738E+02  0.26669948012E+02  0.00000000000E+00 0.  1.
</event>
<event>
 7    1  0.2710146E-013  0.7246159E+02  0.7816164E-02  0.1226708E+00
        -11   -1    0    0    0    0  0.00000000000E+00  0.00000000000E+00  0.45593999997E+02  0.45594000000E+02  0.51100000000E-03 0. -1.
         11   -1    0    0    0    0 -0.00000000000E+00 -0.00000000000E+00 -0.45593999997E+02  0.45594000000E+02  0.51100000000E-03 0.  1.
    9900012    2    1    2    0    0 -0.32875603793E+01 -0.92270869575E+01  0.15960297548E+02  0.72461593917E+02  0.70000030773E+02 0.  0.
        -12    1    1    2    0    0  0.32875603793E+01  0.92270869575E+01 -0.15960297548E+02  0.18726406083E+02  0.00000000000E+00 0.  1.
         11    1    3    3    0    0  0.59924306173E+01 -0.20739298746E+02 -0.13658550488E+02  0.25545718601E+02  0.51100000000E-03 0. -1.
        -11    1    3    3    0    0 -0.30390411845E+01 -0.10150966228E+02  0.12343080831E+01  0.10667774060E+02  0.51100000000E-03 0.  1.
         12    1    3    3    0    0 -0.62409498121E+01  0.21663178016E+02  0.28384539953E+02  0.36248101256E+02  0.00000000000E+00 0. -1.
</event>
<event>
 7    1  0.2710146E-013  0.7246163E+02  0.7816164E-02  0.1226708E+00
        -11   -1    0    0    0    0  0.00000000000E+00  0.00000000000E+00  0.45593999997E+02  0.45594000000E+02  0.51100000000E-03 0. -1.
         11   -1    0    0    0    0 -0.00000000000E+00 -0.00000000000E+00 -0.45593999997E+02  0.45594000000E+02  0.51100000000E-03 0.  1.
    9900012    2    1    2    0    0  0.83963745212E+01 -0.12121820445E+02 -0.11542931412E+02  0.72461630849E+02  0.70000078884E+02 0.  0.
        -12    1    1    2    0    0 -0.83963745212E+01  0.12121820445E+02  0.11542931412E+02  0.18726369151E+02  0.00000000000E+00 0.  1.
         11    1    3    3    0    0 -0.10182399319E+02  0.12068394690E+01 -0.22393153290E+01  0.10495344244E+02  0.51100000000E-03 0. -1.
        -11    1    3    3    0    0  0.19170275889E+01  0.18176794935E+02 -0.17599568982E+02  0.25373523553E+02  0.51100000000E-03 0.  1.
         12    1    3    3    0    0  0.16661746251E+02 -0.31505454849E+02  0.82959528990E+01  0.36592763053E+02  0.00000000000E+00 0. -1.
</event>
<event>
 7    1  0.2710146E-013  0.7246155E+02  0.7816164E-02  0.1226708E+00
        -11   -1    0    0    0    0  0.00000000000E+00  0.00000000000E+00  0.45593999997E+02  0.45594000000E+02  0.51100000000E-03 0.  1.
         11   -1    0    0    0    0 -0.00000000000E+00 -0.00000000000E+00 -0.45593999997E+02  0.45594000000E+02  0.51100000000E-03 0. -1.
    9900012    2    1    2    0    0  0.79419785288E+01  0.14569875911E+02 -0.86789218165E+01  0.72461548363E+02  0.69999971431E+02 0.  0.
        -12    1    1    2    0    0 -0.79419785288E+01 -0.14569875911E+02  0.86789218165E+01  0.18726451637E+02  0.00000000000E+00 0.  1.
         11    1    3    3    0    0  0.13449699096E+02 -0.11820310559E+02 -0.24620358399E+02  0.30442999120E+02  0.51100000000E-03 0. -1.
        -11    1    3    3    0    0  0.90275047198E+01  0.32558879506E+00  0.37614259006E+01  0.97852018168E+01  0.51100000000E-03 0.  1.
        -12    1    3    3    0    0 -0.14535225287E+02  0.26064597675E+02  0.12180010682E+02  0.32233347426E+02  0.00000000000E+00 0.  1.
</event>
<event>
 7    1  0.2710146E-013  0.7246164E+02  0.7816164E-02  0.1226708E+00
        -11   -1    0    0    0    0  0.00000000000E+00  0.00000000000E+00  0.45593999997E+02  0.45594000000E+02  0.51100000000E-03 0. -1.
         11   -1    0    0    0    0 -0.00000000000E+00 -0.00000000000E+00 -0.45593999997E+02  0.45594000000E+02  0.51100000000E-03 0.  1.
    9900012    2    1    2    0    0  0.46157043182E+01 -0.17956673570E+02 -0.26324529550E+01  0.72461637283E+02  0.70000087266E+02 0.  0.
        -12    1    1    2    0    0 -0.46157043182E+01  0.17956673570E+02  0.26324529550E+01  0.18726362717E+02  0.00000000000E+00 0.  1.
         11    1    3    3    0    0 -0.36780361693E+01  0.97107083966E+01  0.82378855681E+00  0.10416546235E+02  0.51100000000E-03 0. -1.
        -11    1    3    3    0    0  0.12547867358E+02 -0.88267547464E+01 -0.27326914649E+02  0.31338807237E+02  0.51100000000E-03 0.  1.
        -12    1    3    3    0    0 -0.42541268703E+01 -0.18840627220E+02  0.23870673137E+02  0.30706283811E+02  0.00000000000E+00 0.  1.
</event>
<event>
 7    1  0.2710146E-013  0.7246159E+02  0.7816164E-02  0.1226708E+00
        -11   -1    0    0    0    0  0.00000000000E+00  0.00000000000E+00  0.45593999997E+02  0.45594000000E+02  0.51100000000E-03 0. -1.
         11   -1    0    0    0    0 -0.00000000000E+00 -0.00000000000E+00 -0.45593999997E+02  0.45594000000E+02  0.51100000000E-03 0.  1.
    9900012    2    1    2    0    0 -0.11913786928E+02 -0.13524496304E+02  0.50821442054E+01  0.72461587931E+02  0.70000022975E+02 0.  0.
        -12    1    1    2    0    0  0.11913786928E+02  0.13524496304E+02 -0.50821442054E+01  0.18726412069E+02  0.00000000000E+00 0.  1.
         11    1    3    3    0    0 -0.56226853014E+00  0.44788252546E+00 -0.85310680476E+00  0.11155877993E+01  0.51100000000E-03 0. -1.
        -11    1    3    3    0    0 -0.12647518010E+02 -0.11914350754E+02 -0.30353982436E+02  0.34975358693E+02  0.51100000000E-03 0.  1.
         12    1    3    3    0    0  0.12959996118E+01 -0.20580280753E+01  0.36289233446E+02  0.36370641439E+02  0.00000000000E+00 0. -1.
</event>
<event>
 7    1  0.2710146E-013  0.7246157E+02  0.7816164E-02  0.1226708E+00
        -11   -1    0    0    0    0  0.00000000000E+00  0.00000000000E+00  0.45593999997E+02  0.45594000000E+02  0.51100000000E-03 0.  1.
         11   -1    0    0    0    0 -0.00000000000E+00 -0.00000000000E+00 -0.45593999997E+02  0.45594000000E+02  0.51100000000E-03 0. -1.
    9900012    2    1    2    0    0 -0.64608734037E+01  0.35953931444E+01 -0.17204923259E+02  0.72461571581E+02  0.70000001676E+02 0.  0.
        -12    1    1    2    0    0  0.64608734037E+01 -0.35953931444E+01  0.17204923259E+02  0.18726428419E+02  0.00000000000E+00 0.  1.
         11    1    3    3    0    0  0.44743392895E+01 -0.75781323699E+00 -0.72313303816E+01  0.85373375434E+01  0.51100000000E-03 0. -1.
        -11    1    3    3    0    0  0.63819470945E+01  0.25424708266E+02  0.12066907184E+02  0.28857499690E+02  0.51100000000E-03 0.  1.
         12    1    3    3    0    0 -0.17317159788E+02 -0.21071501885E+02 -0.22040500062E+02  0.35066734347E+02  0.00000000000E+00 0. -1.
</event>
<event>
 7    1  0.2710146E-013  0.7246156E+02  0.7816164E-02  0.1226708E+00
        -11   -1    0    0    0    0  0.00000000000E+00  0.00000000000E+00  0.45593999997E+02  0.45594000000E+02  0.51100000000E-03 0.  1.
         11   -1    0    0    0    0 -0.00000000000E+00 -0.00000000000E+00 -0.45593999997E+02  0.45594000000E+02  0.51100000000E-03 0. -1.
    9900012    2    1    2    0    0 -0.59916842497E+01  0.24967642920E+01 -0.17565458535E+02  0.72461562922E+02  0.69999990396E+02 0.  0.
        -12    1    1    2    0    0  0.59916842497E+01 -0.24967642920E+01  0.17565458535E+02  0.18726437078E+02  0.00000000000E+00 0.  1.
         11    1    3    3    0    0  0.29600021887E+02  0.41352754637E+01 -0.13510667633E+01  0.29918007629E+02  0.51100000000E-03 0. -1.
        -11    1    3    3    0    0 -0.37538059890E+01 -0.41129853146E+01  0.18334192765E+01  0.58625194333E+01  0.51100000000E-03 0.  1.
        -12    1    3    3    0    0 -0.31837900147E+02  0.24744741428E+01 -0.18047811048E+02  0.36681035859E+02  0.00000000000E+00 0.  1.
</event>
<event>
 7    1  0.2710146E-013  0.7246158E+02  0.7816164E-02  0.1226708E+00
        -11   -1    0    0    0    0  0.00000000000E+00  0.00000000000E+00  0.45593999997E+02  0.45594000000E+02  0.51100000000E-03 0.  1.
         11   -1    0    0    0    0 -0.00000000000E+00 -0.00000000000E+00 -0.45593999997E+02  0.45594000000E+02  0.51100000000E-03 0. -1.
    9900012    2    1    2    0    0  0.10045247917E+02  0.84693891673E+01 -0.13343205851E+02  0.72461582805E+02  0.70000016297E+02 0.  0.
        -12    1    1    2    0    0 -0.10045247917E+02 -0.84693891673E+01  0.13343205851E+02  0.18726417195E+02  0.00000000000E+00 0.  1.
         11    1    3    3    0    0  0.24517854349E+01 -0.26031209952E+01 -0.37038059508E+01  0.51483657132E+01  0.51100000000E-03 0. -1.
        -11    1    3    3    0    0  0.27549615130E+02 -0.15122528728E+01  0.16462333405E+02  0.32129061983E+02  0.51100000000E-03 0.  1.
         12    1    3    3    0    0 -0.19956152647E+02  0.12584763035E+02 -0.26101733305E+02  0.35184155108E+02  0.00000000000E+00 0. -1.
</event>
<event>
 7    1  0.2710146E-013  0.7246159E+02  0.7816164E-02  0.1226708E+00
        -11   -1    0    0    0    0  0.00000000000E+00  0.00000000000E+00  0.45593999997E+02  0.45594000000E+02  0.51100000000E-03 0.  1.
         11   -1    0    0    0    0 -0.00000000000E+00 -0.00000000000E+00 -0.45593999997E+02  0.45594000000E+02  0.51100000000E-03 0. -1.
    9900012    2    1    2    0    0  0.19654497563E+01  0.11524099525E+02 -0.14629099035E+02  0.72461590809E+02  0.70000026724E+02 0.  0.
        -12    1    1    2    0    0 -0.19654497563E+01 -0.11524099525E+02  0.14629099035E+02  0.18726409191E+02  0.00000000000E+00 0.  1.
         11    1    3    3    0    0  0.24534355784E+02  0.14753965360E+02 -0.17971411724E+02  0.33802155954E+02  0.51100000000E-03 0. -1.
        -11    1    3    3    0    0  0.62850190378E+01 -0.47650497383E+01  0.56055068791E+01  0.96762012663E+01  0.51100000000E-03 0.  1.
         12    1    3    3    0    0 -0.28853925065E+02  0.15351839031E+01 -0.22631941907E+01  0.28983233588E+02  0.00000000000E+00 0. -1.
</event>
<event>
 7    1  0.2710146E-013  0.7246154E+02  0.7816164E-02  0.1226708E+00
        -11   -1    0    0    0    0  0.00000000000E+00  0.00000000000E+00  0.45593999997E+02  0.45594000000E+02  0.51100000000E-03 0.  1.
         11   -1    0    0    0    0 -0.00000000000E+00 -0.00000000000E+00 -0.45593999997E+02  0.45594000000E+02  0.51100000000E-03 0. -1.
    9900012    2    1    2    0    0  0.15141252260E+02 -0.86685318873E+00  0.10985056637E+02  0.72461536805E+02  0.69999956374E+02 0.  0.
        -12    1    1    2    0    0 -0.15141252260E+02  0.86685318873E+00 -0.10985056637E+02  0.18726463195E+02  0.00000000000E+00 0.  1.
         11    1    3    3    0    0  0.22624160378E+02 -0.14395374109E+02  0.18255795888E+02  0.32439998648E+02  0.51100000000E-03 0. -1.
        -11    1    3    3    0    0  0.58358009115E+01 -0.88033653256E+01  0.44984671323E+01  0.11480070563E+02  0.51100000000E-03 0.  1.
         12    1    3    3    0    0 -0.13318709029E+02  0.22331886246E+02 -0.11769206383E+02  0.28541467594E+02  0.00000000000E+00 0. -1.
</event>
<event>
 7    1  0.2710146E-013  0.7246161E+02  0.7816164E-02  0.1226708E+00
        -11   -1    0    0    0    0  0.00000000000E+00  0.00000000000E+00  0.45593999997E+02  0.45594000000E+02  0.51100000000E-03 0.  1.
         11   -1    0    0    0    0 -0.00000000000E+00 -0.00000000000E+00 -0.45593999997E+02  0.45594000000E+02  0.51100000000E-03 0. -1.
    9900012    2    1    2    0    0 -0.15922237718E+02  0.65124600817E+01 -0.73991905539E+01  0.72461606564E+02  0.70000047248E+02 0.  0.
        -12    1    1    2    0    0  0.15922237718E+02 -0.65124600817E+01  0.73991905539E+01  0.18726393436E+02  0.00000000000E+00 0.  1.
         11    1    3    3    0    0 -0.15429527844E+02  0.19255721428E+02 -0.15537751496E+02  0.29159472886E+02  0.51100000000E-03 0. -1.
        -11    1    3    3    0    0 -0.11042075756E+01  0.12913598669E+02  0.11614884529E+02  0.17403615941E+02  0.51100000000E-03 0.  1.
         12    1    3    3    0    0  0.61149770095E+00 -0.25656860015E+02 -0.34763235864E+01  0.25898517736E+02  0.00000000000E+00 0. -1.
</event>
<event>
 7    1  0.2710146E-013  0.7246143E+02  0.7816164E-02  0.1226708E+00
        -11   -1    0    0    0    0  0.00000000000E+00  0.00000000000E+00  0.45593999997E+02  0.45594000000E+02  0.51100000000E-03 0. -1.
         11   -1    0    0    0    0 -0.00000000000E+00 -0.00000000000E+00 -0.45593999997E+02  0.45594000000E+02  0.51100000000E-03 0.  1.
    9900012    2    1    2    0    0 -0.13985534140E+02 -0.63420515975E+01  0.10717635525E+02  0.72461428106E+02  0.69999814773E+02 0.  0.
        -12    1    1    2    0    0  0.13985534140E+02  0.63420515975E+01 -0.10717635525E+02  0.18726571894E+02  0.00000000000E+00 0.  1.
         11    1    3    3    0    0  0.21814737848E+02 -0.68888122371E+00  0.49666485094E+01  0.22383586450E+02  0.51100000000E-03 0. -1.
        -11    1    3    3    0    0 -0.17138981061E+01  0.11455358104E+02  0.67453111424E+00  0.11602485445E+02  0.51100000000E-03 0.  1.
         12    1    3    3    0    0 -0.34086373881E+02 -0.17108528478E+02  0.50764559019E+01  0.38475356211E+02  0.00000000000E+00 0. -1.
</event>
<event>
 7    1  0.2710146E-013  0.7246158E+02  0.7816164E-02  0.1226708E+00
        -11   -1    0    0    0    0  0.00000000000E+00  0.00000000000E+00  0.45593999997E+02  0.45594000000E+02  0.51100000000E-03 0.  1.
         11   -1    0    0    0    0 -0.00000000000E+00 -0.00000000000E+00 -0.45593999997E+02  0.45594000000E+02  0.51100000000E-03 0. -1.
    9900012    2    1    2    0    0 -0.14421261949E+02 -0.15649114317E+01 -0.11843010741E+02  0.72461584235E+02  0.70000018160E+02 0.  0.
        -12    1    1    2    0    0  0.14421261949E+02  0.15649114317E+01  0.11843010741E+02  0.18726415765E+02  0.00000000000E+00 0.  1.
         11    1    3    3    0    0 -0.58796759776E+01 -0.37358986175E+00  0.62453111518E+01  0.85856898750E+01  0.51100000000E-03 0.  1.
        -11    1    3    3    0    0  0.21082225839E+02 -0.13142927775E+02  0.38278920036E+01  0.25136617797E+02  0.51100000000E-03 0. -1.
         12    1    3    3    0    0 -0.29623811810E+02  0.11951606205E+02 -0.21916213897E+02  0.38739276563E+02  0.00000000000E+00 0. -1.
</event>
<event>
 7    1  0.2710146E-013  0.7246122E+02  0.7816164E-02  0.1226709E+00
        -11   -1    0    0    0    0  0.00000000000E+00  0.00000000000E+00  0.45593999997E+02  0.45594000000E+02  0.51100000000E-03 0. -1.
         11   -1    0    0    0    0 -0.00000000000E+00 -0.00000000000E+00 -0.45593999997E+02  0.45594000000E+02  0.51100000000E-03 0.  1.
    9900012    2    1    2    0    0 -0.18157304638E+02  0.43380693016E+01 -0.14784495928E+01  0.72461217837E+02  0.69999540858E+02 0.  0.
        -12    1    1    2    0    0  0.18157304638E+02 -0.43380693016E+01  0.14784495928E+01  0.18726782163E+02  0.00000000000E+00 0.  1.
         11    1    3    3    0    0  0.93968982362E+01  0.14616910694E+02  0.93343582841E+01  0.19725263484E+02  0.51100000000E-03 0. -1.
        -11    1    3    3    0    0  0.71105593786E+01 -0.11226255376E+02 -0.12187241350E+02  0.18031020948E+02  0.51100000000E-03 0.  1.
         12    1    3    3    0    0 -0.34664762252E+02  0.94741398363E+00  0.13744334734E+01  0.34704933405E+02  0.00000000000E+00 0. -1.
</event>
<event>
 7    1  0.2710146E-013  0.7246158E+02  0.7816164E-02  0.1226708E+00
        -11   -1    0    0    0    0  0.00000000000E+00  0.00000000000E+00  0.45593999997E+02  0.45594000000E+02  0.51100000000E-03 0. -1.
         11   -1    0    0    0    0 -0.00000000000E+00 -0.00000000000E+00 -0.45593999997E+02  0.45594000000E+02  0.51100000000E-03 0.  1.
    9900012    2    1    2    0    0  0.17948049856E+02 -0.29482186712E+01  0.44558318746E+01  0.72461576832E+02  0.70000008516E+02 0.  0.
        -12    1    1    2    0    0 -0.17948049856E+02  0.29482186712E+01 -0.44558318746E+01  0.18726423168E+02  0.00000000000E+00 0.  1.
         11    1    3    3    0    0  0.11358434942E+02 -0.13983818870E+02 -0.71312983595E+01  0.19375671629E+02  0.51100000000E-03 0. -1.
        -11    1    3    3    0    0  0.14313047667E+02 -0.10917320676E+02 -0.10634961063E+02  0.20908218990E+02  0.51100000000E-03 0.  1.
        -12    1    3    3    0    0 -0.77234327529E+01  0.21952920875E+02  0.22222091297E+02  0.32177686213E+02  0.00000000000E+00 0.  1.
</event>
<event>
 7    1  0.2710146E-013  0.7246157E+02  0.7816164E-02  0.1226708E+00
        -11   -1    0    0    0    0  0.00000000000E+00  0.00000000000E+00  0.45593999997E+02  0.45594000000E+02  0.51100000000E-03 0.  1.
         11   -1    0    0    0    0 -0.00000000000E+00 -0.00000000000E+00 -0.45593999997E+02  0.45594000000E+02  0.51100000000E-03 0. -1.
    9900012    2    1    2    0    0 -0.43273901001E+01  0.46481942215E+01 -0.17616678012E+02  0.72461565242E+02  0.69999993418E+02 0.  0.
        -12    1    1    2    0    0  0.43273901001E+01 -0.46481942215E+01  0.17616678012E+02  0.18726434758E+02  0.00000000000E+00 0.  1.
         11    1    3    3    0    0  0.22324230828E+02 -0.12304229263E+02  0.11824944336E+01  0.25517908088E+02  0.51100000000E-03 0. -1.
        -11    1    3    3    0    0 -0.90559081420E+00  0.12560348907E+02  0.29752257530E+01  0.12939645588E+02  0.51100000000E-03 0.  1.
        -12    1    3    3    0    0 -0.25746030114E+02  0.43920745773E+01 -0.21774398198E+02  0.34004011567E+02  0.00000000000E+00 0.  1.
</event>
<event>
 7    1  0.2710146E-013  0.7246155E+02  0.7816164E-02  0.1226708E+00
        -11   -1    0    0    0    0  0.00000000000E+00  0.00000000000E+00  0.45593999997E+02  0.45594000000E+02  0.51100000000E-03 0.  1.
         11   -1    0    0    0    0 -0.00000000000E+00 -0.00000000000E+00 -0.45593999997E+02  0.45594000000E+02  0.51100000000E-03 0. -1.
    9900012    2    1    2    0    0  0.24776095626E+01  0.14725811240E+02 -0.11300089112E+02  0.72461545991E+02  0.69999968340E+02 0.  0.
        -12    1    1    2    0    0 -0.24776095626E+01 -0.14725811240E+02  0.11300089112E+02  0.18726454009E+02  0.00000000000E+00 0.  1.
         11    1    3    3    0    0 -0.20772369130E+02 -0.11690799840E+01  0.11470863758E+02  0.23757920424E+02  0.51100000000E-03 0. -1.
        -11    1    3    3    0    0 -0.28902920032E+01 -0.49713204562E+01 -0.12427799525E+02  0.13693721782E+02  0.51100000000E-03 0.  1.
         12    1    3    3    0    0  0.26140270696E+02  0.20866211680E+02 -0.10343153345E+02  0.35009903785E+02  0.00000000000E+00 0. -1.
</event>
<event>
 7    1  0.2710146E-013  0.7246162E+02  0.7816164E-02  0.1226708E+00
        -11   -1    0    0    0    0  0.00000000000E+00  0.00000000000E+00  0.45593999997E+02  0.45594000000E+02  0.51100000000E-03 0.  1.
         11   -1    0    0    0    0 -0.00000000000E+00 -0.00000000000E+00 -0.45593999997E+02  0.45594000000E+02  0.51100000000E-03 0. -1.
    9900012    2    1    2    0    0 -0.72905987895E+00  0.17951282766E+00 -0.18711324247E+02  0.72461617321E+02  0.70000061261E+02 0.  0.
        -12    1    1    2    0    0  0.72905987895E+00 -0.17951282766E+00  0.18711324247E+02  0.18726382679E+02  0.00000000000E+00 0.  1.
         11    1    3    3    0    0  0.82178750362E+01  0.95867634807E+01 -0.17983757002E+02  0.21973962326E+02  0.51100000000E-03 0. -1.
        -11    1    3    3    0    0  0.15897240521E+00 -0.12751709159E+01 -0.24091787085E+02  0.24126034450E+02  0.51100000000E-03 0.  1.
        -12    1    3    3    0    0 -0.91059073204E+01 -0.81320797372E+01  0.23364219840E+02  0.26361620544E+02  0.00000000000E+00 0.  1.
</event>
<event>
 7    1  0.2710146E-013  0.7246157E+02  0.7816164E-02  0.1226708E+00
        -11   -1    0    0    0    0  0.00000000000E+00  0.00000000000E+00  0.45593999997E+02  0.45594000000E+02  0.51100000000E-03 0. -1.
         11   -1    0    0    0    0 -0.00000000000E+00 -0.00000000000E+00 -0.45593999997E+02  0.45594000000E+02  0.51100000000E-03 0.  1.
    9900012    2    1    2    0    0 -0.77883217127E+01 -0.69182990701E+01  0.15561433518E+02  0.72461574012E+02  0.70000004843E+02 0.  0.
        -12    1    1    2    0    0  0.77883217127E+01  0.69182990701E+01 -0.15561433518E+02  0.18726425988E+02  0.00000000000E+00 0.  1.
         11    1    3    3    0    0  0.20222826618E+02  0.10298429723E+02  0.16473573911E+02  0.28042806722E+02  0.51100000000E-03 0. -1.
        -11    1    3    3    0    0 -0.14733442399E+02 -0.71778548321E+01  0.14388887499E+02  0.21809080876E+02  0.51100000000E-03 0.  1.
        -12    1    3    3    0    0 -0.13277705931E+02 -0.10038873961E+02 -0.15301027892E+02  0.22609686414E+02  0.00000000000E+00 0.  1.
</event>
<event>
 7    1  0.2710146E-013  0.7246156E+02  0.7816164E-02  0.1226708E+00
        -11   -1    0    0    0    0  0.00000000000E+00  0.00000000000E+00  0.45593999997E+02  0.45594000000E+02  0.51100000000E-03 0. -1.
         11   -1    0    0    0    0 -0.00000000000E+00 -0.00000000000E+00 -0.45593999997E+02  0.45594000000E+02  0.51100000000E-03 0.  1.
    9900012    2    1    2    0    0 -0.10591324496E+02  0.13649479439E+02 -0.72246231228E+01  0.72461558192E+02  0.69999984234E+02 0.  0.
        -12    1    1    2    0    0  0.10591324496E+02 -0.13649479439E+02  0.72246231228E+01  0.18726441808E+02  0.00000000000E+00 0.  1.
         11    1    3    3    0    0 -0.76904599929E+01  0.25393872987E+02 -0.16567567985E+02  0.31280605324E+02  0.51100000000E-03 0. -1.
        -11    1    3    3    0    0  0.68703760019E+01 -0.26321877686E+01 -0.13121614112E+02  0.15043511426E+02  0.51100000000E-03 0.  1.
        -12    1    3    3    0    0 -0.97712405053E+01 -0.91122057802E+01  0.22464558975E+02  0.26137441442E+02  0.00000000000E+00 0.  1.
</event>
<event>
 7    1  0.2710146E-013  0.7246133E+02  0.7816164E-02  0.1226709E+00
        -11   -1    0    0    0    0  0.00000000000E+00  0.00000000000E+00  0.45593999997E+02  0.45594000000E+02  0.51100000000E-03 0.  1.
         11   -1    0    0    0    0 -0.00000000000E+00 -0.00000000000E+00 -0.45593999997E+02  0.45594000000E+02  0.51100000000E-03 0. -1.
    9900012    2    1    2    0    0 -0.83736563856E+01  0.16635737442E+02  0.19550496728E+01  0.72461331831E+02  0.69999689356E+02 0.  0.
        -12    1    1    2    0    0  0.83736563856E+01 -0.16635737442E+02 -0.19550496728E+01  0.18726668169E+02  0.00000000000E+00 0.  1.
         11    1    3    3    0    0 -0.51444548794E+01 -0.82460455003E+01 -0.11664216585E+02  0.15182774160E+02  0.51100000000E-03 0. -1.
        -11    1    3    3    0    0 -0.13474351473E+02  0.71225139876E+01  0.28244469383E+02  0.32094211380E+02  0.51100000000E-03 0.  1.
         12    1    3    3    0    0  0.10245149966E+02  0.17759268955E+02 -0.14625203125E+02  0.25184346291E+02  0.00000000000E+00 0. -1.
</event>
<event>
 7    1  0.2710146E-013  0.7246160E+02  0.7816164E-02  0.1226708E+00
        -11   -1    0    0    0    0  0.00000000000E+00  0.00000000000E+00  0.45593999997E+02  0.45594000000E+02  0.51100000000E-03 0.  1.
         11   -1    0    0    0    0 -0.00000000000E+00 -0.00000000000E+00 -0.45593999997E+02  0.45594000000E+02  0.51100000000E-03 0. -1.
    9900012    2    1    2    0    0 -0.93176316244E+01  0.33137164887E+01 -0.15902176996E+02  0.72461595934E+02  0.70000033400E+02 0.  0.
        -12    1    1    2    0    0  0.93176316244E+01 -0.33137164887E+01  0.15902176996E+02  0.18726404066E+02  0.00000000000E+00 0.  1.
         11    1    3    3    0    0 -0.60123583408E+01 -0.26022295971E+01  0.21426600408E+01  0.68928255459E+01  0.51100000000E-03 0. -1.
        -11    1    3    3    0    0 -0.23104485305E+02  0.22495083563E+02  0.28191429984E+01  0.32369639992E+02  0.51100000000E-03 0.  1.
         12    1    3    3    0    0  0.19799212021E+02 -0.16579137477E+02 -0.20863980035E+02  0.33199130396E+02  0.00000000000E+00 0. -1.
</event>
<event>
 7    1  0.2710146E-013  0.7246161E+02  0.7816164E-02  0.1226708E+00
        -11   -1    0    0    0    0  0.00000000000E+00  0.00000000000E+00  0.45593999997E+02  0.45594000000E+02  0.51100000000E-03 0.  1.
         11   -1    0    0    0    0 -0.00000000000E+00 -0.00000000000E+00 -0.45593999997E+02  0.45594000000E+02  0.51100000000E-03 0. -1.
    9900012    2    1    2    0    0 -0.17622056386E+02  0.29265411930E+01 -0.56192687373E+01  0.72461609644E+02  0.70000051261E+02 0.  0.
        -12    1    1    2    0    0  0.17622056386E+02 -0.29265411930E+01  0.56192687373E+01  0.18726390356E+02  0.00000000000E+00 0.  1.
         11    1    3    3    0    0 -0.19441650217E+02  0.96835271174E+01 -0.12047723120E+02  0.24837393044E+02  0.51100000000E-03 0. -1.
        -11    1    3    3    0    0  0.22181009894E+02  0.52466152188E+01  0.74107096586E+01  0.23967536150E+02  0.51100000000E-03 0.  1.
         12    1    3    3    0    0 -0.20361416063E+02 -0.12003601143E+02 -0.98225527580E+00  0.23656680450E+02  0.00000000000E+00 0. -1.
</event>
<event>
 7    1  0.2710146E-013  0.7246155E+02  0.7816164E-02  0.1226708E+00
        -11   -1    0    0    0    0  0.00000000000E+00  0.00000000000E+00  0.45593999997E+02  0.45594000000E+02  0.51100000000E-03 0.  1.
         11   -1    0    0    0    0 -0.00000000000E+00 -0.00000000000E+00 -0.45593999997E+02  0.45594000000E+02  0.51100000000E-03 0. -1.
    9900012    2    1    2    0    0 -0.67997559860E+01  0.13588402664E+02 -0.10945248196E+02  0.72461552753E+02  0.69999977150E+02 0.  0.
        -12    1    1    2    0    0  0.67997559860E+01 -0.13588402664E+02  0.10945248196E+02  0.18726447247E+02  0.00000000000E+00 0.  1.
         11    1    3    3    0    0  0.71596007326E+01 -0.11757767073E+02  0.93943088135E+01  0.16666073549E+02  0.51100000000E-03 0. -1.
        -11    1    3    3    0    0 -0.11564885963E+02  0.38429849396E+01  0.11857963322E+02  0.17003717681E+02  0.51100000000E-03 0.  1.
         12    1    3    3    0    0 -0.23944707561E+01  0.21503184797E+02 -0.32197520331E+02  0.38791761523E+02  0.00000000000E+00 0. -1.
</event>
<event>
 7    1  0.2710146E-013  0.7246165E+02  0.7816164E-02  0.1226708E+00
        -11   -1    0    0    0    0  0.00000000000E+00  0.00000000000E+00  0.45593999997E+02  0.45594000000E+02  0.51100000000E-03 0.  1.
         11   -1    0    0    0    0 -0.00000000000E+00 -0.00000000000E+00 -0.45593999997E+02  0.45594000000E+02  0.51100000000E-03 0. -1.
    9900012    2    1    2    0    0 -0.49356965594E-01  0.81763069251E+01 -0.16847011198E+02  0.72461649118E+02  0.70000102683E+02 0.  0.
        -12    1    1    2    0    0  0.49356965594E-01 -0.81763069251E+01  0.16847011198E+02  0.18726350882E+02  0.00000000000E+00 0.  1.
         11    1    3    3    0    0 -0.75152033521E+00  0.17936789528E+02  0.11018124459E+02  0.21064004088E+02  0.51100000000E-03 0. -1.
        -11    1    3    3    0    0 -0.29039552509E+01 -0.41647319001E+01  0.10921449322E+02  0.12043919771E+02  0.51100000000E-03 0.  1.
         12    1    3    3    0    0  0.36061186205E+01 -0.55957507026E+01 -0.38786584979E+02  0.39353725259E+02  0.00000000000E+00 0. -1.
</event>
<event>
 7    1  0.2710146E-013  0.7246150E+02  0.7816164E-02  0.1226708E+00
        -11   -1    0    0    0    0  0.00000000000E+00  0.00000000000E+00  0.45593999997E+02  0.45594000000E+02  0.51100000000E-03 0.  1.
         11   -1    0    0    0    0 -0.00000000000E+00 -0.00000000000E+00 -0.45593999997E+02  0.45594000000E+02  0.51100000000E-03 0. -1.
    9900012    2    1    2    0    0 -0.17079184808E+02 -0.74366761388E+01 -0.19181333904E+01  0.72461496285E+02  0.69999903589E+02 0.  0.
        -12    1    1    2    0    0  0.17079184808E+02  0.74366761388E+01  0.19181333904E+01  0.18726503715E+02  0.00000000000E+00 0.  1.
         11    1    3    3    0    0 -0.75004801287E+01  0.53648664662E+01 -0.72562216344E+01  0.11734212672E+02  0.51100000000E-03 0. -1.
        -11    1    3    3    0    0 -0.32419306410E+02 -0.59969939565E+01 -0.72755133671E+01  0.33762530409E+02  0.51100000000E-03 0.  1.
         12    1    3    3    0    0  0.22840601731E+02 -0.68045486485E+01  0.12613601611E+02  0.26964753204E+02  0.00000000000E+00 0. -1.
</event>
<event>
 7    1  0.2710146E-013  0.7246164E+02  0.7816164E-02  0.1226708E+00
        -11   -1    0    0    0    0  0.00000000000E+00  0.00000000000E+00  0.45593999997E+02  0.45594000000E+02  0.51100000000E-03 0. -1.
         11   -1    0    0    0    0 -0.00000000000E+00 -0.00000000000E+00 -0.45593999997E+02  0.45594000000E+02  0.51100000000E-03 0.  1.
    9900012    2    1    2    0    0 -0.58233793437E+01  0.17716417910E+02  0.17010292579E+01  0.72461635935E+02  0.70000085509E+02 0.  0.
        -12    1    1    2    0    0  0.58233793437E+01 -0.17716417910E+02 -0.17010292579E+01  0.18726364065E+02  0.00000000000E+00 0.  1.
         11    1    3    3    0    0  0.57804671465E+01  0.11424350672E+02  0.25295726803E+02  0.28351426480E+02  0.51100000000E-03 0. -1.
        -11    1    3    3    0    0  0.51799325175E+01  0.16219796664E+02 -0.66597155034E+01  0.18282924152E+02  0.51100000000E-03 0.  1.
        -12    1    3    3    0    0 -0.16783779008E+02 -0.99277294260E+01 -0.16934982042E+02  0.25827285302E+02  0.00000000000E+00 0.  1.
</event>
<event>
 7    1  0.2710146E-013  0.7246156E+02  0.7816164E-02  0.1226708E+00
        -11   -1    0    0    0    0  0.00000000000E+00  0.00000000000E+00  0.45593999997E+02  0.45594000000E+02  0.51100000000E-03 0. -1.
         11   -1    0    0    0    0 -0.00000000000E+00 -0.00000000000E+00 -0.45593999997E+02  0.45594000000E+02  0.51100000000E-03 0.  1.
    9900012    2    1    2    0    0 -0.86141593577E+01  0.49424121054E+01  0.15876036910E+02  0.72461555414E+02  0.69999980616E+02 0.  0.
        -12    1    1    2    0    0  0.86141593577E+01 -0.49424121054E+01 -0.15876036910E+02  0.18726444586E+02  0.00000000000E+00 0.  1.
         11    1    3    3    0    0  0.35043181619E+01  0.10622783054E+02 -0.34450943240E+01  0.11704376991E+02  0.51100000000E-03 0. -1.
        -11    1    3    3    0    0  0.60107010948E+01  0.22859807195E+02  0.10150889218E+02  0.25724304943E+02  0.51100000000E-03 0.  1.
        -12    1    3    3    0    0 -0.18129178614E+02 -0.28540178143E+02  0.91702420162E+01  0.35032873480E+02  0.00000000000E+00 0.  1.
</event>
<event>
 7    1  0.2710146E-013  0.7246156E+02  0.7816164E-02  0.1226708E+00
        -11   -1    0    0    0    0  0.00000000000E+00  0.00000000000E+00  0.45593999997E+02  0.45594000000E+02  0.51100000000E-03 0.  1.
         11   -1    0    0    0    0 -0.00000000000E+00 -0.00000000000E+00 -0.45593999997E+02  0.45594000000E+02  0.51100000000E-03 0. -1.
    9900012    2    1    2    0    0 -0.18228263085E+02  0.45587130653E+00 -0.42664184732E+01  0.72461555587E+02  0.69999980841E+02 0.  0.
        -12    1    1    2    0    0  0.18228263085E+02 -0.45587130653E+00  0.42664184732E+01  0.18726444413E+02  0.00000000000E+00 0.  1.
         11    1    3    3    0    0 -0.14055600386E+01  0.13569882105E+01 -0.57877046965E+01  0.61085630013E+01  0.51100000000E-03 0. -1.
        -11    1    3    3    0    0 -0.48912143646E+01 -0.21549139521E+02 -0.23175509448E+02  0.32021768072E+02  0.51100000000E-03 0.  1.
        -12    1    3    3    0    0 -0.11931488682E+02  0.20648022617E+02  0.24696795671E+02  0.34331224513E+02  0.00000000000E+00 0.  1.
</event>
<event>
 7    1  0.2710146E-013  0.7246166E+02  0.7816164E-02  0.1226708E+00
        -11   -1    0    0    0    0  0.00000000000E+00  0.00000000000E+00  0.45593999997E+02  0.45594000000E+02  0.51100000000E-03 0. -1.
         11   -1    0    0    0    0 -0.00000000000E+00 -0.00000000000E+00 -0.45593999997E+02  0.45594000000E+02  0.51100000000E-03 0.  1.
    9900012    2    1    2    0    0  0.68025839090E+01  0.26789020287E+01  0.17240192090E+02  0.72461657932E+02  0.70000114165E+02 0.  0.
        -12    1    1    2    0    0 -0.68025839090E+01 -0.26789020287E+01 -0.17240192090E+02  0.18726342068E+02  0.00000000000E+00 0.  1.
         11    1    3    3    0    0 -0.68235644310E+00  0.14809262189E+02  0.63768857691E+01  0.16138293878E+02  0.51100000000E-03 0. -1.
        -11    1    3    3    0    0 -0.31099150861E+01  0.19023402993E+02 -0.48223655468E+01  0.19869993533E+02  0.51100000000E-03 0.  1.
        -12    1    3    3    0    0  0.10594855438E+02 -0.31153763154E+02  0.15685671868E+02  0.36453370521E+02  0.00000000000E+00 0.  1.
</event>
<event>
 7    1  0.2710146E-013  0.7246154E+02  0.7816164E-02  0.1226708E+00
        -11   -1    0    0    0    0  0.00000000000E+00  0.00000000000E+00  0.45593999997E+02  0.45594000000E+02  0.51100000000E-03 0.  1.
         11   -1    0    0    0    0 -0.00000000000E+00 -0.00000000000E+00 -0.45593999997E+02  0.45594000000E+02  0.51100000000E-03 0. -1.
    9900012    2    1    2    0    0  0.99248315672E+01  0.15401113511E+02  0.38708670344E+01  0.72461543031E+02  0.69999964484E+02 0.  0.
        -12    1    1    2    0    0 -0.99248315672E+01 -0.15401113511E+02 -0.38708670344E+01  0.18726456969E+02  0.00000000000E+00 0.  1.
         11    1    3    3    0    0 -0.58554610050E+01 -0.21637239634E+02  0.79048425174E+00  0.22429476770E+02  0.51100000000E-03 0. -1.
        -11    1    3    3    0    0 -0.41081625367E+01 -0.24950461648E+01  0.32060298247E+01  0.57776190849E+01  0.51100000000E-03 0.  1.
        -12    1    3    3    0    0  0.19888455109E+02  0.39533399310E+02 -0.12564704208E+00  0.44254447176E+02  0.00000000000E+00 0.  1.
</event>
<event>
 7    1  0.2710146E-013  0.7246154E+02  0.7816164E-02  0.1226708E+00
        -11   -1    0    0    0    0  0.00000000000E+00  0.00000000000E+00  0.45593999997E+02  0.45594000000E+02  0.51100000000E-03 0. -1.
         11   -1    0    0    0    0 -0.00000000000E+00 -0.00000000000E+00 -0.45593999997E+02  0.45594000000E+02  0.51100000000E-03 0.  1.
    9900012    2    1    2    0    0 -0.11488703225E+02  0.11034893399E+02  0.98448471854E+01  0.72461543042E+02  0.69999964498E+02 0.  0.
        -12    1    1    2    0    0  0.11488703225E+02 -0.11034893399E+02 -0.98448471854E+01  0.18726456958E+02  0.00000000000E+00 0.  1.
         11    1    3    3    0    0  0.61916796058E+01 -0.54458435391E+01 -0.82108812587E+00  0.82866334639E+01  0.51100000000E-03 0. -1.
        -11    1    3    3    0    0 -0.42560519697E+01  0.37765107224E+02  0.82980299158E+01  0.38899545020E+02  0.51100000000E-03 0.  1.
         12    1    3    3    0    0 -0.13424330861E+02 -0.21284370287E+02  0.23679053956E+01  0.25275364558E+02  0.00000000000E+00 0. -1.
</event>
<event>
 7    1  0.2710146E-013  0.7246156E+02  0.7816164E-02  0.1226708E+00
        -11   -1    0    0    0    0  0.00000000000E+00  0.00000000000E+00  0.45593999997E+02  0.45594000000E+02  0.51100000000E-03 0.  1.
         11   -1    0    0    0    0 -0.00000000000E+00 -0.00000000000E+00 -0.45593999997E+02  0.45594000000E+02  0.51100000000E-03 0. -1.
    9900012    2    1    2    0    0 -0.18079600893E+01 -0.29473917326E+01 -0.18404447459E+02  0.72461560830E+02  0.69999987672E+02 0.  0.
        -12    1    1    2    0    0  0.18079600893E+01  0.29473917326E+01  0.18404447459E+02  0.18726439170E+02  0.00000000000E+00 0.  1.
         11    1    3    3    0    0  0.14680477295E+02  0.13023044574E+02 -0.13103869482E+02  0.23597192614E+02  0.51100000000E-03 0. -1.
        -11    1    3    3    0    0 -0.11575449107E+02  0.22394419912E+01 -0.21159206631E+02  0.24222265542E+02  0.51100000000E-03 0.  1.
        -12    1    3    3    0    0 -0.49129882776E+01 -0.18209878298E+02  0.15858628654E+02  0.24642102675E+02  0.00000000000E+00 0.  1.
</event>
<event>
 7    1  0.2710146E-013  0.7246170E+02  0.7816164E-02  0.1226708E+00
        -11   -1    0    0    0    0  0.00000000000E+00  0.00000000000E+00  0.45593999997E+02  0.45594000000E+02  0.51100000000E-03 0. -1.
         11   -1    0    0    0    0 -0.00000000000E+00 -0.00000000000E+00 -0.45593999997E+02  0.45594000000E+02  0.51100000000E-03 0.  1.
    9900012    2    1    2    0    0 -0.28370261103E+01  0.94879580800E+01  0.15893528737E+02  0.72461699741E+02  0.70000168628E+02 0.  0.
        -12    1    1    2    0    0  0.28370261103E+01 -0.94879580800E+01 -0.15893528737E+02  0.18726300259E+02  0.00000000000E+00 0.  1.
         11    1    3    3    0    0 -0.14620626754E+02  0.19810077488E+02 -0.97638006071E+01  0.26486481445E+02  0.51100000000E-03 0. -1.
        -11    1    3    3    0    0 -0.99822280521E+01  0.52423578173E+01  0.92798940970E+01  0.14602863660E+02  0.51100000000E-03 0.  1.
        -12    1    3    3    0    0  0.21765828696E+02 -0.15564477225E+02  0.16377435247E+02  0.31372354636E+02  0.00000000000E+00 0.  1.
</event>
<event>
 7    1  0.2710146E-013  0.7246155E+02  0.7816164E-02  0.1226708E+00
        -11   -1    0    0    0    0  0.00000000000E+00  0.00000000000E+00  0.45593999997E+02  0.45594000000E+02  0.51100000000E-03 0. -1.
         11   -1    0    0    0    0 -0.00000000000E+00 -0.00000000000E+00 -0.45593999997E+02  0.45594000000E+02  0.51100000000E-03 0.  1.
    9900012    2    1    2    0    0  0.12661039159E+02 -0.11766825755E+01  0.13747492568E+02  0.72461546882E+02  0.69999969502E+02 0.  0.
        -12    1    1    2    0    0 -0.12661039159E+02  0.11766825755E+01 -0.13747492568E+02  0.18726453118E+02  0.00000000000E+00 0.  1.
         11    1    3    3    0    0 -0.11483929228E+02 -0.18256050685E+02  0.16945702265E+02  0.27428467742E+02  0.51100000000E-03 0. -1.
        -11    1    3    3    0    0 -0.76085658218E+01 -0.19361529750E+01  0.29622058268E+00  0.78566347187E+01  0.51100000000E-03 0.  1.
        -12    1    3    3    0    0  0.31753534209E+02  0.19015521084E+02 -0.34944302802E+01  0.37176444422E+02  0.00000000000E+00 0.  1.
</event>
<event>
 7    1  0.2710146E-013  0.7246161E+02  0.7816164E-02  0.1226708E+00
        -11   -1    0    0    0    0  0.00000000000E+00  0.00000000000E+00  0.45593999997E+02  0.45594000000E+02  0.51100000000E-03 0. -1.
         11   -1    0    0    0    0 -0.00000000000E+00 -0.00000000000E+00 -0.45593999997E+02  0.45594000000E+02  0.51100000000E-03 0.  1.
    9900012    2    1    2    0    0 -0.11174451999E+02 -0.33276173518E+01  0.14653881483E+02  0.72461610673E+02  0.70000052600E+02 0.  0.
        -12    1    1    2    0    0  0.11174451999E+02  0.33276173518E+01 -0.14653881483E+02  0.18726389327E+02  0.00000000000E+00 0.  1.
         11    1    3    3    0    0  0.33060058424E+01 -0.11342353496E+02  0.32985711999E+01  0.12266182359E+02  0.51100000000E-03 0. -1.
        -11    1    3    3    0    0 -0.17402947174E+02 -0.10801890472E+02  0.28144431710E+02  0.34808798380E+02  0.51100000000E-03 0.  1.
        -12    1    3    3    0    0  0.29224893325E+01  0.18816626616E+02 -0.16789121427E+02  0.25386629934E+02  0.00000000000E+00 0.  1.
</event>
<event>
 7    1  0.2710146E-013  0.7246171E+02  0.7816164E-02  0.1226708E+00
        -11   -1    0    0    0    0  0.00000000000E+00  0.00000000000E+00  0.45593999997E+02  0.45594000000E+02  0.51100000000E-03 0.  1.
         11   -1    0    0    0    0 -0.00000000000E+00 -0.00000000000E+00 -0.45593999997E+02  0.45594000000E+02  0.51100000000E-03 0. -1.
    9900012    2    1    2    0    0  0.10271647035E+02 -0.46219820996E+01 -0.14960099868E+02  0.72461707270E+02  0.70000178436E+02 0.  0.
        -12    1    1    2    0    0 -0.10271647035E+02  0.46219820996E+01  0.14960099868E+02  0.18726292730E+02  0.00000000000E+00 0.  1.
         11    1    3    3    0    0  0.13197398765E+02  0.16057371775E+01 -0.23750277552E+01  0.13505202078E+02  0.51100000000E-03 0. -1.
        -11    1    3    3    0    0 -0.72843775025E+01  0.27382617999E+01  0.21804223464E+02  0.23151336773E+02  0.51100000000E-03 0.  1.
         12    1    3    3    0    0  0.43586257717E+01 -0.89659810770E+01 -0.34389295576E+02  0.35805168419E+02  0.00000000000E+00 0. -1.
</event>
<event>
 7    1  0.2710146E-013  0.7246156E+02  0.7816164E-02  0.1226708E+00
        -11   -1    0    0    0    0  0.00000000000E+00  0.00000000000E+00  0.45593999997E+02  0.45594000000E+02  0.51100000000E-03 0.  1.
         11   -1    0    0    0    0 -0.00000000000E+00 -0.00000000000E+00 -0.45593999997E+02  0.45594000000E+02  0.51100000000E-03 0. -1.
    9900012    2    1    2    0    0 -0.15757730344E+02 -0.88884510685E+01  0.48341234082E+01  0.72461564752E+02  0.69999992780E+02 0.  0.
        -12    1    1    2    0    0  0.15757730344E+02  0.88884510685E+01 -0.48341234082E+01  0.18726435248E+02  0.00000000000E+00 0.  1.
         11    1    3    3    0    0 -0.27579732040E+02 -0.68066619268E+01 -0.73243470029E+01  0.29336297061E+02  0.51100000000E-03 0. -1.
        -11    1    3    3    0    0 -0.12243203053E+02  0.74983825192E+01 -0.34983331454E+00  0.14361202770E+02  0.51100000000E-03 0.  1.
         12    1    3    3    0    0  0.24065204749E+02 -0.95801716609E+01  0.12508303726E+02  0.28764064921E+02  0.00000000000E+00 0. -1.
</event>
<event>
 7    1  0.2710146E-013  0.7246156E+02  0.7816164E-02  0.1226708E+00
        -11   -1    0    0    0    0  0.00000000000E+00  0.00000000000E+00  0.45593999997E+02  0.45594000000E+02  0.51100000000E-03 0. -1.
         11   -1    0    0    0    0 -0.00000000000E+00 -0.00000000000E+00 -0.45593999997E+02  0.45594000000E+02  0.51100000000E-03 0.  1.
    9900012    2    1    2    0    0  0.10488536676E+02  0.51039441203E+01  0.14649906138E+02  0.72461564220E+02  0.69999992087E+02 0.  0.
        -12    1    1    2    0    0 -0.10488536676E+02 -0.51039441203E+01 -0.14649906138E+02  0.18726435780E+02  0.00000000000E+00 0.  1.
         11    1    3    3    0    0 -0.12502559479E+02  0.15351615154E+02 -0.53064140416E+01  0.20497417193E+02  0.51100000000E-03 0. -1.
        -11    1    3    3    0    0 -0.70227125548E+01  0.51274329538E+01 -0.49825219496E+01  0.10021705721E+02  0.51100000000E-03 0.  1.
        -12    1    3    3    0    0  0.30013808709E+02 -0.15375103988E+02  0.24938842130E+02  0.41942441305E+02  0.00000000000E+00 0.  1.
</event>
<event>
 7    1  0.2710146E-013  0.7246163E+02  0.7816164E-02  0.1226708E+00
        -11   -1    0    0    0    0  0.00000000000E+00  0.00000000000E+00  0.45593999997E+02  0.45594000000E+02  0.51100000000E-03 0.  1.
         11   -1    0    0    0    0 -0.00000000000E+00 -0.00000000000E+00 -0.45593999997E+02  0.45594000000E+02  0.51100000000E-03 0. -1.
    9900012    2    1    2    0    0  0.14471149475E+02  0.96163248919E+01 -0.69849174585E+01  0.72461629731E+02  0.70000077427E+02 0.  0.
        -12    1    1    2    0    0 -0.14471149475E+02 -0.96163248919E+01  0.69849174585E+01  0.18726370269E+02  0.00000000000E+00 0.  1.
         11    1    3    3    0    0 -0.22833851513E+02  0.17270066386E+02  0.47569642226E+00  0.28633306747E+02  0.51100000000E-03 0. -1.
        -11    1    3    3    0    0  0.17495072021E+00 -0.60193755583E+01 -0.95097980181E+00  0.60965443254E+01  0.51100000000E-03 0.  1.
        -12    1    3    3    0    0  0.37130050268E+02 -0.16343659353E+01 -0.65096340789E+01  0.37731778659E+02  0.00000000000E+00 0.  1.
</event>
<event>
 7    1  0.2710146E-013  0.7246157E+02  0.7816164E-02  0.1226708E+00
        -11   -1    0    0    0    0  0.00000000000E+00  0.00000000000E+00  0.45593999997E+02  0.45594000000E+02  0.51100000000E-03 0.  1.
         11   -1    0    0    0    0 -0.00000000000E+00 -0.00000000000E+00 -0.45593999997E+02  0.45594000000E+02  0.51100000000E-03 0. -1.
    9900012    2    1    2    0    0 -0.18295665331E+02  0.19186484972E+01 -0.35023771893E+01  0.72461568735E+02  0.69999997968E+02 0.  0.
        -12    1    1    2    0    0  0.18295665331E+02 -0.19186484972E+01  0.35023771893E+01  0.18726431265E+02  0.00000000000E+00 0.  1.
         11    1    3    3    0    0 -0.32499636478E+01 -0.50714140640E+01 -0.65035592637E+01  0.88644112990E+01  0.51100000000E-03 0. -1.
        -11    1    3    3    0    0 -0.67786181893E+01  0.34292886532E+02  0.49002699669E+00  0.34959860669E+02  0.51100000000E-03 0.  1.
         12    1    3    3    0    0 -0.82670834937E+01 -0.27302823971E+02  0.25111550777E+01  0.28637296767E+02  0.00000000000E+00 0. -1.
</event>
<event>
 7    1  0.2710146E-013  0.7246158E+02  0.7816164E-02  0.1226708E+00
        -11   -1    0    0    0    0  0.00000000000E+00  0.00000000000E+00  0.45593999997E+02  0.45594000000E+02  0.51100000000E-03 0. -1.
         11   -1    0    0    0    0 -0.00000000000E+00 -0.00000000000E+00 -0.45593999997E+02  0.45594000000E+02  0.51100000000E-03 0.  1.
    9900012    2    1    2    0    0 -0.15003354275E+02  0.91581861177E+01 -0.64579923927E+01  0.72461583413E+02  0.70000017089E+02 0.  0.
        -12    1    1    2    0    0  0.15003354275E+02 -0.91581861177E+01  0.64579923927E+01  0.18726416587E+02  0.00000000000E+00 0.  1.
         11    1    3    3    0    0  0.82508291781E+01 -0.12244003966E+02  0.50632460142E+01  0.15608596212E+02  0.51100000000E-03 0. -1.
        -11    1    3    3    0    0  0.63806791729E+01  0.61939996179E+01  0.12816659429E+02  0.15599533876E+02  0.51100000000E-03 0.  1.
         12    1    3    3    0    0 -0.29634862626E+02  0.15208190466E+02 -0.24337897836E+02  0.41253453324E+02  0.00000000000E+00 0. -1.
</event>
<event>
 7    1  0.2710146E-013  0.7246212E+02  0.7816164E-02  0.1226707E+00
        -11   -1    0    0    0    0  0.00000000000E+00  0.00000000000E+00  0.45593999997E+02  0.45594000000E+02  0.51100000000E-03 0. -1.
         11   -1    0    0    0    0 -0.00000000000E+00 -0.00000000000E+00 -0.45593999997E+02  0.45594000000E+02  0.51100000000E-03 0.  1.
    9900012    2    1    2    0    0 -0.48575128641E+01  0.10819681925E+02  0.14491297694E+02  0.72462117991E+02  0.70000713473E+02 0.  0.
        -12    1    1    2    0    0  0.48575128641E+01 -0.10819681925E+02 -0.14491297694E+02  0.18725882009E+02  0.00000000000E+00 0.  1.
         11    1    3    3    0    0 -0.20674202881E+01 -0.12502573859E+02  0.33383246657E+01  0.13104693494E+02  0.51100000000E-03 0. -1.
        -11    1    3    3    0    0  0.56060900018E+01  0.11497085585E+00 -0.19335515206E+02  0.20132153684E+02  0.51100000000E-03 0.  1.
        -12    1    3    3    0    0 -0.83961825778E+01  0.23207284927E+02  0.30488488234E+02  0.39225270813E+02  0.00000000000E+00 0.  1.
</event>
<event>
 7    1  0.2710146E-013  0.7246155E+02  0.7816164E-02  0.1226708E+00
        -11   -1    0    0    0    0  0.00000000000E+00  0.00000000000E+00  0.45593999997E+02  0.45594000000E+02  0.51100000000E-03 0. -1.
         11   -1    0    0    0    0 -0.00000000000E+00 -0.00000000000E+00 -0.45593999997E+02  0.45594000000E+02  0.51100000000E-03 0.  1.
    9900012    2    1    2    0    0  0.24655038375E+01  0.54058441699E+01  0.17758882485E+02  0.72461554328E+02  0.69999979201E+02 0.  0.
        -12    1    1    2    0    0 -0.24655038375E+01 -0.54058441699E+01 -0.17758882485E+02  0.18726445672E+02  0.00000000000E+00 0.  1.
         11    1    3    3    0    0 -0.15845874965E+02 -0.46675874284E+01  0.12903064717E+02  0.20961087881E+02  0.51100000000E-03 0. -1.
        -11    1    3    3    0    0  0.58936444455E+00 -0.17924156982E+02 -0.47046026464E+00  0.17940013576E+02  0.51100000000E-03 0.  1.
         12    1    3    3    0    0  0.17722014358E+02  0.27997588581E+02  0.53262780333E+01  0.33560452872E+02  0.00000000000E+00 0. -1.
</event>
<event>
 7    1  0.2710146E-013  0.7246160E+02  0.7816164E-02  0.1226708E+00
        -11   -1    0    0    0    0  0.00000000000E+00  0.00000000000E+00  0.45593999997E+02  0.45594000000E+02  0.51100000000E-03 0.  1.
         11   -1    0    0    0    0 -0.00000000000E+00 -0.00000000000E+00 -0.45593999997E+02  0.45594000000E+02  0.51100000000E-03 0. -1.
    9900012    2    1    2    0    0 -0.16798649465E+02 -0.82144711634E+01  0.10030021089E+01  0.72461596886E+02  0.70000034641E+02 0.  0.
        -12    1    1    2    0    0  0.16798649465E+02  0.82144711634E+01 -0.10030021089E+01  0.18726403114E+02  0.00000000000E+00 0.  1.
         11    1    3    3    0    0 -0.39464779739E+01 -0.12776077179E+02  0.42850424247E+01  0.14041525036E+02  0.51100000000E-03 0. -1.
        -11    1    3    3    0    0  0.13087679947E+02 -0.72664920319E+01  0.17582231541E+02  0.23091646522E+02  0.51100000000E-03 0.  1.
        -12    1    3    3    0    0 -0.25939851439E+02  0.11828098047E+02 -0.20864271857E+02  0.35328425329E+02  0.00000000000E+00 0.  1.
</event>
<event>
 7    1  0.2710146E-013  0.7246160E+02  0.7816164E-02  0.1226708E+00
        -11   -1    0    0    0    0  0.00000000000E+00  0.00000000000E+00  0.45593999997E+02  0.45594000000E+02  0.51100000000E-03 0.  1.
         11   -1    0    0    0    0 -0.00000000000E+00 -0.00000000000E+00 -0.45593999997E+02  0.45594000000E+02  0.51100000000E-03 0. -1.
    9900012    2    1    2    0    0  0.11621872926E+01 -0.12221464187E+01 -0.18650299310E+02  0.72461601908E+02  0.70000041182E+02 0.  0.
        -12    1    1    2    0    0 -0.11621872926E+01  0.12221464187E+01  0.18650299310E+02  0.18726398092E+02  0.00000000000E+00 0.  1.
         11    1    3    3    0    0 -0.14105654684E+02 -0.10230805704E+01 -0.13638617792E+02  0.19647597396E+02  0.51100000000E-03 0. -1.
        -11    1    3    3    0    0 -0.25554714489E+01 -0.28637650958E+01 -0.25350710037E+02  0.25639619429E+02  0.51100000000E-03 0.  1.
        -12    1    3    3    0    0  0.17823313425E+02  0.26646992476E+01  0.20339028518E+02  0.27174385082E+02  0.00000000000E+00 0.  1.
</event>
<event>
 7    1  0.2710146E-013  0.7246156E+02  0.7816164E-02  0.1226708E+00
        -11   -1    0    0    0    0  0.00000000000E+00  0.00000000000E+00  0.45593999997E+02  0.45594000000E+02  0.51100000000E-03 0.  1.
         11   -1    0    0    0    0 -0.00000000000E+00 -0.00000000000E+00 -0.45593999997E+02  0.45594000000E+02  0.51100000000E-03 0. -1.
    9900012    2    1    2    0    0 -0.11419373841E+02  0.93521705238E+01 -0.11524504673E+02  0.72461564130E+02  0.69999991970E+02 0.  0.
        -12    1    1    2    0    0  0.11419373841E+02 -0.93521705238E+01  0.11524504673E+02  0.18726435870E+02  0.00000000000E+00 0.  1.
         11    1    3    3    0    0 -0.20853928450E+01  0.87675464725E+00 -0.19289535908E+02  0.19421734161E+02  0.51100000000E-03 0. -1.
        -11    1    3    3    0    0  0.18741026057E+02  0.14358185652E+02  0.13562154193E+01  0.23647893636E+02  0.51100000000E-03 0.  1.
         12    1    3    3    0    0 -0.28075007053E+02 -0.58827697754E+01  0.64088158158E+01  0.29391936333E+02  0.00000000000E+00 0. -1.
</event>
<event>
 7    1  0.2710146E-013  0.7246148E+02  0.7816164E-02  0.1226708E+00
        -11   -1    0    0    0    0  0.00000000000E+00  0.00000000000E+00  0.45593999997E+02  0.45594000000E+02  0.51100000000E-03 0.  1.
         11   -1    0    0    0    0 -0.00000000000E+00 -0.00000000000E+00 -0.45593999997E+02  0.45594000000E+02  0.51100000000E-03 0. -1.
    9900012    2    1    2    0    0 -0.10816722084E+02  0.13642748042E+02 -0.68961175082E+01  0.72461481705E+02  0.69999884596E+02 0.  0.
        -12    1    1    2    0    0  0.10816722084E+02 -0.13642748042E+02  0.68961175082E+01  0.18726518295E+02  0.00000000000E+00 0.  1.
         11    1    3    3    0    0 -0.30940876991E+02  0.10991613312E+02 -0.69131107429E+01  0.33555096969E+02  0.51100000000E-03 0. -1.
        -11    1    3    3    0    0  0.18423309307E+02  0.13649521287E+02 -0.89506633484E+01  0.24613860563E+02  0.51100000000E-03 0.  1.
        -12    1    3    3    0    0  0.17008455999E+01 -0.10998386558E+02  0.89676565830E+01  0.14292524172E+02  0.00000000000E+00 0.  1.
</event>
<event>
 7    1  0.2710146E-013  0.7246162E+02  0.7816164E-02  0.1226708E+00
        -11   -1    0    0    0    0  0.00000000000E+00  0.00000000000E+00  0.45593999997E+02  0.45594000000E+02  0.51100000000E-03 0. -1.
         11   -1    0    0    0    0 -0.00000000000E+00 -0.00000000000E+00 -0.45593999997E+02  0.45594000000E+02  0.51100000000E-03 0.  1.
    9900012    2    1    2    0    0 -0.30681129406E+01 -0.10247272211E+02 -0.15370664261E+02  0.72461622224E+02  0.70000067648E+02 0.  0.
        -12    1    1    2    0    0  0.30681129406E+01  0.10247272211E+02  0.15370664261E+02  0.18726377776E+02  0.00000000000E+00 0.  1.
         11    1    3    3    0    0  0.27805701621E+02 -0.97742387511E+01 -0.12761927458E+02  0.32117901216E+02  0.51100000000E-03 0.  1.
        -11    1    3    3    0    0  0.47788149223E+00  0.30011764996E+01  0.67821611673E+01  0.74319002592E+01  0.51100000000E-03 0. -1.
        -12    1    3    3    0    0 -0.31351696054E+02 -0.34742099599E+01 -0.93908979711E+01  0.32911820749E+02  0.00000000000E+00 0.  1.
</event>
<event>
 7    1  0.2710146E-013  0.7246150E+02  0.7816164E-02  0.1226708E+00
        -11   -1    0    0    0    0  0.00000000000E+00  0.00000000000E+00  0.45593999997E+02  0.45594000000E+02  0.51100000000E-03 0.  1.
         11   -1    0    0    0    0 -0.00000000000E+00 -0.00000000000E+00 -0.45593999997E+02  0.45594000000E+02  0.51100000000E-03 0. -1.
    9900012    2    1    2    0    0  0.16803712635E+02 -0.82629107154E+01 -0.20334680858E+00  0.72461500013E+02  0.69999908446E+02 0.  0.
        -12    1    1    2    0    0 -0.16803712635E+02  0.82629107154E+01  0.20334680858E+00  0.18726499987E+02  0.00000000000E+00 0.  1.
         11    1    3    3    0    0  0.94083996401E+01  0.66264682100E+01  0.90673322078E+01  0.14650753508E+02  0.51100000000E-03 0. -1.
        -11    1    3    3    0    0  0.15061573052E+02 -0.12120795122E+02  0.19767720547E+02  0.27650089206E+02  0.51100000000E-03 0.  1.
         12    1    3    3    0    0 -0.76662600564E+01 -0.27685838036E+01 -0.29038399564E+02  0.30160657300E+02  0.00000000000E+00 0. -1.
</event>
<event>
 7    1  0.2710146E-013  0.7246118E+02  0.7816164E-02  0.1226709E+00
        -11   -1    0    0    0    0  0.00000000000E+00  0.00000000000E+00  0.45593999997E+02  0.45594000000E+02  0.51100000000E-03 0.  1.
         11   -1    0    0    0    0 -0.00000000000E+00 -0.00000000000E+00 -0.45593999997E+02  0.45594000000E+02  0.51100000000E-03 0. -1.
    9900012    2    1    2    0    0 -0.17705014932E+02  0.15589681190E+00  0.60993405796E+01  0.72461179313E+02  0.69999490672E+02 0.  0.
        -12    1    1    2    0    0  0.17705014932E+02 -0.15589681190E+00 -0.60993405796E+01  0.18726820687E+02  0.00000000000E+00 0.  1.
         11    1    3    3    0    0 -0.10940909484E+02 -0.74017696637E+01  0.21459058056E+02  0.25198826707E+02  0.51100000000E-03 0. -1.
        -11    1    3    3    0    0  0.85410815699E+01 -0.15080454679E+02 -0.49989924317E+01  0.18037741359E+02  0.51100000000E-03 0.  1.
         12    1    3    3    0    0 -0.15305187017E+02  0.22638121155E+02 -0.10360725045E+02  0.29224611247E+02  0.00000000000E+00 0. -1.
</event>
<event>
 7    1  0.2710146E-013  0.7246159E+02  0.7816164E-02  0.1226708E+00
        -11   -1    0    0    0    0  0.00000000000E+00  0.00000000000E+00  0.45593999997E+02  0.45594000000E+02  0.51100000000E-03 0.  1.
         11   -1    0    0    0    0 -0.00000000000E+00 -0.00000000000E+00 -0.45593999997E+02  0.45594000000E+02  0.51100000000E-03 0. -1.
    9900012    2    1    2    0    0  0.19032977843E+00 -0.41367148797E+01 -0.18262794087E+02  0.72461593957E+02  0.70000030825E+02 0.  0.
        -12    1    1    2    0    0 -0.19032977843E+00  0.41367148797E+01  0.18262794087E+02  0.18726406043E+02  0.00000000000E+00 0.  1.
         11    1    3    3    0    0 -0.12469824879E+02  0.75731351697E+01  0.10731119241E+02  0.18110931209E+02  0.51100000000E-03 0. -1.
        -11    1    3    3    0    0 -0.10371503695E+02 -0.19916218659E+00  0.51541801669E+01  0.11583321109E+02  0.51100000000E-03 0.  1.
         12    1    3    3    0    0  0.23031658352E+02 -0.11510687863E+02 -0.34148093495E+02  0.42767341639E+02  0.00000000000E+00 0. -1.
</event>
<event>
 7    1  0.2710146E-013  0.7246156E+02  0.7816164E-02  0.1226708E+00
        -11   -1    0    0    0    0  0.00000000000E+00  0.00000000000E+00  0.45593999997E+02  0.45594000000E+02  0.51100000000E-03 0.  1.
         11   -1    0    0    0    0 -0.00000000000E+00 -0.00000000000E+00 -0.45593999997E+02  0.45594000000E+02  0.51100000000E-03 0. -1.
    9900012    2    1    2    0    0 -0.49758310451E+01  0.13640919123E+02 -0.11825647631E+02  0.72461561177E+02  0.69999988122E+02 0.  0.
        -12    1    1    2    0    0  0.49758310451E+01 -0.13640919123E+02  0.11825647631E+02  0.18726438823E+02  0.00000000000E+00 0.  1.
         11    1    3    3    0    0 -0.55261365215E+01  0.33132446645E+02  0.52479677829E+01  0.33997623029E+02  0.51100000000E-03 0. -1.
        -11    1    3    3    0    0 -0.14317917150E+01 -0.13306873623E+01  0.75525379237E+01  0.78013835774E+01  0.51100000000E-03 0.  1.
        -12    1    3    3    0    0  0.19820971914E+01 -0.18160840159E+02 -0.24626153337E+02  0.30662554570E+02  0.00000000000E+00 0.  1.
</event>
<event>
 7    1  0.2710146E-013  0.7246164E+02  0.7816164E-02  0.1226708E+00
        -11   -1    0    0    0    0  0.00000000000E+00  0.00000000000E+00  0.45593999997E+02  0.45594000000E+02  0.51100000000E-03 0.  1.
         11   -1    0    0    0    0 -0.00000000000E+00 -0.00000000000E+00 -0.45593999997E+02  0.45594000000E+02  0.51100000000E-03 0. -1.
    9900012    2    1    2    0    0  0.17759864509E+02 -0.49309852385E+01  0.33089512316E+01  0.72461639941E+02  0.70000090728E+02 0.  0.
        -12    1    1    2    0    0 -0.17759864509E+02  0.49309852385E+01 -0.33089512316E+01  0.18726360059E+02  0.00000000000E+00 0.  1.
         11    1    3    3    0    0 -0.63729922789E+01 -0.13121655566E+02 -0.22654571618E+02  0.26944804524E+02  0.51100000000E-03 0. -1.
        -11    1    3    3    0    0  0.18095851765E+01  0.48408879885E+01 -0.50051144702E+01  0.71944399469E+01  0.51100000000E-03 0.  1.
        -12    1    3    3    0    0  0.22323271611E+02  0.33497823386E+01  0.30968637320E+02  0.38322395470E+02  0.00000000000E+00 0.  1.
</event>
<event>
 7    1  0.2710146E-013  0.7246158E+02  0.7816164E-02  0.1226708E+00
        -11   -1    0    0    0    0  0.00000000000E+00  0.00000000000E+00  0.45593999997E+02  0.45594000000E+02  0.51100000000E-03 0. -1.
         11   -1    0    0    0    0 -0.00000000000E+00 -0.00000000000E+00 -0.45593999997E+02  0.45594000000E+02  0.51100000000E-03 0.  1.
    9900012    2    1    2    0    0  0.17579667961E+02 -0.10144526500E-01 -0.64524366002E+01  0.72461581053E+02  0.70000014015E+02 0.  0.
        -12    1    1    2    0    0 -0.17579667961E+02  0.10144526500E-01  0.64524366002E+01  0.18726418947E+02  0.00000000000E+00 0.  1.
         11    1    3    3    0    0 -0.18041821390E+01 -0.23657256185E+02 -0.83770775643E+00  0.23740737097E+02  0.51100000000E-03 0. -1.
        -11    1    3    3    0    0 -0.23563593234E+01 -0.80372849091E+01 -0.59835025369E+01  0.10293331863E+02  0.51100000000E-03 0.  1.
        -12    1    3    3    0    0  0.21740209423E+02  0.31684396567E+02  0.36877369318E+00  0.38427512092E+02  0.00000000000E+00 0.  1.
</event>
<event>
 7    1  0.2710146E-013  0.7246157E+02  0.7816164E-02  0.1226708E+00
        -11   -1    0    0    0    0  0.00000000000E+00  0.00000000000E+00  0.45593999997E+02  0.45594000000E+02  0.51100000000E-03 0. -1.
         11   -1    0    0    0    0 -0.00000000000E+00 -0.00000000000E+00 -0.45593999997E+02  0.45594000000E+02  0.51100000000E-03 0.  1.
    9900012    2    1    2    0    0 -0.31801642115E+01 -0.15481581061E+02 -0.10044228648E+02  0.72461566124E+02  0.69999994568E+02 0.  0.
        -12    1    1    2    0    0  0.31801642115E+01  0.15481581061E+02  0.10044228648E+02  0.18726433876E+02  0.00000000000E+00 0.  1.
         11    1    3    3    0    0  0.15617762344E+02  0.80526870191E+01  0.13427754690E+02  0.22114810991E+02  0.51100000000E-03 0. -1.
        -11    1    3    3    0    0 -0.33046053140E-01  0.73441892064E+01 -0.15964303725E+00  0.73459984550E+01  0.51100000000E-03 0.  1.
        -12    1    3    3    0    0 -0.18764880503E+02 -0.30878457287E+02 -0.23312340300E+02  0.43000756679E+02  0.00000000000E+00 0.  1.
</event>
<event>
 7    1  0.2733599E-013  0.7246154E+02  0.7816164E-02  0.1226708E+00
        -11   -1    0    0    0    0  0.00000000000E+00  0.00000000000E+00  0.45593999997E+02  0.45594000000E+02  0.51100000000E-03 0. -1.
         11   -1    0    0    0    0 -0.00000000000E+00 -0.00000000000E+00 -0.45593999997E+02  0.45594000000E+02  0.51100000000E-03 0.  1.
    9900012    2    1    2    0    0 -0.13020735143E+02 -0.41441030336E+01  0.12804969193E+02  0.72461538251E+02  0.69999958257E+02 0.  0.
        -12    1    1    2    0    0  0.13020735143E+02  0.41441030336E+01 -0.12804969193E+02  0.18726461749E+02  0.00000000000E+00 0.  1.
         11    1    3    3    0    0 -0.77731177188E+01 -0.86928360123E+01  0.73841369385E+01  0.13802616984E+02  0.51100000000E-03 0. -1.
        -11    1    3    3    0    0 -0.34510758804E+01 -0.16832000248E+02 -0.19356690573E+02  0.25882573815E+02  0.51100000000E-03 0.  1.
         12    1    3    3    0    0 -0.17965415438E+01  0.21380733227E+02  0.24777522828E+02  0.32776347452E+02  0.00000000000E+00 0. -1.
</event>
<event>
 7    1  0.2710146E-013  0.7246194E+02  0.7816164E-02  0.1226707E+00
        -11   -1    0    0    0    0  0.00000000000E+00  0.00000000000E+00  0.45593999997E+02  0.45594000000E+02  0.51100000000E-03 0. -1.
         11   -1    0    0    0    0 -0.00000000000E+00 -0.00000000000E+00 -0.45593999997E+02  0.45594000000E+02  0.51100000000E-03 0.  1.
    9900012    2    1    2    0    0 -0.33590562897E+01 -0.14192989322E+02  0.11744841424E+02  0.72461935141E+02  0.70000475279E+02 0.  0.
        -12    1    1    2    0    0  0.33590562897E+01  0.14192989322E+02 -0.11744841424E+02  0.18726064859E+02  0.00000000000E+00 0.  1.
         11    1    3    3    0    0 -0.11481950110E+02 -0.25498736062E+01  0.21396027137E+02  0.24415712384E+02  0.51100000000E-03 0. -1.
        -11    1    3    3    0    0 -0.81774319793E+00 -0.16173495669E+02  0.14600949542E+02  0.21804549844E+02  0.51100000000E-03 0.  1.
        -12    1    3    3    0    0  0.89406370178E+01  0.45303799536E+01 -0.24252135255E+02  0.26241672913E+02  0.00000000000E+00 0.  1.
</event>
<event>
 7    1  0.2710146E-013  0.7246156E+02  0.7816164E-02  0.1226708E+00
        -11   -1    0    0    0    0  0.00000000000E+00  0.00000000000E+00  0.45593999997E+02  0.45594000000E+02  0.51100000000E-03 0. -1.
         11   -1    0    0    0    0 -0.00000000000E+00 -0.00000000000E+00 -0.45593999997E+02  0.45594000000E+02  0.51100000000E-03 0.  1.
    9900012    2    1    2    0    0 -0.13334809477E+02 -0.11567225587E+02 -0.62499237451E+01  0.72461564183E+02  0.69999992039E+02 0.  0.
        -12    1    1    2    0    0  0.13334809477E+02  0.11567225587E+02  0.62499237451E+01  0.18726435817E+02  0.00000000000E+00 0.  1.
         11    1    3    3    0    0 -0.14625511347E+02 -0.12957395044E+02 -0.13820232555E+02  0.23933209075E+02  0.51100000000E-03 0. -1.
        -11    1    3    3    0    0 -0.12281652231E+02  0.18871252599E+02 -0.50167618927E+01  0.23067966020E+02  0.51100000000E-03 0.  1.
        -12    1    3    3    0    0  0.13572354100E+02 -0.17481083142E+02  0.12587070703E+02  0.25460389088E+02  0.00000000000E+00 0.  1.
</event>
<event>
 7    1  0.2710146E-013  0.7246161E+02  0.7816164E-02  0.1226708E+00
        -11   -1    0    0    0    0  0.00000000000E+00  0.00000000000E+00  0.45593999997E+02  0.45594000000E+02  0.51100000000E-03 0.  1.
         11   -1    0    0    0    0 -0.00000000000E+00 -0.00000000000E+00 -0.45593999997E+02  0.45594000000E+02  0.51100000000E-03 0. -1.
    9900012    2    1    2    0    0 -0.17015281354E+02 -0.32282352117E+01 -0.71229392262E+01  0.72461613126E+02  0.70000055796E+02 0.  0.
        -12    1    1    2    0    0  0.17015281354E+02  0.32282352117E+01  0.71229392262E+01  0.18726386874E+02  0.00000000000E+00 0.  1.
         11    1    3    3    0    0  0.11838987473E+01  0.59451683798E+01 -0.36131123345E+01  0.70569982507E+01  0.51100000000E-03 0. -1.
        -11    1    3    3    0    0  0.17856865061E+02 -0.36258418177E+01  0.15810154651E+02  0.24124165251E+02  0.51100000000E-03 0.  1.
         12    1    3    3    0    0 -0.36056045162E+02 -0.55475617739E+01 -0.19319981543E+02  0.41280449624E+02  0.00000000000E+00 0. -1.
</event>
<event>
 7    1  0.2710146E-013  0.7246155E+02  0.7816164E-02  0.1226708E+00
        -11   -1    0    0    0    0  0.00000000000E+00  0.00000000000E+00  0.45593999997E+02  0.45594000000E+02  0.51100000000E-03 0.  1.
         11   -1    0    0    0    0 -0.00000000000E+00 -0.00000000000E+00 -0.45593999997E+02  0.45594000000E+02  0.51100000000E-03 0. -1.
    9900012    2    1    2    0    0 -0.26867990576E+01  0.16688457946E+02  0.80595487882E+01  0.72461552273E+02  0.69999976524E+02 0.  0.
        -12    1    1    2    0    0  0.26867990576E+01 -0.16688457946E+02 -0.80595487882E+01  0.18726447727E+02  0.00000000000E+00 0.  1.
         11    1    3    3    0    0 -0.18594137402E+02 -0.53388234925E+01 -0.18242094722E+02  0.26589828922E+02  0.51100000000E-03 0. -1.
        -11    1    3    3    0    0  0.15161806478E+02  0.24234283428E+00  0.67808327671E+01  0.16610803683E+02  0.51100000000E-03 0.  1.
        -12    1    3    3    0    0  0.74553186664E+00  0.21784938605E+02  0.19520810743E+02  0.29260919668E+02  0.00000000000E+00 0.  1.
</event>
<event>
 7    1  0.2710146E-013  0.7246162E+02  0.7816164E-02  0.1226708E+00
        -11   -1    0    0    0    0  0.00000000000E+00  0.00000000000E+00  0.45593999997E+02  0.45594000000E+02  0.51100000000E-03 0.  1.
         11   -1    0    0    0    0 -0.00000000000E+00 -0.00000000000E+00 -0.45593999997E+02  0.45594000000E+02  0.51100000000E-03 0. -1.
    9900012    2    1    2    0    0  0.11603930937E+02 -0.11901230830E+02  0.86247677710E+01  0.72461624815E+02  0.70000071024E+02 0.  0.
        -12    1    1    2    0    0 -0.11603930937E+02  0.11901230830E+02 -0.86247677710E+01  0.18726375185E+02  0.00000000000E+00 0.  1.
         11    1    3    3    0    0 -0.18039384224E+01 -0.30848149550E+01  0.11386264363E+01  0.37505662987E+01  0.51100000000E-03 0. -1.
        -11    1    3    3    0    0  0.29956727021E+02 -0.29311553942E+02  0.33383006824E+01  0.42044226001E+02  0.51100000000E-03 0.  1.
         12    1    3    3    0    0 -0.16548857662E+02  0.20495138068E+02  0.41478406523E+01  0.26666832515E+02  0.00000000000E+00 0. -1.
</event>
<event>
 7    1  0.2710146E-013  0.7246156E+02  0.7816164E-02  0.1226708E+00
        -11   -1    0    0    0    0  0.00000000000E+00  0.00000000000E+00  0.45593999997E+02  0.45594000000E+02  0.51100000000E-03 0. -1.
         11   -1    0    0    0    0 -0.00000000000E+00 -0.00000000000E+00 -0.45593999997E+02  0.45594000000E+02  0.51100000000E-03 0.  1.
    9900012    2    1    2    0    0 -0.16755985971E+02  0.71532924564E+01  0.43297686093E+01  0.72461560001E+02  0.69999986591E+02 0.  0.
        -12    1    1    2    0    0  0.16755985971E+02 -0.71532924564E+01 -0.43297686093E+01  0.18726439999E+02  0.00000000000E+00 0.  1.
         11    1    3    3    0    0  0.21821928070E+01 -0.22006788188E+01 -0.12323792763E+02  0.12707510418E+02  0.51100000000E-03 0. -1.
        -11    1    3    3    0    0  0.13601467813E+02 -0.10991490681E+02 -0.99082413845E+00  0.17515550999E+02  0.51100000000E-03 0.  1.
         12    1    3    3    0    0 -0.32539646591E+02  0.20345461957E+02  0.17644385511E+02  0.42238498583E+02  0.00000000000E+00 0. -1.
</event>
<event>
 7    1  0.2710146E-013  0.7246157E+02  0.7816164E-02  0.1226708E+00
        -11   -1    0    0    0    0  0.00000000000E+00  0.00000000000E+00  0.45593999997E+02  0.45594000000E+02  0.51100000000E-03 0. -1.
         11   -1    0    0    0    0 -0.00000000000E+00 -0.00000000000E+00 -0.45593999997E+02  0.45594000000E+02  0.51100000000E-03 0.  1.
    9900012    2    1    2    0    0 -0.14689330385E+02 -0.58095689241E+01  0.10057422269E+02  0.72461567854E+02  0.69999996820E+02 0.  0.
        -12    1    1    2    0    0  0.14689330385E+02  0.58095689241E+01 -0.10057422269E+02  0.18726432146E+02  0.00000000000E+00 0.  1.
         11    1    3    3    0    0  0.12943135475E+02  0.17179240676E+01 -0.10072736066E+01  0.13095442696E+02  0.51100000000E-03 0.  1.
        -11    1    3    3    0    0 -0.39485586388E+02  0.32228952142E+01  0.15840766635E+02  0.42666479511E+02  0.51100000000E-03 0. -1.
         12    1    3    3    0    0  0.11853120528E+02 -0.10750388206E+02 -0.47760707597E+01  0.16699645647E+02  0.00000000000E+00 0. -1.
</event>
<event>
 7    1  0.2710146E-013  0.7246156E+02  0.7816164E-02  0.1226708E+00
        -11   -1    0    0    0    0  0.00000000000E+00  0.00000000000E+00  0.45593999997E+02  0.45594000000E+02  0.51100000000E-03 0.  1.
         11   -1    0    0    0    0 -0.00000000000E+00 -0.00000000000E+00 -0.45593999997E+02  0.45594000000E+02  0.51100000000E-03 0. -1.
    9900012    2    1    2    0    0 -0.97532302594E+01  0.14713708332E+02 -0.62498735914E+01  0.72461557912E+02  0.69999983870E+02 0.  0.
        -12    1    1    2    0    0  0.97532302594E+01 -0.14713708332E+02  0.62498735914E+01  0.18726442088E+02  0.00000000000E+00 0.  1.
         11    1    3    3    0    0 -0.25441215974E+02  0.91736248580E+01 -0.14843086230E+02  0.30850090313E+02  0.51100000000E-03 0. -1.
        -11    1    3    3    0    0  0.13556384662E+02 -0.35964017572E+01 -0.12334194323E+02  0.18677312991E+02  0.51100000000E-03 0.  1.
        -12    1    3    3    0    0  0.21316010521E+01  0.91364852310E+01  0.20927406961E+02  0.22934154607E+02  0.00000000000E+00 0.  1.
</event>
<event>
 7    1  0.2710146E-013  0.7246159E+02  0.7816164E-02  0.1226708E+00
        -11   -1    0    0    0    0  0.00000000000E+00  0.00000000000E+00  0.45593999997E+02  0.45594000000E+02  0.51100000000E-03 0. -1.
         11   -1    0    0    0    0 -0.00000000000E+00 -0.00000000000E+00 -0.45593999997E+02  0.45594000000E+02  0.51100000000E-03 0.  1.
    9900012    2    1    2    0    0  0.97455544967E+01  0.14686280252E+02  0.63257910798E+01  0.72461593701E+02  0.70000030491E+02 0.  0.
        -12    1    1    2    0    0 -0.97455544967E+01 -0.14686280252E+02 -0.63257910798E+01  0.18726406299E+02  0.00000000000E+00 0.  1.
         11    1    3    3    0    0  0.15501472355E+02 -0.78885074386E+01 -0.92211788267E+01  0.19686399722E+02  0.51100000000E-03 0. -1.
        -11    1    3    3    0    0 -0.16860147970E+01 -0.11727190355E+02  0.13800414408E+02  0.18188487502E+02  0.51100000000E-03 0.  1.
        -12    1    3    3    0    0 -0.40699030615E+01  0.34301978046E+02  0.17465554982E+01  0.34586706477E+02  0.00000000000E+00 0.  1.
</event>
<event>
 7    1  0.2710146E-013  0.7246163E+02  0.7816164E-02  0.1226708E+00
        -11   -1    0    0    0    0  0.00000000000E+00  0.00000000000E+00  0.45593999997E+02  0.45594000000E+02  0.51100000000E-03 0. -1.
         11   -1    0    0    0    0 -0.00000000000E+00 -0.00000000000E+00 -0.45593999997E+02  0.45594000000E+02  0.51100000000E-03 0.  1.
    9900012    2    1    2    0    0  0.14053922341E+02 -0.12167747283E+02 -0.22605726879E+01  0.72461628328E+02  0.70000075600E+02 0.  0.
        -12    1    1    2    0    0 -0.14053922341E+02  0.12167747283E+02  0.22605726879E+01  0.18726371672E+02  0.00000000000E+00 0.  1.
         11    1    3    3    0    0  0.12256437444E+02  0.27992746181E+01  0.23897156335E+02  0.27002412454E+02  0.51100000000E-03 0. -1.
        -11    1    3    3    0    0  0.85359385580E+01 -0.15726958450E+02  0.55148328589E+00  0.17902614425E+02  0.51100000000E-03 0.  1.
        -12    1    3    3    0    0 -0.67384536606E+01  0.75993654906E+00 -0.26709212309E+02  0.27556601449E+02  0.00000000000E+00 0.  1.
</event>
<event>
 7    1  0.2710146E-013  0.7246159E+02  0.7816164E-02  0.1226708E+00
        -11   -1    0    0    0    0  0.00000000000E+00  0.00000000000E+00  0.45593999997E+02  0.45594000000E+02  0.51100000000E-03 0.  1.
         11   -1    0    0    0    0 -0.00000000000E+00 -0.00000000000E+00 -0.45593999997E+02  0.45594000000E+02  0.51100000000E-03 0. -1.
    9900012    2    1    2    0    0  0.59113989192E+01 -0.12133065763E+02 -0.12981622579E+02  0.72461589592E+02  0.70000025139E+02 0.  0.
        -12    1    1    2    0    0 -0.59113989192E+01  0.12133065763E+02  0.12981622579E+02  0.18726410408E+02  0.00000000000E+00 0.  1.
         11    1    3    3    0    0 -0.30820591609E+01  0.19525832527E+02  0.12854979900E+02  0.23579816221E+02  0.51100000000E-03 0. -1.
        -11    1    3    3    0    0 -0.79590892537E+01 -0.67313891706E+01 -0.23980374501E+01  0.10696227643E+02  0.51100000000E-03 0.  1.
         12    1    3    3    0    0  0.16952547334E+02 -0.24927509119E+02 -0.23438565029E+02  0.38185545728E+02  0.00000000000E+00 0. -1.
</event>
<event>
 7    1  0.2710146E-013  0.7246124E+02  0.7816164E-02  0.1226709E+00
        -11   -1    0    0    0    0  0.00000000000E+00  0.00000000000E+00  0.45593999997E+02  0.45594000000E+02  0.51100000000E-03 0.  1.
         11   -1    0    0    0    0 -0.00000000000E+00 -0.00000000000E+00 -0.45593999997E+02  0.45594000000E+02  0.51100000000E-03 0. -1.
    9900012    2    1    2    0    0  0.15923921060E+02 -0.61761898128E+01 -0.76795139734E+01  0.72461240606E+02  0.69999570519E+02 0.  0.
        -12    1    1    2    0    0 -0.15923921060E+02  0.61761898128E+01  0.76795139734E+01  0.18726759394E+02  0.00000000000E+00 0.  1.
         11    1    3    3    0    0  0.82677089146E+01  0.24652896985E+01 -0.45175972342E+01  0.97386523208E+01  0.51100000000E-03 0. -1.
        -11    1    3    3    0    0  0.33024396184E+02 -0.15003845823E+02 -0.44036247883E+01  0.36539267156E+02  0.51100000000E-03 0.  1.
         12    1    3    3    0    0 -0.25368184038E+02  0.63623663114E+01  0.12417080490E+01  0.26183321129E+02  0.00000000000E+00 0. -1.
</event>
<event>
 7    1  0.2710146E-013  0.7246137E+02  0.7816164E-02  0.1226709E+00
        -11   -1    0    0    0    0  0.00000000000E+00  0.00000000000E+00  0.45593999997E+02  0.45594000000E+02  0.51100000000E-03 0.  1.
         11   -1    0    0    0    0 -0.00000000000E+00 -0.00000000000E+00 -0.45593999997E+02  0.45594000000E+02  0.51100000000E-03 0. -1.
    9900012    2    1    2    0    0 -0.38943014612E+01 -0.11910109354E+02 -0.13916548434E+02  0.72461371660E+02  0.69999741241E+02 0.  0.
        -12    1    1    2    0    0  0.38943014612E+01  0.11910109354E+02  0.13916548434E+02  0.18726628340E+02  0.00000000000E+00 0.  1.
         11    1    3    3    0    0  0.15072979658E+02 -0.73548083224E+01 -0.70444244760E+01  0.18190982318E+02  0.51100000000E-03 0. -1.
        -11    1    3    3    0    0  0.20597810656E+01  0.18311194000E+02  0.76838300077E+01  0.19964562795E+02  0.51100000000E-03 0.  1.
         12    1    3    3    0    0 -0.21027062185E+02 -0.22866495032E+02 -0.14555953965E+02  0.34305826546E+02  0.00000000000E+00 0. -1.
</event>
<event>
 7    1  0.2710146E-013  0.7246152E+02  0.7816164E-02  0.1226708E+00
        -11   -1    0    0    0    0  0.00000000000E+00  0.00000000000E+00  0.45593999997E+02  0.45594000000E+02  0.51100000000E-03 0.  1.
         11   -1    0    0    0    0 -0.00000000000E+00 -0.00000000000E+00 -0.45593999997E+02  0.45594000000E+02  0.51100000000E-03 0. -1.
    9900012    2    1    2    0    0 -0.20335039228E+01  0.82501234898E+01 -0.16687764908E+02  0.72461516790E+02  0.69999930301E+02 0.  0.
        -12    1    1    2    0    0  0.20335039228E+01 -0.82501234898E+01  0.16687764908E+02  0.18726483210E+02  0.00000000000E+00 0.  1.
         11    1    3    3    0    0  0.66144178415E+01  0.16769756709E+02 -0.75791054534E-01  0.18027229627E+02  0.51100000000E-03 0. -1.
        -11    1    3    3    0    0  0.30443644669E+01 -0.16197103993E+02  0.13453257954E+02  0.21274503110E+02  0.51100000000E-03 0.  1.
         12    1    3    3    0    0 -0.11692286231E+02  0.76774707730E+01 -0.30065231807E+02  0.33159784053E+02  0.00000000000E+00 0. -1.
</event>
<event>
 7    1  0.2710146E-013  0.7246145E+02  0.7816164E-02  0.1226708E+00
        -11   -1    0    0    0    0  0.00000000000E+00  0.00000000000E+00  0.45593999997E+02  0.45594000000E+02  0.51100000000E-03 0. -1.
         11   -1    0    0    0    0 -0.00000000000E+00 -0.00000000000E+00 -0.45593999997E+02  0.45594000000E+02  0.51100000000E-03 0.  1.
    9900012    2    1    2    0    0  0.17781058271E+02  0.34332676864E+01  0.47676344400E+01  0.72461449373E+02  0.69999842477E+02 0.  0.
        -12    1    1    2    0    0 -0.17781058271E+02 -0.34332676864E+01 -0.47676344400E+01  0.18726550627E+02  0.00000000000E+00 0.  1.
         11    1    3    3    0    0  0.38638597477E+01 -0.10669985905E+02 -0.15270221961E+01  0.11450319140E+02  0.51100000000E-03 0. -1.
        -11    1    3    3    0    0 -0.17398303051E+02 -0.10886978592E+02  0.50221532131E+00  0.20529965231E+02  0.51100000000E-03 0.  1.
        -12    1    3    3    0    0  0.31315501574E+02  0.24990232184E+02  0.57924413148E+01  0.40481165001E+02  0.00000000000E+00 0.  1.
</event>
<event>
 7    1  0.2710146E-013  0.7246163E+02  0.7816164E-02  0.1226708E+00
        -11   -1    0    0    0    0  0.00000000000E+00  0.00000000000E+00  0.45593999997E+02  0.45594000000E+02  0.51100000000E-03 0. -1.
         11   -1    0    0    0    0 -0.00000000000E+00 -0.00000000000E+00 -0.45593999997E+02  0.45594000000E+02  0.51100000000E-03 0.  1.
    9900012    2    1    2    0    0 -0.69759608004E+01 -0.77733245542E+00  0.17361125479E+02  0.72461629483E+02  0.70000077104E+02 0.  0.
        -12    1    1    2    0    0  0.69759608004E+01  0.77733245542E+00 -0.17361125479E+02  0.18726370517E+02  0.00000000000E+00 0.  1.
         11    1    3    3    0    0 -0.73933183308E+00 -0.42010512217E+00 -0.19780704778E+01  0.21531054199E+01  0.51100000000E-03 0. -1.
        -11    1    3    3    0    0  0.14790249516E+02 -0.28710908400E+02  0.91297471427E+01  0.33562181471E+02  0.51100000000E-03 0.  1.
         12    1    3    3    0    0 -0.21026878484E+02  0.28353681067E+02  0.10209448815E+02  0.36746342592E+02  0.00000000000E+00 0. -1.
</event>
<event>
 7    1  0.2710146E-013  0.7246155E+02  0.7816164E-02  0.1226708E+00
        -11   -1    0    0    0    0  0.00000000000E+00  0.00000000000E+00  0.45593999997E+02  0.45594000000E+02  0.51100000000E-03 0.  1.
         11   -1    0    0    0    0 -0.00000000000E+00 -0.00000000000E+00 -0.45593999997E+02  0.45594000000E+02  0.51100000000E-03 0. -1.
    9900012    2    1    2    0    0  0.14085964132E+02  0.56883848982E+01 -0.10950238002E+02  0.72461552911E+02  0.69999977356E+02 0.  0.
        -12    1    1    2    0    0 -0.14085964132E+02 -0.56883848982E+01  0.10950238002E+02  0.18726447089E+02  0.00000000000E+00 0.  1.
         11    1    3    3    0    0 -0.18328483926E+02  0.28013634825E+01 -0.11892835075E+02  0.22027720871E+02  0.51100000000E-03 0. -1.
        -11    1    3    3    0    0 -0.14811838514E-01 -0.77140813764E+01 -0.11729205731E+02  0.14038573226E+02  0.51100000000E-03 0.  1.
        -12    1    3    3    0    0  0.32429259897E+02  0.10601102792E+02  0.12671802805E+02  0.36395258814E+02  0.00000000000E+00 0.  1.
</event>
<event>
 7    1  0.2710146E-013  0.7246159E+02  0.7816164E-02  0.1226708E+00
        -11   -1    0    0    0    0  0.00000000000E+00  0.00000000000E+00  0.45593999997E+02  0.45594000000E+02  0.51100000000E-03 0.  1.
         11   -1    0    0    0    0 -0.00000000000E+00 -0.00000000000E+00 -0.45593999997E+02  0.45594000000E+02  0.51100000000E-03 0. -1.
    9900012    2    1    2    0    0  0.27071544109E+01 -0.56225514759E+01 -0.17656068604E+02  0.72461587406E+02  0.70000022291E+02 0.  0.
        -12    1    1    2    0    0 -0.27071544109E+01  0.56225514759E+01  0.17656068604E+02  0.18726412594E+02  0.00000000000E+00 0.  1.
         11    1    3    3    0    0 -0.60810616949E+01 -0.11548206000E+02  0.12534151375E+01  0.13111499645E+02  0.51100000000E-03 0. -1.
        -11    1    3    3    0    0 -0.23501948044E+02  0.52027614114E+00 -0.73529094879E+01  0.24630824739E+02  0.51100000000E-03 0.  1.
         12    1    3    3    0    0  0.32290164150E+02  0.54053783831E+01 -0.11556574254E+02  0.34719263022E+02  0.00000000000E+00 0. -1.
</event>
<event>
 7    1  0.2710146E-013  0.7246160E+02  0.7816164E-02  0.1226708E+00
        -11   -1    0    0    0    0  0.00000000000E+00  0.00000000000E+00  0.45593999997E+02  0.45594000000E+02  0.51100000000E-03 0.  1.
         11   -1    0    0    0    0 -0.00000000000E+00 -0.00000000000E+00 -0.45593999997E+02  0.45594000000E+02  0.51100000000E-03 0. -1.
    9900012    2    1    2    0    0 -0.14256999278E+02  0.77361720647E+01 -0.93577671397E+01  0.72461596382E+02  0.70000033983E+02 0.  0.
        -12    1    1    2    0    0  0.14256999278E+02 -0.77361720647E+01  0.93577671397E+01  0.18726403618E+02  0.00000000000E+00 0.  1.
         11    1    3    3    0    0 -0.24338817135E+01  0.21436822144E+02  0.17752759005E+02  0.27939605874E+02  0.51100000000E-03 0.  1.
        -11    1    3    3    0    0 -0.11995404729E+02  0.28658396118E+01  0.47679210681E+00  0.12342208160E+02  0.51100000000E-03 0. -1.
         12    1    3    3    0    0  0.17228716435E+00 -0.16566489691E+02 -0.27587318252E+02  0.32179782347E+02  0.00000000000E+00 0. -1.
</event>
<event>
 7    1  0.2710146E-013  0.7246156E+02  0.7816164E-02  0.1226708E+00
        -11   -1    0    0    0    0  0.00000000000E+00  0.00000000000E+00  0.45593999997E+02  0.45594000000E+02  0.51100000000E-03 0.  1.
         11   -1    0    0    0    0 -0.00000000000E+00 -0.00000000000E+00 -0.45593999997E+02  0.45594000000E+02  0.51100000000E-03 0. -1.
    9900012    2    1    2    0    0  0.22413371787E+01  0.18239569347E+02  0.36019607765E+01  0.72461558701E+02  0.69999984897E+02 0.  0.
        -12    1    1    2    0    0 -0.22413371787E+01 -0.18239569347E+02 -0.36019607765E+01  0.18726441299E+02  0.00000000000E+00 0.  1.
         11    1    3    3    0    0 -0.34382778266E+01  0.39435380025E+00  0.54261892356E+01  0.64358992545E+01  0.51100000000E-03 0.  1.
        -11    1    3    3    0    0  0.19232044848E+02  0.21055557988E+02 -0.25697289104E+02  0.38386960530E+02  0.51100000000E-03 0. -1.
         12    1    3    3    0    0 -0.13552429842E+02 -0.32103424412E+01  0.23873060645E+02  0.27638698916E+02  0.00000000000E+00 0. -1.
</event>
<event>
 7    1  0.2710146E-013  0.7246150E+02  0.7816164E-02  0.1226708E+00
        -11   -1    0    0    0    0  0.00000000000E+00  0.00000000000E+00  0.45593999997E+02  0.45594000000E+02  0.51100000000E-03 0. -1.
         11   -1    0    0    0    0 -0.00000000000E+00 -0.00000000000E+00 -0.45593999997E+02  0.45594000000E+02  0.51100000000E-03 0.  1.
    9900012    2    1    2    0    0  0.11028256182E+02 -0.14876386527E+02  0.27843579628E+01  0.72461495795E+02  0.69999902950E+02 0.  0.
        -12    1    1    2    0    0 -0.11028256182E+02  0.14876386527E+02 -0.27843579628E+01  0.18726504205E+02  0.00000000000E+00 0.  1.
         11    1    3    3    0    0 -0.48758823448E+01 -0.34791181222E+00  0.11976525258E+02  0.12935703645E+02  0.51100000000E-03 0. -1.
        -11    1    3    3    0    0  0.12622004813E+02  0.16617209600E+02 -0.17377612959E+02  0.27155627277E+02  0.51100000000E-03 0.  1.
         12    1    3    3    0    0  0.32821337132E+01 -0.31145684315E+02  0.81854456636E+01  0.32370164872E+02  0.00000000000E+00 0. -1.
</event>
<event>
 7    1  0.2710146E-013  0.7246158E+02  0.7816164E-02  0.1226708E+00
        -11   -1    0    0    0    0  0.00000000000E+00  0.00000000000E+00  0.45593999997E+02  0.45594000000E+02  0.51100000000E-03 0. -1.
         11   -1    0    0    0    0 -0.00000000000E+00 -0.00000000000E+00 -0.45593999997E+02  0.45594000000E+02  0.51100000000E-03 0.  1.
    9900012    2    1    2    0    0  0.70255809186E-01  0.14324140981E+02  0.12062038573E+02  0.72461582156E+02  0.70000015452E+02 0.  0.
        -12    1    1    2    0    0 -0.70255809186E-01 -0.14324140981E+02 -0.12062038573E+02  0.18726417844E+02  0.00000000000E+00 0.  1.
         11    1    3    3    0    0  0.84268855220E+01 -0.36593176659E+01  0.28627288001E+02  0.30065339245E+02  0.51100000000E-03 0. -1.
        -11    1    3    3    0    0 -0.10237450628E+01 -0.81927868584E+01 -0.12396662991E+02  0.14894531347E+02  0.51100000000E-03 0.  1.
        -12    1    3    3    0    0 -0.73328846500E+01  0.26176245505E+02 -0.41685864367E+01  0.27501711564E+02  0.00000000000E+00 0.  1.
</event>
<event>
 7    1  0.2710146E-013  0.7246160E+02  0.7816164E-02  0.1226708E+00
        -11   -1    0    0    0    0  0.00000000000E+00  0.00000000000E+00  0.45593999997E+02  0.45594000000E+02  0.51100000000E-03 0.  1.
         11   -1    0    0    0    0 -0.00000000000E+00 -0.00000000000E+00 -0.45593999997E+02  0.45594000000E+02  0.51100000000E-03 0. -1.
    9900012    2    1    2    0    0 -0.17487104530E+02  0.12748671522E+01  0.65767627386E+01  0.72461603678E+02  0.70000043488E+02 0.  0.
        -12    1    1    2    0    0  0.17487104530E+02 -0.12748671522E+01 -0.65767627386E+01  0.18726396322E+02  0.00000000000E+00 0.  1.
         11    1    3    3    0    0  0.28478338302E+00 -0.83090234882E+00  0.12665506397E+02  0.12695926624E+02  0.51100000000E-03 0. -1.
        -11    1    3    3    0    0 -0.12662225028E+02 -0.27007022554E+02 -0.44963360779E+01  0.30165016961E+02  0.51100000000E-03 0.  1.
         12    1    3    3    0    0 -0.51096628850E+01  0.29112792055E+02 -0.15924075805E+01  0.29600660093E+02  0.00000000000E+00 0. -1.
</event>
<event>
 7    1  0.2710146E-013  0.7246161E+02  0.7816164E-02  0.1226708E+00
        -11   -1    0    0    0    0  0.00000000000E+00  0.00000000000E+00  0.45593999997E+02  0.45594000000E+02  0.51100000000E-03 0. -1.
         11   -1    0    0    0    0 -0.00000000000E+00 -0.00000000000E+00 -0.45593999997E+02  0.45594000000E+02  0.51100000000E-03 0.  1.
    9900012    2    1    2    0    0 -0.14295741083E+02 -0.10207798900E+02 -0.64892368661E+01  0.72461613093E+02  0.70000055753E+02 0.  0.
        -12    1    1    2    0    0  0.14295741083E+02  0.10207798900E+02  0.64892368661E+01  0.18726386907E+02  0.00000000000E+00 0.  1.
         11    1    3    3    0    0  0.98618589172E+01  0.57144479262E+01  0.10447063779E+02  0.15461316835E+02  0.51100000000E-03 0. -1.
        -11    1    3    3    0    0 -0.21709440604E+02 -0.25244009623E+02  0.44035279046E+01  0.33584980146E+02  0.51100000000E-03 0.  1.
         12    1    3    3    0    0 -0.24481593962E+01  0.93217627967E+01 -0.21339828550E+02  0.23415316112E+02  0.00000000000E+00 0. -1.
</event>
<event>
 7    1  0.2710146E-013  0.7246157E+02  0.7816164E-02  0.1226708E+00
        -11   -1    0    0    0    0  0.00000000000E+00  0.00000000000E+00  0.45593999997E+02  0.45594000000E+02  0.51100000000E-03 0. -1.
         11   -1    0    0    0    0 -0.00000000000E+00 -0.00000000000E+00 -0.45593999997E+02  0.45594000000E+02  0.51100000000E-03 0.  1.
    9900012    2    1    2    0    0 -0.17207457550E+02  0.63811591588E+01  0.37233569662E+01  0.72461570158E+02  0.69999999822E+02 0.  0.
        -12    1    1    2    0    0  0.17207457550E+02 -0.63811591588E+01 -0.37233569662E+01  0.18726429842E+02  0.00000000000E+00 0.  1.
         11    1    3    3    0    0 -0.24930995216E+02 -0.12838030647E+02 -0.31420443294E+00  0.28044041757E+02  0.51100000000E-03 0. -1.
        -11    1    3    3    0    0  0.14116759982E+02 -0.45893248376E+01 -0.81318423179E+01  0.16925474132E+02  0.51100000000E-03 0.  1.
         12    1    3    3    0    0 -0.63932223150E+01  0.23808514644E+02  0.12169403717E+02  0.27492054269E+02  0.00000000000E+00 0. -1.
</event>
<event>
 7    1  0.2710146E-013  0.7246155E+02  0.7816164E-02  0.1226708E+00
        -11   -1    0    0    0    0  0.00000000000E+00  0.00000000000E+00  0.45593999997E+02  0.45594000000E+02  0.51100000000E-03 0. -1.
         11   -1    0    0    0    0 -0.00000000000E+00 -0.00000000000E+00 -0.45593999997E+02  0.45594000000E+02  0.51100000000E-03 0.  1.
    9900012    2    1    2    0    0  0.17430673589E+02 -0.63000920524E+01  0.26758865248E+01  0.72461550515E+02  0.69999974233E+02 0.  0.
        -12    1    1    2    0    0 -0.17430673589E+02  0.63000920524E+01 -0.26758865248E+01  0.18726449485E+02  0.00000000000E+00 0.  1.
         11    1    3    3    0    0 -0.82006953591E+01  0.13016702679E+01 -0.80932587063E+01  0.11595110461E+02  0.51100000000E-03 0.  1.
        -11    1    3    3    0    0  0.55329824420E+01 -0.29374912992E+02  0.19702837806E+01  0.29956325315E+02  0.51100000000E-03 0. -1.
         12    1    3    3    0    0  0.20098386506E+02  0.21773150671E+02  0.87988614505E+01  0.30910114738E+02  0.00000000000E+00 0. -1.
</event>
<event>
 7    1  0.2710146E-013  0.7246161E+02  0.7816164E-02  0.1226708E+00
        -11   -1    0    0    0    0  0.00000000000E+00  0.00000000000E+00  0.45593999997E+02  0.45594000000E+02  0.51100000000E-03 0. -1.
         11   -1    0    0    0    0 -0.00000000000E+00 -0.00000000000E+00 -0.45593999997E+02  0.45594000000E+02  0.51100000000E-03 0.  1.
    9900012    2    1    2    0    0  0.96539271948E+01  0.14251391408E+02  0.73740920590E+01  0.72461609503E+02  0.70000051077E+02 0.  0.
        -12    1    1    2    0    0 -0.96539271948E+01 -0.14251391408E+02 -0.73740920590E+01  0.18726390497E+02  0.00000000000E+00 0.  1.
         11    1    3    3    0    0  0.30462064753E+02  0.13907244745E+02  0.60153540599E+01  0.34022541500E+02  0.51100000000E-03 0. -1.
        -11    1    3    3    0    0  0.74083535394E+01  0.47300874718E+01  0.42022671926E+01  0.97425088901E+01  0.51100000000E-03 0.  1.
        -12    1    3    3    0    0 -0.28216491098E+02 -0.43859408089E+01 -0.28435291935E+01  0.28696559113E+02  0.00000000000E+00 0.  1.
</event>
<event>
 7    1  0.2710146E-013  0.7246156E+02  0.7816164E-02  0.1226708E+00
        -11   -1    0    0    0    0  0.00000000000E+00  0.00000000000E+00  0.45593999997E+02  0.45594000000E+02  0.51100000000E-03 0.  1.
         11   -1    0    0    0    0 -0.00000000000E+00 -0.00000000000E+00 -0.45593999997E+02  0.45594000000E+02  0.51100000000E-03 0. -1.
    9900012    2    1    2    0    0  0.13752651084E+02  0.15200336900E+00 -0.12709098817E+02  0.72461555874E+02  0.69999981215E+02 0.  0.
        -12    1    1    2    0    0 -0.13752651084E+02 -0.15200336900E+00  0.12709098817E+02  0.18726444126E+02  0.00000000000E+00 0.  1.
         11    1    3    3    0    0  0.36467995407E+02 -0.92813742296E+00 -0.11542550778E+02  0.38262339275E+02  0.51100000000E-03 0. -1.
        -11    1    3    3    0    0 -0.80153265038E+01  0.10426155335E+02  0.70695544691E+01  0.14930799532E+02  0.51100000000E-03 0.  1.
        -12    1    3    3    0    0 -0.14700017819E+02 -0.93460145427E+01 -0.82361025080E+01  0.19268417066E+02  0.00000000000E+00 0.  1.
</event>
<event>
 7    1  0.2710146E-013  0.7246162E+02  0.7816164E-02  0.1226708E+00
        -11   -1    0    0    0    0  0.00000000000E+00  0.00000000000E+00  0.45593999997E+02  0.45594000000E+02  0.51100000000E-03 0.  1.
         11   -1    0    0    0    0 -0.00000000000E+00 -0.00000000000E+00 -0.45593999997E+02  0.45594000000E+02  0.51100000000E-03 0. -1.
    9900012    2    1    2    0    0  0.43366387933E+01 -0.93797813863E+01 -0.15617000234E+02  0.72461616708E+02  0.70000060462E+02 0.  0.
        -12    1    1    2    0    0 -0.43366387933E+01  0.93797813863E+01  0.15617000234E+02  0.18726383292E+02  0.00000000000E+00 0.  1.
         11    1    3    3    0    0 -0.14772407458E+02 -0.31162412302E+01  0.19044601335E+00  0.15098716881E+02  0.51100000000E-03 0. -1.
        -11    1    3    3    0    0 -0.81912394333E+01 -0.82352844674E+01  0.13130533920E+02  0.17530751125E+02  0.51100000000E-03 0.  1.
         12    1    3    3    0    0  0.27300285684E+02  0.19717443113E+01 -0.28937980167E+02  0.39832148702E+02  0.00000000000E+00 0. -1.
</event>
<event>
 7    1  0.2710146E-013  0.7246155E+02  0.7816164E-02  0.1226708E+00
        -11   -1    0    0    0    0  0.00000000000E+00  0.00000000000E+00  0.45593999997E+02  0.45594000000E+02  0.51100000000E-03 0. -1.
         11   -1    0    0    0    0 -0.00000000000E+00 -0.00000000000E+00 -0.45593999997E+02  0.45594000000E+02  0.51100000000E-03 0.  1.
    9900012    2    1    2    0    0  0.98000276570E+00  0.18697718984E+02 -0.33880931607E+00  0.72461550994E+02  0.69999974858E+02 0.  0.
        -12    1    1    2    0    0 -0.98000276570E+00 -0.18697718984E+02  0.33880931607E+00  0.18726449006E+02  0.00000000000E+00 0.  1.
         11    1    3    3    0    0  0.42781307204E+01 -0.69847608630E+01 -0.70574595565E+01  0.10811892639E+02  0.51100000000E-03 0. -1.
        -11    1    3    3    0    0 -0.30789555196E+01 -0.65006972457E+01  0.24045275631E+02  0.25098093796E+02  0.51100000000E-03 0.  1.
         12    1    3    3    0    0 -0.21917243510E+00  0.32183177092E+02 -0.17326625391E+02  0.36551564559E+02  0.00000000000E+00 0. -1.
</event>
<event>
 7    1  0.2710146E-013  0.7246155E+02  0.7816164E-02  0.1226708E+00
        -11   -1    0    0    0    0  0.00000000000E+00  0.00000000000E+00  0.45593999997E+02  0.45594000000E+02  0.51100000000E-03 0.  1.
         11   -1    0    0    0    0 -0.00000000000E+00 -0.00000000000E+00 -0.45593999997E+02  0.45594000000E+02  0.51100000000E-03 0. -1.
    9900012    2    1    2    0    0 -0.51600976548E+00  0.14582913024E+02 -0.11736787343E+02  0.72461553581E+02  0.69999978228E+02 0.  0.
        -12    1    1    2    0    0  0.51600976548E+00 -0.14582913024E+02  0.11736787343E+02  0.18726446419E+02  0.00000000000E+00 0.  1.
         11    1    3    3    0    0 -0.14519781423E+01  0.22459712428E+02 -0.19236549792E+01  0.22588655817E+02  0.51100000000E-03 0. -1.
        -11    1    3    3    0    0  0.19530087787E+02  0.10986891634E+02 -0.47322932859E+01  0.22902635585E+02  0.51100000000E-03 0.  1.
         12    1    3    3    0    0 -0.18594119410E+02 -0.18863691039E+02 -0.50808390779E+01  0.26970262179E+02  0.00000000000E+00 0. -1.
</event>
<event>
 7    1  0.2710146E-013  0.7246163E+02  0.7816164E-02  0.1226708E+00
        -11   -1    0    0    0    0  0.00000000000E+00  0.00000000000E+00  0.45593999997E+02  0.45594000000E+02  0.51100000000E-03 0.  1.
         11   -1    0    0    0    0 -0.00000000000E+00 -0.00000000000E+00 -0.45593999997E+02  0.45594000000E+02  0.51100000000E-03 0. -1.
    9900012    2    1    2    0    0 -0.14264078928E+02 -0.63410961646E+01 -0.10344247727E+02  0.72461630644E+02  0.70000078617E+02 0.  0.
        -12    1    1    2    0    0  0.14264078928E+02  0.63410961646E+01  0.10344247727E+02  0.18726369356E+02  0.00000000000E+00 0.  1.
         11    1    3    3    0    0 -0.12296926287E+02  0.87870524478E+01 -0.25623504519E+02  0.29748792764E+02  0.51100000000E-03 0. -1.
        -11    1    3    3    0    0 -0.71034427046E+01  0.70634597455E+01  0.17146322658E+02  0.19858190824E+02  0.51100000000E-03 0.  1.
         12    1    3    3    0    0  0.51362900644E+01 -0.22191608358E+02 -0.18670658662E+01  0.22854647057E+02  0.00000000000E+00 0. -1.
</event>
<event>
 7    1  0.2710146E-013  0.7246155E+02  0.7816164E-02  0.1226708E+00
        -11   -1    0    0    0    0  0.00000000000E+00  0.00000000000E+00  0.45593999997E+02  0.45594000000E+02  0.51100000000E-03 0. -1.
         11   -1    0    0    0    0 -0.00000000000E+00 -0.00000000000E+00 -0.45593999997E+02  0.45594000000E+02  0.51100000000E-03 0.  1.
    9900012    2    1    2    0    0 -0.90060106781E+01  0.13693892710E+02  0.90580853986E+01  0.72461552473E+02  0.69999976785E+02 0.  0.
        -12    1    1    2    0    0  0.90060106781E+01 -0.13693892710E+02 -0.90580853986E+01  0.18726447527E+02  0.00000000000E+00 0.  1.
         11    1    3    3    0    0 -0.22786852899E+02  0.11960232810E+02 -0.82479950702E+01  0.27024382636E+02  0.51100000000E-03 0. -1.
        -11    1    3    3    0    0  0.52570075058E+01  0.12971026227E+02 -0.82506499608E+01  0.16246749654E+02  0.51100000000E-03 0.  1.
        -12    1    3    3    0    0  0.85238347148E+01 -0.11237366327E+02  0.25556730430E+02  0.29190420183E+02  0.00000000000E+00 0.  1.
</event>
<event>
 7    1  0.2710146E-013  0.7246159E+02  0.7816164E-02  0.1226708E+00
        -11   -1    0    0    0    0  0.00000000000E+00  0.00000000000E+00  0.45593999997E+02  0.45594000000E+02  0.51100000000E-03 0.  1.
         11   -1    0    0    0    0 -0.00000000000E+00 -0.00000000000E+00 -0.45593999997E+02  0.45594000000E+02  0.51100000000E-03 0. -1.
    9900012    2    1    2    0    0 -0.88317043041E+01  0.11386124831E+02  0.11959750499E+02  0.72461588929E+02  0.70000024276E+02 0.  0.
        -12    1    1    2    0    0  0.88317043041E+01 -0.11386124831E+02 -0.11959750499E+02  0.18726411071E+02  0.00000000000E+00 0.  1.
         11    1    3    3    0    0 -0.12618686822E+01 -0.48079613836E+01 -0.23046323418E+01  0.54790633989E+01  0.51100000000E-03 0. -1.
        -11    1    3    3    0    0  0.19234383360E+02 -0.44508449918E+01  0.24659060820E+02  0.31588618286E+02  0.51100000000E-03 0.  1.
         12    1    3    3    0    0 -0.26804218982E+02  0.20644931206E+02 -0.10394677980E+02  0.35393907245E+02  0.00000000000E+00 0. -1.
</event>
<event>
 7    1  0.2710146E-013  0.7246152E+02  0.7816164E-02  0.1226708E+00
        -11   -1    0    0    0    0  0.00000000000E+00  0.00000000000E+00  0.45593999997E+02  0.45594000000E+02  0.51100000000E-03 0.  1.
         11   -1    0    0    0    0 -0.00000000000E+00 -0.00000000000E+00 -0.45593999997E+02  0.45594000000E+02  0.51100000000E-03 0. -1.
    9900012    2    1    2    0    0  0.15941073423E+02  0.88381450170E+01  0.42954014246E+01  0.72461518680E+02  0.69999932763E+02 0.  0.
        -12    1    1    2    0    0 -0.15941073423E+02 -0.88381450170E+01 -0.42954014246E+01  0.18726481320E+02  0.00000000000E+00 0.  1.
         11    1    3    3    0    0  0.67796101019E+01  0.15545390230E+02 -0.23111042705E+00  0.16961004771E+02  0.51100000000E-03 0. -1.
        -11    1    3    3    0    0  0.51413044219E+01  0.12692018189E+02 -0.19833373489E+02  0.24101515328E+02  0.51100000000E-03 0.  1.
        -12    1    3    3    0    0  0.40201588992E+01 -0.19399263402E+02  0.24359885341E+02  0.31398998582E+02  0.00000000000E+00 0.  1.
</event>
<event>
 7    1  0.2710146E-013  0.7246161E+02  0.7816164E-02  0.1226708E+00
        -11   -1    0    0    0    0  0.00000000000E+00  0.00000000000E+00  0.45593999997E+02  0.45594000000E+02  0.51100000000E-03 0.  1.
         11   -1    0    0    0    0 -0.00000000000E+00 -0.00000000000E+00 -0.45593999997E+02  0.45594000000E+02  0.51100000000E-03 0. -1.
    9900012    2    1    2    0    0  0.18713232054E+02 -0.52522228223E+00  0.46563995532E+00  0.72461608652E+02  0.70000049968E+02 0.  0.
        -12    1    1    2    0    0 -0.18713232054E+02  0.52522228223E+00 -0.46563995532E+00  0.18726391348E+02  0.00000000000E+00 0.  1.
         11    1    3    3    0    0  0.21439827720E+02 -0.14033318832E+02 -0.33492273095E+01  0.25842166587E+02  0.51100000000E-03 0. -1.
        -11    1    3    3    0    0  0.10916329366E+02 -0.10809748772E+02  0.96361119510E+01  0.18134816490E+02  0.51100000000E-03 0.  1.
         12    1    3    3    0    0 -0.13642925031E+02  0.24317845321E+02 -0.58212446861E+01  0.28484625575E+02  0.00000000000E+00 0. -1.
</event>
<event>
 7    1  0.2710146E-013  0.7246158E+02  0.7816164E-02  0.1226708E+00
        -11   -1    0    0    0    0  0.00000000000E+00  0.00000000000E+00  0.45593999997E+02  0.45594000000E+02  0.51100000000E-03 0.  1.
         11   -1    0    0    0    0 -0.00000000000E+00 -0.00000000000E+00 -0.45593999997E+02  0.45594000000E+02  0.51100000000E-03 0. -1.
    9900012    2    1    2    0    0  0.86962639250E+01 -0.11099920998E+02 -0.12322563250E+02  0.72461579694E+02  0.70000012245E+02 0.  0.
        -12    1    1    2    0    0 -0.86962639250E+01  0.11099920998E+02  0.12322563250E+02  0.18726420306E+02  0.00000000000E+00 0.  1.
         11    1    3    3    0    0  0.67368589305E+01 -0.28165759277E+02 -0.14840444715E+01  0.28998235328E+02  0.51100000000E-03 0. -1.
        -11    1    3    3    0    0  0.10040608673E+02  0.23054416395E+02  0.40759532692E+01  0.25474169921E+02  0.51100000000E-03 0.  1.
         12    1    3    3    0    0 -0.80812036790E+01 -0.59885781155E+01 -0.14914472048E+02  0.17989174445E+02  0.00000000000E+00 0. -1.
</event>
<event>
 7    1  0.2710146E-013  0.7246157E+02  0.7816164E-02  0.1226708E+00
        -11   -1    0    0    0    0  0.00000000000E+00  0.00000000000E+00  0.45593999997E+02  0.45594000000E+02  0.51100000000E-03 0.  1.
         11   -1    0    0    0    0 -0.00000000000E+00 -0.00000000000E+00 -0.45593999997E+02  0.45594000000E+02  0.51100000000E-03 0. -1.
    9900012    2    1    2    0    0 -0.16052035720E+02  0.35512456384E+01 -0.89666082028E+01  0.72461567905E+02  0.69999996888E+02 0.  0.
        -12    1    1    2    0    0  0.16052035720E+02 -0.35512456384E+01  0.89666082028E+01  0.18726432095E+02  0.00000000000E+00 0.  1.
         11    1    3    3    0    0 -0.16243185277E+02 -0.19087783839E+02 -0.20527114435E+02  0.32396712598E+02  0.51100000000E-03 0. -1.
        -11    1    3    3    0    0 -0.49222728503E+01  0.22249371928E+02 -0.44808418473E+01  0.23223722034E+02  0.51100000000E-03 0.  1.
        -12    1    3    3    0    0  0.51134224075E+01  0.38965754967E+00  0.16041348079E+02  0.16841133273E+02  0.00000000000E+00 0.  1.
</event>
<event>
 7    1  0.2710146E-013  0.7246162E+02  0.7816164E-02  0.1226708E+00
        -11   -1    0    0    0    0  0.00000000000E+00  0.00000000000E+00  0.45593999997E+02  0.45594000000E+02  0.51100000000E-03 0.  1.
         11   -1    0    0    0    0 -0.00000000000E+00 -0.00000000000E+00 -0.45593999997E+02  0.45594000000E+02  0.51100000000E-03 0. -1.
    9900012    2    1    2    0    0 -0.18029740643E+02  0.16908725318E+00 -0.50573971166E+01  0.72461617441E+02  0.70000061417E+02 0.  0.
        -12    1    1    2    0    0  0.18029740643E+02 -0.16908725318E+00  0.50573971166E+01  0.18726382559E+02  0.00000000000E+00 0.  1.
         11    1    3    3    0    0  0.18096385241E+00  0.15067643627E+02 -0.21229388488E+01  0.15217539288E+02  0.51100000000E-03 0. -1.
        -11    1    3    3    0    0 -0.82159240168E+01 -0.39776527552E+01  0.24458697725E+02  0.26106532201E+02  0.51100000000E-03 0.  1.
        -12    1    3    3    0    0 -0.99947804785E+01 -0.10920903618E+02 -0.27393155993E+02  0.31137545952E+02  0.00000000000E+00 0.  1.
</event>
<event>
 7    1  0.2710146E-013  0.7246159E+02  0.7816164E-02  0.1226708E+00
        -11   -1    0    0    0    0  0.00000000000E+00  0.00000000000E+00  0.45593999997E+02  0.45594000000E+02  0.51100000000E-03 0.  1.
         11   -1    0    0    0    0 -0.00000000000E+00 -0.00000000000E+00 -0.45593999997E+02  0.45594000000E+02  0.51100000000E-03 0. -1.
    9900012    2    1    2    0    0  0.61188834013E+01 -0.12879173974E+02 -0.12139380607E+02  0.72461590364E+02  0.70000026144E+02 0.  0.
        -12    1    1    2    0    0 -0.61188834013E+01  0.12879173974E+02  0.12139380607E+02  0.18726409636E+02  0.00000000000E+00 0.  1.
         11    1    3    3    0    0  0.32410083502E+01 -0.99718016235E+01 -0.24364397978E+01  0.10764627346E+02  0.51100000000E-03 0. -1.
        -11    1    3    3    0    0 -0.21131279839E+02 -0.16426126376E+02  0.91785351639E+01  0.28294772015E+02  0.51100000000E-03 0.  1.
         12    1    3    3    0    0  0.24009154890E+02  0.13518754025E+02 -0.18881475973E+02  0.33402191003E+02  0.00000000000E+00 0. -1.
</event>
<event>
 7    1  0.2710146E-013  0.7246156E+02  0.7816164E-02  0.1226708E+00
        -11   -1    0    0    0    0  0.00000000000E+00  0.00000000000E+00  0.45593999997E+02  0.45594000000E+02  0.51100000000E-03 0.  1.
         11   -1    0    0    0    0 -0.00000000000E+00 -0.00000000000E+00 -0.45593999997E+02  0.45594000000E+02  0.51100000000E-03 0. -1.
    9900012    2    1    2    0    0 -0.14021527861E+02 -0.42378073577E+01  0.11666925257E+02  0.72461564148E+02  0.69999991993E+02 0.  0.
        -12    1    1    2    0    0  0.14021527861E+02  0.42378073577E+01 -0.11666925257E+02  0.18726435852E+02  0.00000000000E+00 0.  1.
         11    1    3    3    0    0  0.23027193292E+01  0.73463300596E+00 -0.14257610306E+02  0.14461039169E+02  0.51100000000E-03 0. -1.
        -11    1    3    3    0    0 -0.21387294072E+02  0.12725881789E+02 -0.15431738842E+01  0.24934831079E+02  0.51100000000E-03 0.  1.
        -12    1    3    3    0    0  0.50630468815E+01 -0.17698322153E+02  0.27467709447E+02  0.33065693899E+02  0.00000000000E+00 0.  1.
</event>
<event>
 7    1  0.2710146E-013  0.7246154E+02  0.7816164E-02  0.1226708E+00
        -11   -1    0    0    0    0  0.00000000000E+00  0.00000000000E+00  0.45593999997E+02  0.45594000000E+02  0.51100000000E-03 0.  1.
         11   -1    0    0    0    0 -0.00000000000E+00 -0.00000000000E+00 -0.45593999997E+02  0.45594000000E+02  0.51100000000E-03 0. -1.
    9900012    2    1    2    0    0  0.66913989186E+01 -0.20255079308E+01 -0.17372472656E+02  0.72461539896E+02  0.69999960400E+02 0.  0.
        -12    1    1    2    0    0 -0.66913989186E+01  0.20255079308E+01  0.17372472656E+02  0.18726460104E+02  0.00000000000E+00 0.  1.
         11    1    3    3    0    0 -0.49255305783E+01  0.13138951847E+02 -0.22943452476E+02  0.26894142836E+02  0.51100000000E-03 0. -1.
        -11    1    3    3    0    0 -0.13930105021E+02 -0.13510645704E+02  0.18619117126E+00  0.19406700921E+02  0.51100000000E-03 0.  1.
         12    1    3    3    0    0  0.25547034518E+02 -0.16538140732E+01  0.53847886492E+01  0.26160696138E+02  0.00000000000E+00 0. -1.
</event>
<event>
 7    1  0.2710146E-013  0.7246157E+02  0.7816164E-02  0.1226708E+00
        -11   -1    0    0    0    0  0.00000000000E+00  0.00000000000E+00  0.45593999997E+02  0.45594000000E+02  0.51100000000E-03 0.  1.
         11   -1    0    0    0    0 -0.00000000000E+00 -0.00000000000E+00 -0.45593999997E+02  0.45594000000E+02  0.51100000000E-03 0. -1.
    9900012    2    1    2    0    0 -0.18025229101E+02 -0.47971407037E+01 -0.16606348106E+01  0.72461570788E+02  0.70000000643E+02 0.  0.
        -12    1    1    2    0    0  0.18025229101E+02  0.47971407037E+01  0.16606348106E+01  0.18726429212E+02  0.00000000000E+00 0.  1.
         11    1    3    3    0    0 -0.11556040263E+02  0.17101457027E+02  0.32791546198E+01  0.20898678291E+02  0.51100000000E-03 0. -1.
        -11    1    3    3    0    0 -0.95471699159E+00  0.88761080334E+01 -0.16064009257E+02  0.18377953423E+02  0.51100000000E-03 0.  1.
        -12    1    3    3    0    0 -0.55144718460E+01 -0.30774705764E+02  0.11124219826E+02  0.33184939074E+02  0.00000000000E+00 0.  1.
</event>
<event>
 7    1  0.2710146E-013  0.7246161E+02  0.7816164E-02  0.1226708E+00
        -11   -1    0    0    0    0  0.00000000000E+00  0.00000000000E+00  0.45593999997E+02  0.45594000000E+02  0.51100000000E-03 0.  1.
         11   -1    0    0    0    0 -0.00000000000E+00 -0.00000000000E+00 -0.45593999997E+02  0.45594000000E+02  0.51100000000E-03 0. -1.
    9900012    2    1    2    0    0 -0.88740557732E+01 -0.16020155195E+01 -0.16412264836E+02  0.72461608019E+02  0.70000049143E+02 0.  0.
        -12    1    1    2    0    0  0.88740557732E+01  0.16020155195E+01  0.16412264836E+02  0.18726391981E+02  0.00000000000E+00 0.  1.
         11    1    3    3    0    0 -0.10121562896E+02  0.15875184461E+02 -0.26681820747E+02  0.32655582612E+02  0.51100000000E-03 0. -1.
        -11    1    3    3    0    0  0.11691728515E+02  0.37846892505E+01 -0.30056658367E+01  0.12651261430E+02  0.51100000000E-03 0.  1.
        -12    1    3    3    0    0 -0.10444221393E+02 -0.21261889231E+02  0.13275221747E+02  0.27154763976E+02  0.00000000000E+00 0.  1.
</event>
<event>
 7    1  0.2710146E-013  0.7246159E+02  0.7816164E-02  0.1226708E+00
        -11   -1    0    0    0    0  0.00000000000E+00  0.00000000000E+00  0.45593999997E+02  0.45594000000E+02  0.51100000000E-03 0. -1.
         11   -1    0    0    0    0 -0.00000000000E+00 -0.00000000000E+00 -0.45593999997E+02  0.45594000000E+02  0.51100000000E-03 0.  1.
    9900012    2    1    2    0    0  0.17729767393E+02  0.11086966055E+01 -0.59248957907E+01  0.72461594843E+02  0.70000031979E+02 0.  0.
        -12    1    1    2    0    0 -0.17729767393E+02 -0.11086966055E+01  0.59248957907E+01  0.18726405157E+02  0.00000000000E+00 0.  1.
         11    1    3    3    0    0  0.27481650579E+02  0.24418299383E+02  0.80058134125E+00  0.36771393692E+02  0.51100000000E-03 0. -1.
        -11    1    3    3    0    0  0.86569565413E+00  0.48592924873E+01 -0.12672751959E+01  0.50958943402E+01  0.51100000000E-03 0.  1.
        -12    1    3    3    0    0 -0.10617578840E+02 -0.28168895264E+02 -0.54582019360E+01  0.30594306810E+02  0.00000000000E+00 0.  1.
</event>
<event>
 7    1  0.2710146E-013  0.7246154E+02  0.7816164E-02  0.1226708E+00
        -11   -1    0    0    0    0  0.00000000000E+00  0.00000000000E+00  0.45593999997E+02  0.45594000000E+02  0.51100000000E-03 0. -1.
         11   -1    0    0    0    0 -0.00000000000E+00 -0.00000000000E+00 -0.45593999997E+02  0.45594000000E+02  0.51100000000E-03 0.  1.
    9900012    2    1    2    0    0  0.69760062972E+01  0.17374327877E+02  0.38503828036E+00  0.72461543114E+02  0.69999964592E+02 0.  0.
        -12    1    1    2    0    0 -0.69760062972E+01 -0.17374327877E+02 -0.38503828036E+00  0.18726456886E+02  0.00000000000E+00 0.  1.
         11    1    3    3    0    0  0.17633908186E+02  0.22853587654E+02 -0.45020028840E+01  0.29214880058E+02  0.51100000000E-03 0. -1.
        -11    1    3    3    0    0  0.11801683649E+02 -0.47585714706E+01  0.14070768052E+02  0.18971300779E+02  0.51100000000E-03 0.  1.
        -12    1    3    3    0    0 -0.22459585537E+02 -0.72068830619E+00 -0.91837268881E+01  0.24275362277E+02  0.00000000000E+00 0.  1.
</event>
<event>
 7    1  0.2710146E-013  0.7246152E+02  0.7816164E-02  0.1226708E+00
        -11   -1    0    0    0    0  0.00000000000E+00  0.00000000000E+00  0.45593999997E+02  0.45594000000E+02  0.51100000000E-03 0. -1.
         11   -1    0    0    0    0 -0.00000000000E+00 -0.00000000000E+00 -0.45593999997E+02  0.45594000000E+02  0.51100000000E-03 0.  1.
    9900012    2    1    2    0    0  0.16086295777E+02  0.69849338911E+01 -0.65668084951E+01  0.72461516425E+02  0.69999929825E+02 0.  0.
        -12    1    1    2    0    0 -0.16086295777E+02 -0.69849338911E+01  0.65668084951E+01  0.18726483575E+02  0.00000000000E+00 0.  1.
         11    1    3    3    0    0 -0.21940052936E+01  0.17057447272E+01  0.16693244268E+02  0.16922991129E+02  0.51100000000E-03 0. -1.
        -11    1    3    3    0    0  0.91818692802E+01 -0.39506253042E+01  0.13364158821E+02  0.16688765833E+02  0.51100000000E-03 0.  1.
        -12    1    3    3    0    0  0.90984317902E+01  0.92298144680E+01 -0.36624211584E+02  0.38849759463E+02  0.00000000000E+00 0.  1.
</event>
<event>
 7    1  0.2710146E-013  0.7246155E+02  0.7816164E-02  0.1226708E+00
        -11   -1    0    0    0    0  0.00000000000E+00  0.00000000000E+00  0.45593999997E+02  0.45594000000E+02  0.51100000000E-03 0.  1.
         11   -1    0    0    0    0 -0.00000000000E+00 -0.00000000000E+00 -0.45593999997E+02  0.45594000000E+02  0.51100000000E-03 0. -1.
    9900012    2    1    2    0    0  0.49750188113E+01  0.36532821273E+01 -0.17680004529E+02  0.72461552322E+02  0.69999976588E+02 0.  0.
        -12    1    1    2    0    0 -0.49750188113E+01 -0.36532821273E+01  0.17680004529E+02  0.18726447678E+02  0.00000000000E+00 0.  1.
         11    1    3    3    0    0 -0.13365304723E+02 -0.56277792206E+01 -0.74162438161E-01  0.14502026398E+02  0.51100000000E-03 0. -1.
        -11    1    3    3    0    0  0.30329971482E+02 -0.10239380863E+02 -0.13224515311E+02  0.34635818108E+02  0.51100000000E-03 0.  1.
         12    1    3    3    0    0 -0.11989647947E+02  0.19520442211E+02 -0.43813267802E+01  0.23323707817E+02  0.00000000000E+00 0. -1.
</event>
<event>
 7    1  0.2710146E-013  0.7246150E+02  0.7816164E-02  0.1226708E+00
        -11   -1    0    0    0    0  0.00000000000E+00  0.00000000000E+00  0.45593999997E+02  0.45594000000E+02  0.51100000000E-03 0.  1.
         11   -1    0    0    0    0 -0.00000000000E+00 -0.00000000000E+00 -0.45593999997E+02  0.45594000000E+02  0.51100000000E-03 0. -1.
    9900012    2    1    2    0    0  0.36165945074E+01 -0.18307957339E+02  0.15558795440E+01  0.72461499555E+02  0.69999907849E+02 0.  0.
        -12    1    1    2    0    0 -0.36165945074E+01  0.18307957339E+02 -0.15558795440E+01  0.18726500445E+02  0.00000000000E+00 0.  1.
         11    1    3    3    0    0 -0.13371626234E+02 -0.72240943820E+01  0.19293288344E+02  0.24560515124E+02  0.51100000000E-03 0. -1.
        -11    1    3    3    0    0  0.17310127983E+02 -0.12205222619E+02  0.76255081461E+01  0.22511249737E+02  0.51100000000E-03 0.  1.
         12    1    3    3    0    0 -0.32190724188E+00  0.11213596617E+01 -0.25362916947E+02  0.25389734693E+02  0.00000000000E+00 0. -1.
</event>
<event>
 7    1  0.2710146E-013  0.7246156E+02  0.7816164E-02  0.1226708E+00
        -11   -1    0    0    0    0  0.00000000000E+00  0.00000000000E+00  0.45593999997E+02  0.45594000000E+02  0.51100000000E-03 0.  1.
         11   -1    0    0    0    0 -0.00000000000E+00 -0.00000000000E+00 -0.45593999997E+02  0.45594000000E+02  0.51100000000E-03 0. -1.
    9900012    2    1    2    0    0  0.14668234133E+02  0.10891008226E+01 -0.11590356414E+02  0.72461558934E+02  0.69999985201E+02 0.  0.
        -12    1    1    2    0    0 -0.14668234133E+02 -0.10891008226E+01  0.11590356414E+02  0.18726441066E+02  0.00000000000E+00 0.  1.
         11    1    3    3    0    0 -0.11981137649E+02  0.50140350547E+01 -0.10609953938E+02  0.16770787987E+02  0.51100000000E-03 0. -1.
        -11    1    3    3    0    0  0.24770051174E+00  0.14927099267E+02  0.13533800866E+02  0.20150518957E+02  0.51100000000E-03 0.  1.
         12    1    3    3    0    0  0.26401671270E+02 -0.18852033499E+02 -0.14514203343E+02  0.35540251991E+02  0.00000000000E+00 0. -1.
</event>
<event>
 7    1  0.2710146E-013  0.7246158E+02  0.7816164E-02  0.1226708E+00
        -11   -1    0    0    0    0  0.00000000000E+00  0.00000000000E+00  0.45593999997E+02  0.45594000000E+02  0.51100000000E-03 0. -1.
         11   -1    0    0    0    0 -0.00000000000E+00 -0.00000000000E+00 -0.45593999997E+02  0.45594000000E+02  0.51100000000E-03 0.  1.
    9900012    2    1    2    0    0  0.60827676378E+01 -0.82341655133E+00  0.17691830015E+02  0.72461576790E+02  0.70000008462E+02 0.  0.
        -12    1    1    2    0    0 -0.60827676378E+01  0.82341655133E+00 -0.17691830015E+02  0.18726423210E+02  0.00000000000E+00 0.  1.
         11    1    3    3    0    0  0.24220308717E+02  0.49247249384E+01  0.12545420260E+02  0.27717572762E+02  0.51100000000E-03 0. -1.
        -11    1    3    3    0    0  0.54896669847E+01 -0.17265089659E+02  0.30958593488E+01  0.18379448030E+02  0.51100000000E-03 0.  1.
         12    1    3    3    0    0 -0.23627208064E+02  0.11516948169E+02  0.20505504064E+01  0.26364555998E+02  0.00000000000E+00 0. -1.
</event>
<event>
 7    1  0.2710146E-013  0.7246159E+02  0.7816164E-02  0.1226708E+00
        -11   -1    0    0    0    0  0.00000000000E+00  0.00000000000E+00  0.45593999997E+02  0.45594000000E+02  0.51100000000E-03 0. -1.
         11   -1    0    0    0    0 -0.00000000000E+00 -0.00000000000E+00 -0.45593999997E+02  0.45594000000E+02  0.51100000000E-03 0.  1.
    9900012    2    1    2    0    0 -0.19198718440E+01  0.13991539493E+02  0.12297537735E+02  0.72461587647E+02  0.70000022605E+02 0.  0.
        -12    1    1    2    0    0  0.19198718440E+01 -0.13991539493E+02 -0.12297537735E+02  0.18726412353E+02  0.00000000000E+00 0.  1.
         11    1    3    3    0    0 -0.31350981880E+02  0.12589878803E+02  0.17081912369E+02  0.37857375022E+02  0.51100000000E-03 0. -1.
        -11    1    3    3    0    0  0.71639249397E+01 -0.72612403156E+01 -0.30583752293E+01  0.10648994824E+02  0.51100000000E-03 0.  1.
        -12    1    3    3    0    0  0.22267185096E+02  0.86629010051E+01 -0.17259994048E+01  0.23955217801E+02  0.00000000000E+00 0.  1.
</event>
<event>
 7    1  0.2710146E-013  0.7246155E+02  0.7816164E-02  0.1226708E+00
        -11   -1    0    0    0    0  0.00000000000E+00  0.00000000000E+00  0.45593999997E+02  0.45594000000E+02  0.51100000000E-03 0.  1.
         11   -1    0    0    0    0 -0.00000000000E+00 -0.00000000000E+00 -0.45593999997E+02  0.45594000000E+02  0.51100000000E-03 0. -1.
    9900012    2    1    2    0    0 -0.16790705716E+02 -0.77753705992E+01  0.28802425942E+01  0.72461548553E+02  0.69999971677E+02 0.  0.
        -12    1    1    2    0    0  0.16790705716E+02  0.77753705992E+01 -0.28802425942E+01  0.18726451447E+02  0.00000000000E+00 0.  1.
         11    1    3    3    0    0  0.98433715074E+00  0.97222581852E+01  0.15879306813E+02  0.18645203377E+02  0.51100000000E-03 0. -1.
        -11    1    3    3    0    0  0.98595553643E+01 -0.21583886933E+02 -0.20694789670E+01  0.23819272671E+02  0.51100000000E-03 0.  1.
         12    1    3    3    0    0 -0.27634598231E+02  0.40862581484E+01 -0.10929585252E+02  0.29997072505E+02  0.00000000000E+00 0. -1.
</event>
<event>
 7    1  0.2710146E-013  0.7246166E+02  0.7816164E-02  0.1226708E+00
        -11   -1    0    0    0    0  0.00000000000E+00  0.00000000000E+00  0.45593999997E+02  0.45594000000E+02  0.51100000000E-03 0.  1.
         11   -1    0    0    0    0 -0.00000000000E+00 -0.00000000000E+00 -0.45593999997E+02  0.45594000000E+02  0.51100000000E-03 0. -1.
    9900012    2    1    2    0    0 -0.27499622605E+01  0.10562701433E+02  0.15216526828E+02  0.72461664461E+02  0.70000122670E+02 0.  0.
        -12    1    1    2    0    0  0.27499622605E+01 -0.10562701433E+02 -0.15216526828E+02  0.18726335539E+02  0.00000000000E+00 0.  1.
         11    1    3    3    0    0  0.68699060757E+00 -0.68096010530E+01  0.57152118162E+01  0.89166287890E+01  0.51100000000E-03 0. -1.
        -11    1    3    3    0    0 -0.64767659186E+01 -0.20623506874E+02  0.13070719886E+02  0.25261061956E+02  0.51100000000E-03 0.  1.
         12    1    3    3    0    0  0.30398130505E+01  0.37995809360E+02 -0.35694048743E+01  0.38283973716E+02  0.00000000000E+00 0. -1.
</event>
<event>
 7    1  0.2710146E-013  0.7246136E+02  0.7816164E-02  0.1226709E+00
        -11   -1    0    0    0    0  0.00000000000E+00  0.00000000000E+00  0.45593999997E+02  0.45594000000E+02  0.51100000000E-03 0. -1.
         11   -1    0    0    0    0 -0.00000000000E+00 -0.00000000000E+00 -0.45593999997E+02  0.45594000000E+02  0.51100000000E-03 0.  1.
    9900012    2    1    2    0    0 -0.11504284970E+02  0.14637636111E+02  0.20194686658E+01  0.72461355418E+02  0.69999720083E+02 0.  0.
        -12    1    1    2    0    0  0.11504284970E+02 -0.14637636111E+02 -0.20194686658E+01  0.18726644582E+02  0.00000000000E+00 0.  1.
         11    1    3    3    0    0  0.15439219502E+02  0.53771568778E+01 -0.22419477128E+02  0.27747365098E+02  0.51100000000E-03 0. -1.
        -11    1    3    3    0    0 -0.10869970959E+02  0.66258693529E+01 -0.27459552062E+01  0.13023005935E+02  0.51100000000E-03 0.  1.
        -12    1    3    3    0    0 -0.16073533513E+02  0.26346098808E+01  0.27184901000E+02  0.31690984384E+02  0.00000000000E+00 0.  1.
</event>
<event>
 7    1  0.2710146E-013  0.7246160E+02  0.7816164E-02  0.1226708E+00
        -11   -1    0    0    0    0  0.00000000000E+00  0.00000000000E+00  0.45593999997E+02  0.45594000000E+02  0.51100000000E-03 0. -1.
         11   -1    0    0    0    0 -0.00000000000E+00 -0.00000000000E+00 -0.45593999997E+02  0.45594000000E+02  0.51100000000E-03 0.  1.
    9900012    2    1    2    0    0  0.80016174586E+01  0.10302138232E+02  0.13435708797E+02  0.72461596048E+02  0.70000033549E+02 0.  0.
        -12    1    1    2    0    0 -0.80016174586E+01 -0.10302138232E+02 -0.13435708797E+02  0.18726403952E+02  0.00000000000E+00 0.  1.
         11    1    3    3    0    0  0.26764796626E+02  0.21569376728E+02  0.45958046869E+01  0.34680163954E+02  0.51100000000E-03 0. -1.
        -11    1    3    3    0    0  0.15009010833E+01 -0.15769351239E+02  0.22332490251E+01  0.15997266767E+02  0.51100000000E-03 0.  1.
         12    1    3    3    0    0 -0.20264080251E+02  0.45021127423E+01  0.66066550846E+01  0.21784165327E+02  0.00000000000E+00 0. -1.
</event>
<event>
 7    1  0.2710146E-013  0.7246160E+02  0.7816164E-02  0.1226708E+00
        -11   -1    0    0    0    0  0.00000000000E+00  0.00000000000E+00  0.45593999997E+02  0.45594000000E+02  0.51100000000E-03 0. -1.
         11   -1    0    0    0    0 -0.00000000000E+00 -0.00000000000E+00 -0.45593999997E+02  0.45594000000E+02  0.51100000000E-03 0.  1.
    9900012    2    1    2    0    0  0.26193300558E+01  0.10228164618E+02 -0.15466152599E+02  0.72461598380E+02  0.70000036587E+02 0.  0.
        -12    1    1    2    0    0 -0.26193300558E+01 -0.10228164618E+02  0.15466152599E+02  0.18726401620E+02  0.00000000000E+00 0.  1.
         11    1    3    3    0    0 -0.49575655238E+01  0.74825604885E+01 -0.12297389647E+02  0.15224715425E+02  0.51100000000E-03 0. -1.
        -11    1    3    3    0    0 -0.98913821708E+01  0.22942140625E+02 -0.13745980498E+02  0.28515491190E+02  0.51100000000E-03 0.  1.
         12    1    3    3    0    0  0.17468277750E+02 -0.20196536495E+02  0.10577217545E+02  0.28721391765E+02  0.00000000000E+00 0. -1.
</event>
<event>
 7    1  0.2710146E-013  0.7246149E+02  0.7816164E-02  0.1226708E+00
        -11   -1    0    0    0    0  0.00000000000E+00  0.00000000000E+00  0.45593999997E+02  0.45594000000E+02  0.51100000000E-03 0. -1.
         11   -1    0    0    0    0 -0.00000000000E+00 -0.00000000000E+00 -0.45593999997E+02  0.45594000000E+02  0.51100000000E-03 0.  1.
    9900012    2    1    2    0    0  0.17512530129E+02 -0.45128622777E+01  0.48608131104E+01  0.72461490941E+02  0.69999896628E+02 0.  0.
        -12    1    1    2    0    0 -0.17512530129E+02  0.45128622777E+01 -0.48608131104E+01  0.18726509059E+02  0.00000000000E+00 0.  1.
         11    1    3    3    0    0 -0.12003232099E+02  0.38930437353E+01 -0.12035442328E+02  0.17438040103E+02  0.51100000000E-03 0. -1.
        -11    1    3    3    0    0 -0.73691851812E+01 -0.70613543234E+00 -0.71762084494E+01  0.10310261173E+02  0.51100000000E-03 0.  1.
         12    1    3    3    0    0  0.36884947409E+02 -0.76997705807E+01  0.24072463888E+02  0.44713189665E+02  0.00000000000E+00 0. -1.
</event>
<event>
 7    1  0.2710146E-013  0.7246158E+02  0.7816164E-02  0.1226708E+00
        -11   -1    0    0    0    0  0.00000000000E+00  0.00000000000E+00  0.45593999997E+02  0.45594000000E+02  0.51100000000E-03 0. -1.
         11   -1    0    0    0    0 -0.00000000000E+00 -0.00000000000E+00 -0.45593999997E+02  0.45594000000E+02  0.51100000000E-03 0.  1.
    9900012    2    1    2    0    0 -0.18794010580E+01  0.15337350071E+02  0.10578865927E+02  0.72461578563E+02  0.70000010772E+02 0.  0.
        -12    1    1    2    0    0  0.18794010580E+01 -0.15337350071E+02 -0.10578865927E+02  0.18726421437E+02  0.00000000000E+00 0.  1.
         11    1    3    3    0    0  0.97390864484E+01 -0.27203519076E+01  0.81043189427E+00  0.10144304780E+02  0.51100000000E-03 0. -1.
        -11    1    3    3    0    0 -0.98366080075E+01 -0.19446088366E+02 -0.43172804136E+01  0.22215942930E+02  0.51100000000E-03 0.  1.
         12    1    3    3    0    0 -0.17818794989E+01  0.37503790345E+02  0.14085714446E+02  0.40101330853E+02  0.00000000000E+00 0. -1.
</event>
<event>
 7    1  0.2710146E-013  0.7246154E+02  0.7816164E-02  0.1226708E+00
        -11   -1    0    0    0    0  0.00000000000E+00  0.00000000000E+00  0.45593999997E+02  0.45594000000E+02  0.51100000000E-03 0. -1.
         11   -1    0    0    0    0 -0.00000000000E+00 -0.00000000000E+00 -0.45593999997E+02  0.45594000000E+02  0.51100000000E-03 0.  1.
    9900012    2    1    2    0    0  0.14584486875E+02 -0.27771218196E+01  0.11413184451E+02  0.72461536311E+02  0.69999955730E+02 0.  0.
        -12    1    1    2    0    0 -0.14584486875E+02  0.27771218196E+01 -0.11413184451E+02  0.18726463689E+02  0.00000000000E+00 0.  1.
         11    1    3    3    0    0 -0.11647988565E+02  0.60548350669E+00  0.36937210679E+01  0.12234615787E+02  0.51100000000E-03 0.  1.
        -11    1    3    3    0    0  0.18318954779E+02 -0.19596667892E+02  0.23947989826E+02  0.35959973772E+02  0.51100000000E-03 0. -1.
         12    1    3    3    0    0  0.79135206598E+01  0.16214062566E+02 -0.16228526443E+02  0.24266946751E+02  0.00000000000E+00 0. -1.
</event>
<event>
 7    1  0.2710146E-013  0.7246128E+02  0.7816164E-02  0.1226709E+00
        -11   -1    0    0    0    0  0.00000000000E+00  0.00000000000E+00  0.45593999997E+02  0.45594000000E+02  0.51100000000E-03 0.  1.
         11   -1    0    0    0    0 -0.00000000000E+00 -0.00000000000E+00 -0.45593999997E+02  0.45594000000E+02  0.51100000000E-03 0. -1.
    9900012    2    1    2    0    0  0.86133043610E+01  0.98825611903E+01 -0.13372961915E+02  0.72461277434E+02  0.69999618494E+02 0.  0.
        -12    1    1    2    0    0 -0.86133043610E+01 -0.98825611903E+01  0.13372961915E+02  0.18726722566E+02  0.00000000000E+00 0.  1.
         11    1    3    3    0    0  0.38509689316E+01 -0.87803694936E+01 -0.19978115103E+02  0.22159646511E+02  0.51100000000E-03 0. -1.
        -11    1    3    3    0    0  0.11696575616E+02 -0.11399857333E+02 -0.53904536887E+01  0.17199523819E+02  0.51100000000E-03 0.  1.
         12    1    3    3    0    0 -0.69342401867E+01  0.30062788017E+02  0.11995606878E+02  0.33102107104E+02  0.00000000000E+00 0. -1.
</event>
<event>
 7    1  0.2710146E-013  0.7246156E+02  0.7816164E-02  0.1226708E+00
        -11   -1    0    0    0    0  0.00000000000E+00  0.00000000000E+00  0.45593999997E+02  0.45594000000E+02  0.51100000000E-03 0.  1.
         11   -1    0    0    0    0 -0.00000000000E+00 -0.00000000000E+00 -0.45593999997E+02  0.45594000000E+02  0.51100000000E-03 0. -1.
    9900012    2    1    2    0    0 -0.10060333496E+02  0.10780001537E+02 -0.11543858565E+02  0.72461563773E+02  0.69999991505E+02 0.  0.
        -12    1    1    2    0    0  0.10060333496E+02 -0.10780001537E+02  0.11543858565E+02  0.18726436227E+02  0.00000000000E+00 0.  1.
         11    1    3    3    0    0 -0.27708462932E+02  0.85038452747E+01 -0.26247061401E+02  0.39102206267E+02  0.51100000000E-03 0. -1.
        -11    1    3    3    0    0 -0.49494094003E+01  0.22789006974E+01 -0.13822753850E+01  0.56214524192E+01  0.51100000000E-03 0.  1.
        -12    1    3    3    0    0  0.22597538837E+02 -0.27444350730E-02  0.16085478221E+02  0.27737905087E+02  0.00000000000E+00 0.  1.
</event>
<event>
 7    1  0.2710146E-013  0.7246159E+02  0.7816164E-02  0.1226708E+00
        -11   -1    0    0    0    0  0.00000000000E+00  0.00000000000E+00  0.45593999997E+02  0.45594000000E+02  0.51100000000E-03 0. -1.
         11   -1    0    0    0    0 -0.00000000000E+00 -0.00000000000E+00 -0.45593999997E+02  0.45594000000E+02  0.51100000000E-03 0.  1.
    9900012    2    1    2    0    0  0.52662647875E+00  0.56685922828E+01  0.17840075766E+02  0.72461586108E+02  0.70000020601E+02 0.  0.
        -12    1    1    2    0    0 -0.52662647875E+00 -0.56685922828E+01 -0.17840075766E+02  0.18726413892E+02  0.00000000000E+00 0.  1.
         11    1    3    3    0    0  0.41428958562E+01  0.86950738153E+01  0.23492461704E+01  0.99139725922E+01  0.51100000000E-03 0. -1.
        -11    1    3    3    0    0  0.18095071075E+02  0.21229779665E+02  0.49578386886E+01  0.28332230879E+02  0.51100000000E-03 0.  1.
         12    1    3    3    0    0 -0.21711340453E+02 -0.24256261198E+02  0.10532990907E+02  0.34215382637E+02  0.00000000000E+00 0. -1.
</event>
<event>
 7    1  0.2710146E-013  0.7246154E+02  0.7816164E-02  0.1226708E+00
        -11   -1    0    0    0    0  0.00000000000E+00  0.00000000000E+00  0.45593999997E+02  0.45594000000E+02  0.51100000000E-03 0. -1.
         11   -1    0    0    0    0 -0.00000000000E+00 -0.00000000000E+00 -0.45593999997E+02  0.45594000000E+02  0.51100000000E-03 0.  1.
    9900012    2    1    2    0    0 -0.42971628219E+01 -0.18110417987E+02 -0.20560402185E+01  0.72461544133E+02  0.69999965920E+02 0.  0.
        -12    1    1    2    0    0  0.42971628219E+01  0.18110417987E+02  0.20560402185E+01  0.18726455867E+02  0.00000000000E+00 0.  1.
         11    1    3    3    0    0 -0.12548548050E+02  0.45247833259E+01  0.86625937130E+01  0.15905352948E+02  0.51100000000E-03 0. -1.
        -11    1    3    3    0    0 -0.72279859367E+00  0.13314426667E+02  0.74656290220E+01  0.15281754226E+02  0.51100000000E-03 0.  1.
        -12    1    3    3    0    0  0.89741838213E+01 -0.35949627979E+02 -0.18184262954E+02  0.41274436959E+02  0.00000000000E+00 0.  1.
</event>
<event>
 7    1  0.2710146E-013  0.7246161E+02  0.7816164E-02  0.1226708E+00
        -11   -1    0    0    0    0  0.00000000000E+00  0.00000000000E+00  0.45593999997E+02  0.45594000000E+02  0.51100000000E-03 0. -1.
         11   -1    0    0    0    0 -0.00000000000E+00 -0.00000000000E+00 -0.45593999997E+02  0.45594000000E+02  0.51100000000E-03 0.  1.
    9900012    2    1    2    0    0  0.64285439114E+01 -0.21141132743E+01  0.17460876222E+02  0.72461605520E+02  0.70000045889E+02 0.  0.
        -12    1    1    2    0    0 -0.64285439114E+01  0.21141132743E+01 -0.17460876222E+02  0.18726394480E+02  0.00000000000E+00 0.  1.
         11    1    3    3    0    0  0.14392378743E+02  0.12993687102E+02 -0.16979112757E+02  0.25773372706E+02  0.51100000000E-03 0. -1.
        -11    1    3    3    0    0  0.36960076759E+01 -0.71052723874E+01 -0.14258507476E+01  0.81350119272E+01  0.51100000000E-03 0.  1.
        -12    1    3    3    0    0 -0.11659842507E+02 -0.80025279890E+01  0.35865839726E+02  0.38553220887E+02  0.00000000000E+00 0.  1.
</event>
<event>
 7    1  0.2710146E-013  0.7246160E+02  0.7816164E-02  0.1226708E+00
        -11   -1    0    0    0    0  0.00000000000E+00  0.00000000000E+00  0.45593999997E+02  0.45594000000E+02  0.51100000000E-03 0. -1.
         11   -1    0    0    0    0 -0.00000000000E+00 -0.00000000000E+00 -0.45593999997E+02  0.45594000000E+02  0.51100000000E-03 0.  1.
    9900012    2    1    2    0    0  0.83521441137E+01  0.13075826159E+02  0.10485352618E+02  0.72461597234E+02  0.70000035094E+02 0.  0.
        -12    1    1    2    0    0 -0.83521441137E+01 -0.13075826159E+02 -0.10485352618E+02  0.18726402766E+02  0.00000000000E+00 0.  1.
         11    1    3    3    0    0  0.28707752166E+02  0.25192504669E+02  0.13359552063E+02  0.40463254411E+02  0.51100000000E-03 0. -1.
        -11    1    3    3    0    0 -0.55160709000E+00  0.53313747401E+01 -0.15137669420E+01  0.55694988659E+01  0.51100000000E-03 0.  1.
        -12    1    3    3    0    0 -0.19804000962E+02 -0.17448053251E+02 -0.13604325035E+01  0.26428843958E+02  0.00000000000E+00 0.  1.
</event>
<event>
 7    1  0.2710146E-013  0.7246155E+02  0.7816164E-02  0.1226708E+00
        -11   -1    0    0    0    0  0.00000000000E+00  0.00000000000E+00  0.45593999997E+02  0.45594000000E+02  0.51100000000E-03 0.  1.
         11   -1    0    0    0    0 -0.00000000000E+00 -0.00000000000E+00 -0.45593999997E+02  0.45594000000E+02  0.51100000000E-03 0. -1.
    9900012    2    1    2    0    0  0.64189466118E+01  0.16786446479E+02  0.52623456570E+01  0.72461549647E+02  0.69999973103E+02 0.  0.
        -12    1    1    2    0    0 -0.64189466118E+01 -0.16786446479E+02 -0.52623456570E+01  0.18726450353E+02  0.00000000000E+00 0.  1.
         11    1    3    3    0    0  0.19129090305E+02 -0.10870706094E+02  0.45627958631E+01  0.22470279331E+02  0.51100000000E-03 0. -1.
        -11    1    3    3    0    0  0.63687989472E+01  0.53627298022E+01  0.15146538243E+02  0.17284041540E+02  0.51100000000E-03 0.  1.
         12    1    3    3    0    0 -0.19078942640E+02  0.22294422771E+02 -0.14446988449E+02  0.32707228776E+02  0.00000000000E+00 0. -1.
</event>
<event>
 7    1  0.2710146E-013  0.7246148E+02  0.7816164E-02  0.1226708E+00
        -11   -1    0    0    0    0  0.00000000000E+00  0.00000000000E+00  0.45593999997E+02  0.45594000000E+02  0.51100000000E-03 0.  1.
         11   -1    0    0    0    0 -0.00000000000E+00 -0.00000000000E+00 -0.45593999997E+02  0.45594000000E+02  0.51100000000E-03 0. -1.
    9900012    2    1    2    0    0  0.15681432906E+02  0.10103816510E+02  0.16395176812E+01  0.72461482324E+02  0.69999885402E+02 0.  0.
        -12    1    1    2    0    0 -0.15681432906E+02 -0.10103816510E+02 -0.16395176812E+01  0.18726517676E+02  0.00000000000E+00 0.  1.
         11    1    3    3    0    0  0.23622229384E+01  0.12418636748E+02 -0.10080216652E+02  0.16168283889E+02  0.51100000000E-03 0. -1.
        -11    1    3    3    0    0  0.87680363567E+01 -0.14246309268E+01 -0.21232734249E+02  0.23016017005E+02  0.51100000000E-03 0.  1.
        -12    1    3    3    0    0  0.45511736103E+01 -0.89018931106E+00  0.32952468583E+02  0.33277181430E+02  0.00000000000E+00 0.  1.
</event>
<event>
 7    1  0.2710146E-013  0.7246150E+02  0.7816164E-02  0.1226708E+00
        -11   -1    0    0    0    0  0.00000000000E+00  0.00000000000E+00  0.45593999997E+02  0.45594000000E+02  0.51100000000E-03 0.  1.
         11   -1    0    0    0    0 -0.00000000000E+00 -0.00000000000E+00 -0.45593999997E+02  0.45594000000E+02  0.51100000000E-03 0. -1.
    9900012    2    1    2    0    0  0.75751639128E+01 -0.16681425773E+02  0.38766687137E+01  0.72461504480E+02  0.69999914265E+02 0.  0.
        -12    1    1    2    0    0 -0.75751639128E+01  0.16681425773E+02 -0.38766687137E+01  0.18726495520E+02  0.00000000000E+00 0.  1.
         11    1    3    3    0    0  0.20565720451E+01 -0.19252279599E+02 -0.20489636527E+00  0.19362895990E+02  0.51100000000E-03 0. -1.
        -11    1    3    3    0    0  0.16987251406E+02 -0.20207019101E+02  0.73120220713E+01  0.27392626714E+02  0.51100000000E-03 0.  1.
        -12    1    3    3    0    0 -0.11468659538E+02  0.22777872927E+02 -0.32304569923E+01  0.25705981776E+02  0.00000000000E+00 0.  1.
</event>
<event>
 7    1  0.2710146E-013  0.7246161E+02  0.7816164E-02  0.1226708E+00
        -11   -1    0    0    0    0  0.00000000000E+00  0.00000000000E+00  0.45593999997E+02  0.45594000000E+02  0.51100000000E-03 0. -1.
         11   -1    0    0    0    0 -0.00000000000E+00 -0.00000000000E+00 -0.45593999997E+02  0.45594000000E+02  0.51100000000E-03 0.  1.
    9900012    2    1    2    0    0  0.26812345999E+01 -0.16549610538E+02  0.83425960421E+01  0.72461613892E+02  0.70000056794E+02 0.  0.
        -12    1    1    2    0    0 -0.26812345999E+01  0.16549610538E+02 -0.83425960421E+01  0.18726386108E+02  0.00000000000E+00 0.  1.
         11    1    3    3    0    0  0.21703490410E+02 -0.34728872295E+02  0.46406400201E+01  0.41214943975E+02  0.51100000000E-03 0. -1.
        -11    1    3    3    0    0  0.25496666110E+01 -0.36977075088E+00  0.32280212859E+00  0.25964844907E+01  0.51100000000E-03 0.  1.
        -12    1    3    3    0    0 -0.21571922421E+02  0.18549032508E+02  0.33791538935E+01  0.28650185426E+02  0.00000000000E+00 0.  1.
</event>
<event>
 7    1  0.2710146E-013  0.7246151E+02  0.7816164E-02  0.1226708E+00
        -11   -1    0    0    0    0  0.00000000000E+00  0.00000000000E+00  0.45593999997E+02  0.45594000000E+02  0.51100000000E-03 0.  1.
         11   -1    0    0    0    0 -0.00000000000E+00 -0.00000000000E+00 -0.45593999997E+02  0.45594000000E+02  0.51100000000E-03 0. -1.
    9900012    2    1    2    0    0  0.13356910486E+02 -0.70116675434E+01  0.11095534300E+02  0.72461510183E+02  0.69999921693E+02 0.  0.
        -12    1    1    2    0    0 -0.13356910486E+02  0.70116675434E+01 -0.11095534300E+02  0.18726489817E+02  0.00000000000E+00 0.  1.
         11    1    3    3    0    0  0.19074562070E+02  0.86716712934E+01  0.68612298426E+00  0.20964435747E+02  0.51100000000E-03 0. -1.
        -11    1    3    3    0    0  0.14177507908E+02  0.97280520207E+01 -0.11095445795E+01  0.17229852467E+02  0.51100000000E-03 0.  1.
        -12    1    3    3    0    0 -0.19895159492E+02 -0.25411390857E+02  0.11518955896E+02  0.34267221969E+02  0.00000000000E+00 0.  1.
</event>
<event>
 7    1  0.2710146E-013  0.7246158E+02  0.7816164E-02  0.1226708E+00
        -11   -1    0    0    0    0  0.00000000000E+00  0.00000000000E+00  0.45593999997E+02  0.45594000000E+02  0.51100000000E-03 0.  1.
         11   -1    0    0    0    0 -0.00000000000E+00 -0.00000000000E+00 -0.45593999997E+02  0.45594000000E+02  0.51100000000E-03 0. -1.
    9900012    2    1    2    0    0 -0.16744034147E+02  0.83130283427E+01  0.10998512966E+01  0.72461580358E+02  0.70000013109E+02 0.  0.
        -12    1    1    2    0    0  0.16744034147E+02 -0.83130283427E+01 -0.10998512966E+01  0.18726419642E+02  0.00000000000E+00 0.  1.
         11    1    3    3    0    0 -0.85937574564E+01 -0.12909391766E+02  0.10582178383E+02  0.18774652129E+02  0.51100000000E-03 0. -1.
        -11    1    3    3    0    0 -0.12118180841E+02  0.10514915653E+00  0.16181135009E+02  0.20216094917E+02  0.51100000000E-03 0.  1.
        -12    1    3    3    0    0  0.39679041508E+01  0.21117270952E+02 -0.25663462095E+02  0.33470833311E+02  0.00000000000E+00 0.  1.
</event>
<event>
 7    1  0.2710146E-013  0.7246151E+02  0.7816164E-02  0.1226708E+00
        -11   -1    0    0    0    0  0.00000000000E+00  0.00000000000E+00  0.45593999997E+02  0.45594000000E+02  0.51100000000E-03 0. -1.
         11   -1    0    0    0    0 -0.00000000000E+00 -0.00000000000E+00 -0.45593999997E+02  0.45594000000E+02  0.51100000000E-03 0.  1.
    9900012    2    1    2    0    0 -0.15149254342E+02 -0.90087218008E+01  0.63264904985E+01  0.72461509201E+02  0.69999920415E+02 0.  0.
        -12    1    1    2    0    0  0.15149254342E+02  0.90087218008E+01 -0.63264904985E+01  0.18726490799E+02  0.00000000000E+00 0.  1.
         11    1    3    3    0    0 -0.55682218096E+01 -0.23000251330E+02  0.26760929012E+00  0.23666184111E+02  0.51100000000E-03 0. -1.
        -11    1    3    3    0    0 -0.12776898239E+01 -0.85133700340E+01  0.19487673733E+02  0.21304445273E+02  0.51100000000E-03 0.  1.
        -12    1    3    3    0    0 -0.83033427089E+01  0.22504899563E+02 -0.13428792524E+02  0.27490879818E+02  0.00000000000E+00 0.  1.
</event>
<event>
 7    1  0.2710146E-013  0.7246152E+02  0.7816164E-02  0.1226708E+00
        -11   -1    0    0    0    0  0.00000000000E+00  0.00000000000E+00  0.45593999997E+02  0.45594000000E+02  0.51100000000E-03 0.  1.
         11   -1    0    0    0    0 -0.00000000000E+00 -0.00000000000E+00 -0.45593999997E+02  0.45594000000E+02  0.51100000000E-03 0. -1.
    9900012    2    1    2    0    0 -0.58575847248E+01 -0.17785671868E+02  0.19867004522E+00  0.72461524293E+02  0.69999940075E+02 0.  0.
        -12    1    1    2    0    0  0.58575847248E+01  0.17785671868E+02 -0.19867004522E+00  0.18726475707E+02  0.00000000000E+00 0.  1.
         11    1    3    3    0    0  0.46959096911E+01  0.10606308274E+01 -0.89947359574E+00  0.48975053435E+01  0.51100000000E-03 0. -1.
        -11    1    3    3    0    0 -0.95898401483E+01  0.22177440839E+02  0.89837958875E+01  0.25778140062E+02  0.51100000000E-03 0.  1.
         12    1    3    3    0    0 -0.96365426765E+00 -0.41023743534E+02 -0.78856522465E+01  0.41785878888E+02  0.00000000000E+00 0. -1.
</event>
<event>
 7    1  0.2710146E-013  0.7246155E+02  0.7816164E-02  0.1226708E+00
        -11   -1    0    0    0    0  0.00000000000E+00  0.00000000000E+00  0.45593999997E+02  0.45594000000E+02  0.51100000000E-03 0.  1.
         11   -1    0    0    0    0 -0.00000000000E+00 -0.00000000000E+00 -0.45593999997E+02  0.45594000000E+02  0.51100000000E-03 0. -1.
    9900012    2    1    2    0    0  0.57379344365E+01  0.16292689046E+02 -0.72321825861E+01  0.72461546173E+02  0.69999968578E+02 0.  0.
        -12    1    1    2    0    0 -0.57379344365E+01 -0.16292689046E+02  0.72321825861E+01  0.18726453827E+02  0.00000000000E+00 0.  1.
         11    1    3    3    0    0  0.46685231661E+01  0.53214408636E+01  0.30674482401E+01  0.77150554362E+01  0.51100000000E-03 0. -1.
        -11    1    3    3    0    0  0.57585640390E+01  0.16530191942E+02  0.23988230270E+02  0.29695849831E+02  0.51100000000E-03 0.  1.
         12    1    3    3    0    0 -0.46891527685E+01 -0.55589437595E+01 -0.34287861096E+02  0.35050640906E+02  0.00000000000E+00 0. -1.
</event>
<event>
 7    1  0.2710146E-013  0.7246158E+02  0.7816164E-02  0.1226708E+00
        -11   -1    0    0    0    0  0.00000000000E+00  0.00000000000E+00  0.45593999997E+02  0.45594000000E+02  0.51100000000E-03 0. -1.
         11   -1    0    0    0    0 -0.00000000000E+00 -0.00000000000E+00 -0.45593999997E+02  0.45594000000E+02  0.51100000000E-03 0.  1.
    9900012    2    1    2    0    0 -0.20022153628E+01 -0.17527474496E+02  0.62815385934E+01  0.72461576005E+02  0.70000007439E+02 0.  0.
        -12    1    1    2    0    0  0.20022153628E+01  0.17527474496E+02 -0.62815385934E+01  0.18726423995E+02  0.00000000000E+00 0.  1.
         11    1    3    3    0    0 -0.10808128605E+02 -0.10745280846E+02  0.72639092610E+01  0.16883159728E+02  0.51100000000E-03 0. -1.
        -11    1    3    3    0    0 -0.69827098365E+00 -0.80853149810E+01 -0.26818128189E+02  0.28019134543E+02  0.51100000000E-03 0.  1.
         12    1    3    3    0    0  0.95041842254E+01  0.13031213317E+01  0.25835757521E+02  0.27559281734E+02  0.00000000000E+00 0. -1.
</event>
<event>
 7    1  0.2710146E-013  0.7246160E+02  0.7816164E-02  0.1226708E+00
        -11   -1    0    0    0    0  0.00000000000E+00  0.00000000000E+00  0.45593999997E+02  0.45594000000E+02  0.51100000000E-03 0. -1.
         11   -1    0    0    0    0 -0.00000000000E+00 -0.00000000000E+00 -0.45593999997E+02  0.45594000000E+02  0.51100000000E-03 0.  1.
    9900012    2    1    2    0    0  0.13800811501E+02 -0.12046148032E+02  0.38866441902E+01  0.72461599290E+02  0.70000037772E+02 0.  0.
        -12    1    1    2    0    0 -0.13800811501E+02  0.12046148032E+02 -0.38866441902E+01  0.18726400710E+02  0.00000000000E+00 0.  1.
         11    1    3    3    0    0 -0.82794788486E+01 -0.22261347607E+02  0.18288903461E+02  0.29976680226E+02  0.51100000000E-03 0. -1.
        -11    1    3    3    0    0  0.95267985582E+01 -0.28501904298E+01  0.86392530828E+01  0.13172705506E+02  0.51100000000E-03 0.  1.
        -12    1    3    3    0    0  0.12553491791E+02  0.13065390005E+02 -0.23041512354E+02  0.29312213559E+02  0.00000000000E+00 0.  1.
</event>
<event>
 7    1  0.2710146E-013  0.7246157E+02  0.7816164E-02  0.1226708E+00
        -11   -1    0    0    0    0  0.00000000000E+00  0.00000000000E+00  0.45593999997E+02  0.45594000000E+02  0.51100000000E-03 0. -1.
         11   -1    0    0    0    0 -0.00000000000E+00 -0.00000000000E+00 -0.45593999997E+02  0.45594000000E+02  0.51100000000E-03 0.  1.
    9900012    2    1    2    0    0 -0.34284102055E+01 -0.15883652779E+02  0.93077829773E+01  0.72461568250E+02  0.69999997337E+02 0.  0.
        -12    1    1    2    0    0  0.34284102055E+01  0.15883652779E+02 -0.93077829773E+01  0.18726431750E+02  0.00000000000E+00 0.  1.
         11    1    3    3    0    0 -0.12581859023E+02 -0.24110295586E+00 -0.48653502525E+01  0.13491958363E+02  0.51100000000E-03 0. -1.
        -11    1    3    3    0    0 -0.16864247033E+02 -0.12975709280E+01 -0.10875838464E+02  0.20108962700E+02  0.51100000000E-03 0.  1.
         12    1    3    3    0    0  0.26017695851E+02 -0.14344978895E+02  0.25048971694E+02  0.38860647187E+02  0.00000000000E+00 0. -1.
</event>
<event>
 7    1  0.2710146E-013  0.7246153E+02  0.7816164E-02  0.1226708E+00
        -11   -1    0    0    0    0  0.00000000000E+00  0.00000000000E+00  0.45593999997E+02  0.45594000000E+02  0.51100000000E-03 0.  1.
         11   -1    0    0    0    0 -0.00000000000E+00 -0.00000000000E+00 -0.45593999997E+02  0.45594000000E+02  0.51100000000E-03 0. -1.
    9900012    2    1    2    0    0  0.49810287455E+00 -0.28969949929E+01 -0.18494321369E+02  0.72461531850E+02  0.69999949919E+02 0.  0.
        -12    1    1    2    0    0 -0.49810287455E+00  0.28969949929E+01  0.18494321369E+02  0.18726468150E+02  0.00000000000E+00 0.  1.
         11    1    3    3    0    0 -0.16561475901E+01 -0.15101459130E+02 -0.28137434291E+01  0.15450373622E+02  0.51100000000E-03 0. -1.
        -11    1    3    3    0    0  0.27677017975E+02  0.38241631715E+01 -0.74781184389E+01  0.28923412724E+02  0.51100000000E-03 0.  1.
         12    1    3    3    0    0 -0.25522767510E+02  0.83803009657E+01 -0.82024595014E+01  0.28087745505E+02  0.00000000000E+00 0. -1.
</event>
<event>
 7    1  0.2710146E-013  0.7246164E+02  0.7816164E-02  0.1226708E+00
        -11   -1    0    0    0    0  0.00000000000E+00  0.00000000000E+00  0.45593999997E+02  0.45594000000E+02  0.51100000000E-03 0.  1.
         11   -1    0    0    0    0 -0.00000000000E+00 -0.00000000000E+00 -0.45593999997E+02  0.45594000000E+02  0.51100000000E-03 0. -1.
    9900012    2    1    2    0    0 -0.16753415662E+02  0.37202818986E+01 -0.74939339668E+01  0.72461642104E+02  0.70000093545E+02 0.  0.
        -12    1    1    2    0    0  0.16753415662E+02 -0.37202818986E+01  0.74939339668E+01  0.18726357896E+02  0.00000000000E+00 0.  1.
         11    1    3    3    0    0  0.99012358294E+01 -0.51656899691E+01  0.21452071229E+01  0.11371927614E+02  0.51100000000E-03 0. -1.
        -11    1    3    3    0    0 -0.11918186192E+02 -0.21874396891E+02 -0.10347801144E+02  0.26974235674E+02  0.51100000000E-03 0.  1.
         12    1    3    3    0    0 -0.14736465300E+02  0.30760368759E+02  0.70866005456E+00  0.34115478815E+02  0.00000000000E+00 0. -1.
</event>
<event>
 7    1  0.2710146E-013  0.7246159E+02  0.7816164E-02  0.1226708E+00
        -11   -1    0    0    0    0  0.00000000000E+00  0.00000000000E+00  0.45593999997E+02  0.45594000000E+02  0.51100000000E-03 0.  1.
         11   -1    0    0    0    0 -0.00000000000E+00 -0.00000000000E+00 -0.45593999997E+02  0.45594000000E+02  0.51100000000E-03 0. -1.
    9900012    2    1    2    0    0 -0.18020838367E+02 -0.26770011741E+01 -0.43314506143E+01  0.72461590436E+02  0.70000026238E+02 0.  0.
        -12    1    1    2    0    0  0.18020838367E+02  0.26770011741E+01  0.43314506143E+01  0.18726409564E+02  0.00000000000E+00 0.  1.
         11    1    3    3    0    0 -0.19572078878E+02 -0.10950606540E+02 -0.30436243564E+02  0.37806705460E+02  0.51100000000E-03 0. -1.
        -11    1    3    3    0    0  0.29762836776E+01  0.67502076560E+01 -0.10222786513E+01  0.74477259503E+01  0.51100000000E-03 0.  1.
        -12    1    3    3    0    0 -0.14250431674E+01  0.15233977096E+01  0.27127071601E+02  0.27207159026E+02  0.00000000000E+00 0.  1.
</event>
<event>
 7    1  0.2710146E-013  0.7246153E+02  0.7816164E-02  0.1226708E+00
        -11   -1    0    0    0    0  0.00000000000E+00  0.00000000000E+00  0.45593999997E+02  0.45594000000E+02  0.51100000000E-03 0.  1.
         11   -1    0    0    0    0 -0.00000000000E+00 -0.00000000000E+00 -0.45593999997E+02  0.45594000000E+02  0.51100000000E-03 0. -1.
    9900012    2    1    2    0    0 -0.11571835014E+02  0.14721278590E+02  0.23954520565E+00  0.72461527005E+02  0.69999943608E+02 0.  0.
        -12    1    1    2    0    0  0.11571835014E+02 -0.14721278590E+02 -0.23954520565E+00  0.18726472995E+02  0.00000000000E+00 0.  1.
         11    1    3    3    0    0  0.12675193742E+02 -0.17559935019E+02 -0.98637555898E+01  0.23797174808E+02  0.51100000000E-03 0. -1.
        -11    1    3    3    0    0  0.46061146761E+01  0.66661655182E+01  0.55333332176E+01  0.98118210279E+01  0.51100000000E-03 0.  1.
        -12    1    3    3    0    0 -0.28853143432E+02  0.25615048090E+02  0.45699675778E+01  0.38852531169E+02  0.00000000000E+00 0.  1.
</event>
<event>
 7    1  0.2710146E-013  0.7246153E+02  0.7816164E-02  0.1226708E+00
        -11   -1    0    0    0    0  0.00000000000E+00  0.00000000000E+00  0.45593999997E+02  0.45594000000E+02  0.51100000000E-03 0.  1.
         11   -1    0    0    0    0 -0.00000000000E+00 -0.00000000000E+00 -0.45593999997E+02  0.45594000000E+02  0.51100000000E-03 0. -1.
    9900012    2    1    2    0    0  0.76253311837E+01  0.24423777580E+01 -0.16928369593E+02  0.72461532584E+02  0.69999950876E+02 0.  0.
        -12    1    1    2    0    0 -0.76253311837E+01 -0.24423777580E+01  0.16928369593E+02  0.18726467416E+02  0.00000000000E+00 0.  1.
         11    1    3    3    0    0  0.16078013807E+02  0.20502767700E+02 -0.16299208048E+02  0.30733209962E+02  0.51100000000E-03 0. -1.
        -11    1    3    3    0    0  0.14400752893E+02 -0.71934002042E+01 -0.27635861341E+01  0.16332914589E+02  0.51100000000E-03 0.  1.
        -12    1    3    3    0    0 -0.22853435517E+02 -0.10866989737E+02  0.21344245885E+01  0.25395408034E+02  0.00000000000E+00 0.  1.
</event>
<event>
 7    1  0.3024420E-013  0.7246157E+02  0.7816164E-02  0.1226708E+00
        -11   -1    0    0    0    0  0.00000000000E+00  0.00000000000E+00  0.45593999997E+02  0.45594000000E+02  0.51100000000E-03 0.  1.
         11   -1    0    0    0    0 -0.00000000000E+00 -0.00000000000E+00 -0.45593999997E+02  0.45594000000E+02  0.51100000000E-03 0. -1.
    9900012    2    1    2    0    0 -0.16835655999E+02  0.33317043030E+00 -0.81932294650E+01  0.72461566156E+02  0.69999994609E+02 0.  0.
        -12    1    1    2    0    0  0.16835655999E+02 -0.33317043030E+00  0.81932294650E+01  0.18726433844E+02  0.00000000000E+00 0.  1.
         11    1    3    3    0    0 -0.58295422272E+01 -0.14336368477E+02  0.42766451662E+01  0.16056298385E+02  0.51100000000E-03 0. -1.
        -11    1    3    3    0    0 -0.73455003005E+01  0.12241257354E+02  0.19482077415E+02  0.24152765824E+02  0.51100000000E-03 0.  1.
         12    1    3    3    0    0 -0.36606134711E+01  0.24282815533E+01 -0.31951952046E+02  0.32252501947E+02  0.00000000000E+00 0. -1.
</event>
<event>
 7    1  0.2710146E-013  0.7246155E+02  0.7816164E-02  0.1226708E+00
        -11   -1    0    0    0    0  0.00000000000E+00  0.00000000000E+00  0.45593999997E+02  0.45594000000E+02  0.51100000000E-03 0.  1.
         11   -1    0    0    0    0 -0.00000000000E+00 -0.00000000000E+00 -0.45593999997E+02  0.45594000000E+02  0.51100000000E-03 0. -1.
    9900012    2    1    2    0    0 -0.15615380114E+02  0.64340344874E+01 -0.80896917082E+01  0.72461547911E+02  0.69999970842E+02 0.  0.
        -12    1    1    2    0    0  0.15615380114E+02 -0.64340344874E+01  0.80896917082E+01  0.18726452089E+02  0.00000000000E+00 0.  1.
         11    1    3    3    0    0 -0.16384644097E+02 -0.93539670928E+01 -0.26717387102E+02  0.32707369757E+02  0.51100000000E-03 0. -1.
        -11    1    3    3    0    0 -0.12757026592E+01 -0.24962560295E+01 -0.73812814007E+01  0.78956967278E+01  0.51100000000E-03 0.  1.
        -12    1    3    3    0    0  0.20449666416E+01  0.18284257610E+02  0.26008976795E+02  0.31858481427E+02  0.00000000000E+00 0.  1.
</event>
<event>
 7    1  0.2710146E-013  0.7246155E+02  0.7816164E-02  0.1226708E+00
        -11   -1    0    0    0    0  0.00000000000E+00  0.00000000000E+00  0.45593999997E+02  0.45594000000E+02  0.51100000000E-03 0.  1.
         11   -1    0    0    0    0 -0.00000000000E+00 -0.00000000000E+00 -0.45593999997E+02  0.45594000000E+02  0.51100000000E-03 0. -1.
    9900012    2    1    2    0    0  0.28984545947E+01 -0.17999468873E+02 -0.42776101333E+01  0.72461551666E+02  0.69999975733E+02 0.  0.
        -12    1    1    2    0    0 -0.28984545947E+01  0.17999468873E+02  0.42776101333E+01  0.18726448334E+02  0.00000000000E+00 0.  1.
         11    1    3    3    0    0 -0.10417182261E+02 -0.14731366421E+02 -0.22214569520E+02  0.28618489514E+02  0.51100000000E-03 0. -1.
        -11    1    3    3    0    0  0.54545176173E+01 -0.10773695487E+02 -0.88259634398E+01  0.14957336253E+02  0.51100000000E-03 0.  1.
        -12    1    3    3    0    0  0.78611192384E+01  0.75055930348E+01  0.26762922826E+02  0.28885725898E+02  0.00000000000E+00 0.  1.
</event>
<event>
 7    1  0.2710146E-013  0.7246159E+02  0.7816164E-02  0.1226708E+00
        -11   -1    0    0    0    0  0.00000000000E+00  0.00000000000E+00  0.45593999997E+02  0.45594000000E+02  0.51100000000E-03 0.  1.
         11   -1    0    0    0    0 -0.00000000000E+00 -0.00000000000E+00 -0.45593999997E+02  0.45594000000E+02  0.51100000000E-03 0. -1.
    9900012    2    1    2    0    0 -0.12124513889E+02 -0.11092578991E+02 -0.89793742438E+01  0.72461593310E+02  0.70000029982E+02 0.  0.
        -12    1    1    2    0    0  0.12124513889E+02  0.11092578991E+02  0.89793742438E+01  0.18726406690E+02  0.00000000000E+00 0.  1.
         11    1    3    3    0    0 -0.11430507866E+02 -0.83085670689E+01 -0.69537834828E+01  0.15749409570E+02  0.51100000000E-03 0. -1.
        -11    1    3    3    0    0 -0.27257609241E+02  0.36973376025E+01 -0.81551969283E+01  0.28690674514E+02  0.51100000000E-03 0.  1.
         12    1    3    3    0    0  0.26563603217E+02 -0.64813495247E+01  0.61296061674E+01  0.28021509226E+02  0.00000000000E+00 0. -1.
</event>
<event>
 7    1  0.2710146E-013  0.7246166E+02  0.7816164E-02  0.1226708E+00
        -11   -1    0    0    0    0  0.00000000000E+00  0.00000000000E+00  0.45593999997E+02  0.45594000000E+02  0.51100000000E-03 0. -1.
         11   -1    0    0    0    0 -0.00000000000E+00 -0.00000000000E+00 -0.45593999997E+02  0.45594000000E+02  0.51100000000E-03 0.  1.
    9900012    2    1    2    0    0 -0.14307007034E+02 -0.12009801621E+02  0.13228237825E+01  0.72461664320E+02  0.70000122485E+02 0.  0.
        -12    1    1    2    0    0  0.14307007034E+02  0.12009801621E+02 -0.13228237825E+01  0.18726335680E+02  0.00000000000E+00 0.  1.
         11    1    3    3    0    0 -0.96422118575E+01 -0.30903617890E+02  0.13177612701E+02  0.34952186269E+02  0.51100000000E-03 0. -1.
        -11    1    3    3    0    0 -0.52130401169E+01  0.88943183313E+01  0.94393096456E+01  0.13978027496E+02  0.51100000000E-03 0.  1.
        -12    1    3    3    0    0  0.54824494032E+00  0.99994979377E+01 -0.21294098565E+02  0.23531450554E+02  0.00000000000E+00 0.  1.
</event>
<event>
 7    1  0.2710146E-013  0.7246152E+02  0.7816164E-02  0.1226708E+00
        -11   -1    0    0    0    0  0.00000000000E+00  0.00000000000E+00  0.45593999997E+02  0.45594000000E+02  0.51100000000E-03 0. -1.
         11   -1    0    0    0    0 -0.00000000000E+00 -0.00000000000E+00 -0.45593999997E+02  0.45594000000E+02  0.51100000000E-03 0.  1.
    9900012    2    1    2    0    0 -0.48908928528E+01 -0.12635664972E+02  0.12926722636E+02  0.72461520879E+02  0.69999935627E+02 0.  0.
        -12    1    1    2    0    0  0.48908928528E+01  0.12635664972E+02 -0.12926722636E+02  0.18726479121E+02  0.00000000000E+00 0.  1.
         11    1    3    3    0    0  0.11358613750E+01 -0.55732169392E+01  0.23927698955E+01  0.61705977140E+01  0.51100000000E-03 0. -1.
        -11    1    3    3    0    0 -0.32282976379E+02 -0.51407129428E+01  0.19990477174E+02  0.38317576533E+02  0.51100000000E-03 0.  1.
         12    1    3    3    0    0  0.26256222151E+02 -0.19217350896E+01 -0.94565244335E+01  0.27973346632E+02  0.00000000000E+00 0. -1.
</event>
<event>
 7    1  0.2710146E-013  0.7246157E+02  0.7816164E-02  0.1226708E+00
        -11   -1    0    0    0    0  0.00000000000E+00  0.00000000000E+00  0.45593999997E+02  0.45594000000E+02  0.51100000000E-03 0.  1.
         11   -1    0    0    0    0 -0.00000000000E+00 -0.00000000000E+00 -0.45593999997E+02  0.45594000000E+02  0.51100000000E-03 0. -1.
    9900012    2    1    2    0    0  0.50869370788E+01 -0.59204841495E+01  0.17022045615E+02  0.72461572195E+02  0.70000002476E+02 0.  0.
        -12    1    1    2    0    0 -0.50869370788E+01  0.59204841495E+01 -0.17022045615E+02  0.18726427805E+02  0.00000000000E+00 0.  1.
         11    1    3    3    0    0 -0.26323480738E+01  0.50443693953E+01 -0.94969292774E+01  0.11070979403E+02  0.51100000000E-03 0. -1.
        -11    1    3    3    0    0  0.25592368485E+02 -0.19398771336E+02  0.55743324251E+01  0.32593785240E+02  0.51100000000E-03 0.  1.
         12    1    3    3    0    0 -0.17873083333E+02  0.84339177907E+01  0.20944642467E+02  0.28796807552E+02  0.00000000000E+00 0. -1.
</event>
<event>
 7    1  0.2710146E-013  0.7246157E+02  0.7816164E-02  0.1226708E+00
        -11   -1    0    0    0    0  0.00000000000E+00  0.00000000000E+00  0.45593999997E+02  0.45594000000E+02  0.51100000000E-03 0. -1.
         11   -1    0    0    0    0 -0.00000000000E+00 -0.00000000000E+00 -0.45593999997E+02  0.45594000000E+02  0.51100000000E-03 0.  1.
    9900012    2    1    2    0    0  0.12361413433E+02  0.13847225016E+02 -0.24756877807E+01  0.72461569141E+02  0.69999998498E+02 0.  0.
        -12    1    1    2    0    0 -0.12361413433E+02 -0.13847225016E+02  0.24756877807E+01  0.18726430859E+02  0.00000000000E+00 0.  1.
         11    1    3    3    0    0  0.95383366276E+01 -0.11876080106E+02  0.44747715441E+01  0.15875916507E+02  0.51100000000E-03 0. -1.
        -11    1    3    3    0    0 -0.22473392165E+02  0.60504004296E+01  0.18685175797E+01  0.23348491578E+02  0.51100000000E-03 0.  1.
         12    1    3    3    0    0  0.25296468971E+02  0.19672904693E+02 -0.88189769044E+01  0.33237161056E+02  0.00000000000E+00 0. -1.
</event>
<event>
 7    1  0.2710146E-013  0.7246151E+02  0.7816164E-02  0.1226708E+00
        -11   -1    0    0    0    0  0.00000000000E+00  0.00000000000E+00  0.45593999997E+02  0.45594000000E+02  0.51100000000E-03 0. -1.
         11   -1    0    0    0    0 -0.00000000000E+00 -0.00000000000E+00 -0.45593999997E+02  0.45594000000E+02  0.51100000000E-03 0.  1.
    9900012    2    1    2    0    0  0.38620553946E+01  0.16468466665E+01  0.18249758450E+02  0.72461514497E+02  0.69999927314E+02 0.  0.
        -12    1    1    2    0    0 -0.38620553946E+01 -0.16468466665E+01 -0.18249758450E+02  0.18726485503E+02  0.00000000000E+00 0.  1.
         11    1    3    3    0    0  0.53357835643E+01  0.45184742482E+01 -0.39286119907E+01  0.80200491402E+01  0.51100000000E-03 0. -1.
        -11    1    3    3    0    0 -0.30266246519E+02 -0.57643109504E+01  0.63496864659E+01  0.31457772927E+02  0.51100000000E-03 0.  1.
         12    1    3    3    0    0  0.28792518349E+02  0.28926833686E+01  0.15828683974E+02  0.32983692430E+02  0.00000000000E+00 0. -1.
</event>
<event>
 7    1  0.2710146E-013  0.7246155E+02  0.7816164E-02  0.1226708E+00
        -11   -1    0    0    0    0  0.00000000000E+00  0.00000000000E+00  0.45593999997E+02  0.45594000000E+02  0.51100000000E-03 0.  1.
         11   -1    0    0    0    0 -0.00000000000E+00 -0.00000000000E+00 -0.45593999997E+02  0.45594000000E+02  0.51100000000E-03 0. -1.
    9900012    2    1    2    0    0 -0.29477812114E+01 -0.15037823022E+02 -0.10763563587E+02  0.72461552488E+02  0.69999976804E+02 0.  0.
        -12    1    1    2    0    0  0.29477812114E+01  0.15037823022E+02  0.10763563587E+02  0.18726447512E+02  0.00000000000E+00 0.  1.
         11    1    3    3    0    0  0.83319095578E+01 -0.35554012614E+02 -0.16502935493E+01  0.36554507231E+02  0.51100000000E-03 0. -1.
        -11    1    3    3    0    0  0.30253889138E+01 -0.35622127025E+01  0.28255806568E+01  0.54613408359E+01  0.51100000000E-03 0.  1.
        -12    1    3    3    0    0 -0.14305079683E+02  0.24078402295E+02 -0.11938850695E+02  0.30445704421E+02  0.00000000000E+00 0.  1.
</event>
<event>
 7    1  0.2710146E-013  0.7246160E+02  0.7816164E-02  0.1226708E+00
        -11   -1    0    0    0    0  0.00000000000E+00  0.00000000000E+00  0.45593999997E+02  0.45594000000E+02  0.51100000000E-03 0. -1.
         11   -1    0    0    0    0 -0.00000000000E+00 -0.00000000000E+00 -0.45593999997E+02  0.45594000000E+02  0.51100000000E-03 0.  1.
    9900012    2    1    2    0    0 -0.10883227583E+01 -0.17440481307E+02 -0.67322654255E+01  0.72461595315E+02  0.70000032594E+02 0.  0.
        -12    1    1    2    0    0  0.10883227583E+01  0.17440481307E+02  0.67322654255E+01  0.18726404685E+02  0.00000000000E+00 0.  1.
         11    1    3    3    0    0 -0.80864417351E+00  0.14366523680E+01  0.14867734158E+02  0.14958856730E+02  0.51100000000E-03 0. -1.
        -11    1    3    3    0    0 -0.17657252376E+02 -0.27415507905E+02 -0.72580420410E+01  0.33407601077E+02  0.51100000000E-03 0.  1.
        -12    1    3    3    0    0  0.17377573792E+02  0.85383742298E+01 -0.14341957543E+02  0.24095137508E+02  0.00000000000E+00 0.  1.
</event>
<event>
 7    1  0.2710146E-013  0.7246170E+02  0.7816164E-02  0.1226708E+00
        -11   -1    0    0    0    0  0.00000000000E+00  0.00000000000E+00  0.45593999997E+02  0.45594000000E+02  0.51100000000E-03 0. -1.
         11   -1    0    0    0    0 -0.00000000000E+00 -0.00000000000E+00 -0.45593999997E+02  0.45594000000E+02  0.51100000000E-03 0.  1.
    9900012    2    1    2    0    0 -0.88576719700E+01  0.13912446788E+02 -0.88690305403E+01  0.72461702153E+02  0.70000171770E+02 0.  0.
        -12    1    1    2    0    0  0.88576719700E+01 -0.13912446788E+02  0.88690305403E+01  0.18726297847E+02  0.00000000000E+00 0.  1.
         11    1    3    3    0    0 -0.15031437000E+02 -0.12764906744E+02 -0.22179731633E+02  0.29678737137E+02  0.51100000000E-03 0. -1.
        -11    1    3    3    0    0 -0.29487741873E+01  0.90806426390E+01 -0.88732735813E+01  0.13034121538E+02  0.51100000000E-03 0.  1.
         12    1    3    3    0    0  0.91225392174E+01  0.17596710892E+02  0.22183974674E+02  0.29748843479E+02  0.00000000000E+00 0. -1.
</event>
<event>
 7    1  0.2710146E-013  0.7246147E+02  0.7816164E-02  0.1226708E+00
        -11   -1    0    0    0    0  0.00000000000E+00  0.00000000000E+00  0.45593999997E+02  0.45594000000E+02  0.51100000000E-03 0.  1.
         11   -1    0    0    0    0 -0.00000000000E+00 -0.00000000000E+00 -0.45593999997E+02  0.45594000000E+02  0.51100000000E-03 0. -1.
    9900012    2    1    2    0    0 -0.18390299715E+02  0.93533542792E+00  0.34066185370E+01  0.72461467331E+02  0.69999865870E+02 0.  0.
        -12    1    1    2    0    0  0.18390299715E+02 -0.93533542792E+00 -0.34066185370E+01  0.18726532669E+02  0.00000000000E+00 0.  1.
         11    1    3    3    0    0  0.31616856318E-01 -0.32290409416E+00  0.76545187380E+01  0.76613917829E+01  0.51100000000E-03 0. -1.
        -11    1    3    3    0    0 -0.12796253073E+02 -0.10887790171E+02  0.26436148717E+02  0.31323442128E+02  0.51100000000E-03 0.  1.
         12    1    3    3    0    0 -0.56256634978E+01  0.12146029693E+02 -0.30684048918E+02  0.33476633419E+02  0.00000000000E+00 0. -1.
</event>
<event>
 7    1  0.2710146E-013  0.7246162E+02  0.7816164E-02  0.1226708E+00
        -11   -1    0    0    0    0  0.00000000000E+00  0.00000000000E+00  0.45593999997E+02  0.45594000000E+02  0.51100000000E-03 0.  1.
         11   -1    0    0    0    0 -0.00000000000E+00 -0.00000000000E+00 -0.45593999997E+02  0.45594000000E+02  0.51100000000E-03 0. -1.
    9900012    2    1    2    0    0 -0.17300410985E+02 -0.68216914549E+01 -0.21994998443E+01  0.72461615028E+02  0.70000058274E+02 0.  0.
        -12    1    1    2    0    0  0.17300410985E+02  0.68216914549E+01  0.21994998443E+01  0.18726384972E+02  0.00000000000E+00 0.  1.
         11    1    3    3    0    0 -0.35295749386E+00  0.54795345794E+01  0.94847127506E+01  0.10959455024E+02  0.51100000000E-03 0. -1.
        -11    1    3    3    0    0 -0.15826447102E+02  0.10430010472E+00  0.21131886076E+02  0.26401589267E+02  0.51100000000E-03 0.  1.
        -12    1    3    3    0    0 -0.11210063886E+01 -0.12405526139E+02 -0.32816098671E+02  0.35100570738E+02  0.00000000000E+00 0.  1.
</event>
<event>
 7    1  0.2710146E-013  0.7246160E+02  0.7816164E-02  0.1226708E+00
        -11   -1    0    0    0    0  0.00000000000E+00  0.00000000000E+00  0.45593999997E+02  0.45594000000E+02  0.51100000000E-03 0.  1.
         11   -1    0    0    0    0 -0.00000000000E+00 -0.00000000000E+00 -0.45593999997E+02  0.45594000000E+02  0.51100000000E-03 0. -1.
    9900012    2    1    2    0    0 -0.18278032977E+02 -0.95687791376E-01 -0.40721336342E+01  0.72461603711E+02  0.70000043531E+02 0.  0.
        -12    1    1    2    0    0  0.18278032977E+02  0.95687791376E-01  0.40721336342E+01  0.18726396289E+02  0.00000000000E+00 0.  1.
         11    1    3    3    0    0 -0.17840884295E+02 -0.28844219586E+00 -0.33328940604E+01  0.18151819038E+02  0.51100000000E-03 0. -1.
        -11    1    3    3    0    0 -0.93364549002E+01  0.57694126714E+01  0.24569022888E+02  0.26908965023E+02  0.51100000000E-03 0.  1.
        -12    1    3    3    0    0  0.88993062179E+01 -0.55766582669E+01 -0.25308262462E+02  0.27400819649E+02  0.00000000000E+00 0.  1.
</event>
<event>
 7    1  0.2710146E-013  0.7246140E+02  0.7816164E-02  0.1226708E+00
        -11   -1    0    0    0    0  0.00000000000E+00  0.00000000000E+00  0.45593999997E+02  0.45594000000E+02  0.51100000000E-03 0. -1.
         11   -1    0    0    0    0 -0.00000000000E+00 -0.00000000000E+00 -0.45593999997E+02  0.45594000000E+02  0.51100000000E-03 0.  1.
    9900012    2    1    2    0    0  0.52058129134E+01  0.11581582195E+02  0.13764155202E+02  0.72461401199E+02  0.69999779722E+02 0.  0.
        -12    1    1    2    0    0 -0.52058129134E+01 -0.11581582195E+02 -0.13764155202E+02  0.18726598801E+02  0.00000000000E+00 0.  1.
         11    1    3    3    0    0 -0.14104610810E+02 -0.84565147029E+01 -0.57151575065E+01  0.17410218626E+02  0.51100000000E-03 0. -1.
        -11    1    3    3    0    0  0.28389827235E+01  0.35080243517E+01 -0.13735789343E+02  0.14458145347E+02  0.51100000000E-03 0.  1.
        -12    1    3    3    0    0  0.16471441000E+02  0.16530072546E+02  0.33215102051E+02  0.40593037226E+02  0.00000000000E+00 0.  1.
</event>
<event>
 7    1  0.2710146E-013  0.7246150E+02  0.7816164E-02  0.1226708E+00
        -11   -1    0    0    0    0  0.00000000000E+00  0.00000000000E+00  0.45593999997E+02  0.45594000000E+02  0.51100000000E-03 0.  1.
         11   -1    0    0    0    0 -0.00000000000E+00 -0.00000000000E+00 -0.45593999997E+02  0.45594000000E+02  0.51100000000E-03 0. -1.
    9900012    2    1    2    0    0  0.10843544315E+02 -0.12914063764E+02 -0.81440931441E+01  0.72461501412E+02  0.69999910268E+02 0.  0.
        -12    1    1    2    0    0 -0.10843544315E+02  0.12914063764E+02  0.81440931441E+01  0.18726498588E+02  0.00000000000E+00 0.  1.
         11    1    3    3    0    0  0.21607382569E+02  0.21341419900E+02 -0.13824109816E+02  0.33368266321E+02  0.51100000000E-03 0. -1.
        -11    1    3    3    0    0  0.46390005694E+00 -0.10972402027E+02 -0.37095934212E+01  0.11591802841E+02  0.51100000000E-03 0.  1.
        -12    1    3    3    0    0 -0.11227738311E+02 -0.23283081637E+02  0.93896100934E+01  0.27501432250E+02  0.00000000000E+00 0.  1.
</event>
<event>
 7    1  0.2710146E-013  0.7246164E+02  0.7816164E-02  0.1226708E+00
        -11   -1    0    0    0    0  0.00000000000E+00  0.00000000000E+00  0.45593999997E+02  0.45594000000E+02  0.51100000000E-03 0. -1.
         11   -1    0    0    0    0 -0.00000000000E+00 -0.00000000000E+00 -0.45593999997E+02  0.45594000000E+02  0.51100000000E-03 0.  1.
    9900012    2    1    2    0    0 -0.17442918965E+02 -0.52731262618E-01  0.68131118614E+01  0.72461636343E+02  0.70000086040E+02 0.  0.
        -12    1    1    2    0    0  0.17442918965E+02  0.52731262618E-01 -0.68131118614E+01  0.18726363657E+02  0.00000000000E+00 0.  1.
         11    1    3    3    0    0 -0.39144138950E+01 -0.15708836061E+02 -0.33503135902E+01  0.16532234210E+02  0.51100000000E-03 0. -1.
        -11    1    3    3    0    0  0.15317680857E+02 -0.72212830091E+01  0.88067260725E+01  0.19087605914E+02  0.51100000000E-03 0.  1.
         12    1    3    3    0    0 -0.28846185927E+02  0.22877387808E+02  0.13566993791E+01  0.36841796219E+02  0.00000000000E+00 0. -1.
</event>
<event>
 7    1  0.2710146E-013  0.7246160E+02  0.7816164E-02  0.1226708E+00
        -11   -1    0    0    0    0  0.00000000000E+00  0.00000000000E+00  0.45593999997E+02  0.45594000000E+02  0.51100000000E-03 0.  1.
         11   -1    0    0    0    0 -0.00000000000E+00 -0.00000000000E+00 -0.45593999997E+02  0.45594000000E+02  0.51100000000E-03 0. -1.
    9900012    2    1    2    0    0  0.70185339659E+01  0.41657643401E+01 -0.16854221655E+02  0.72461596203E+02  0.70000033751E+02 0.  0.
        -12    1    1    2    0    0 -0.70185339659E+01 -0.41657643401E+01  0.16854221655E+02  0.18726403797E+02  0.00000000000E+00 0.  1.
         11    1    3    3    0    0  0.33582654783E+01  0.15887093961E+02 -0.99834456415E+01  0.19061660177E+02  0.51100000000E-03 0. -1.
        -11    1    3    3    0    0 -0.17108859412E+02 -0.88428529752E+01  0.14004460043E+02  0.23812476151E+02  0.51100000000E-03 0.  1.
        -12    1    3    3    0    0  0.20769127899E+02 -0.28784766460E+01 -0.20875236056E+02  0.29587459875E+02  0.00000000000E+00 0.  1.
</event>
<event>
 7    1  0.2710146E-013  0.7246159E+02  0.7816164E-02  0.1226708E+00
        -11   -1    0    0    0    0  0.00000000000E+00  0.00000000000E+00  0.45593999997E+02  0.45594000000E+02  0.51100000000E-03 0.  1.
         11   -1    0    0    0    0 -0.00000000000E+00 -0.00000000000E+00 -0.45593999997E+02  0.45594000000E+02  0.51100000000E-03 0. -1.
    9900012    2    1    2    0    0  0.13647402587E+02 -0.11473802852E+02 -0.57252662624E+01  0.72461590226E+02  0.70000025965E+02 0.  0.
        -12    1    1    2    0    0 -0.13647402587E+02  0.11473802852E+02  0.57252662624E+01  0.18726409774E+02  0.00000000000E+00 0.  1.
         11    1    3    3    0    0  0.21686808701E+02  0.13783171151E+02  0.27996358298E+01  0.25848238618E+02  0.51100000000E-03 0. -1.
        -11    1    3    3    0    0  0.11378043387E+02  0.18021576119E+01  0.19841814413E+01  0.11689508956E+02  0.51100000000E-03 0.  1.
        -12    1    3    3    0    0 -0.19417449502E+02 -0.27059131614E+02 -0.10509083533E+02  0.34923842652E+02  0.00000000000E+00 0.  1.
</event>
<event>
 7    1  0.2710146E-013  0.7246150E+02  0.7816164E-02  0.1226708E+00
        -11   -1    0    0    0    0  0.00000000000E+00  0.00000000000E+00  0.45593999997E+02  0.45594000000E+02  0.51100000000E-03 0.  1.
         11   -1    0    0    0    0 -0.00000000000E+00 -0.00000000000E+00 -0.45593999997E+02  0.45594000000E+02  0.51100000000E-03 0. -1.
    9900012    2    1    2    0    0 -0.44005343669E+01 -0.18197573922E+02  0.40657512952E+00  0.72461502658E+02  0.69999911891E+02 0.  0.
        -12    1    1    2    0    0  0.44005343669E+01  0.18197573922E+02 -0.40657512952E+00  0.18726497342E+02  0.00000000000E+00 0.  1.
         11    1    3    3    0    0 -0.98026663793E+01 -0.15745863723E+02 -0.61334460233E+01  0.19535702007E+02  0.51100000000E-03 0. -1.
        -11    1    3    3    0    0 -0.15523024800E+02 -0.16562665510E+02 -0.76715154369E+01  0.23961183967E+02  0.51100000000E-03 0.  1.
        -12    1    3    3    0    0  0.20925156812E+02  0.14110955310E+02  0.14211536590E+02  0.28964616684E+02  0.00000000000E+00 0.  1.
</event>
<event>
 7    1  0.2710146E-013  0.7246152E+02  0.7816164E-02  0.1226708E+00
        -11   -1    0    0    0    0  0.00000000000E+00  0.00000000000E+00  0.45593999997E+02  0.45594000000E+02  0.51100000000E-03 0.  1.
         11   -1    0    0    0    0 -0.00000000000E+00 -0.00000000000E+00 -0.45593999997E+02  0.45594000000E+02  0.51100000000E-03 0. -1.
    9900012    2    1    2    0    0  0.58477136964E+01 -0.17037411802E+02 -0.51197531028E+01  0.72461520667E+02  0.69999935351E+02 0.  0.
        -12    1    1    2    0    0 -0.58477136964E+01  0.17037411802E+02  0.51197531028E+01  0.18726479333E+02  0.00000000000E+00 0.  1.
         11    1    3    3    0    0 -0.26228413699E+00 -0.68290576624E+01 -0.52785691332E+01  0.86352830805E+01  0.51100000000E-03 0. -1.
        -11    1    3    3    0    0  0.95751711507E+01 -0.31810299381E+02  0.15943831820E+02  0.36848131874E+02  0.51100000000E-03 0.  1.
        -12    1    3    3    0    0 -0.34651733174E+01  0.21601945241E+02 -0.15785015790E+02  0.26978105712E+02  0.00000000000E+00 0.  1.
</event>
<event>
 7    1  0.2710146E-013  0.7246155E+02  0.7816164E-02  0.1226708E+00
        -11   -1    0    0    0    0  0.00000000000E+00  0.00000000000E+00  0.45593999997E+02  0.45594000000E+02  0.51100000000E-03 0.  1.
         11   -1    0    0    0    0 -0.00000000000E+00 -0.00000000000E+00 -0.45593999997E+02  0.45594000000E+02  0.51100000000E-03 0. -1.
    9900012    2    1    2    0    0 -0.91699432111E+01  0.69792031069E+01 -0.14760849985E+02  0.72461552745E+02  0.69999977139E+02 0.  0.
        -12    1    1    2    0    0  0.91699432111E+01 -0.69792031069E+01  0.14760849985E+02  0.18726447255E+02  0.00000000000E+00 0.  1.
         11    1    3    3    0    0  0.14464412960E+01 -0.13345094468E+01 -0.53373625926E+01  0.56886331920E+01  0.51100000000E-03 0. -1.
        -11    1    3    3    0    0 -0.24427826045E+00  0.82766498448E+01  0.27344115035E+02  0.28570320821E+02  0.51100000000E-03 0.  1.
         12    1    3    3    0    0 -0.10372106247E+02  0.37062708937E-01 -0.36767602427E+02  0.38202598732E+02  0.00000000000E+00 0. -1.
</event>
<event>
 7    1  0.2710146E-013  0.7246152E+02  0.7816164E-02  0.1226708E+00
        -11   -1    0    0    0    0  0.00000000000E+00  0.00000000000E+00  0.45593999997E+02  0.45594000000E+02  0.51100000000E-03 0. -1.
         11   -1    0    0    0    0 -0.00000000000E+00 -0.00000000000E+00 -0.45593999997E+02  0.45594000000E+02  0.51100000000E-03 0.  1.
    9900012    2    1    2    0    0  0.22657562360E+01  0.10074312949E+02  0.15622277030E+02  0.72461522159E+02  0.69999937295E+02 0.  0.
        -12    1    1    2    0    0 -0.22657562360E+01 -0.10074312949E+02 -0.15622277030E+02  0.18726477841E+02  0.00000000000E+00 0.  1.
         11    1    3    3    0    0 -0.39625119852E+01  0.29620868448E+02  0.34954368508E+01  0.30088460045E+02  0.51100000000E-03 0. -1.
        -11    1    3    3    0    0  0.61394663977E+01  0.22034507831E+01 -0.96154924980E+01  0.11619205620E+02  0.51100000000E-03 0.  1.
        -12    1    3    3    0    0  0.88801823581E-01 -0.21750006282E+02  0.21742332677E+02  0.30753856494E+02  0.00000000000E+00 0.  1.
</event>
<event>
 7    1  0.2710146E-013  0.7246159E+02  0.7816164E-02  0.1226708E+00
        -11   -1    0    0    0    0  0.00000000000E+00  0.00000000000E+00  0.45593999997E+02  0.45594000000E+02  0.51100000000E-03 0. -1.
         11   -1    0    0    0    0 -0.00000000000E+00 -0.00000000000E+00 -0.45593999997E+02  0.45594000000E+02  0.51100000000E-03 0.  1.
    9900012    2    1    2    0    0  0.12187541842E+02 -0.11270341540E+02  0.86672693323E+01  0.72461592649E+02  0.70000029121E+02 0.  0.
        -12    1    1    2    0    0 -0.12187541842E+02  0.11270341540E+02 -0.86672693323E+01  0.18726407351E+02  0.00000000000E+00 0.  1.
         11    1    3    3    0    0  0.91676105098E+01 -0.32183087221E+02  0.74047014355E+00  0.33471547347E+02  0.51100000000E-03 0. -1.
        -11    1    3    3    0    0  0.14485500221E+01 -0.85082560462E+01  0.73409873542E+00  0.86618484937E+01  0.51100000000E-03 0.  1.
        -12    1    3    3    0    0  0.15713813104E+01  0.29421001727E+02  0.71927004533E+01  0.30328196808E+02  0.00000000000E+00 0.  1.
</event>
<event>
 7    1  0.2710146E-013  0.7246154E+02  0.7816164E-02  0.1226708E+00
        -11   -1    0    0    0    0  0.00000000000E+00  0.00000000000E+00  0.45593999997E+02  0.45594000000E+02  0.51100000000E-03 0. -1.
         11   -1    0    0    0    0 -0.00000000000E+00 -0.00000000000E+00 -0.45593999997E+02  0.45594000000E+02  0.51100000000E-03 0.  1.
    9900012    2    1    2    0    0  0.15594383702E+02  0.10217799410E+02 -0.17584587878E+01  0.72461537303E+02  0.69999957023E+02 0.  0.
        -12    1    1    2    0    0 -0.15594383702E+02 -0.10217799410E+02  0.17584587878E+01  0.18726462697E+02  0.00000000000E+00 0.  1.
         11    1    3    3    0    0 -0.99959096349E+01 -0.19269855577E+02 -0.83334479931E+01  0.23252782610E+02  0.51100000000E-03 0. -1.
        -11    1    3    3    0    0  0.17464375127E+02 -0.56307309878E+00  0.43409262319E+00  0.17478841110E+02  0.51100000000E-03 0.  1.
         12    1    3    3    0    0  0.81259182108E+01  0.30050728085E+02  0.61408965822E+01  0.31729913584E+02  0.00000000000E+00 0. -1.
</event>
<event>
 7    1  0.2710146E-013  0.7246154E+02  0.7816164E-02  0.1226708E+00
        -11   -1    0    0    0    0  0.00000000000E+00  0.00000000000E+00  0.45593999997E+02  0.45594000000E+02  0.51100000000E-03 0.  1.
         11   -1    0    0    0    0 -0.00000000000E+00 -0.00000000000E+00 -0.45593999997E+02  0.45594000000E+02  0.51100000000E-03 0. -1.
    9900012    2    1    2    0    0  0.93728153679E+01  0.62026173234E+01 -0.14978586446E+02  0.72461543275E+02  0.69999964802E+02 0.  0.
        -12    1    1    2    0    0 -0.93728153679E+01 -0.62026173234E+01  0.14978586446E+02  0.18726456725E+02  0.00000000000E+00 0.  1.
         11    1    3    3    0    0  0.12146856573E+02 -0.12843051742E+02  0.69342934128E+01  0.18988800069E+02  0.51100000000E-03 0. -1.
        -11    1    3    3    0    0 -0.12492328894E+01 -0.45020127251E+01  0.11588670873E+02  0.12495038786E+02  0.51100000000E-03 0.  1.
         12    1    3    3    0    0 -0.15248083157E+01  0.23547681790E+02 -0.33501550732E+02  0.40977704420E+02  0.00000000000E+00 0. -1.
</event>
<event>
 7    1  0.2710146E-013  0.7246155E+02  0.7816164E-02  0.1226708E+00
        -11   -1    0    0    0    0  0.00000000000E+00  0.00000000000E+00  0.45593999997E+02  0.45594000000E+02  0.51100000000E-03 0.  1.
         11   -1    0    0    0    0 -0.00000000000E+00 -0.00000000000E+00 -0.45593999997E+02  0.45594000000E+02  0.51100000000E-03 0. -1.
    9900012    2    1    2    0    0  0.16754567816E+02 -0.82262406455E+01  0.15144361702E+01  0.72461545590E+02  0.69999967818E+02 0.  0.
        -12    1    1    2    0    0 -0.16754567816E+02  0.82262406455E+01 -0.15144361702E+01  0.18726454410E+02  0.00000000000E+00 0.  1.
         11    1    3    3    0    0  0.13825156937E+02  0.10117883772E+02 -0.17567108848E+02  0.24537926764E+02  0.51100000000E-03 0. -1.
        -11    1    3    3    0    0  0.20188162051E+02 -0.12603147801E+02  0.17744168589E+02  0.29685968751E+02  0.51100000000E-03 0.  1.
         12    1    3    3    0    0 -0.17258751172E+02 -0.57409766158E+01  0.13373764289E+01  0.18237650075E+02  0.00000000000E+00 0. -1.
</event>
<event>
 7    1  0.2710146E-013  0.7246157E+02  0.7816164E-02  0.1226708E+00
        -11   -1    0    0    0    0  0.00000000000E+00  0.00000000000E+00  0.45593999997E+02  0.45594000000E+02  0.51100000000E-03 0.  1.
         11   -1    0    0    0    0 -0.00000000000E+00 -0.00000000000E+00 -0.45593999997E+02  0.45594000000E+02  0.51100000000E-03 0. -1.
    9900012    2    1    2    0    0 -0.13779730375E+01  0.18669041310E+02 -0.49730678038E+00  0.72461568755E+02  0.69999997995E+02 0.  0.
        -12    1    1    2    0    0  0.13779730375E+01 -0.18669041310E+02  0.49730678038E+00  0.18726431245E+02  0.00000000000E+00 0.  1.
         11    1    3    3    0    0  0.11846941095E+02 -0.51511715149E+01 -0.63118164558E+01  0.14377886094E+02  0.51100000000E-03 0. -1.
        -11    1    3    3    0    0 -0.54535048996E+01  0.35265946613E+02  0.17710001868E+02  0.39838070644E+02  0.51100000000E-03 0.  1.
         12    1    3    3    0    0 -0.77714092330E+01 -0.11445733787E+02 -0.11895492193E+02  0.18245612018E+02  0.00000000000E+00 0. -1.
</event>
<event>
 7    1  0.2710146E-013  0.7246156E+02  0.7816164E-02  0.1226708E+00
        -11   -1    0    0    0    0  0.00000000000E+00  0.00000000000E+00  0.45593999997E+02  0.45594000000E+02  0.51100000000E-03 0.  1.
         11   -1    0    0    0    0 -0.00000000000E+00 -0.00000000000E+00 -0.45593999997E+02  0.45594000000E+02  0.51100000000E-03 0. -1.
    9900012    2    1    2    0    0  0.58700648418E+01  0.93512759850E+01 -0.15125322070E+02  0.72461564367E+02  0.69999992279E+02 0.  0.
        -12    1    1    2    0    0 -0.58700648418E+01 -0.93512759850E+01  0.15125322070E+02  0.18726435633E+02  0.00000000000E+00 0.  1.
         11    1    3    3    0    0 -0.15442284490E+01  0.39245578206E+01 -0.14850375210E+02  0.15437630638E+02  0.51100000000E-03 0. -1.
        -11    1    3    3    0    0 -0.68600871178E+01  0.22421517370E+02 -0.17227564227E+02  0.29095948272E+02  0.51100000000E-03 0.  1.
        -12    1    3    3    0    0  0.14274380409E+02 -0.16994799205E+02  0.16952617367E+02  0.27927985456E+02  0.00000000000E+00 0.  1.
</event>
