<event>
 7    1  0.2661323E-011  0.5052886E+02  0.7816164E-02  0.1300439E+00
        -11   -1    0    0    0    0  0.00000000000E+00  0.00000000000E+00  0.45593999997E+02  0.45594000000E+02  0.51100000000E-03 0.  1.
         11   -1    0    0    0    0 -0.00000000000E+00 -0.00000000000E+00 -0.45593999997E+02  0.45594000000E+02  0.51100000000E-03 0. -1.
    9900012    2    1    2    0    0  0.13447081994E+02  0.19178898583E+02  0.33234189048E+02  0.50528862200E+02  0.30000007142E+02 0.  0.
         12    1    1    2    0    0 -0.13447081994E+02 -0.19178898583E+02 -0.33234189048E+02  0.40659137800E+02  0.00000000000E+00 0. -1.
         11    1    3    3    0    0  0.65384632026E+01  0.13406571564E+02  0.21721049941E+02  0.26349415040E+02  0.51100000000E-03 0.  1.
        -11    1    3    3    0    0  0.25056659583E+00 -0.45538217442E+01  0.10970720593E+02  0.11880942163E+02  0.51100000000E-03 0. -1.
         12    1    3    3    0    0  0.66580521953E+01  0.10326148763E+02  0.54241851397E+00  0.12298504997E+02  0.00000000000E+00 0. -1.
</event>
<event>
 7    1  0.2661323E-011  0.5052886E+02  0.7816164E-02  0.1300439E+00
        -11   -1    0    0    0    0  0.00000000000E+00  0.00000000000E+00  0.45593999997E+02  0.45594000000E+02  0.51100000000E-03 0. -1.
         11   -1    0    0    0    0 -0.00000000000E+00 -0.00000000000E+00 -0.45593999997E+02  0.45594000000E+02  0.51100000000E-03 0.  1.
    9900012    2    1    2    0    0 -0.32040143204E+02 -0.22296912189E+02 -0.11377275150E+02  0.50528862533E+02  0.30000008156E+02 0.  0.
         12    1    1    2    0    0  0.32040143204E+02  0.22296912189E+02  0.11377275150E+02  0.40659137467E+02  0.00000000000E+00 0. -1.
         11    1    3    3    0    0 -0.38860854011E+01 -0.10634425309E+02 -0.22194117735E+01  0.11537696922E+02  0.51100000000E-03 0.  1.
        -11    1    3    3    0    0 -0.33392353286E+01  0.50759615363E+01  0.28861425961E+01  0.67264922095E+01  0.51100000000E-03 0. -1.
         12    1    3    3    0    0 -0.24814822474E+02 -0.16738448417E+02 -0.12044005973E+02  0.32264673401E+02  0.00000000000E+00 0. -1.
</event>
<event>
 7    1  0.2661323E-011  0.5052886E+02  0.7816164E-02  0.1300439E+00
        -11   -1    0    0    0    0  0.00000000000E+00  0.00000000000E+00  0.45593999997E+02  0.45594000000E+02  0.51100000000E-03 0.  1.
         11   -1    0    0    0    0 -0.00000000000E+00 -0.00000000000E+00 -0.45593999997E+02  0.45594000000E+02  0.51100000000E-03 0. -1.
    9900012    2    1    2    0    0  0.31182441753E+02 -0.11134194057E+02  0.23597685509E+02  0.50528859424E+02  0.29999998706E+02 0.  0.
         12    1    1    2    0    0 -0.31182441753E+02  0.11134194057E+02 -0.23597685509E+02  0.40659140576E+02  0.00000000000E+00 0. -1.
         11    1    3    3    0    0  0.49203937053E+01 -0.44664327346E+01 -0.23192401427E+01  0.70383357897E+01  0.51100000000E-03 0. -1.
        -11    1    3    3    0    0  0.45155518273E+01 -0.34380949587E+01 -0.35736969813E+01  0.67068633224E+01  0.51100000000E-03 0.  1.
        -12    1    3    3    0    0  0.21746496220E+02 -0.32296663641E+01  0.29490622633E+02  0.36783660312E+02  0.00000000000E+00 0.  1.
</event>
<event>
 7    1  0.2661323E-011  0.5052888E+02  0.7816164E-02  0.1300439E+00
        -11   -1    0    0    0    0  0.00000000000E+00  0.00000000000E+00  0.45593999997E+02  0.45594000000E+02  0.51100000000E-03 0.  1.
         11   -1    0    0    0    0 -0.00000000000E+00 -0.00000000000E+00 -0.45593999997E+02  0.45594000000E+02  0.51100000000E-03 0. -1.
    9900012    2    1    2    0    0 -0.98758370870E+01  0.35382346305E+02  0.17427614884E+02  0.50528876193E+02  0.30000049677E+02 0.  0.
         12    1    1    2    0    0  0.98758370870E+01 -0.35382346305E+02 -0.17427614884E+02  0.40659123807E+02  0.00000000000E+00 0. -1.
         11    1    3    3    0    0 -0.28002333526E+01  0.10165903185E+02  0.37783395948E+01  0.11201015345E+02  0.51100000000E-03 0. -1.
        -11    1    3    3    0    0 -0.82310421423E+01  0.23307442620E+02 -0.77667467293E+00  0.24730348967E+02  0.51100000000E-03 0.  1.
         12    1    3    3    0    0  0.11554384079E+01  0.19090004995E+01  0.14425949962E+02  0.14597511881E+02  0.00000000000E+00 0. -1.
</event>
<event>
 7    1  0.2661323E-011  0.5052885E+02  0.7816164E-02  0.1300439E+00
        -11   -1    0    0    0    0  0.00000000000E+00  0.00000000000E+00  0.45593999997E+02  0.45594000000E+02  0.51100000000E-03 0.  1.
         11   -1    0    0    0    0 -0.00000000000E+00 -0.00000000000E+00 -0.45593999997E+02  0.45594000000E+02  0.51100000000E-03 0. -1.
    9900012    2    1    2    0    0  0.13535129818E+02  0.30519597292E+02  0.23206047811E+02  0.50528853267E+02  0.29999979990E+02 0.  0.
         12    1    1    2    0    0 -0.13535129818E+02 -0.30519597292E+02 -0.23206047811E+02  0.40659146733E+02  0.00000000000E+00 0. -1.
         11    1    3    3    0    0  0.36714288931E+01  0.21598148362E+01  0.70077298251E+01  0.82007601969E+01  0.51100000000E-03 0. -1.
        -11    1    3    3    0    0  0.57935882647E+00 -0.43529047261E+01  0.46994424461E+01  0.64318112355E+01  0.51100000000E-03 0.  1.
         12    1    3    3    0    0  0.92843420988E+01  0.32712687182E+02  0.11498875539E+02  0.35896281835E+02  0.00000000000E+00 0. -1.
</event>
<event>
 7    1  0.2661323E-011  0.5052896E+02  0.7816164E-02  0.1300438E+00
        -11   -1    0    0    0    0  0.00000000000E+00  0.00000000000E+00  0.45593999997E+02  0.45594000000E+02  0.51100000000E-03 0.  1.
         11   -1    0    0    0    0 -0.00000000000E+00 -0.00000000000E+00 -0.45593999997E+02  0.45594000000E+02  0.51100000000E-03 0. -1.
    9900012    2    1    2    0    0 -0.23961502897E+02  0.33377580164E+01  0.32678173966E+02  0.50528962832E+02  0.30000313024E+02 0.  0.
         12    1    1    2    0    0  0.23961502897E+02 -0.33377580164E+01 -0.32678173966E+02  0.40659037168E+02  0.00000000000E+00 0. -1.
         11    1    3    3    0    0 -0.14261716055E+02  0.12905330167E+02  0.16060066251E+02  0.25057330660E+02  0.51100000000E-03 0.  1.
        -11    1    3    3    0    0  0.33626188445E+01 -0.59095660499E+00  0.35969134279E+01  0.49592561610E+01  0.51100000000E-03 0. -1.
        -12    1    3    3    0    0 -0.13062405686E+02 -0.89766155458E+01  0.13021194287E+02  0.20512376011E+02  0.00000000000E+00 0.  1.
</event>
<event>
 7    1  0.2661323E-011  0.5052886E+02  0.7816164E-02  0.1300439E+00
        -11   -1    0    0    0    0  0.00000000000E+00  0.00000000000E+00  0.45593999997E+02  0.45594000000E+02  0.51100000000E-03 0. -1.
         11   -1    0    0    0    0 -0.00000000000E+00 -0.00000000000E+00 -0.45593999997E+02  0.45594000000E+02  0.51100000000E-03 0.  1.
    9900012    2    1    2    0    0 -0.57265004298E+01 -0.13216016490E+02 -0.38022488509E+02  0.50528861649E+02  0.30000005470E+02 0.  0.
         12    1    1    2    0    0  0.57265004298E+01  0.13216016490E+02  0.38022488509E+02  0.40659138351E+02  0.00000000000E+00 0. -1.
         11    1    3    3    0    0 -0.94423671860E+01  0.15434170862E+01 -0.12915343000E+02  0.16073161464E+02  0.51100000000E-03 0. -1.
        -11    1    3    3    0    0 -0.48082134750E+01  0.20692893062E+00 -0.11471225627E+01  0.49474869215E+01  0.51100000000E-03 0.  1.
        -12    1    3    3    0    0  0.85240802312E+01 -0.14966362506E+02 -0.23960022946E+02  0.29508213264E+02  0.00000000000E+00 0.  1.
</event>
<event>
 7    1  0.2661323E-011  0.5052886E+02  0.7816164E-02  0.1300439E+00
        -11   -1    0    0    0    0  0.00000000000E+00  0.00000000000E+00  0.45593999997E+02  0.45594000000E+02  0.51100000000E-03 0.  1.
         11   -1    0    0    0    0 -0.00000000000E+00 -0.00000000000E+00 -0.45593999997E+02  0.45594000000E+02  0.51100000000E-03 0. -1.
    9900012    2    1    2    0    0 -0.25863150743E+02 -0.14959034270E+01  0.31337281167E+02  0.50528862228E+02  0.30000007228E+02 0.  0.
         12    1    1    2    0    0  0.25863150743E+02  0.14959034270E+01 -0.31337281167E+02  0.40659137772E+02  0.00000000000E+00 0. -1.
         11    1    3    3    0    0 -0.55549953960E+01  0.82824211637E+00  0.55819398050E+01  0.79184601470E+01  0.51100000000E-03 0. -1.
        -11    1    3    3    0    0 -0.20225146755E+02  0.23465474811E+01  0.45057684314E+01  0.20853412089E+02  0.51100000000E-03 0.  1.
         12    1    3    3    0    0 -0.83008591665E-01 -0.46706930245E+01  0.21249572931E+02  0.21756989992E+02  0.00000000000E+00 0. -1.
</event>
<event>
 7    1  0.2661323E-011  0.5052886E+02  0.7816164E-02  0.1300439E+00
        -11   -1    0    0    0    0  0.00000000000E+00  0.00000000000E+00  0.45593999997E+02  0.45594000000E+02  0.51100000000E-03 0.  1.
         11   -1    0    0    0    0 -0.00000000000E+00 -0.00000000000E+00 -0.45593999997E+02  0.45594000000E+02  0.51100000000E-03 0. -1.
    9900012    2    1    2    0    0  0.35146479652E+02  0.16917288522E+02  0.11475883925E+02  0.50528860871E+02  0.30000003104E+02 0.  0.
         12    1    1    2    0    0 -0.35146479652E+02 -0.16917288522E+02 -0.11475883925E+02  0.40659139129E+02  0.00000000000E+00 0. -1.
         11    1    3    3    0    0  0.61461773491E+01  0.10242442355E+02 -0.70423251477E+01  0.13866415007E+02  0.51100000000E-03 0. -1.
        -11    1    3    3    0    0  0.71701045902E+01 -0.13373058555E+01  0.62396108128E+00  0.73203903228E+01  0.51100000000E-03 0.  1.
         12    1    3    3    0    0  0.21830197712E+02  0.80121520220E+01  0.17894247992E+02  0.29342055541E+02  0.00000000000E+00 0. -1.
</event>
<event>
 7    1  0.2661323E-011  0.5052886E+02  0.7816164E-02  0.1300439E+00
        -11   -1    0    0    0    0  0.00000000000E+00  0.00000000000E+00  0.45593999997E+02  0.45594000000E+02  0.51100000000E-03 0. -1.
         11   -1    0    0    0    0 -0.00000000000E+00 -0.00000000000E+00 -0.45593999997E+02  0.45594000000E+02  0.51100000000E-03 0.  1.
    9900012    2    1    2    0    0 -0.97038799111E+01  0.39179498220E+02 -0.48956378646E+01  0.50528860361E+02  0.30000001553E+02 0.  0.
         12    1    1    2    0    0  0.97038799111E+01 -0.39179498220E+02  0.48956378646E+01  0.40659139639E+02  0.00000000000E+00 0. -1.
         11    1    3    3    0    0 -0.83750088924E+01  0.20358585095E+02 -0.54008078707E+01  0.22666748486E+02  0.51100000000E-03 0. -1.
        -11    1    3    3    0    0 -0.65217699033E+01  0.20024828567E+02  0.40694406200E+01  0.21449652422E+02  0.51100000000E-03 0.  1.
         12    1    3    3    0    0  0.51928988846E+01 -0.12039154423E+01 -0.35642706139E+01  0.64124594523E+01  0.00000000000E+00 0. -1.
</event>
<event>
 7    1  0.2661323E-011  0.5052886E+02  0.7816164E-02  0.1300439E+00
        -11   -1    0    0    0    0  0.00000000000E+00  0.00000000000E+00  0.45593999997E+02  0.45594000000E+02  0.51100000000E-03 0.  1.
         11   -1    0    0    0    0 -0.00000000000E+00 -0.00000000000E+00 -0.45593999997E+02  0.45594000000E+02  0.51100000000E-03 0. -1.
    9900012    2    1    2    0    0  0.32520770110E+01 -0.67700458488E+01  0.39959431165E+02  0.50528860010E+02  0.30000000486E+02 0.  0.
         12    1    1    2    0    0 -0.32520770110E+01  0.67700458488E+01 -0.39959431165E+02  0.40659139990E+02  0.00000000000E+00 0. -1.
         11    1    3    3    0    0  0.56090191881E+01  0.33194351995E+01 -0.99346221351E+00  0.65929290704E+01  0.51100000000E-03 0. -1.
        -11    1    3    3    0    0  0.42146809968E+01 -0.16791706038E+01  0.69714786550E+01  0.83177319456E+01  0.51100000000E-03 0.  1.
        -12    1    3    3    0    0 -0.65716231738E+01 -0.84103104446E+01  0.33981414724E+02  0.35618198994E+02  0.00000000000E+00 0.  1.
</event>
<event>
 7    1  0.2661323E-011  0.5052886E+02  0.7816164E-02  0.1300439E+00
        -11   -1    0    0    0    0  0.00000000000E+00  0.00000000000E+00  0.45593999997E+02  0.45594000000E+02  0.51100000000E-03 0.  1.
         11   -1    0    0    0    0 -0.00000000000E+00 -0.00000000000E+00 -0.45593999997E+02  0.45594000000E+02  0.51100000000E-03 0. -1.
    9900012    2    1    2    0    0  0.85907385631E+01 -0.34242375853E+02  0.20169898279E+02  0.50528857243E+02  0.29999992077E+02 0.  0.
         12    1    1    2    0    0 -0.85907385631E+01  0.34242375853E+02 -0.20169898279E+02  0.40659142757E+02  0.00000000000E+00 0. -1.
         11    1    3    3    0    0 -0.29691641381E+01  0.12849528328E+01 -0.92169847264E+00  0.33640106714E+01  0.51100000000E-03 0. -1.
        -11    1    3    3    0    0 -0.23680611107E+01  0.13140781019E+01  0.62941869703E+00  0.27804105523E+01  0.51100000000E-03 0.  1.
        -12    1    3    3    0    0  0.13927963812E+02 -0.36841406788E+02  0.20462178055E+02  0.44384436020E+02  0.00000000000E+00 0.  1.
</event>
<event>
 7    1  0.2661323E-011  0.5052879E+02  0.7816164E-02  0.1300439E+00
        -11   -1    0    0    0    0  0.00000000000E+00  0.00000000000E+00  0.45593999997E+02  0.45594000000E+02  0.51100000000E-03 0.  1.
         11   -1    0    0    0    0 -0.00000000000E+00 -0.00000000000E+00 -0.45593999997E+02  0.45594000000E+02  0.51100000000E-03 0. -1.
    9900012    2    1    2    0    0 -0.24153589684E+02  0.22131141333E+02  0.24082938664E+02  0.50528791375E+02  0.29999791862E+02 0.  0.
         12    1    1    2    0    0  0.24153589684E+02 -0.22131141333E+02 -0.24082938664E+02  0.40659208625E+02  0.00000000000E+00 0. -1.
         11    1    3    3    0    0 -0.71669951420E+01  0.13669733206E+02  0.98680169429E+01  0.18319530123E+02  0.51100000000E-03 0. -1.
        -11    1    3    3    0    0 -0.12420973423E+02  0.10112513559E+02  0.19365621580E+02  0.25131072614E+02  0.51100000000E-03 0.  1.
         12    1    3    3    0    0 -0.45656211194E+01 -0.16511054320E+01 -0.51506998592E+01  0.70781886379E+01  0.00000000000E+00 0. -1.
</event>
<event>
 7    1  0.2661323E-011  0.5052886E+02  0.7816164E-02  0.1300439E+00
        -11   -1    0    0    0    0  0.00000000000E+00  0.00000000000E+00  0.45593999997E+02  0.45594000000E+02  0.51100000000E-03 0.  1.
         11   -1    0    0    0    0 -0.00000000000E+00 -0.00000000000E+00 -0.45593999997E+02  0.45594000000E+02  0.51100000000E-03 0. -1.
    9900012    2    1    2    0    0 -0.36991685357E+02 -0.16693002472E+02 -0.24747181165E+01  0.50528863919E+02  0.30000012369E+02 0.  0.
         12    1    1    2    0    0  0.36991685357E+02  0.16693002472E+02  0.24747181165E+01  0.40659136081E+02  0.00000000000E+00 0. -1.
         11    1    3    3    0    0 -0.17314323983E+02  0.20648062189E+01 -0.66002199342E+01  0.18644359553E+02  0.51100000000E-03 0. -1.
        -11    1    3    3    0    0  0.28061535032E+01 -0.25259611622E+01  0.13740137532E+01  0.40178217147E+01  0.51100000000E-03 0.  1.
         12    1    3    3    0    0 -0.22483514877E+02 -0.16231847529E+02  0.27514880645E+01  0.27866682652E+02  0.00000000000E+00 0. -1.
</event>
<event>
 7    1  0.2661323E-011  0.5052887E+02  0.7816164E-02  0.1300439E+00
        -11   -1    0    0    0    0  0.00000000000E+00  0.00000000000E+00  0.45593999997E+02  0.45594000000E+02  0.51100000000E-03 0.  1.
         11   -1    0    0    0    0 -0.00000000000E+00 -0.00000000000E+00 -0.45593999997E+02  0.45594000000E+02  0.51100000000E-03 0. -1.
    9900012    2    1    2    0    0 -0.20114696032E+02 -0.24153634305E+02  0.25790814478E+02  0.50528866241E+02  0.30000019426E+02 0.  0.
         12    1    1    2    0    0  0.20114696032E+02  0.24153634305E+02 -0.25790814478E+02  0.40659133759E+02  0.00000000000E+00 0. -1.
         11    1    3    3    0    0 -0.10042426945E+02 -0.35492096728E+01 -0.17454138688E+01  0.10793224638E+02  0.51100000000E-03 0. -1.
        -11    1    3    3    0    0 -0.55879457978E+01 -0.71133218544E+01  0.34523714365E+00  0.90522745755E+01  0.51100000000E-03 0.  1.
         12    1    3    3    0    0 -0.44843232886E+01 -0.13491102778E+02  0.27190991203E+02  0.30683367027E+02  0.00000000000E+00 0. -1.
</event>
<event>
 7    1  0.2661323E-011  0.5052886E+02  0.7816164E-02  0.1300439E+00
        -11   -1    0    0    0    0  0.00000000000E+00  0.00000000000E+00  0.45593999997E+02  0.45594000000E+02  0.51100000000E-03 0.  1.
         11   -1    0    0    0    0 -0.00000000000E+00 -0.00000000000E+00 -0.45593999997E+02  0.45594000000E+02  0.51100000000E-03 0. -1.
    9900012    2    1    2    0    0 -0.30586349714E+02  0.62084843928E+01  0.26059459235E+02  0.50528862246E+02  0.30000007283E+02 0.  0.
         12    1    1    2    0    0  0.30586349714E+02 -0.62084843928E+01 -0.26059459235E+02  0.40659137754E+02  0.00000000000E+00 0. -1.
         11    1    3    3    0    0 -0.95969375516E+01  0.42398309006E+01  0.89221441156E+01  0.13772510022E+02  0.51100000000E-03 0. -1.
        -11    1    3    3    0    0 -0.16847677080E+02  0.76055526094E+01  0.21622637039E+02  0.28446916991E+02  0.51100000000E-03 0.  1.
         12    1    3    3    0    0 -0.41417350825E+01 -0.56368991171E+01 -0.44853219205E+01  0.83094352324E+01  0.00000000000E+00 0. -1.
</event>
<event>
 7    1  0.2661323E-011  0.5052885E+02  0.7816164E-02  0.1300439E+00
        -11   -1    0    0    0    0  0.00000000000E+00  0.00000000000E+00  0.45593999997E+02  0.45594000000E+02  0.51100000000E-03 0.  1.
         11   -1    0    0    0    0 -0.00000000000E+00 -0.00000000000E+00 -0.45593999997E+02  0.45594000000E+02  0.51100000000E-03 0. -1.
    9900012    2    1    2    0    0  0.50707049124E+01 -0.17742039303E+02  0.36230850576E+02  0.50528849242E+02  0.29999967755E+02 0.  0.
         12    1    1    2    0    0 -0.50707049124E+01  0.17742039303E+02 -0.36230850576E+02  0.40659150758E+02  0.00000000000E+00 0. -1.
         11    1    3    3    0    0  0.42746598431E+01 -0.80113041821E+01  0.31145255486E+02  0.32441958187E+02  0.51100000000E-03 0. -1.
        -11    1    3    3    0    0  0.55703983163E+01 -0.35199371855E+01  0.74095173730E+01  0.99156564661E+01  0.51100000000E-03 0.  1.
         12    1    3    3    0    0 -0.47743532469E+01 -0.62107979358E+01 -0.23239222832E+01  0.81712345887E+01  0.00000000000E+00 0. -1.
</event>
<event>
 7    1  0.2661323E-011  0.5052882E+02  0.7816164E-02  0.1300439E+00
        -11   -1    0    0    0    0  0.00000000000E+00  0.00000000000E+00  0.45593999997E+02  0.45594000000E+02  0.51100000000E-03 0.  1.
         11   -1    0    0    0    0 -0.00000000000E+00 -0.00000000000E+00 -0.45593999997E+02  0.45594000000E+02  0.51100000000E-03 0. -1.
    9900012    2    1    2    0    0  0.35145074520E+02 -0.16611450210E+02  0.11918585683E+02  0.50528816218E+02  0.29999867377E+02 0.  0.
         12    1    1    2    0    0 -0.35145074520E+02  0.16611450210E+02 -0.11918585683E+02  0.40659183782E+02  0.00000000000E+00 0. -1.
         11    1    3    3    0    0 -0.53794403212E+00 -0.60640886078E+01 -0.31479514024E+01  0.68536233277E+01  0.51100000000E-03 0. -1.
        -11    1    3    3    0    0  0.27161793454E+01 -0.34665382863E+01 -0.30890547439E+01  0.53792915331E+01  0.51100000000E-03 0.  1.
        -12    1    3    3    0    0  0.32966839207E+02 -0.70808233163E+01  0.18155591830E+02  0.38295901358E+02  0.00000000000E+00 0.  1.
</event>
<event>
 7    1  0.2661323E-011  0.5052882E+02  0.7816164E-02  0.1300439E+00
        -11   -1    0    0    0    0  0.00000000000E+00  0.00000000000E+00  0.45593999997E+02  0.45594000000E+02  0.51100000000E-03 0.  1.
         11   -1    0    0    0    0 -0.00000000000E+00 -0.00000000000E+00 -0.45593999997E+02  0.45594000000E+02  0.51100000000E-03 0. -1.
    9900012    2    1    2    0    0 -0.74729639234E+01 -0.37205484001E+02  0.14597119582E+02  0.50528817401E+02  0.29999870970E+02 0.  0.
         12    1    1    2    0    0  0.74729639234E+01  0.37205484001E+02 -0.14597119582E+02  0.40659182599E+02  0.00000000000E+00 0. -1.
         11    1    3    3    0    0 -0.22784421075E+00 -0.44642504795E+01 -0.47702145168E+01  0.65373077123E+01  0.51100000000E-03 0. -1.
        -11    1    3    3    0    0 -0.18648392696E+01 -0.16329901062E+02 -0.19552263632E+01  0.16551924498E+02  0.51100000000E-03 0.  1.
        -12    1    3    3    0    0 -0.53802804431E+01 -0.16411332460E+02  0.21322560462E+02  0.27439585190E+02  0.00000000000E+00 0.  1.
</event>
<event>
 7    1  0.2661323E-011  0.5052885E+02  0.7816164E-02  0.1300439E+00
        -11   -1    0    0    0    0  0.00000000000E+00  0.00000000000E+00  0.45593999997E+02  0.45594000000E+02  0.51100000000E-03 0.  1.
         11   -1    0    0    0    0 -0.00000000000E+00 -0.00000000000E+00 -0.45593999997E+02  0.45594000000E+02  0.51100000000E-03 0. -1.
    9900012    2    1    2    0    0  0.10321345267E+02  0.13718325231E+02  0.36857072358E+02  0.50528850992E+02  0.29999973075E+02 0.  0.
         12    1    1    2    0    0 -0.10321345267E+02 -0.13718325231E+02 -0.36857072358E+02  0.40659149008E+02  0.00000000000E+00 0. -1.
         11    1    3    3    0    0 -0.19816601659E+01  0.10887049215E+01 -0.34976182592E+01  0.41648036169E+01  0.51100000000E-03 0. -1.
        -11    1    3    3    0    0  0.16265652799E+01  0.10333041874E+02  0.11675160819E+02  0.15675677000E+02  0.51100000000E-03 0.  1.
         12    1    3    3    0    0  0.10676440153E+02  0.22965784348E+01  0.28679529798E+02  0.30688370375E+02  0.00000000000E+00 0. -1.
</event>
<event>
 7    1  0.2661323E-011  0.5052886E+02  0.7816164E-02  0.1300439E+00
        -11   -1    0    0    0    0  0.00000000000E+00  0.00000000000E+00  0.45593999997E+02  0.45594000000E+02  0.51100000000E-03 0. -1.
         11   -1    0    0    0    0 -0.00000000000E+00 -0.00000000000E+00 -0.45593999997E+02  0.45594000000E+02  0.51100000000E-03 0.  1.
    9900012    2    1    2    0    0 -0.56533516293E+01 -0.30888110984E+02 -0.25828859329E+02  0.50528858850E+02  0.29999996960E+02 0.  0.
         12    1    1    2    0    0  0.56533516293E+01  0.30888110984E+02  0.25828859329E+02  0.40659141150E+02  0.00000000000E+00 0. -1.
         11    1    3    3    0    0  0.75186431830E+01 -0.34290483729E+01 -0.29831920093E+01  0.87856589327E+01  0.51100000000E-03 0. -1.
        -11    1    3    3    0    0 -0.39460699144E+01 -0.25054014756E+02 -0.15707291211E+02  0.29832769241E+02  0.51100000000E-03 0.  1.
        -12    1    3    3    0    0 -0.92259248978E+01 -0.24050478553E+01 -0.71383761092E+01  0.11910430676E+02  0.00000000000E+00 0.  1.
</event>
<event>
 7    1  0.2661323E-011  0.5052886E+02  0.7816164E-02  0.1300439E+00
        -11   -1    0    0    0    0  0.00000000000E+00  0.00000000000E+00  0.45593999997E+02  0.45594000000E+02  0.51100000000E-03 0.  1.
         11   -1    0    0    0    0 -0.00000000000E+00 -0.00000000000E+00 -0.45593999997E+02  0.45594000000E+02  0.51100000000E-03 0. -1.
    9900012    2    1    2    0    0 -0.28674913352E+02 -0.62126091505E+01  0.28148153037E+02  0.50528859729E+02  0.29999999632E+02 0.  0.
         12    1    1    2    0    0  0.28674913352E+02  0.62126091505E+01 -0.28148153037E+02  0.40659140271E+02  0.00000000000E+00 0. -1.
         11    1    3    3    0    0 -0.75108738619E+01  0.43257869326E+01  0.33422258049E-01  0.86675703668E+01  0.51100000000E-03 0. -1.
        -11    1    3    3    0    0 -0.17483440376E+02 -0.48533425373E+01  0.66030413357E+01  0.19308696909E+02  0.51100000000E-03 0.  1.
        -12    1    3    3    0    0 -0.36805991134E+01 -0.56850535458E+01  0.21511689443E+02  0.22552592453E+02  0.00000000000E+00 0.  1.
</event>
<event>
 7    1  0.2661323E-011  0.5052885E+02  0.7816164E-02  0.1300439E+00
        -11   -1    0    0    0    0  0.00000000000E+00  0.00000000000E+00  0.45593999997E+02  0.45594000000E+02  0.51100000000E-03 0.  1.
         11   -1    0    0    0    0 -0.00000000000E+00 -0.00000000000E+00 -0.45593999997E+02  0.45594000000E+02  0.51100000000E-03 0. -1.
    9900012    2    1    2    0    0 -0.39061677732E+02  0.33744820038E+01 -0.10768687729E+02  0.50528850582E+02  0.29999971828E+02 0.  0.
         12    1    1    2    0    0  0.39061677732E+02 -0.33744820038E+01  0.10768687729E+02  0.40659149418E+02  0.00000000000E+00 0. -1.
         11    1    3    3    0    0 -0.21594915549E+02  0.73377302618E+01 -0.16542140256E+02  0.28174901375E+02  0.51100000000E-03 0. -1.
        -11    1    3    3    0    0 -0.18481289630E+02 -0.22241647492E+01  0.28907721431E+01  0.18837768951E+02  0.51100000000E-03 0.  1.
        -12    1    3    3    0    0  0.10145274472E+01 -0.17390835087E+01  0.28826803845E+01  0.35161802557E+01  0.00000000000E+00 0.  1.
</event>
<event>
 7    1  0.2661323E-011  0.5052886E+02  0.7816164E-02  0.1300439E+00
        -11   -1    0    0    0    0  0.00000000000E+00  0.00000000000E+00  0.45593999997E+02  0.45594000000E+02  0.51100000000E-03 0.  1.
         11   -1    0    0    0    0 -0.00000000000E+00 -0.00000000000E+00 -0.45593999997E+02  0.45594000000E+02  0.51100000000E-03 0. -1.
    9900012    2    1    2    0    0 -0.53153687302E+01 -0.12136706759E+02  0.38439732135E+02  0.50528858318E+02  0.29999995343E+02 0.  0.
         12    1    1    2    0    0  0.53153687302E+01  0.12136706759E+02 -0.38439732135E+02  0.40659141682E+02  0.00000000000E+00 0. -1.
         11    1    3    3    0    0 -0.71825092682E+01 -0.85806984595E+01  0.29548527096E+02  0.31596396618E+02  0.51100000000E-03 0. -1.
        -11    1    3    3    0    0 -0.40013158216E+01 -0.33764180449E+01  0.11402272621E+02  0.12546814269E+02  0.51100000000E-03 0.  1.
         12    1    3    3    0    0  0.58684563596E+01 -0.17959025490E+00 -0.25110675821E+01  0.63856474305E+01  0.00000000000E+00 0. -1.
</event>
<event>
 7    1  0.2661323E-011  0.5052885E+02  0.7816164E-02  0.1300439E+00
        -11   -1    0    0    0    0  0.00000000000E+00  0.00000000000E+00  0.45593999997E+02  0.45594000000E+02  0.51100000000E-03 0.  1.
         11   -1    0    0    0    0 -0.00000000000E+00 -0.00000000000E+00 -0.45593999997E+02  0.45594000000E+02  0.51100000000E-03 0. -1.
    9900012    2    1    2    0    0 -0.19963872941E+02 -0.30153364588E+02  0.18584524266E+02  0.50528853907E+02  0.29999981936E+02 0.  0.
         12    1    1    2    0    0  0.19963872941E+02  0.30153364588E+02 -0.18584524266E+02  0.40659146093E+02  0.00000000000E+00 0. -1.
         11    1    3    3    0    0 -0.14736670044E+01 -0.71998490323E+01 -0.22857965955E+01  0.76963879103E+01  0.51100000000E-03 0. -1.
        -11    1    3    3    0    0 -0.80358696730E+01 -0.97504925034E+01 -0.35900459007E+01  0.13135285885E+02  0.51100000000E-03 0.  1.
        -12    1    3    3    0    0 -0.10454336264E+02 -0.13203023053E+02  0.24460366762E+02  0.29697180111E+02  0.00000000000E+00 0.  1.
</event>
<event>
 7    1  0.2661323E-011  0.5052886E+02  0.7816164E-02  0.1300439E+00
        -11   -1    0    0    0    0  0.00000000000E+00  0.00000000000E+00  0.45593999997E+02  0.45594000000E+02  0.51100000000E-03 0. -1.
         11   -1    0    0    0    0 -0.00000000000E+00 -0.00000000000E+00 -0.45593999997E+02  0.45594000000E+02  0.51100000000E-03 0.  1.
    9900012    2    1    2    0    0 -0.35516082287E+02 -0.19356977184E+02 -0.41329033306E+01  0.50528861339E+02  0.30000004525E+02 0.  0.
         12    1    1    2    0    0  0.35516082287E+02  0.19356977184E+02  0.41329033306E+01  0.40659138661E+02  0.00000000000E+00 0. -1.
         11    1    3    3    0    0 -0.13965058496E+02 -0.20405944038E+02 -0.91962711458E+01  0.26381751537E+02  0.51100000000E-03 0.  1.
        -11    1    3    3    0    0 -0.76249443178E+01 -0.29012883257E+01 -0.14287716855E+01  0.82824295100E+01  0.51100000000E-03 0. -1.
         12    1    3    3    0    0 -0.13926079473E+02  0.39502551797E+01  0.64921395007E+01  0.15864680292E+02  0.00000000000E+00 0. -1.
</event>
<event>
 7    1  0.2661323E-011  0.5052886E+02  0.7816164E-02  0.1300439E+00
        -11   -1    0    0    0    0  0.00000000000E+00  0.00000000000E+00  0.45593999997E+02  0.45594000000E+02  0.51100000000E-03 0. -1.
         11   -1    0    0    0    0 -0.00000000000E+00 -0.00000000000E+00 -0.45593999997E+02  0.45594000000E+02  0.51100000000E-03 0.  1.
    9900012    2    1    2    0    0 -0.20176391974E+02 -0.32852308965E+02 -0.12915297892E+02  0.50528856907E+02  0.29999991054E+02 0.  0.
         12    1    1    2    0    0  0.20176391974E+02  0.32852308965E+02  0.12915297892E+02  0.40659143093E+02  0.00000000000E+00 0. -1.
         11    1    3    3    0    0 -0.89351692330E+00  0.10035777360E+01 -0.26844280547E+01  0.30019485350E+01  0.51100000000E-03 0. -1.
        -11    1    3    3    0    0  0.25930694445E+01  0.43963141661E+00 -0.60955654401E+01  0.66387651881E+01  0.51100000000E-03 0.  1.
        -12    1    3    3    0    0 -0.21875944495E+02 -0.34295518118E+02 -0.41353043969E+01  0.40888143184E+02  0.00000000000E+00 0.  1.
</event>
<event>
 7    1  0.2661323E-011  0.5052886E+02  0.7816164E-02  0.1300439E+00
        -11   -1    0    0    0    0  0.00000000000E+00  0.00000000000E+00  0.45593999997E+02  0.45594000000E+02  0.51100000000E-03 0. -1.
         11   -1    0    0    0    0 -0.00000000000E+00 -0.00000000000E+00 -0.45593999997E+02  0.45594000000E+02  0.51100000000E-03 0.  1.
    9900012    2    1    2    0    0 -0.18790165726E+02 -0.35384214161E+02 -0.69320169314E+01  0.50528858364E+02  0.29999995484E+02 0.  0.
         12    1    1    2    0    0  0.18790165726E+02  0.35384214161E+02  0.69320169314E+01  0.40659141636E+02  0.00000000000E+00 0. -1.
         11    1    3    3    0    0  0.28066925701E+01 -0.17845218345E+01 -0.12215086372E+00  0.33282070932E+01  0.51100000000E-03 0. -1.
        -11    1    3    3    0    0 -0.66900800352E+01 -0.14859323583E+02  0.88935684759E+01  0.18564811573E+02  0.51100000000E-03 0.  1.
         12    1    3    3    0    0 -0.14906778261E+02 -0.18740368744E+02 -0.15703434544E+02  0.28635839698E+02  0.00000000000E+00 0. -1.
</event>
<event>
 7    1  0.2661323E-011  0.5052887E+02  0.7816164E-02  0.1300439E+00
        -11   -1    0    0    0    0  0.00000000000E+00  0.00000000000E+00  0.45593999997E+02  0.45594000000E+02  0.51100000000E-03 0.  1.
         11   -1    0    0    0    0 -0.00000000000E+00 -0.00000000000E+00 -0.45593999997E+02  0.45594000000E+02  0.51100000000E-03 0. -1.
    9900012    2    1    2    0    0 -0.36977202188E+02  0.11256324898E+02  0.12615331686E+02  0.50528869101E+02  0.30000028120E+02 0.  0.
         12    1    1    2    0    0  0.36977202188E+02 -0.11256324898E+02 -0.12615331686E+02  0.40659130899E+02  0.00000000000E+00 0. -1.
         11    1    3    3    0    0 -0.43944437100E+01 -0.41125926857E+01  0.19347804141E+01  0.63220194267E+01  0.51100000000E-03 0. -1.
        -11    1    3    3    0    0 -0.17261812936E+01 -0.46726256115E+01 -0.18856644902E+01  0.53262428404E+01  0.51100000000E-03 0.  1.
        -12    1    3    3    0    0 -0.30856577185E+02  0.20041543195E+02  0.12566215762E+02  0.38880606834E+02  0.00000000000E+00 0.  1.
</event>
<event>
 7    1  0.2661323E-011  0.5052886E+02  0.7816164E-02  0.1300439E+00
        -11   -1    0    0    0    0  0.00000000000E+00  0.00000000000E+00  0.45593999997E+02  0.45594000000E+02  0.51100000000E-03 0. -1.
         11   -1    0    0    0    0 -0.00000000000E+00 -0.00000000000E+00 -0.45593999997E+02  0.45594000000E+02  0.51100000000E-03 0.  1.
    9900012    2    1    2    0    0 -0.19962772838E+02 -0.33777270981E+02 -0.10665345670E+02  0.50528856716E+02  0.29999990475E+02 0.  0.
         12    1    1    2    0    0  0.19962772838E+02  0.33777270981E+02  0.10665345670E+02  0.40659143284E+02  0.00000000000E+00 0. -1.
         11    1    3    3    0    0  0.10867668530E+01 -0.49122603051E+01 -0.35665313525E+01  0.61669692433E+01  0.51100000000E-03 0. -1.
        -11    1    3    3    0    0 -0.11349475273E+02 -0.54778814789E+01 -0.13271195507E+02  0.18301431772E+02  0.51100000000E-03 0.  1.
        -12    1    3    3    0    0 -0.97000644178E+01 -0.23387129197E+02  0.61723811897E+01  0.26060455701E+02  0.00000000000E+00 0.  1.
</event>
<event>
 7    1  0.2661323E-011  0.5052887E+02  0.7816164E-02  0.1300439E+00
        -11   -1    0    0    0    0  0.00000000000E+00  0.00000000000E+00  0.45593999997E+02  0.45594000000E+02  0.51100000000E-03 0. -1.
         11   -1    0    0    0    0 -0.00000000000E+00 -0.00000000000E+00 -0.45593999997E+02  0.45594000000E+02  0.51100000000E-03 0.  1.
    9900012    2    1    2    0    0 -0.18193512122E+02 -0.42890291622E+01 -0.36107686834E+02  0.50528871836E+02  0.30000036434E+02 0.  0.
         12    1    1    2    0    0  0.18193512122E+02  0.42890291622E+01  0.36107686834E+02  0.40659128164E+02  0.00000000000E+00 0. -1.
         11    1    3    3    0    0 -0.42741404471E+00  0.50744833715E+01 -0.16507572460E+02  0.17275213835E+02  0.51100000000E-03 0. -1.
        -11    1    3    3    0    0 -0.59207556681E+01 -0.25025342101E+01 -0.18425441599E+02  0.19514479843E+02  0.51100000000E-03 0.  1.
         12    1    3    3    0    0 -0.11845342409E+02 -0.68609783236E+01 -0.11746727753E+01  0.13739178159E+02  0.00000000000E+00 0. -1.
</event>
<event>
 7    1  0.2661323E-011  0.5052887E+02  0.7816164E-02  0.1300439E+00
        -11   -1    0    0    0    0  0.00000000000E+00  0.00000000000E+00  0.45593999997E+02  0.45594000000E+02  0.51100000000E-03 0.  1.
         11   -1    0    0    0    0 -0.00000000000E+00 -0.00000000000E+00 -0.45593999997E+02  0.45594000000E+02  0.51100000000E-03 0. -1.
    9900012    2    1    2    0    0 -0.15522878827E+02  0.14635145976E+01  0.37550803682E+02  0.50528874342E+02  0.30000044051E+02 0.  0.
         12    1    1    2    0    0  0.15522878827E+02 -0.14635145976E+01 -0.37550803682E+02  0.40659125658E+02  0.00000000000E+00 0. -1.
         11    1    3    3    0    0  0.49204046543E+00  0.13962307965E+01  0.18271948815E+00  0.14916269404E+01  0.51100000000E-03 0. -1.
        -11    1    3    3    0    0 -0.22891351757E+02 -0.72746811292E+00  0.20245432145E+02  0.30568295963E+02  0.51100000000E-03 0.  1.
        -12    1    3    3    0    0  0.68764324641E+01  0.79475191401E+00  0.17122652049E+02  0.18468951439E+02  0.00000000000E+00 0.  1.
</event>
<event>
 7    1  0.2661323E-011  0.5052887E+02  0.7816164E-02  0.1300439E+00
        -11   -1    0    0    0    0  0.00000000000E+00  0.00000000000E+00  0.45593999997E+02  0.45594000000E+02  0.51100000000E-03 0.  1.
         11   -1    0    0    0    0 -0.00000000000E+00 -0.00000000000E+00 -0.45593999997E+02  0.45594000000E+02  0.51100000000E-03 0. -1.
    9900012    2    1    2    0    0  0.20832189475E+02  0.25450463593E+00  0.34915902716E+02  0.50528866298E+02  0.30000019599E+02 0.  0.
         12    1    1    2    0    0 -0.20832189475E+02 -0.25450463593E+00 -0.34915902716E+02  0.40659133702E+02  0.00000000000E+00 0. -1.
         11    1    3    3    0    0 -0.42165748802E+01  0.46363331088E+01  0.40120456827E+01  0.74412095279E+01  0.51100000000E-03 0. -1.
        -11    1    3    3    0    0  0.42697477094E+01  0.30473913317E+01  0.16534883664E+00  0.52483025760E+01  0.51100000000E-03 0.  1.
         12    1    3    3    0    0  0.20779016645E+02 -0.74292198046E+01  0.30738508197E+02  0.37839354194E+02  0.00000000000E+00 0. -1.
</event>
<event>
 7    1  0.2661323E-011  0.5052887E+02  0.7816164E-02  0.1300439E+00
        -11   -1    0    0    0    0  0.00000000000E+00  0.00000000000E+00  0.45593999997E+02  0.45594000000E+02  0.51100000000E-03 0.  1.
         11   -1    0    0    0    0 -0.00000000000E+00 -0.00000000000E+00 -0.45593999997E+02  0.45594000000E+02  0.51100000000E-03 0. -1.
    9900012    2    1    2    0    0 -0.28445591829E+02  0.28033735588E+02  0.76238106106E+01  0.50528874164E+02  0.30000043508E+02 0.  0.
         12    1    1    2    0    0  0.28445591829E+02 -0.28033735588E+02 -0.76238106106E+01  0.40659125836E+02  0.00000000000E+00 0. -1.
         11    1    3    3    0    0 -0.24154953593E+02  0.13307873377E+02  0.12402956837E+02  0.30238958571E+02  0.51100000000E-03 0.  1.
        -11    1    3    3    0    0 -0.77283439799E+01  0.14130744253E+02 -0.30354740802E+01  0.16389610641E+02  0.51100000000E-03 0. -1.
        -12    1    3    3    0    0  0.34377057434E+01  0.59511795862E+00 -0.17436721463E+01  0.39003049517E+01  0.00000000000E+00 0.  1.
</event>
<event>
 7    1  0.2661323E-011  0.5052885E+02  0.7816164E-02  0.1300439E+00
        -11   -1    0    0    0    0  0.00000000000E+00  0.00000000000E+00  0.45593999997E+02  0.45594000000E+02  0.51100000000E-03 0. -1.
         11   -1    0    0    0    0 -0.00000000000E+00 -0.00000000000E+00 -0.45593999997E+02  0.45594000000E+02  0.51100000000E-03 0.  1.
    9900012    2    1    2    0    0  0.18803235217E+02  0.89499270592E+01 -0.34921390553E+02  0.50528851372E+02  0.29999974230E+02 0.  0.
         12    1    1    2    0    0 -0.18803235217E+02 -0.89499270592E+01  0.34921390553E+02  0.40659148628E+02  0.00000000000E+00 0. -1.
         11    1    3    3    0    0  0.17421151942E+02  0.24928319072E+01 -0.38303747114E+01  0.18010622327E+02  0.51100000000E-03 0. -1.
        -11    1    3    3    0    0 -0.37651758246E+00  0.19617245947E+01 -0.14046264540E+01  0.24419468896E+01  0.51100000000E-03 0.  1.
        -12    1    3    3    0    0  0.17586008572E+01  0.44953705573E+01 -0.29686389388E+02  0.30076282156E+02  0.00000000000E+00 0.  1.
</event>
<event>
 7    1  0.2661323E-011  0.5052885E+02  0.7816164E-02  0.1300439E+00
        -11   -1    0    0    0    0  0.00000000000E+00  0.00000000000E+00  0.45593999997E+02  0.45594000000E+02  0.51100000000E-03 0.  1.
         11   -1    0    0    0    0 -0.00000000000E+00 -0.00000000000E+00 -0.45593999997E+02  0.45594000000E+02  0.51100000000E-03 0. -1.
    9900012    2    1    2    0    0  0.21143872298E+02  0.84806370630E+01  0.33677613004E+02  0.50528853940E+02  0.29999982035E+02 0.  0.
         12    1    1    2    0    0 -0.21143872298E+02 -0.84806370630E+01 -0.33677613004E+02  0.40659146060E+02  0.00000000000E+00 0. -1.
         11    1    3    3    0    0 -0.24673911411E+01  0.55691074681E+01 -0.40595392617E+00  0.61047338915E+01  0.51100000000E-03 0. -1.
        -11    1    3    3    0    0  0.95980215755E+00  0.14673388561E+01 -0.14397145705E+01  0.22687180975E+01  0.51100000000E-03 0.  1.
        -12    1    3    3    0    0  0.22651461281E+02  0.14441907388E+01  0.35523281500E+02  0.42155401951E+02  0.00000000000E+00 0.  1.
</event>
<event>
 7    1  0.2661323E-011  0.5052885E+02  0.7816164E-02  0.1300439E+00
        -11   -1    0    0    0    0  0.00000000000E+00  0.00000000000E+00  0.45593999997E+02  0.45594000000E+02  0.51100000000E-03 0.  1.
         11   -1    0    0    0    0 -0.00000000000E+00 -0.00000000000E+00 -0.45593999997E+02  0.45594000000E+02  0.51100000000E-03 0. -1.
    9900012    2    1    2    0    0  0.12429975308E+02  0.27348742713E+01  0.38615834376E+02  0.50528849886E+02  0.29999969713E+02 0.  0.
         12    1    1    2    0    0 -0.12429975308E+02 -0.27348742713E+01 -0.38615834376E+02  0.40659150114E+02  0.00000000000E+00 0. -1.
         11    1    3    3    0    0 -0.15901418759E+00  0.42066954650E+01 -0.14830122283E+01  0.44632832957E+01  0.51100000000E-03 0. -1.
        -11    1    3    3    0    0  0.11108643275E+02 -0.27981965874E+01  0.81595874112E+01  0.14064520132E+02  0.51100000000E-03 0.  1.
        -12    1    3    3    0    0  0.14803462207E+01  0.13263753937E+01  0.31939259193E+02  0.32001046458E+02  0.00000000000E+00 0.  1.
</event>
<event>
 7    1  0.2661323E-011  0.5052885E+02  0.7816164E-02  0.1300439E+00
        -11   -1    0    0    0    0  0.00000000000E+00  0.00000000000E+00  0.45593999997E+02  0.45594000000E+02  0.51100000000E-03 0. -1.
         11   -1    0    0    0    0 -0.00000000000E+00 -0.00000000000E+00 -0.45593999997E+02  0.45594000000E+02  0.51100000000E-03 0.  1.
    9900012    2    1    2    0    0  0.35046649083E+02  0.67786780383E+01 -0.19466589196E+02  0.50528853639E+02  0.29999981122E+02 0.  0.
         12    1    1    2    0    0 -0.35046649083E+02 -0.67786780383E+01  0.19466589196E+02  0.40659146361E+02  0.00000000000E+00 0. -1.
         11    1    3    3    0    0  0.10136351910E+02  0.18982406128E+00  0.34584336381E+01  0.10711789146E+02  0.51100000000E-03 0. -1.
        -11    1    3    3    0    0  0.16056100060E+02  0.14797533071E+00 -0.19741656813E+01  0.16177687605E+02  0.51100000000E-03 0.  1.
        -12    1    3    3    0    0  0.88541971126E+01  0.64408786463E+01 -0.20950857153E+02  0.23639376889E+02  0.00000000000E+00 0.  1.
</event>
<event>
 7    1  0.2661323E-011  0.5052886E+02  0.7816164E-02  0.1300439E+00
        -11   -1    0    0    0    0  0.00000000000E+00  0.00000000000E+00  0.45593999997E+02  0.45594000000E+02  0.51100000000E-03 0. -1.
         11   -1    0    0    0    0 -0.00000000000E+00 -0.00000000000E+00 -0.45593999997E+02  0.45594000000E+02  0.51100000000E-03 0.  1.
    9900012    2    1    2    0    0 -0.39378798260E+02 -0.19542566121E+01 -0.99326249385E+01  0.50528857000E+02  0.29999991337E+02 0.  0.
         12    1    1    2    0    0  0.39378798260E+02  0.19542566121E+01  0.99326249385E+01  0.40659143000E+02  0.00000000000E+00 0. -1.
         11    1    3    3    0    0  0.18481391478E+01 -0.17668178864E+01 -0.27448869050E+01  0.37512222189E+01  0.51100000000E-03 0.  1.
        -11    1    3    3    0    0 -0.53792225518E+01 -0.67898810316E+01  0.25844002392E+01  0.90397812220E+01  0.51100000000E-03 0. -1.
        -12    1    3    3    0    0 -0.35847714856E+02  0.66024423059E+01 -0.97721382728E+01  0.37737853559E+02  0.00000000000E+00 0.  1.
</event>
<event>
 7    1  0.2661323E-011  0.5052886E+02  0.7816164E-02  0.1300439E+00
        -11   -1    0    0    0    0  0.00000000000E+00  0.00000000000E+00  0.45593999997E+02  0.45594000000E+02  0.51100000000E-03 0. -1.
         11   -1    0    0    0    0 -0.00000000000E+00 -0.00000000000E+00 -0.45593999997E+02  0.45594000000E+02  0.51100000000E-03 0.  1.
    9900012    2    1    2    0    0 -0.39792061477E+02  0.34423865194E+01 -0.76096999358E+01  0.50528859396E+02  0.29999998621E+02 0.  0.
         12    1    1    2    0    0  0.39792061477E+02 -0.34423865194E+01  0.76096999358E+01  0.40659140604E+02  0.00000000000E+00 0. -1.
         11    1    3    3    0    0 -0.13336672429E+01 -0.12646949302E+01  0.73658941520E+01  0.75917401497E+01  0.51100000000E-03 0. -1.
        -11    1    3    3    0    0 -0.37973394580E+00 -0.15931251649E+01 -0.45599916905E+00  0.17000532827E+01  0.51100000000E-03 0.  1.
        -12    1    3    3    0    0 -0.38078660288E+02  0.63002066146E+01 -0.14519594919E+02  0.41237065964E+02  0.00000000000E+00 0.  1.
</event>
<event>
 7    1  0.2661323E-011  0.5052884E+02  0.7816164E-02  0.1300439E+00
        -11   -1    0    0    0    0  0.00000000000E+00  0.00000000000E+00  0.45593999997E+02  0.45594000000E+02  0.51100000000E-03 0.  1.
         11   -1    0    0    0    0 -0.00000000000E+00 -0.00000000000E+00 -0.45593999997E+02  0.45594000000E+02  0.51100000000E-03 0. -1.
    9900012    2    1    2    0    0  0.23247785923E+02  0.48834694393E+01  0.32997873341E+02  0.50528837821E+02  0.29999933040E+02 0.  0.
         12    1    1    2    0    0 -0.23247785923E+02 -0.48834694393E+01 -0.32997873341E+02  0.40659162179E+02  0.00000000000E+00 0. -1.
         11    1    3    3    0    0  0.35353393468E+01 -0.13179621276E+01  0.21470124497E+01  0.43411186562E+01  0.51100000000E-03 0. -1.
        -11    1    3    3    0    0  0.19096654900E+02  0.86253222495E+01  0.35319089906E+02  0.41067219584E+02  0.51100000000E-03 0.  1.
        -12    1    3    3    0    0  0.61579167617E+00 -0.24238906827E+01 -0.44682290147E+01  0.51204995808E+01  0.00000000000E+00 0.  1.
</event>
<event>
 7    1  0.2661323E-011  0.5052888E+02  0.7816164E-02  0.1300439E+00
        -11   -1    0    0    0    0  0.00000000000E+00  0.00000000000E+00  0.45593999997E+02  0.45594000000E+02  0.51100000000E-03 0.  1.
         11   -1    0    0    0    0 -0.00000000000E+00 -0.00000000000E+00 -0.45593999997E+02  0.45594000000E+02  0.51100000000E-03 0. -1.
    9900012    2    1    2    0    0  0.35199233986E+02  0.16729223812E+02 -0.11589275272E+02  0.50528876745E+02  0.30000051354E+02 0.  0.
         12    1    1    2    0    0 -0.35199233986E+02 -0.16729223812E+02  0.11589275272E+02  0.40659123255E+02  0.00000000000E+00 0. -1.
         11    1    3    3    0    0  0.39114465062E-01  0.45069731249E+00 -0.34861253043E+01  0.35153560143E+01  0.51100000000E-03 0. -1.
        -11    1    3    3    0    0  0.53093418458E+01 -0.64689444422E+01  0.90442129078E+00  0.84175014799E+01  0.51100000000E-03 0.  1.
        -12    1    3    3    0    0  0.29850777675E+02  0.22747470941E+02 -0.90075712588E+01  0.38596019251E+02  0.00000000000E+00 0.  1.
</event>
<event>
 7    1  0.2661323E-011  0.5052887E+02  0.7816164E-02  0.1300439E+00
        -11   -1    0    0    0    0  0.00000000000E+00  0.00000000000E+00  0.45593999997E+02  0.45594000000E+02  0.51100000000E-03 0.  1.
         11   -1    0    0    0    0 -0.00000000000E+00 -0.00000000000E+00 -0.45593999997E+02  0.45594000000E+02  0.51100000000E-03 0. -1.
    9900012    2    1    2    0    0  0.34867584042E+02 -0.20206761619E+02 -0.53947215868E+01  0.50528872451E+02  0.30000038302E+02 0.  0.
         12    1    1    2    0    0 -0.34867584042E+02  0.20206761619E+02  0.53947215868E+01  0.40659127549E+02  0.00000000000E+00 0. -1.
         11    1    3    3    0    0  0.45825603979E+01 -0.42589150349E+01  0.96825155283E+00  0.63305393455E+01  0.51100000000E-03 0. -1.
        -11    1    3    3    0    0  0.19072242534E+02 -0.20958610562E+02  0.33573282977E+01  0.28535687227E+02  0.51100000000E-03 0.  1.
        -12    1    3    3    0    0  0.11212781110E+02  0.50107639780E+01 -0.97203014373E+01  0.15662645878E+02  0.00000000000E+00 0.  1.
</event>
<event>
 7    1  0.2661323E-011  0.5052887E+02  0.7816164E-02  0.1300439E+00
        -11   -1    0    0    0    0  0.00000000000E+00  0.00000000000E+00  0.45593999997E+02  0.45594000000E+02  0.51100000000E-03 0. -1.
         11   -1    0    0    0    0 -0.00000000000E+00 -0.00000000000E+00 -0.45593999997E+02  0.45594000000E+02  0.51100000000E-03 0.  1.
    9900012    2    1    2    0    0  0.38831026182E+02  0.11210531113E+02  0.44317370465E+01  0.50528869471E+02  0.30000029243E+02 0.  0.
         12    1    1    2    0    0 -0.38831026182E+02 -0.11210531113E+02 -0.44317370465E+01  0.40659130529E+02  0.00000000000E+00 0. -1.
         11    1    3    3    0    0 -0.37195185213E+00 -0.38117200110E+01  0.14638858767E+00  0.38326214922E+01  0.51100000000E-03 0. -1.
        -11    1    3    3    0    0 -0.24827279356E+00 -0.87014883084E+00 -0.33625115635E+01  0.34821376543E+01  0.51100000000E-03 0.  1.
         12    1    3    3    0    0  0.39451250827E+02  0.15892399955E+02  0.76478600223E+01  0.43214110324E+02  0.00000000000E+00 0. -1.
</event>
<event>
 7    1  0.2661323E-011  0.5052887E+02  0.7816164E-02  0.1300439E+00
        -11   -1    0    0    0    0  0.00000000000E+00  0.00000000000E+00  0.45593999997E+02  0.45594000000E+02  0.51100000000E-03 0. -1.
         11   -1    0    0    0    0 -0.00000000000E+00 -0.00000000000E+00 -0.45593999997E+02  0.45594000000E+02  0.51100000000E-03 0.  1.
    9900012    2    1    2    0    0  0.33267138821E+02 -0.16651057814E+02 -0.16407467496E+02  0.50528865217E+02  0.30000016313E+02 0.  0.
         12    1    1    2    0    0 -0.33267138821E+02  0.16651057814E+02  0.16407467496E+02  0.40659134783E+02  0.00000000000E+00 0. -1.
         11    1    3    3    0    0  0.10602032232E+01  0.49318378414E+01 -0.20536621054E+01  0.54465203270E+01  0.51100000000E-03 0. -1.
        -11    1    3    3    0    0 -0.54547791059E+00 -0.67580561871E+01 -0.25279688345E+01  0.72359861987E+01  0.51100000000E-03 0.  1.
        -12    1    3    3    0    0  0.32752413509E+02 -0.14824839468E+02 -0.11825836556E+02  0.37846358691E+02  0.00000000000E+00 0.  1.
</event>
<event>
 7    1  0.2661323E-011  0.5052885E+02  0.7816164E-02  0.1300439E+00
        -11   -1    0    0    0    0  0.00000000000E+00  0.00000000000E+00  0.45593999997E+02  0.45594000000E+02  0.51100000000E-03 0.  1.
         11   -1    0    0    0    0 -0.00000000000E+00 -0.00000000000E+00 -0.45593999997E+02  0.45594000000E+02  0.51100000000E-03 0. -1.
    9900012    2    1    2    0    0  0.14288424039E+02 -0.90318237382E+01  0.36978825279E+02  0.50528850716E+02  0.29999972235E+02 0.  0.
         12    1    1    2    0    0 -0.14288424039E+02  0.90318237382E+01 -0.36978825279E+02  0.40659149284E+02  0.00000000000E+00 0. -1.
         11    1    3    3    0    0  0.10514366398E+02  0.48081107667E+01  0.55329682050E+01  0.12817315137E+02  0.51100000000E-03 0. -1.
        -11    1    3    3    0    0  0.87439625549E+01 -0.40683780978E+01  0.17399213518E+02  0.19893245407E+02  0.51100000000E-03 0.  1.
         12    1    3    3    0    0 -0.49699049143E+01 -0.97715564070E+01  0.14046643556E+02  0.17818290172E+02  0.00000000000E+00 0. -1.
</event>
<event>
 7    1  0.2661323E-011  0.5052884E+02  0.7816164E-02  0.1300439E+00
        -11   -1    0    0    0    0  0.00000000000E+00  0.00000000000E+00  0.45593999997E+02  0.45594000000E+02  0.51100000000E-03 0.  1.
         11   -1    0    0    0    0 -0.00000000000E+00 -0.00000000000E+00 -0.45593999997E+02  0.45594000000E+02  0.51100000000E-03 0. -1.
    9900012    2    1    2    0    0  0.11910156797E+02  0.38851268743E+02 -0.13763547078E+01  0.50528840267E+02  0.29999940475E+02 0.  0.
         12    1    1    2    0    0 -0.11910156797E+02 -0.38851268743E+02  0.13763547078E+01  0.40659159733E+02  0.00000000000E+00 0. -1.
         11    1    3    3    0    0  0.10316110450E+02  0.71469120003E+01 -0.22135291953E+01  0.12743633615E+02  0.51100000000E-03 0. -1.
        -11    1    3    3    0    0 -0.86838834208E+01  0.15515976162E+02 -0.35081526124E+01  0.18123533942E+02  0.51100000000E-03 0.  1.
         12    1    3    3    0    0  0.10277929768E+02  0.16188380581E+02  0.43453270998E+01  0.19661672710E+02  0.00000000000E+00 0. -1.
</event>
<event>
 7    1  0.2661323E-011  0.5052887E+02  0.7816164E-02  0.1300439E+00
        -11   -1    0    0    0    0  0.00000000000E+00  0.00000000000E+00  0.45593999997E+02  0.45594000000E+02  0.51100000000E-03 0.  1.
         11   -1    0    0    0    0 -0.00000000000E+00 -0.00000000000E+00 -0.45593999997E+02  0.45594000000E+02  0.51100000000E-03 0. -1.
    9900012    2    1    2    0    0  0.32672765382E+02  0.24097581002E+02  0.22274869619E+01  0.50528871799E+02  0.30000036321E+02 0.  0.
         12    1    1    2    0    0 -0.32672765382E+02 -0.24097581002E+02 -0.22274869619E+01  0.40659128201E+02  0.00000000000E+00 0. -1.
         11    1    3    3    0    0  0.46269356356E+01  0.15830368962E+01 -0.62430703919E+01  0.79303510244E+01  0.51100000000E-03 0. -1.
        -11    1    3    3    0    0  0.29603533980E+02  0.13987408494E+02  0.88673962852E+01  0.33921195994E+02  0.51100000000E-03 0.  1.
         12    1    3    3    0    0 -0.15577042334E+01  0.85271356117E+01 -0.39683893130E+00  0.86773247811E+01  0.00000000000E+00 0. -1.
</event>
<event>
 7    1  0.2661323E-011  0.5052887E+02  0.7816164E-02  0.1300439E+00
        -11   -1    0    0    0    0  0.00000000000E+00  0.00000000000E+00  0.45593999997E+02  0.45594000000E+02  0.51100000000E-03 0.  1.
         11   -1    0    0    0    0 -0.00000000000E+00 -0.00000000000E+00 -0.45593999997E+02  0.45594000000E+02  0.51100000000E-03 0. -1.
    9900012    2    1    2    0    0 -0.19961193136E+02 -0.13508581461E+02  0.32744981162E+02  0.50528870696E+02  0.30000032967E+02 0.  0.
         12    1    1    2    0    0  0.19961193136E+02  0.13508581461E+02 -0.32744981162E+02  0.40659129304E+02  0.00000000000E+00 0. -1.
         11    1    3    3    0    0 -0.13009273209E+01  0.11043880033E+01  0.54091243093E+01  0.56719230258E+01  0.51100000000E-03 0. -1.
        -11    1    3    3    0    0 -0.25082142875E+01 -0.75759486517E+01  0.25989539013E+02  0.27187171152E+02  0.51100000000E-03 0.  1.
         12    1    3    3    0    0 -0.16152051527E+02 -0.70370208130E+01  0.13463178395E+01  0.17669776518E+02  0.00000000000E+00 0. -1.
</event>
<event>
 7    1  0.2661323E-011  0.5052886E+02  0.7816164E-02  0.1300439E+00
        -11   -1    0    0    0    0  0.00000000000E+00  0.00000000000E+00  0.45593999997E+02  0.45594000000E+02  0.51100000000E-03 0.  1.
         11   -1    0    0    0    0 -0.00000000000E+00 -0.00000000000E+00 -0.45593999997E+02  0.45594000000E+02  0.51100000000E-03 0. -1.
    9900012    2    1    2    0    0  0.38125608001E+01  0.30470279266E+02  0.26649432214E+02  0.50528858645E+02  0.29999996337E+02 0.  0.
         12    1    1    2    0    0 -0.38125608001E+01 -0.30470279266E+02 -0.26649432214E+02  0.40659141355E+02  0.00000000000E+00 0. -1.
         11    1    3    3    0    0 -0.37153368313E+00  0.67198243150E+01 -0.19864606737E+01  0.70171292115E+01  0.51100000000E-03 0. -1.
        -11    1    3    3    0    0  0.61565874032E+01 -0.22488630530E+01  0.42538922600E+01  0.78138692787E+01  0.51100000000E-03 0.  1.
        -12    1    3    3    0    0 -0.19724929199E+01  0.25999318004E+02  0.24382000628E+02  0.35697860155E+02  0.00000000000E+00 0.  1.
</event>
<event>
 7    1  0.2661323E-011  0.5052884E+02  0.7816164E-02  0.1300439E+00
        -11   -1    0    0    0    0  0.00000000000E+00  0.00000000000E+00  0.45593999997E+02  0.45594000000E+02  0.51100000000E-03 0.  1.
         11   -1    0    0    0    0 -0.00000000000E+00 -0.00000000000E+00 -0.45593999997E+02  0.45594000000E+02  0.51100000000E-03 0. -1.
    9900012    2    1    2    0    0 -0.53976213727E+01 -0.35945363672E+02  0.18219870547E+02  0.50528841515E+02  0.29999944269E+02 0.  0.
         12    1    1    2    0    0  0.53976213727E+01  0.35945363672E+02 -0.18219870547E+02  0.40659158485E+02  0.00000000000E+00 0. -1.
         11    1    3    3    0    0 -0.82178069328E-01  0.50150363148E+00  0.24435226900E+01  0.24958089921E+01  0.51100000000E-03 0. -1.
        -11    1    3    3    0    0 -0.15840245211E+02 -0.22914978506E+02  0.12703409358E+02  0.30616763674E+02  0.51100000000E-03 0.  1.
         12    1    3    3    0    0  0.10524801907E+02 -0.13531888797E+02  0.30729384991E+01  0.17416268849E+02  0.00000000000E+00 0. -1.
</event>
<event>
 7    1  0.2661323E-011  0.5052886E+02  0.7816164E-02  0.1300439E+00
        -11   -1    0    0    0    0  0.00000000000E+00  0.00000000000E+00  0.45593999997E+02  0.45594000000E+02  0.51100000000E-03 0.  1.
         11   -1    0    0    0    0 -0.00000000000E+00 -0.00000000000E+00 -0.45593999997E+02  0.45594000000E+02  0.51100000000E-03 0. -1.
    9900012    2    1    2    0    0  0.24305505701E+02 -0.11259276567E+02  0.30588181264E+02  0.50528858970E+02  0.29999997326E+02 0.  0.
         12    1    1    2    0    0 -0.24305505701E+02  0.11259276567E+02 -0.30588181264E+02  0.40659141030E+02  0.00000000000E+00 0. -1.
         11    1    3    3    0    0  0.11222761260E+02  0.66711062899E+01  0.13146237431E+02  0.18527751841E+02  0.51100000000E-03 0. -1.
        -11    1    3    3    0    0  0.12289954449E+02 -0.55132311721E+01  0.13189397284E+02  0.18852026397E+02  0.51100000000E-03 0.  1.
         12    1    3    3    0    0  0.79278999282E+00 -0.12417151685E+02  0.42525465491E+01  0.13149080732E+02  0.00000000000E+00 0. -1.
</event>
<event>
 7    1  0.2661323E-011  0.5052887E+02  0.7816164E-02  0.1300439E+00
        -11   -1    0    0    0    0  0.00000000000E+00  0.00000000000E+00  0.45593999997E+02  0.45594000000E+02  0.51100000000E-03 0. -1.
         11   -1    0    0    0    0 -0.00000000000E+00 -0.00000000000E+00 -0.45593999997E+02  0.45594000000E+02  0.51100000000E-03 0.  1.
    9900012    2    1    2    0    0 -0.54603673686E+01 -0.23734384932E+02 -0.32558077060E+02  0.50528867917E+02  0.30000024522E+02 0.  0.
         12    1    1    2    0    0  0.54603673686E+01  0.23734384932E+02  0.32558077060E+02  0.40659132083E+02  0.00000000000E+00 0. -1.
         11    1    3    3    0    0  0.49268791776E+01 -0.13030410237E+02 -0.32271286157E+01  0.14299653448E+02  0.51100000000E-03 0. -1.
        -11    1    3    3    0    0  0.28970179309E+01 -0.64048107139E+01 -0.72055074586E+01  0.10066461701E+02  0.51100000000E-03 0.  1.
         12    1    3    3    0    0 -0.13284264477E+02 -0.42991639806E+01 -0.22125440985E+02  0.26162752769E+02  0.00000000000E+00 0. -1.
</event>
<event>
 7    1  0.2661323E-011  0.5052886E+02  0.7816164E-02  0.1300439E+00
        -11   -1    0    0    0    0  0.00000000000E+00  0.00000000000E+00  0.45593999997E+02  0.45594000000E+02  0.51100000000E-03 0.  1.
         11   -1    0    0    0    0 -0.00000000000E+00 -0.00000000000E+00 -0.45593999997E+02  0.45594000000E+02  0.51100000000E-03 0. -1.
    9900012    2    1    2    0    0 -0.40344800263E+02  0.22633161475E+01  0.45100468391E+01  0.50528855509E+02  0.29999986804E+02 0.  0.
         12    1    1    2    0    0  0.40344800263E+02 -0.22633161475E+01 -0.45100468391E+01  0.40659144491E+02  0.00000000000E+00 0. -1.
         11    1    3    3    0    0 -0.10555489291E+02  0.55388431560E+01 -0.91473704421E+01  0.15025695456E+02  0.51100000000E-03 0. -1.
        -11    1    3    3    0    0 -0.11146635303E+02 -0.15721291428E+00 -0.15347542074E+01  0.11252895859E+02  0.51100000000E-03 0.  1.
        -12    1    3    3    0    0 -0.18642675670E+02 -0.31183140942E+01  0.15192171489E+02  0.24250264194E+02  0.00000000000E+00 0.  1.
</event>
<event>
 7    1  0.2661323E-011  0.5052883E+02  0.7816164E-02  0.1300439E+00
        -11   -1    0    0    0    0  0.00000000000E+00  0.00000000000E+00  0.45593999997E+02  0.45594000000E+02  0.51100000000E-03 0.  1.
         11   -1    0    0    0    0 -0.00000000000E+00 -0.00000000000E+00 -0.45593999997E+02  0.45594000000E+02  0.51100000000E-03 0. -1.
    9900012    2    1    2    0    0 -0.22642702641E+02 -0.22945404941E+02  0.24778709349E+02  0.50528830951E+02  0.29999912157E+02 0.  0.
         12    1    1    2    0    0  0.22642702641E+02  0.22945404941E+02 -0.24778709349E+02  0.40659169049E+02  0.00000000000E+00 0. -1.
         11    1    3    3    0    0 -0.97485184769E+01 -0.13017386810E+02  0.12766662878E+02  0.20675435985E+02  0.51100000000E-03 0. -1.
        -11    1    3    3    0    0 -0.26726025762E+01 -0.73872189302E+01  0.16599904679E+02  0.18364929721E+02  0.51100000000E-03 0.  1.
         12    1    3    3    0    0 -0.10221581588E+02 -0.25407992006E+01 -0.45878582083E+01  0.11488465245E+02  0.00000000000E+00 0. -1.
</event>
<event>
 7    1  0.2661323E-011  0.5052886E+02  0.7816164E-02  0.1300439E+00
        -11   -1    0    0    0    0  0.00000000000E+00  0.00000000000E+00  0.45593999997E+02  0.45594000000E+02  0.51100000000E-03 0. -1.
         11   -1    0    0    0    0 -0.00000000000E+00 -0.00000000000E+00 -0.45593999997E+02  0.45594000000E+02  0.51100000000E-03 0.  1.
    9900012    2    1    2    0    0 -0.31421187892E+01 -0.51117921075E+01 -0.40213960671E+02  0.50528856356E+02  0.29999989380E+02 0.  0.
         12    1    1    2    0    0  0.31421187892E+01  0.51117921075E+01  0.40213960671E+02  0.40659143644E+02  0.00000000000E+00 0. -1.
         11    1    3    3    0    0  0.76795521375E+01 -0.73593806206E+01 -0.13244787984E+02  0.16987066055E+02  0.51100000000E-03 0. -1.
        -11    1    3    3    0    0  0.19265455910E+01 -0.85787867965E+00 -0.16825119816E+02  0.16956774187E+02  0.51100000000E-03 0.  1.
        -12    1    3    3    0    0 -0.12748216518E+02  0.31054671927E+01 -0.10144052871E+02  0.16585016114E+02  0.00000000000E+00 0.  1.
</event>
<event>
 7    1  0.2661323E-011  0.5052886E+02  0.7816164E-02  0.1300439E+00
        -11   -1    0    0    0    0  0.00000000000E+00  0.00000000000E+00  0.45593999997E+02  0.45594000000E+02  0.51100000000E-03 0. -1.
         11   -1    0    0    0    0 -0.00000000000E+00 -0.00000000000E+00 -0.45593999997E+02  0.45594000000E+02  0.51100000000E-03 0.  1.
    9900012    2    1    2    0    0  0.27983071887E+02 -0.28722043029E+02 -0.67199397544E+01  0.50528860089E+02  0.30000000728E+02 0.  0.
         12    1    1    2    0    0 -0.27983071887E+02  0.28722043029E+02  0.67199397544E+01  0.40659139911E+02  0.00000000000E+00 0. -1.
         11    1    3    3    0    0 -0.46868844688E+01 -0.82230082686E+00 -0.37874574899E+00  0.47735221039E+01  0.51100000000E-03 0. -1.
        -11    1    3    3    0    0  0.10394039033E+02 -0.15653603224E+02 -0.76819543817E+01  0.20299846421E+02  0.51100000000E-03 0.  1.
        -12    1    3    3    0    0  0.22275917322E+02 -0.12246138978E+02  0.13407603763E+01  0.25455491565E+02  0.00000000000E+00 0.  1.
</event>
<event>
 7    1  0.2661323E-011  0.5052886E+02  0.7816164E-02  0.1300439E+00
        -11   -1    0    0    0    0  0.00000000000E+00  0.00000000000E+00  0.45593999997E+02  0.45594000000E+02  0.51100000000E-03 0. -1.
         11   -1    0    0    0    0 -0.00000000000E+00 -0.00000000000E+00 -0.45593999997E+02  0.45594000000E+02  0.51100000000E-03 0.  1.
    9900012    2    1    2    0    0 -0.11700924556E+02 -0.38042158913E+02  0.83095123650E+01  0.50528862208E+02  0.30000007168E+02 0.  0.
         12    1    1    2    0    0  0.11700924556E+02  0.38042158913E+02 -0.83095123650E+01  0.40659137792E+02  0.00000000000E+00 0. -1.
         11    1    3    3    0    0 -0.16862719833E+00  0.12401720260E+01  0.48144489553E+01  0.49744729158E+01  0.51100000000E-03 0. -1.
        -11    1    3    3    0    0  0.30363536207E+01 -0.52256702996E+00  0.27663424129E+01  0.41406726769E+01  0.51100000000E-03 0.  1.
        -12    1    3    3    0    0 -0.14568650978E+02 -0.38759763909E+02  0.72872099685E+00  0.41413716615E+02  0.00000000000E+00 0.  1.
</event>
<event>
 7    1  0.2661323E-011  0.5052885E+02  0.7816164E-02  0.1300439E+00
        -11   -1    0    0    0    0  0.00000000000E+00  0.00000000000E+00  0.45593999997E+02  0.45594000000E+02  0.51100000000E-03 0. -1.
         11   -1    0    0    0    0 -0.00000000000E+00 -0.00000000000E+00 -0.45593999997E+02  0.45594000000E+02  0.51100000000E-03 0.  1.
    9900012    2    1    2    0    0 -0.35511789219E+01  0.37117173669E+02 -0.16213285920E+02  0.50528854740E+02  0.29999984469E+02 0.  0.
         12    1    1    2    0    0  0.35511789219E+01 -0.37117173669E+02  0.16213285920E+02  0.40659145260E+02  0.00000000000E+00 0. -1.
         11    1    3    3    0    0  0.62066589446E+01  0.24738657558E+02 -0.27949289620E+01  0.25658047884E+02  0.51100000000E-03 0. -1.
        -11    1    3    3    0    0 -0.46386935074E+01  0.25739394110E+00  0.15909460334E+01  0.49106861678E+01  0.51100000000E-03 0.  1.
        -12    1    3    3    0    0 -0.51191443591E+01  0.12121122170E+02 -0.15009302992E+02  0.19960120689E+02  0.00000000000E+00 0.  1.
</event>
<event>
 7    1  0.2661323E-011  0.5052886E+02  0.7816164E-02  0.1300439E+00
        -11   -1    0    0    0    0  0.00000000000E+00  0.00000000000E+00  0.45593999997E+02  0.45594000000E+02  0.51100000000E-03 0.  1.
         11   -1    0    0    0    0 -0.00000000000E+00 -0.00000000000E+00 -0.45593999997E+02  0.45594000000E+02  0.51100000000E-03 0. -1.
    9900012    2    1    2    0    0  0.22991438410E+02  0.23218169014E+02  0.24196610922E+02  0.50528860897E+02  0.30000003182E+02 0.  0.
         12    1    1    2    0    0 -0.22991438410E+02 -0.23218169014E+02 -0.24196610922E+02  0.40659139103E+02  0.00000000000E+00 0. -1.
         11    1    3    3    0    0 -0.44990513542E+00  0.37912180799E+01  0.16688877476E+02  0.17119999440E+02  0.51100000000E-03 0.  1.
        -11    1    3    3    0    0 -0.28315529605E+00  0.70071220815E+00 -0.16604715758E+01  0.18243740394E+01  0.51100000000E-03 0. -1.
        -12    1    3    3    0    0  0.23724498842E+02  0.18726238726E+02  0.91682050215E+01  0.31584487417E+02  0.00000000000E+00 0.  1.
</event>
<event>
 7    1  0.2661323E-011  0.5052886E+02  0.7816164E-02  0.1300439E+00
        -11   -1    0    0    0    0  0.00000000000E+00  0.00000000000E+00  0.45593999997E+02  0.45594000000E+02  0.51100000000E-03 0. -1.
         11   -1    0    0    0    0 -0.00000000000E+00 -0.00000000000E+00 -0.45593999997E+02  0.45594000000E+02  0.51100000000E-03 0.  1.
    9900012    2    1    2    0    0 -0.55534240604E+01  0.19531977650E+02 -0.35225374670E+02  0.50528859694E+02  0.29999999527E+02 0.  0.
         12    1    1    2    0    0  0.55534240604E+01 -0.19531977650E+02  0.35225374670E+02  0.40659140306E+02  0.00000000000E+00 0. -1.
         11    1    3    3    0    0 -0.37708029042E+01  0.11885348165E+02 -0.16701117136E+01  0.12580529756E+02  0.51100000000E-03 0. -1.
        -11    1    3    3    0    0 -0.37353742997E+01  0.86726443087E+01 -0.82265243337E+01  0.12523716834E+02  0.51100000000E-03 0.  1.
         12    1    3    3    0    0  0.19527531435E+01 -0.10260148232E+01 -0.25328738623E+02  0.25424613104E+02  0.00000000000E+00 0. -1.
</event>
<event>
 7    1  0.2661323E-011  0.5052887E+02  0.7816164E-02  0.1300439E+00
        -11   -1    0    0    0    0  0.00000000000E+00  0.00000000000E+00  0.45593999997E+02  0.45594000000E+02  0.51100000000E-03 0.  1.
         11   -1    0    0    0    0 -0.00000000000E+00 -0.00000000000E+00 -0.45593999997E+02  0.45594000000E+02  0.51100000000E-03 0. -1.
    9900012    2    1    2    0    0  0.73612007170E+01 -0.23688057333E+02  0.32215737958E+02  0.50528866851E+02  0.30000021281E+02 0.  0.
         12    1    1    2    0    0 -0.73612007170E+01  0.23688057333E+02 -0.32215737958E+02  0.40659133149E+02  0.00000000000E+00 0. -1.
         11    1    3    3    0    0  0.70241064356E+01 -0.18247441514E+02  0.11614148668E+02  0.22741935770E+02  0.51100000000E-03 0.  1.
        -11    1    3    3    0    0  0.62435063444E+01 -0.39626317163E+01  0.12495187103E+01  0.74996745836E+01  0.51100000000E-03 0. -1.
        -12    1    3    3    0    0 -0.59064120629E+01 -0.14779841030E+01  0.19352070580E+02  0.20287256498E+02  0.00000000000E+00 0.  1.
</event>
<event>
 7    1  0.2661323E-011  0.5052887E+02  0.7816164E-02  0.1300439E+00
        -11   -1    0    0    0    0  0.00000000000E+00  0.00000000000E+00  0.45593999997E+02  0.45594000000E+02  0.51100000000E-03 0.  1.
         11   -1    0    0    0    0 -0.00000000000E+00 -0.00000000000E+00 -0.45593999997E+02  0.45594000000E+02  0.51100000000E-03 0. -1.
    9900012    2    1    2    0    0 -0.79063223585E+01 -0.27999079235E+02  0.28402582857E+02  0.50528867150E+02  0.30000022188E+02 0.  0.
         12    1    1    2    0    0  0.79063223585E+01  0.27999079235E+02 -0.28402582857E+02  0.40659132850E+02  0.00000000000E+00 0. -1.
         11    1    3    3    0    0  0.10249153279E+01  0.11431167251E+01  0.41308412602E-01  0.15358625989E+01  0.51100000000E-03 0. -1.
        -11    1    3    3    0    0  0.24136904439E+01 -0.51587582560E+01  0.20566138298E+02  0.21340213988E+02  0.51100000000E-03 0.  1.
         12    1    3    3    0    0 -0.11344928130E+02 -0.23983437704E+02  0.77951361463E+01  0.27652790563E+02  0.00000000000E+00 0. -1.
</event>
<event>
 7    1  0.2661323E-011  0.5052887E+02  0.7816164E-02  0.1300439E+00
        -11   -1    0    0    0    0  0.00000000000E+00  0.00000000000E+00  0.45593999997E+02  0.45594000000E+02  0.51100000000E-03 0.  1.
         11   -1    0    0    0    0 -0.00000000000E+00 -0.00000000000E+00 -0.45593999997E+02  0.45594000000E+02  0.51100000000E-03 0. -1.
    9900012    2    1    2    0    0  0.80778653343E+01 -0.16291918541E+02  0.36366007619E+02  0.50528867837E+02  0.30000024278E+02 0.  0.
         12    1    1    2    0    0 -0.80778653343E+01  0.16291918541E+02 -0.36366007619E+02  0.40659132163E+02  0.00000000000E+00 0. -1.
         11    1    3    3    0    0  0.78043093155E+01 -0.72570485348E+01  0.21456490160E+02  0.23957315534E+02  0.51100000000E-03 0. -1.
        -11    1    3    3    0    0 -0.86004020641E+01  0.46926406652E+00  0.83966395981E+01  0.12028743959E+02  0.51100000000E-03 0.  1.
         12    1    3    3    0    0  0.88739580828E+01 -0.95041340724E+01  0.65128778607E+01  0.14542808345E+02  0.00000000000E+00 0. -1.
</event>
<event>
 7    1  0.2661323E-011  0.5052886E+02  0.7816164E-02  0.1300439E+00
        -11   -1    0    0    0    0  0.00000000000E+00  0.00000000000E+00  0.45593999997E+02  0.45594000000E+02  0.51100000000E-03 0.  1.
         11   -1    0    0    0    0 -0.00000000000E+00 -0.00000000000E+00 -0.45593999997E+02  0.45594000000E+02  0.51100000000E-03 0. -1.
    9900012    2    1    2    0    0  0.37422078235E+02  0.11689992283E+02 -0.10774880867E+02  0.50528856911E+02  0.29999991067E+02 0.  0.
         12    1    1    2    0    0 -0.37422078235E+02 -0.11689992283E+02  0.10774880867E+02  0.40659143089E+02  0.00000000000E+00 0. -1.
         11    1    3    3    0    0  0.13229450604E+02  0.13565808909E+02 -0.15019051393E+02  0.24178946206E+02  0.51100000000E-03 0. -1.
        -11    1    3    3    0    0  0.68418125344E+01  0.34259226645E+01 -0.26136481172E+00  0.76560862512E+01  0.51100000000E-03 0.  1.
        -12    1    3    3    0    0  0.17350815097E+02 -0.53017392900E+01  0.45055353379E+01  0.18693824453E+02  0.00000000000E+00 0.  1.
</event>
<event>
 7    1  0.2661323E-011  0.5052886E+02  0.7816164E-02  0.1300439E+00
        -11   -1    0    0    0    0  0.00000000000E+00  0.00000000000E+00  0.45593999997E+02  0.45594000000E+02  0.51100000000E-03 0.  1.
         11   -1    0    0    0    0 -0.00000000000E+00 -0.00000000000E+00 -0.45593999997E+02  0.45594000000E+02  0.51100000000E-03 0. -1.
    9900012    2    1    2    0    0  0.92842824394E+01  0.24804098768E+02  0.30850026555E+02  0.50528863824E+02  0.30000012081E+02 0.  0.
         12    1    1    2    0    0 -0.92842824394E+01 -0.24804098768E+02 -0.30850026555E+02  0.40659136176E+02  0.00000000000E+00 0. -1.
         11    1    3    3    0    0  0.10382102425E+02 -0.72023262269E+00  0.11108211582E+01  0.10466169772E+02  0.51100000000E-03 0. -1.
        -11    1    3    3    0    0  0.17582996389E+00  0.65074575554E+00  0.46920237600E+01  0.47401976162E+01  0.51100000000E-03 0.  1.
         12    1    3    3    0    0 -0.12736499493E+01  0.24873585635E+02  0.25047181637E+02  0.35322496436E+02  0.00000000000E+00 0. -1.
</event>
<event>
 7    1  0.2661323E-011  0.5052885E+02  0.7816164E-02  0.1300439E+00
        -11   -1    0    0    0    0  0.00000000000E+00  0.00000000000E+00  0.45593999997E+02  0.45594000000E+02  0.51100000000E-03 0. -1.
         11   -1    0    0    0    0 -0.00000000000E+00 -0.00000000000E+00 -0.45593999997E+02  0.45594000000E+02  0.51100000000E-03 0.  1.
    9900012    2    1    2    0    0  0.35518552659E+02  0.14346854399E+02 -0.13629635729E+02  0.50528846243E+02  0.29999958641E+02 0.  0.
         12    1    1    2    0    0 -0.35518552659E+02 -0.14346854399E+02  0.13629635729E+02  0.40659153757E+02  0.00000000000E+00 0. -1.
         11    1    3    3    0    0  0.26242921075E+01 -0.49643399500E+01 -0.58710790595E+01  0.81241091689E+01  0.51100000000E-03 0. -1.
        -11    1    3    3    0    0  0.34781005767E+01  0.11992560065E+01 -0.69344524307E+01  0.78499700232E+01  0.51100000000E-03 0.  1.
         12    1    3    3    0    0  0.29416159974E+02  0.18111938342E+02 -0.82410423867E+00  0.34554767051E+02  0.00000000000E+00 0. -1.
</event>
<event>
 7    1  0.2661323E-011  0.5052886E+02  0.7816164E-02  0.1300439E+00
        -11   -1    0    0    0    0  0.00000000000E+00  0.00000000000E+00  0.45593999997E+02  0.45594000000E+02  0.51100000000E-03 0. -1.
         11   -1    0    0    0    0 -0.00000000000E+00 -0.00000000000E+00 -0.45593999997E+02  0.45594000000E+02  0.51100000000E-03 0.  1.
    9900012    2    1    2    0    0 -0.12364687446E+02  0.29239121206E+02 -0.25403813446E+02  0.50528862748E+02  0.30000008808E+02 0.  0.
         12    1    1    2    0    0  0.12364687446E+02 -0.29239121206E+02  0.25403813446E+02  0.40659137252E+02  0.00000000000E+00 0. -1.
         11    1    3    3    0    0 -0.96612493043E+01  0.16955293408E+01  0.14135656853E+00  0.98099204790E+01  0.51100000000E-03 0. -1.
        -11    1    3    3    0    0 -0.47141229351E+01  0.74042160097E+00 -0.47733814917E+01  0.67495444528E+01  0.51100000000E-03 0.  1.
        -12    1    3    3    0    0  0.20106847935E+01  0.26803170264E+02 -0.20771788523E+02  0.33969397816E+02  0.00000000000E+00 0.  1.
</event>
<event>
 7    1  0.2661323E-011  0.5052886E+02  0.7816164E-02  0.1300439E+00
        -11   -1    0    0    0    0  0.00000000000E+00  0.00000000000E+00  0.45593999997E+02  0.45594000000E+02  0.51100000000E-03 0.  1.
         11   -1    0    0    0    0 -0.00000000000E+00 -0.00000000000E+00 -0.45593999997E+02  0.45594000000E+02  0.51100000000E-03 0. -1.
    9900012    2    1    2    0    0 -0.50126934048E+01  0.62031379192E+01  0.39869280322E+02  0.50528861684E+02  0.30000005576E+02 0.  0.
         12    1    1    2    0    0  0.50126934048E+01 -0.62031379192E+01 -0.39869280322E+02  0.40659138316E+02  0.00000000000E+00 0. -1.
         11    1    3    3    0    0  0.49807009138E+01  0.12926518216E+02  0.20685611898E+02  0.24895718399E+02  0.51100000000E-03 0.  1.
        -11    1    3    3    0    0 -0.45831326437E+01 -0.13236105023E+01 -0.22270651714E+00  0.47756306437E+01  0.51100000000E-03 0. -1.
        -12    1    3    3    0    0 -0.54102616750E+01 -0.53997697943E+01  0.19406374941E+02  0.20857512641E+02  0.00000000000E+00 0.  1.
</event>
<event>
 7    1  0.2661323E-011  0.5052886E+02  0.7816164E-02  0.1300439E+00
        -11   -1    0    0    0    0  0.00000000000E+00  0.00000000000E+00  0.45593999997E+02  0.45594000000E+02  0.51100000000E-03 0. -1.
         11   -1    0    0    0    0 -0.00000000000E+00 -0.00000000000E+00 -0.45593999997E+02  0.45594000000E+02  0.51100000000E-03 0.  1.
    9900012    2    1    2    0    0  0.19688940839E+02 -0.41070532234E+01 -0.35336149997E+02  0.50528858664E+02  0.29999996396E+02 0.  0.
         12    1    1    2    0    0 -0.19688940839E+02  0.41070532234E+01  0.35336149997E+02  0.40659141336E+02  0.00000000000E+00 0. -1.
         11    1    3    3    0    0 -0.71506971596E+00 -0.39338310686E+01 -0.14157071193E+01  0.42415302055E+01  0.51100000000E-03 0. -1.
        -11    1    3    3    0    0  0.25336861890E+02 -0.30828185231E+01 -0.29774691568E+02  0.39217248739E+02  0.51100000000E-03 0.  1.
         12    1    3    3    0    0 -0.49328513346E+01  0.29095963684E+01 -0.41457513099E+01  0.70700797194E+01  0.00000000000E+00 0. -1.
</event>
<event>
 7    1  0.2661323E-011  0.5052886E+02  0.7816164E-02  0.1300439E+00
        -11   -1    0    0    0    0  0.00000000000E+00  0.00000000000E+00  0.45593999997E+02  0.45594000000E+02  0.51100000000E-03 0.  1.
         11   -1    0    0    0    0 -0.00000000000E+00 -0.00000000000E+00 -0.45593999997E+02  0.45594000000E+02  0.51100000000E-03 0. -1.
    9900012    2    1    2    0    0  0.12130852182E+01 -0.60895808432E+01  0.40182225613E+02  0.50528858030E+02  0.29999994467E+02 0.  0.
         12    1    1    2    0    0 -0.12130852182E+01  0.60895808432E+01 -0.40182225613E+02  0.40659141970E+02  0.00000000000E+00 0. -1.
         11    1    3    3    0    0 -0.20370358599E+01 -0.25486543858E+01  0.85191702178E+01  0.91225772528E+01  0.51100000000E-03 0. -1.
        -11    1    3    3    0    0 -0.60293210539E+01 -0.10739278945E+02  0.25085161515E+02  0.27945485380E+02  0.51100000000E-03 0.  1.
         12    1    3    3    0    0  0.92794421320E+01  0.71983524877E+01  0.65778938797E+01  0.13460795397E+02  0.00000000000E+00 0. -1.
</event>
<event>
 7    1  0.2661323E-011  0.5052887E+02  0.7816164E-02  0.1300439E+00
        -11   -1    0    0    0    0  0.00000000000E+00  0.00000000000E+00  0.45593999997E+02  0.45594000000E+02  0.51100000000E-03 0. -1.
         11   -1    0    0    0    0 -0.00000000000E+00 -0.00000000000E+00 -0.45593999997E+02  0.45594000000E+02  0.51100000000E-03 0.  1.
    9900012    2    1    2    0    0  0.16286697388E+02  0.21813126332E+02 -0.30200925825E+02  0.50528869256E+02  0.30000028590E+02 0.  0.
         12    1    1    2    0    0 -0.16286697388E+02 -0.21813126332E+02  0.30200925825E+02  0.40659130744E+02  0.00000000000E+00 0. -1.
         11    1    3    3    0    0  0.10824563120E+02  0.26929618977E+01 -0.75624717087E+01  0.13476430875E+02  0.51100000000E-03 0. -1.
        -11    1    3    3    0    0  0.13464651329E+02  0.81135210513E+01 -0.11839492591E+02  0.19679929988E+02  0.51100000000E-03 0.  1.
         12    1    3    3    0    0 -0.80025170599E+01  0.11006643383E+02 -0.10798961525E+02  0.17372508394E+02  0.00000000000E+00 0. -1.
</event>
<event>
 7    1  0.2661323E-011  0.5052886E+02  0.7816164E-02  0.1300439E+00
        -11   -1    0    0    0    0  0.00000000000E+00  0.00000000000E+00  0.45593999997E+02  0.45594000000E+02  0.51100000000E-03 0. -1.
         11   -1    0    0    0    0 -0.00000000000E+00 -0.00000000000E+00 -0.45593999997E+02  0.45594000000E+02  0.51100000000E-03 0.  1.
    9900012    2    1    2    0    0 -0.20931890127E+02  0.24177220831E+02 -0.25109439918E+02  0.50528855833E+02  0.29999987790E+02 0.  0.
         12    1    1    2    0    0  0.20931890127E+02 -0.24177220831E+02  0.25109439918E+02  0.40659144167E+02  0.00000000000E+00 0. -1.
         11    1    3    3    0    0 -0.10576835590E+01 -0.34571621318E+01 -0.85769888292E+00  0.37156846141E+01  0.51100000000E-03 0. -1.
        -11    1    3    3    0    0 -0.69214494757E+01  0.15689964712E+02 -0.39245986119E+00  0.17153293576E+02  0.51100000000E-03 0.  1.
         12    1    3    3    0    0 -0.12952757093E+02  0.11944418251E+02 -0.23859281174E+02  0.29659877643E+02  0.00000000000E+00 0. -1.
</event>
<event>
 7    1  0.2661323E-011  0.5052887E+02  0.7816164E-02  0.1300439E+00
        -11   -1    0    0    0    0  0.00000000000E+00  0.00000000000E+00  0.45593999997E+02  0.45594000000E+02  0.51100000000E-03 0.  1.
         11   -1    0    0    0    0 -0.00000000000E+00 -0.00000000000E+00 -0.45593999997E+02  0.45594000000E+02  0.51100000000E-03 0. -1.
    9900012    2    1    2    0    0 -0.10900471264E+02 -0.23136677259E+02  0.31607569490E+02  0.50528873627E+02  0.30000041875E+02 0.  0.
         12    1    1    2    0    0  0.10900471264E+02  0.23136677259E+02 -0.31607569490E+02  0.40659126373E+02  0.00000000000E+00 0. -1.
         11    1    3    3    0    0 -0.35263075031E+01 -0.53516866716E+01  0.59681719794E+01  0.87575380030E+01  0.51100000000E-03 0. -1.
        -11    1    3    3    0    0 -0.11975983404E+02 -0.64372689507E+00  0.19186372858E+01  0.12145770132E+02  0.51100000000E-03 0.  1.
         12    1    3    3    0    0  0.46018196438E+01 -0.17141263693E+02  0.23720760225E+02  0.29625565491E+02  0.00000000000E+00 0. -1.
</event>
<event>
 7    1  0.2661323E-011  0.5052886E+02  0.7816164E-02  0.1300439E+00
        -11   -1    0    0    0    0  0.00000000000E+00  0.00000000000E+00  0.45593999997E+02  0.45594000000E+02  0.51100000000E-03 0. -1.
         11   -1    0    0    0    0 -0.00000000000E+00 -0.00000000000E+00 -0.45593999997E+02  0.45594000000E+02  0.51100000000E-03 0.  1.
    9900012    2    1    2    0    0 -0.35741071554E+02  0.12978969197E+02 -0.14397496627E+02  0.50528859006E+02  0.29999997435E+02 0.  0.
         12    1    1    2    0    0  0.35741071554E+02 -0.12978969197E+02  0.14397496627E+02  0.40659140994E+02  0.00000000000E+00 0. -1.
         11    1    3    3    0    0 -0.15284879791E+02  0.39090028062E+00 -0.50390079929E+01  0.16098818437E+02  0.51100000000E-03 0. -1.
        -11    1    3    3    0    0 -0.25155993018E+02  0.13152014226E+02 -0.76723138700E+01  0.29405167289E+02  0.51100000000E-03 0.  1.
         12    1    3    3    0    0  0.46998012547E+01 -0.56394530977E+00 -0.16861747636E+01  0.50248732800E+01  0.00000000000E+00 0. -1.
</event>
<event>
 7    1  0.2661323E-011  0.5052886E+02  0.7816164E-02  0.1300439E+00
        -11   -1    0    0    0    0  0.00000000000E+00  0.00000000000E+00  0.45593999997E+02  0.45594000000E+02  0.51100000000E-03 0.  1.
         11   -1    0    0    0    0 -0.00000000000E+00 -0.00000000000E+00 -0.45593999997E+02  0.45594000000E+02  0.51100000000E-03 0. -1.
    9900012    2    1    2    0    0 -0.40097428082E+02 -0.41398170268E+01 -0.53126105305E+01  0.50528860136E+02  0.30000000869E+02 0.  0.
         12    1    1    2    0    0  0.40097428082E+02  0.41398170268E+01  0.53126105305E+01  0.40659139864E+02  0.00000000000E+00 0. -1.
         11    1    3    3    0    0 -0.22637908137E+01 -0.97434916598E+00 -0.71756144688E+01  0.75870645451E+01  0.51100000000E-03 0. -1.
        -11    1    3    3    0    0 -0.13020054182E+02 -0.87829057020E+01 -0.51899785088E+01  0.16540771465E+02  0.51100000000E-03 0.  1.
        -12    1    3    3    0    0 -0.24813583086E+02  0.56174378412E+01  0.70529824472E+01  0.26401024126E+02  0.00000000000E+00 0.  1.
</event>
<event>
 7    1  0.2661323E-011  0.5052887E+02  0.7816164E-02  0.1300439E+00
        -11   -1    0    0    0    0  0.00000000000E+00  0.00000000000E+00  0.45593999997E+02  0.45594000000E+02  0.51100000000E-03 0.  1.
         11   -1    0    0    0    0 -0.00000000000E+00 -0.00000000000E+00 -0.45593999997E+02  0.45594000000E+02  0.51100000000E-03 0. -1.
    9900012    2    1    2    0    0 -0.23571531689E+02  0.17587569442E+02  0.28075354891E+02  0.50528865020E+02  0.30000015715E+02 0.  0.
         12    1    1    2    0    0  0.23571531689E+02 -0.17587569442E+02 -0.28075354891E+02  0.40659134980E+02  0.00000000000E+00 0. -1.
         11    1    3    3    0    0 -0.94946286864E+01  0.12595711195E+02  0.26757304929E+00  0.15775661951E+02  0.51100000000E-03 0. -1.
        -11    1    3    3    0    0 -0.66658346005E+01  0.64648819203E+01  0.46325888787E+01  0.10377327649E+02  0.51100000000E-03 0.  1.
        -12    1    3    3    0    0 -0.74110684025E+01 -0.14730236731E+01  0.23175192963E+02  0.24375875419E+02  0.00000000000E+00 0.  1.
</event>
<event>
 7    1  0.2661323E-011  0.5052885E+02  0.7816164E-02  0.1300439E+00
        -11   -1    0    0    0    0  0.00000000000E+00  0.00000000000E+00  0.45593999997E+02  0.45594000000E+02  0.51100000000E-03 0.  1.
         11   -1    0    0    0    0 -0.00000000000E+00 -0.00000000000E+00 -0.45593999997E+02  0.45594000000E+02  0.51100000000E-03 0. -1.
    9900012    2    1    2    0    0  0.23019293502E+02  0.17592646718E+02  0.28526783068E+02  0.50528850426E+02  0.29999971355E+02 0.  0.
         12    1    1    2    0    0 -0.23019293502E+02 -0.17592646718E+02 -0.28526783068E+02  0.40659149574E+02  0.00000000000E+00 0. -1.
         11    1    3    3    0    0  0.85404053509E+00  0.20712191198E+01  0.13104202356E+00  0.22442161551E+01  0.51100000000E-03 0. -1.
        -11    1    3    3    0    0  0.10935318014E+02  0.18361970707E+02  0.46607751768E+01  0.21873865087E+02  0.51100000000E-03 0.  1.
        -12    1    3    3    0    0  0.11229934953E+02 -0.28405431085E+01  0.23734965867E+02  0.26410769184E+02  0.00000000000E+00 0.  1.
</event>
<event>
 7    1  0.2661323E-011  0.5052886E+02  0.7816164E-02  0.1300439E+00
        -11   -1    0    0    0    0  0.00000000000E+00  0.00000000000E+00  0.45593999997E+02  0.45594000000E+02  0.51100000000E-03 0. -1.
         11   -1    0    0    0    0 -0.00000000000E+00 -0.00000000000E+00 -0.45593999997E+02  0.45594000000E+02  0.51100000000E-03 0.  1.
    9900012    2    1    2    0    0 -0.22953896281E+02 -0.18622123545E+02 -0.27919539710E+02  0.50528861576E+02  0.30000005245E+02 0.  0.
         12    1    1    2    0    0  0.22953896281E+02  0.18622123545E+02  0.27919539710E+02  0.40659138424E+02  0.00000000000E+00 0. -1.
         11    1    3    3    0    0 -0.12351851530E+02 -0.10044076493E+02 -0.10813032743E+02  0.19245087326E+02  0.51100000000E-03 0. -1.
        -11    1    3    3    0    0 -0.90005485174E+01 -0.16126579005E+02 -0.12406814675E+02  0.22248718495E+02  0.51100000000E-03 0.  1.
         12    1    3    3    0    0 -0.16014962327E+01  0.75485319539E+01 -0.46996922927E+01  0.90350557546E+01  0.00000000000E+00 0. -1.
</event>
<event>
 7    1  0.2661323E-011  0.5052886E+02  0.7816164E-02  0.1300439E+00
        -11   -1    0    0    0    0  0.00000000000E+00  0.00000000000E+00  0.45593999997E+02  0.45594000000E+02  0.51100000000E-03 0.  1.
         11   -1    0    0    0    0 -0.00000000000E+00 -0.00000000000E+00 -0.45593999997E+02  0.45594000000E+02  0.51100000000E-03 0. -1.
    9900012    2    1    2    0    0 -0.73528395201E+00 -0.37463969520E+02  0.15782153148E+02  0.50528855731E+02  0.29999987481E+02 0.  0.
         12    1    1    2    0    0  0.73528395201E+00  0.37463969520E+02 -0.15782153148E+02  0.40659144269E+02  0.00000000000E+00 0. -1.
         11    1    3    3    0    0  0.12569032877E+01 -0.34763748937E+02  0.48017174473E+01  0.35116300157E+02  0.51100000000E-03 0. -1.
        -11    1    3    3    0    0  0.32214704621E+01 -0.36090117991E+01  0.25762535183E+01  0.54808685950E+01  0.51100000000E-03 0.  1.
         12    1    3    3    0    0 -0.52136577018E+01  0.90879121569E+00  0.84041821822E+01  0.99316869795E+01  0.00000000000E+00 0. -1.
</event>
<event>
 7    1  0.2661323E-011  0.5052889E+02  0.7816164E-02  0.1300439E+00
        -11   -1    0    0    0    0  0.00000000000E+00  0.00000000000E+00  0.45593999997E+02  0.45594000000E+02  0.51100000000E-03 0. -1.
         11   -1    0    0    0    0 -0.00000000000E+00 -0.00000000000E+00 -0.45593999997E+02  0.45594000000E+02  0.51100000000E-03 0.  1.
    9900012    2    1    2    0    0 -0.36252696904E+02 -0.74309067898E+01 -0.16843007772E+02  0.50528888852E+02  0.30000088154E+02 0.  0.
         12    1    1    2    0    0  0.36252696904E+02  0.74309067898E+01  0.16843007772E+02  0.40659111148E+02  0.00000000000E+00 0. -1.
         11    1    3    3    0    0 -0.96046913748E+01  0.58536183286E+01  0.23995477030E+01  0.11500990104E+02  0.51100000000E-03 0. -1.
        -11    1    3    3    0    0 -0.19697598877E+02 -0.24592017693E+01 -0.16640898871E+02  0.25902945592E+02  0.51100000000E-03 0.  1.
         12    1    3    3    0    0 -0.69504066518E+01 -0.10825323349E+02 -0.26016566046E+01  0.13124953155E+02  0.00000000000E+00 0. -1.
</event>
<event>
 7    1  0.2661323E-011  0.5052886E+02  0.7816164E-02  0.1300439E+00
        -11   -1    0    0    0    0  0.00000000000E+00  0.00000000000E+00  0.45593999997E+02  0.45594000000E+02  0.51100000000E-03 0. -1.
         11   -1    0    0    0    0 -0.00000000000E+00 -0.00000000000E+00 -0.45593999997E+02  0.45594000000E+02  0.51100000000E-03 0.  1.
    9900012    2    1    2    0    0  0.39982606436E+02  0.55732331562E+01 -0.48472901277E+01  0.50528856296E+02  0.29999989196E+02 0.  0.
         12    1    1    2    0    0 -0.39982606436E+02 -0.55732331562E+01  0.48472901277E+01  0.40659143704E+02  0.00000000000E+00 0. -1.
         11    1    3    3    0    0  0.57626744549E+01  0.28621050421E+01 -0.49751748407E+01  0.81334142340E+01  0.51100000000E-03 0. -1.
        -11    1    3    3    0    0  0.24254187437E+02  0.72418944956E+01 -0.10251899429E+02  0.27309560346E+02  0.51100000000E-03 0.  1.
         12    1    3    3    0    0  0.99657445434E+01 -0.45307663816E+01  0.10379784142E+02  0.15085881716E+02  0.00000000000E+00 0. -1.
</event>
<event>
 7    1  0.2661323E-011  0.5052888E+02  0.7816164E-02  0.1300439E+00
        -11   -1    0    0    0    0  0.00000000000E+00  0.00000000000E+00  0.45593999997E+02  0.45594000000E+02  0.51100000000E-03 0.  1.
         11   -1    0    0    0    0 -0.00000000000E+00 -0.00000000000E+00 -0.45593999997E+02  0.45594000000E+02  0.51100000000E-03 0. -1.
    9900012    2    1    2    0    0  0.37248082563E+02  0.28467259366E+01  0.16051193139E+02  0.50528876739E+02  0.30000051336E+02 0.  0.
         12    1    1    2    0    0 -0.37248082563E+02 -0.28467259366E+01 -0.16051193139E+02  0.40659123261E+02  0.00000000000E+00 0. -1.
         11    1    3    3    0    0  0.60557887865E+01  0.70525797589E+01  0.32538296719E+01  0.98488002760E+01  0.51100000000E-03 0.  1.
        -11    1    3    3    0    0  0.13399286651E+01 -0.83649752845E+01  0.29958224871E+01  0.89857205038E+01  0.51100000000E-03 0. -1.
        -12    1    3    3    0    0  0.29852365111E+02  0.41591214622E+01  0.98015409803E+01  0.31694355959E+02  0.00000000000E+00 0.  1.
</event>
<event>
 7    1  0.2661323E-011  0.5052885E+02  0.7816164E-02  0.1300439E+00
        -11   -1    0    0    0    0  0.00000000000E+00  0.00000000000E+00  0.45593999997E+02  0.45594000000E+02  0.51100000000E-03 0. -1.
         11   -1    0    0    0    0 -0.00000000000E+00 -0.00000000000E+00 -0.45593999997E+02  0.45594000000E+02  0.51100000000E-03 0.  1.
    9900012    2    1    2    0    0 -0.20674399650E+02 -0.34403584145E+02 -0.64907074501E+01  0.50528847449E+02  0.29999962307E+02 0.  0.
         12    1    1    2    0    0  0.20674399650E+02  0.34403584145E+02  0.64907074501E+01  0.40659152551E+02  0.00000000000E+00 0. -1.
         11    1    3    3    0    0  0.49495395637E+00  0.34335988496E+01  0.32628126072E+00  0.34843995467E+01  0.51100000000E-03 0. -1.
        -11    1    3    3    0    0 -0.52030518660E+01 -0.61565721272E+00  0.19758972742E+01  0.55995493410E+01  0.51100000000E-03 0.  1.
        -12    1    3    3    0    0 -0.15966301740E+02 -0.37221525782E+02 -0.87928859850E+01  0.41444898562E+02  0.00000000000E+00 0.  1.
</event>
<event>
 7    1  0.2661323E-011  0.5052891E+02  0.7816164E-02  0.1300439E+00
        -11   -1    0    0    0    0  0.00000000000E+00  0.00000000000E+00  0.45593999997E+02  0.45594000000E+02  0.51100000000E-03 0. -1.
         11   -1    0    0    0    0 -0.00000000000E+00 -0.00000000000E+00 -0.45593999997E+02  0.45594000000E+02  0.51100000000E-03 0.  1.
    9900012    2    1    2    0    0  0.21340569435E+02 -0.14895573654E+02 -0.31238813444E+02  0.50528911426E+02  0.30000156769E+02 0.  0.
         12    1    1    2    0    0 -0.21340569435E+02  0.14895573654E+02  0.31238813444E+02  0.40659088574E+02  0.00000000000E+00 0. -1.
         11    1    3    3    0    0  0.11086981674E+02  0.72022486288E+00 -0.23072011940E+02  0.25607764872E+02  0.51100000000E-03 0.  1.
        -11    1    3    3    0    0  0.75115785349E+01 -0.24295338257E+01  0.18834552277E+01  0.81162707293E+01  0.51100000000E-03 0. -1.
        -12    1    3    3    0    0  0.27420092259E+01 -0.13186264691E+02 -0.10050256732E+02  0.16804875825E+02  0.00000000000E+00 0.  1.
</event>
<event>
 7    1  0.2661323E-011  0.5052885E+02  0.7816164E-02  0.1300439E+00
        -11   -1    0    0    0    0  0.00000000000E+00  0.00000000000E+00  0.45593999997E+02  0.45594000000E+02  0.51100000000E-03 0.  1.
         11   -1    0    0    0    0 -0.00000000000E+00 -0.00000000000E+00 -0.45593999997E+02  0.45594000000E+02  0.51100000000E-03 0. -1.
    9900012    2    1    2    0    0  0.22518330827E+01  0.38868936936E+02  0.11717554236E+02  0.50528854805E+02  0.29999984665E+02 0.  0.
         12    1    1    2    0    0 -0.22518330827E+01 -0.38868936936E+02 -0.11717554236E+02  0.40659145195E+02  0.00000000000E+00 0. -1.
         11    1    3    3    0    0  0.57208204724E+01 -0.15888206641E+01  0.68670568618E+00  0.59769308965E+01  0.51100000000E-03 0. -1.
        -11    1    3    3    0    0  0.43605837956E+01  0.42755670393E+01  0.91569685425E+00  0.61752461923E+01  0.51100000000E-03 0.  1.
        -12    1    3    3    0    0 -0.78295711853E+01  0.36182190560E+02  0.10115151696E+02  0.38376677716E+02  0.00000000000E+00 0.  1.
</event>
<event>
 7    1  0.2661323E-011  0.5052885E+02  0.7816164E-02  0.1300439E+00
        -11   -1    0    0    0    0  0.00000000000E+00  0.00000000000E+00  0.45593999997E+02  0.45594000000E+02  0.51100000000E-03 0. -1.
         11   -1    0    0    0    0 -0.00000000000E+00 -0.00000000000E+00 -0.45593999997E+02  0.45594000000E+02  0.51100000000E-03 0.  1.
    9900012    2    1    2    0    0 -0.26661901295E+02 -0.18607517315E+02 -0.24414535465E+02  0.50528853141E+02  0.29999979609E+02 0.  0.
         12    1    1    2    0    0  0.26661901295E+02  0.18607517315E+02  0.24414535465E+02  0.40659146859E+02  0.00000000000E+00 0. -1.
         11    1    3    3    0    0 -0.21173951666E+02 -0.13295939493E+02 -0.73150451393E+01  0.26050491776E+02  0.51100000000E-03 0. -1.
        -11    1    3    3    0    0 -0.10529059652E+02 -0.81754834262E+00 -0.85801984197E+01  0.13606957325E+02  0.51100000000E-03 0.  1.
         12    1    3    3    0    0  0.50411100231E+01 -0.44940294798E+01 -0.85192919058E+01  0.10871404040E+02  0.00000000000E+00 0. -1.
</event>
<event>
 7    1  0.2661323E-011  0.5052887E+02  0.7816164E-02  0.1300439E+00
        -11   -1    0    0    0    0  0.00000000000E+00  0.00000000000E+00  0.45593999997E+02  0.45594000000E+02  0.51100000000E-03 0. -1.
         11   -1    0    0    0    0 -0.00000000000E+00 -0.00000000000E+00 -0.45593999997E+02  0.45594000000E+02  0.51100000000E-03 0.  1.
    9900012    2    1    2    0    0 -0.14202728764E+02  0.36389336544E+02 -0.11281128999E+02  0.50528865848E+02  0.30000018232E+02 0.  0.
         12    1    1    2    0    0  0.14202728764E+02 -0.36389336544E+02  0.11281128999E+02  0.40659134152E+02  0.00000000000E+00 0. -1.
         11    1    3    3    0    0 -0.43135267187E+01 -0.18061085324E+00 -0.29935416981E+01  0.52536106815E+01  0.51100000000E-03 0. -1.
        -11    1    3    3    0    0 -0.49885435244E+01  0.93382388075E+01 -0.13462015883E+02  0.17126416508E+02  0.51100000000E-03 0.  1.
         12    1    3    3    0    0 -0.49006585210E+01  0.27231708590E+02  0.51744285821E+01  0.28148838659E+02  0.00000000000E+00 0. -1.
</event>
<event>
 7    1  0.2661323E-011  0.5052887E+02  0.7816164E-02  0.1300439E+00
        -11   -1    0    0    0    0  0.00000000000E+00  0.00000000000E+00  0.45593999997E+02  0.45594000000E+02  0.51100000000E-03 0.  1.
         11   -1    0    0    0    0 -0.00000000000E+00 -0.00000000000E+00 -0.45593999997E+02  0.45594000000E+02  0.51100000000E-03 0. -1.
    9900012    2    1    2    0    0  0.14672827993E+02  0.36069829028E+02  0.11697889519E+02  0.50528867365E+02  0.30000022842E+02 0.  0.
         12    1    1    2    0    0 -0.14672827993E+02 -0.36069829028E+02 -0.11697889519E+02  0.40659132635E+02  0.00000000000E+00 0. -1.
         11    1    3    3    0    0 -0.38725874049E+01  0.38378650704E+01 -0.59804129250E+01  0.80926806759E+01  0.51100000000E-03 0. -1.
        -11    1    3    3    0    0  0.37066983733E+01  0.44764344732E+01 -0.91155353290E+00  0.58829421659E+01  0.51100000000E-03 0.  1.
        -12    1    3    3    0    0  0.14838717025E+02  0.27755529485E+02  0.18589855977E+02  0.36553244523E+02  0.00000000000E+00 0.  1.
</event>
<event>
 7    1  0.2661323E-011  0.5052887E+02  0.7816164E-02  0.1300439E+00
        -11   -1    0    0    0    0  0.00000000000E+00  0.00000000000E+00  0.45593999997E+02  0.45594000000E+02  0.51100000000E-03 0.  1.
         11   -1    0    0    0    0 -0.00000000000E+00 -0.00000000000E+00 -0.45593999997E+02  0.45594000000E+02  0.51100000000E-03 0. -1.
    9900012    2    1    2    0    0  0.13241976555E+01 -0.35168784593E+02  0.20360950557E+02  0.50528865519E+02  0.30000017230E+02 0.  0.
         12    1    1    2    0    0 -0.13241976555E+01  0.35168784593E+02 -0.20360950557E+02  0.40659134481E+02  0.00000000000E+00 0. -1.
         11    1    3    3    0    0 -0.17173107690E+01 -0.52825596222E+01  0.82529561784E+01  0.99481595476E+01  0.51100000000E-03 0. -1.
        -11    1    3    3    0    0 -0.26737343785E+01 -0.26206823565E+02  0.17735049149E+02  0.31756549332E+02  0.51100000000E-03 0.  1.
         12    1    3    3    0    0  0.57152428030E+01 -0.36794014061E+01 -0.56270547705E+01  0.88241566393E+01  0.00000000000E+00 0. -1.
</event>
<event>
 7    1  0.2661323E-011  0.5052887E+02  0.7816164E-02  0.1300439E+00
        -11   -1    0    0    0    0  0.00000000000E+00  0.00000000000E+00  0.45593999997E+02  0.45594000000E+02  0.51100000000E-03 0.  1.
         11   -1    0    0    0    0 -0.00000000000E+00 -0.00000000000E+00 -0.45593999997E+02  0.45594000000E+02  0.51100000000E-03 0. -1.
    9900012    2    1    2    0    0 -0.23921240207E+02 -0.23759245550E+02  0.22725263696E+02  0.50528867051E+02  0.30000021888E+02 0.  0.
         12    1    1    2    0    0  0.23921240207E+02  0.23759245550E+02 -0.22725263696E+02  0.40659132949E+02  0.00000000000E+00 0. -1.
         11    1    3    3    0    0  0.41525818399E+00  0.33693737494E+01  0.81169159191E+00  0.34905532977E+01  0.51100000000E-03 0. -1.
        -11    1    3    3    0    0 -0.60294879961E+01  0.23663112899E+00 -0.19878854044E+01  0.63531416188E+01  0.51100000000E-03 0.  1.
         12    1    3    3    0    0 -0.18307010394E+02 -0.27365250429E+02  0.23901457508E+02  0.40685172134E+02  0.00000000000E+00 0. -1.
</event>
<event>
 7    1  0.2661323E-011  0.5052888E+02  0.7816164E-02  0.1300439E+00
        -11   -1    0    0    0    0  0.00000000000E+00  0.00000000000E+00  0.45593999997E+02  0.45594000000E+02  0.51100000000E-03 0.  1.
         11   -1    0    0    0    0 -0.00000000000E+00 -0.00000000000E+00 -0.45593999997E+02  0.45594000000E+02  0.51100000000E-03 0. -1.
    9900012    2    1    2    0    0 -0.15898056289E+02  0.26363455403E+02  0.26559070715E+02  0.50528877877E+02  0.30000054794E+02 0.  0.
         12    1    1    2    0    0  0.15898056289E+02 -0.26363455403E+02 -0.26559070715E+02  0.40659122123E+02  0.00000000000E+00 0. -1.
         11    1    3    3    0    0 -0.52069562369E+01  0.45756449808E+01 -0.24306497307E+01  0.73455414108E+01  0.51100000000E-03 0. -1.
        -11    1    3    3    0    0 -0.16277548318E+02  0.10424978273E+02  0.18151286915E+02  0.26516183137E+02  0.51100000000E-03 0.  1.
         12    1    3    3    0    0  0.55864482657E+01  0.11362832149E+02  0.10838433531E+02  0.16667153329E+02  0.00000000000E+00 0. -1.
</event>
<event>
 7    1  0.2661323E-011  0.5052887E+02  0.7816164E-02  0.1300439E+00
        -11   -1    0    0    0    0  0.00000000000E+00  0.00000000000E+00  0.45593999997E+02  0.45594000000E+02  0.51100000000E-03 0.  1.
         11   -1    0    0    0    0 -0.00000000000E+00 -0.00000000000E+00 -0.45593999997E+02  0.45594000000E+02  0.51100000000E-03 0. -1.
    9900012    2    1    2    0    0  0.39520379005E+02 -0.83193707990E+01 -0.47002723079E+01  0.50528870066E+02  0.30000031053E+02 0.  0.
         12    1    1    2    0    0 -0.39520379005E+02  0.83193707990E+01  0.47002723079E+01  0.40659129934E+02  0.00000000000E+00 0. -1.
         11    1    3    3    0    0  0.16581334245E+02 -0.18026647689E+01  0.64654427985E+01  0.17888325703E+02  0.51100000000E-03 0. -1.
        -11    1    3    3    0    0  0.14048736167E+02 -0.61319486886E+01  0.32784199089E+01  0.15675325195E+02  0.51100000000E-03 0.  1.
         12    1    3    3    0    0  0.88903085936E+01 -0.38475734147E+00 -0.14444135015E+02  0.16965219169E+02  0.00000000000E+00 0. -1.
</event>
<event>
 7    1  0.2661323E-011  0.5052887E+02  0.7816164E-02  0.1300439E+00
        -11   -1    0    0    0    0  0.00000000000E+00  0.00000000000E+00  0.45593999997E+02  0.45594000000E+02  0.51100000000E-03 0.  1.
         11   -1    0    0    0    0 -0.00000000000E+00 -0.00000000000E+00 -0.45593999997E+02  0.45594000000E+02  0.51100000000E-03 0. -1.
    9900012    2    1    2    0    0 -0.26137427776E+02 -0.15779389248E+02  0.26851647378E+02  0.50528865446E+02  0.30000017010E+02 0.  0.
         12    1    1    2    0    0  0.26137427776E+02  0.15779389248E+02 -0.26851647378E+02  0.40659134554E+02  0.00000000000E+00 0. -1.
         11    1    3    3    0    0 -0.12093361197E+02 -0.11742734706E+02  0.14586441874E+02  0.22291377037E+02  0.51100000000E-03 0. -1.
        -11    1    3    3    0    0 -0.17676472456E+02 -0.81918638403E+01  0.72734041692E+01  0.20795834202E+02  0.51100000000E-03 0.  1.
         12    1    3    3    0    0  0.36324058774E+01  0.41552092982E+01  0.49918013350E+01  0.74416542071E+01  0.00000000000E+00 0. -1.
</event>
<event>
 7    1  0.2661323E-011  0.5052885E+02  0.7816164E-02  0.1300439E+00
        -11   -1    0    0    0    0  0.00000000000E+00  0.00000000000E+00  0.45593999997E+02  0.45594000000E+02  0.51100000000E-03 0.  1.
         11   -1    0    0    0    0 -0.00000000000E+00 -0.00000000000E+00 -0.45593999997E+02  0.45594000000E+02  0.51100000000E-03 0. -1.
    9900012    2    1    2    0    0 -0.63612481238E+01  0.23353988209E+02  0.32669442870E+02  0.50528846782E+02  0.29999960278E+02 0.  0.
         12    1    1    2    0    0  0.63612481238E+01 -0.23353988209E+02 -0.32669442870E+02  0.40659153218E+02  0.00000000000E+00 0. -1.
         11    1    3    3    0    0 -0.91101826839E+00  0.21502711103E+02  0.67132962593E+01  0.22544730781E+02  0.51100000000E-03 0. -1.
        -11    1    3    3    0    0 -0.27125501729E+01  0.50905216533E+01  0.18806292572E+02  0.19670993358E+02  0.51100000000E-03 0.  1.
        -12    1    3    3    0    0 -0.27376796825E+01 -0.32392445474E+01  0.71498540392E+01  0.83131226422E+01  0.00000000000E+00 0.  1.
</event>
<event>
 7    1  0.2661323E-011  0.5052886E+02  0.7816164E-02  0.1300439E+00
        -11   -1    0    0    0    0  0.00000000000E+00  0.00000000000E+00  0.45593999997E+02  0.45594000000E+02  0.51100000000E-03 0. -1.
         11   -1    0    0    0    0 -0.00000000000E+00 -0.00000000000E+00 -0.45593999997E+02  0.45594000000E+02  0.51100000000E-03 0.  1.
    9900012    2    1    2    0    0 -0.27624806855E+01  0.20790921155E+02 -0.34832049100E+02  0.50528863923E+02  0.30000012381E+02 0.  0.
         12    1    1    2    0    0  0.27624806855E+01 -0.20790921155E+02  0.34832049100E+02  0.40659136077E+02  0.00000000000E+00 0. -1.
         11    1    3    3    0    0 -0.59060145602E+01  0.10651754449E+02 -0.95862352716E+00  0.12217194447E+02  0.51100000000E-03 0. -1.
        -11    1    3    3    0    0 -0.18497560319E+01  0.73287452690E+00  0.72017226851E+00  0.21159751434E+01  0.51100000000E-03 0.  1.
        -12    1    3    3    0    0  0.49932899067E+01  0.94062921789E+01 -0.34593597841E+02  0.36195694333E+02  0.00000000000E+00 0.  1.
</event>
<event>
 7    1  0.2661323E-011  0.5052887E+02  0.7816164E-02  0.1300439E+00
        -11   -1    0    0    0    0  0.00000000000E+00  0.00000000000E+00  0.45593999997E+02  0.45594000000E+02  0.51100000000E-03 0.  1.
         11   -1    0    0    0    0 -0.00000000000E+00 -0.00000000000E+00 -0.45593999997E+02  0.45594000000E+02  0.51100000000E-03 0. -1.
    9900012    2    1    2    0    0 -0.12239902855E+02  0.72298098716E+01  0.38093041201E+02  0.50528866209E+02  0.30000019330E+02 0.  0.
         12    1    1    2    0    0  0.12239902855E+02 -0.72298098716E+01 -0.38093041201E+02  0.40659133791E+02  0.00000000000E+00 0. -1.
         11    1    3    3    0    0 -0.75940016583E+01  0.67581808613E+01  0.15610263693E+02  0.18628531949E+02  0.51100000000E-03 0. -1.
        -11    1    3    3    0    0 -0.60013943560E+01  0.86256920339E+01  0.21027958327E+02  0.23507325006E+02  0.51100000000E-03 0.  1.
         12    1    3    3    0    0  0.13554931597E+01 -0.81540630236E+01  0.14548191810E+01  0.83930092546E+01  0.00000000000E+00 0. -1.
</event>
<event>
 7    1  0.2661323E-011  0.5052885E+02  0.7816164E-02  0.1300439E+00
        -11   -1    0    0    0    0  0.00000000000E+00  0.00000000000E+00  0.45593999997E+02  0.45594000000E+02  0.51100000000E-03 0.  1.
         11   -1    0    0    0    0 -0.00000000000E+00 -0.00000000000E+00 -0.45593999997E+02  0.45594000000E+02  0.51100000000E-03 0. -1.
    9900012    2    1    2    0    0  0.11070445991E+02 -0.37226649045E+02  0.12032796986E+02  0.50528851253E+02  0.29999973868E+02 0.  0.
         12    1    1    2    0    0 -0.11070445991E+02  0.37226649045E+02 -0.12032796986E+02  0.40659148747E+02  0.00000000000E+00 0. -1.
         11    1    3    3    0    0  0.10823246223E+01 -0.12395001802E+01  0.36095169213E+01  0.39669131514E+01  0.51100000000E-03 0. -1.
        -11    1    3    3    0    0  0.10577167407E+02 -0.14815194976E+02  0.15830319097E+02  0.24123960610E+02  0.51100000000E-03 0.  1.
         12    1    3    3    0    0 -0.58904603838E+00 -0.21171953889E+02 -0.74070390319E+01  0.22437977492E+02  0.00000000000E+00 0. -1.
</event>
<event>
 7    1  0.2661323E-011  0.5052886E+02  0.7816164E-02  0.1300439E+00
        -11   -1    0    0    0    0  0.00000000000E+00  0.00000000000E+00  0.45593999997E+02  0.45594000000E+02  0.51100000000E-03 0.  1.
         11   -1    0    0    0    0 -0.00000000000E+00 -0.00000000000E+00 -0.45593999997E+02  0.45594000000E+02  0.51100000000E-03 0. -1.
    9900012    2    1    2    0    0 -0.25165845286E+02  0.87190005731E+01  0.30721739700E+02  0.50528855516E+02  0.29999986826E+02 0.  0.
         12    1    1    2    0    0  0.25165845286E+02 -0.87190005731E+01 -0.30721739700E+02  0.40659144484E+02  0.00000000000E+00 0. -1.
         11    1    3    3    0    0 -0.72774383946E+01 -0.18791523857E+00  0.21444644823E+02  0.22646615941E+02  0.51100000000E-03 0. -1.
        -11    1    3    3    0    0 -0.45689678775E+01  0.10960526502E+02  0.80575349071E+01  0.14350347651E+02  0.51100000000E-03 0.  1.
         12    1    3    3    0    0 -0.13319439014E+02 -0.20536106904E+01  0.12195599703E+01  0.13531891924E+02  0.00000000000E+00 0. -1.
</event>
<event>
 7    1  0.2661323E-011  0.5052886E+02  0.7816164E-02  0.1300439E+00
        -11   -1    0    0    0    0  0.00000000000E+00  0.00000000000E+00  0.45593999997E+02  0.45594000000E+02  0.51100000000E-03 0.  1.
         11   -1    0    0    0    0 -0.00000000000E+00 -0.00000000000E+00 -0.45593999997E+02  0.45594000000E+02  0.51100000000E-03 0. -1.
    9900012    2    1    2    0    0 -0.22842287649E+02  0.15577587937E+01  0.33600134426E+02  0.50528858950E+02  0.29999997263E+02 0.  0.
         12    1    1    2    0    0  0.22842287649E+02 -0.15577587937E+01 -0.33600134426E+02  0.40659141050E+02  0.00000000000E+00 0. -1.
         11    1    3    3    0    0 -0.32722860536E+01  0.69294869724E+01  0.62047087212E+01  0.98602259758E+01  0.51100000000E-03 0. -1.
        -11    1    3    3    0    0 -0.32552832412E+01  0.76390592607E+01  0.36890634166E+01  0.90863240379E+01  0.51100000000E-03 0.  1.
        -12    1    3    3    0    0 -0.16314718354E+02 -0.13010787439E+02  0.23706362289E+02  0.31582308936E+02  0.00000000000E+00 0.  1.
</event>
<event>
 7    1  0.2661323E-011  0.5052885E+02  0.7816164E-02  0.1300439E+00
        -11   -1    0    0    0    0  0.00000000000E+00  0.00000000000E+00  0.45593999997E+02  0.45594000000E+02  0.51100000000E-03 0.  1.
         11   -1    0    0    0    0 -0.00000000000E+00 -0.00000000000E+00 -0.45593999997E+02  0.45594000000E+02  0.51100000000E-03 0. -1.
    9900012    2    1    2    0    0  0.12365725719E+02  0.38201899560E+02  0.63929512910E+01  0.50528854303E+02  0.29999983140E+02 0.  0.
         12    1    1    2    0    0 -0.12365725719E+02 -0.38201899560E+02 -0.63929512910E+01  0.40659145697E+02  0.00000000000E+00 0. -1.
         11    1    3    3    0    0 -0.16921504603E+01  0.59968867187E+01  0.90160838961E+01  0.10959735060E+02  0.51100000000E-03 0. -1.
        -11    1    3    3    0    0 -0.31612517039E+01  0.10386941307E+02  0.28852527378E+01  0.11234177570E+02  0.51100000000E-03 0.  1.
        -12    1    3    3    0    0  0.17219127883E+02  0.21818071534E+02 -0.55083853430E+01  0.28334941673E+02  0.00000000000E+00 0.  1.
</event>
<event>
 7    1  0.2661323E-011  0.5052886E+02  0.7816164E-02  0.1300439E+00
        -11   -1    0    0    0    0  0.00000000000E+00  0.00000000000E+00  0.45593999997E+02  0.45594000000E+02  0.51100000000E-03 0.  1.
         11   -1    0    0    0    0 -0.00000000000E+00 -0.00000000000E+00 -0.45593999997E+02  0.45594000000E+02  0.51100000000E-03 0. -1.
    9900012    2    1    2    0    0  0.19297443016E+02 -0.21496511120E+02  0.28612486946E+02  0.50528859496E+02  0.29999998925E+02 0.  0.
         12    1    1    2    0    0 -0.19297443016E+02  0.21496511120E+02 -0.28612486946E+02  0.40659140504E+02  0.00000000000E+00 0. -1.
         11    1    3    3    0    0  0.96094281327E+01 -0.21559153456E+01  0.10617162681E+02  0.14481478643E+02  0.51100000000E-03 0. -1.
        -11    1    3    3    0    0  0.50842883595E+01 -0.83403191960E+01  0.21502860484E+02  0.23617449517E+02  0.51100000000E-03 0.  1.
         12    1    3    3    0    0  0.46037265237E+01 -0.11000276578E+02 -0.35075362201E+01  0.12429931337E+02  0.00000000000E+00 0. -1.
</event>
<event>
 7    1  0.2661323E-011  0.5052886E+02  0.7816164E-02  0.1300439E+00
        -11   -1    0    0    0    0  0.00000000000E+00  0.00000000000E+00  0.45593999997E+02  0.45594000000E+02  0.51100000000E-03 0. -1.
         11   -1    0    0    0    0 -0.00000000000E+00 -0.00000000000E+00 -0.45593999997E+02  0.45594000000E+02  0.51100000000E-03 0.  1.
    9900012    2    1    2    0    0  0.12170521758E+02  0.12295768334E+02 -0.36794810299E+02  0.50528861006E+02  0.30000003514E+02 0.  0.
         12    1    1    2    0    0 -0.12170521758E+02 -0.12295768334E+02  0.36794810299E+02  0.40659138994E+02  0.00000000000E+00 0. -1.
         11    1    3    3    0    0  0.11556850532E+02  0.13354351126E+02 -0.26088191303E+02  0.31503860302E+02  0.51100000000E-03 0. -1.
        -11    1    3    3    0    0  0.44593187079E+01  0.60970513045E+01 -0.59101674849E+01  0.95911228701E+01  0.51100000000E-03 0.  1.
        -12    1    3    3    0    0 -0.38456474815E+01 -0.71556340970E+01 -0.47964515116E+01  0.94338778339E+01  0.00000000000E+00 0.  1.
</event>
<event>
 7    1  0.2661323E-011  0.5052883E+02  0.7816164E-02  0.1300439E+00
        -11   -1    0    0    0    0  0.00000000000E+00  0.00000000000E+00  0.45593999997E+02  0.45594000000E+02  0.51100000000E-03 0.  1.
         11   -1    0    0    0    0 -0.00000000000E+00 -0.00000000000E+00 -0.45593999997E+02  0.45594000000E+02  0.51100000000E-03 0. -1.
    9900012    2    1    2    0    0 -0.22687357139E+01  0.23287426646E+02  0.33252313524E+02  0.50528834290E+02  0.29999922308E+02 0.  0.
         12    1    1    2    0    0  0.22687357139E+01 -0.23287426646E+02 -0.33252313524E+02  0.40659165710E+02  0.00000000000E+00 0. -1.
         11    1    3    3    0    0 -0.45077912809E+01  0.88734366779E+01  0.23314188883E+01  0.10222209888E+02  0.51100000000E-03 0. -1.
        -11    1    3    3    0    0 -0.81813307792E+01  0.12091326861E+02  0.13555941519E+02  0.19922296787E+02  0.51100000000E-03 0.  1.
        -12    1    3    3    0    0  0.10420386346E+02  0.23226631074E+01  0.17364953117E+02  0.20384327614E+02  0.00000000000E+00 0.  1.
</event>
<event>
 7    1  0.2661323E-011  0.5052886E+02  0.7816164E-02  0.1300439E+00
        -11   -1    0    0    0    0  0.00000000000E+00  0.00000000000E+00  0.45593999997E+02  0.45594000000E+02  0.51100000000E-03 0.  1.
         11   -1    0    0    0    0 -0.00000000000E+00 -0.00000000000E+00 -0.45593999997E+02  0.45594000000E+02  0.51100000000E-03 0. -1.
    9900012    2    1    2    0    0  0.31761333298E+02 -0.23038817655E+02  0.10658155253E+02  0.50528859758E+02  0.29999999720E+02 0.  0.
         12    1    1    2    0    0 -0.31761333298E+02  0.23038817655E+02 -0.10658155253E+02  0.40659140242E+02  0.00000000000E+00 0. -1.
         11    1    3    3    0    0 -0.19935758353E+01 -0.59923521013E+01  0.27022962947E+01  0.68691363244E+01  0.51100000000E-03 0. -1.
        -11    1    3    3    0    0  0.52115224371E+01 -0.91785567416E+01  0.92343231932E+01  0.14024214597E+02  0.51100000000E-03 0.  1.
         12    1    3    3    0    0  0.28543386696E+02 -0.78679088120E+01 -0.12784642345E+01  0.29635508836E+02  0.00000000000E+00 0. -1.
</event>
<event>
 7    1  0.2661323E-011  0.5052886E+02  0.7816164E-02  0.1300439E+00
        -11   -1    0    0    0    0  0.00000000000E+00  0.00000000000E+00  0.45593999997E+02  0.45594000000E+02  0.51100000000E-03 0. -1.
         11   -1    0    0    0    0 -0.00000000000E+00 -0.00000000000E+00 -0.45593999997E+02  0.45594000000E+02  0.51100000000E-03 0.  1.
    9900012    2    1    2    0    0 -0.23306697763E+02  0.31391375768E+02  0.11159979763E+02  0.50528858574E+02  0.29999996121E+02 0.  0.
         12    1    1    2    0    0  0.23306697763E+02 -0.31391375768E+02 -0.11159979763E+02  0.40659141426E+02  0.00000000000E+00 0. -1.
         11    1    3    3    0    0 -0.12995912917E+02  0.19698627781E+02  0.11549206101E+02  0.26273824443E+02  0.51100000000E-03 0. -1.
        -11    1    3    3    0    0 -0.92917346617E+01  0.14114235557E+02  0.55291545582E+01  0.17779750526E+02  0.51100000000E-03 0.  1.
         12    1    3    3    0    0 -0.10190501840E+01 -0.24214875708E+01 -0.59183808962E+01  0.64752836050E+01  0.00000000000E+00 0. -1.
</event>
<event>
 7    1  0.2661323E-011  0.5052887E+02  0.7816164E-02  0.1300439E+00
        -11   -1    0    0    0    0  0.00000000000E+00  0.00000000000E+00  0.45593999997E+02  0.45594000000E+02  0.51100000000E-03 0.  1.
         11   -1    0    0    0    0 -0.00000000000E+00 -0.00000000000E+00 -0.45593999997E+02  0.45594000000E+02  0.51100000000E-03 0. -1.
    9900012    2    1    2    0    0 -0.13340186963E+02 -0.30356782181E+01  0.38288239669E+02  0.50528865388E+02  0.30000016833E+02 0.  0.
         12    1    1    2    0    0  0.13340186963E+02  0.30356782181E+01 -0.38288239669E+02  0.40659134612E+02  0.00000000000E+00 0. -1.
         11    1    3    3    0    0 -0.43496218125E+01  0.47076908648E+01  0.18272403749E+01  0.66648609017E+01  0.51100000000E-03 0. -1.
        -11    1    3    3    0    0  0.13465368273E+01  0.36192456664E+01 -0.44656006138E+00  0.38873534404E+01  0.51100000000E-03 0.  1.
        -12    1    3    3    0    0 -0.10337101978E+02 -0.11362614749E+02  0.36907559356E+02  0.39976651046E+02  0.00000000000E+00 0.  1.
</event>
<event>
 7    1  0.2661323E-011  0.5052886E+02  0.7816164E-02  0.1300439E+00
        -11   -1    0    0    0    0  0.00000000000E+00  0.00000000000E+00  0.45593999997E+02  0.45594000000E+02  0.51100000000E-03 0.  1.
         11   -1    0    0    0    0 -0.00000000000E+00 -0.00000000000E+00 -0.45593999997E+02  0.45594000000E+02  0.51100000000E-03 0. -1.
    9900012    2    1    2    0    0 -0.95303770203E+01 -0.26350252271E+02  0.29461863564E+02  0.50528864673E+02  0.30000014659E+02 0.  0.
         12    1    1    2    0    0  0.95303770203E+01  0.26350252271E+02 -0.29461863564E+02  0.40659135327E+02  0.00000000000E+00 0. -1.
         11    1    3    3    0    0 -0.11617817525E+01  0.15532031160E+01  0.12887497125E+02  0.13032642064E+02  0.51100000000E-03 0. -1.
        -11    1    3    3    0    0 -0.72276782829E+01 -0.19104781404E+02  0.19414136393E+02  0.28180502089E+02  0.51100000000E-03 0.  1.
         12    1    3    3    0    0 -0.11409169849E+01 -0.87986739824E+01 -0.28397699531E+01  0.93157205198E+01  0.00000000000E+00 0. -1.
</event>
<event>
 7    1  0.2661323E-011  0.5052885E+02  0.7816164E-02  0.1300439E+00
        -11   -1    0    0    0    0  0.00000000000E+00  0.00000000000E+00  0.45593999997E+02  0.45594000000E+02  0.51100000000E-03 0.  1.
         11   -1    0    0    0    0 -0.00000000000E+00 -0.00000000000E+00 -0.45593999997E+02  0.45594000000E+02  0.51100000000E-03 0. -1.
    9900012    2    1    2    0    0 -0.15302454534E+02 -0.36332211871E+01  0.37494010761E+02  0.50528852764E+02  0.29999978463E+02 0.  0.
         12    1    1    2    0    0  0.15302454534E+02  0.36332211871E+01 -0.37494010761E+02  0.40659147236E+02  0.00000000000E+00 0. -1.
         11    1    3    3    0    0 -0.24899817538E+01 -0.18215359630E-01 -0.81893936194E+00  0.26212597874E+01  0.51100000000E-03 0. -1.
        -11    1    3    3    0    0 -0.18558510679E+02  0.41659938934E+01  0.23799130967E+02  0.30465922911E+02  0.51100000000E-03 0.  1.
        -12    1    3    3    0    0  0.57460378996E+01 -0.77809997208E+01  0.14513819156E+02  0.17441670066E+02  0.00000000000E+00 0.  1.
</event>
<event>
 7    1  0.2661323E-011  0.5052888E+02  0.7816164E-02  0.1300439E+00
        -11   -1    0    0    0    0  0.00000000000E+00  0.00000000000E+00  0.45593999997E+02  0.45594000000E+02  0.51100000000E-03 0. -1.
         11   -1    0    0    0    0 -0.00000000000E+00 -0.00000000000E+00 -0.45593999997E+02  0.45594000000E+02  0.51100000000E-03 0.  1.
    9900012    2    1    2    0    0 -0.89992045990E+01 -0.36828076030E+02 -0.14692560057E+02  0.50528878163E+02  0.30000055665E+02 0.  0.
         12    1    1    2    0    0  0.89992045990E+01  0.36828076030E+02  0.14692560057E+02  0.40659121837E+02  0.00000000000E+00 0. -1.
         11    1    3    3    0    0 -0.57703523727E+01 -0.15387654681E+02  0.62092123888E+01  0.17567902602E+02  0.51100000000E-03 0. -1.
        -11    1    3    3    0    0 -0.18155045468E+01 -0.33682742871E+00  0.13297585703E+01  0.22754708507E+01  0.51100000000E-03 0.  1.
        -12    1    3    3    0    0 -0.14133476795E+01 -0.21103593920E+02 -0.22231531016E+02  0.30685504711E+02  0.00000000000E+00 0.  1.
</event>
<event>
 7    1  0.2661323E-011  0.5052888E+02  0.7816164E-02  0.1300439E+00
        -11   -1    0    0    0    0  0.00000000000E+00  0.00000000000E+00  0.45593999997E+02  0.45594000000E+02  0.51100000000E-03 0.  1.
         11   -1    0    0    0    0 -0.00000000000E+00 -0.00000000000E+00 -0.45593999997E+02  0.45594000000E+02  0.51100000000E-03 0. -1.
    9900012    2    1    2    0    0 -0.72605798476E+01 -0.39853774819E+02 -0.34820105836E+01  0.50528883129E+02  0.30000070758E+02 0.  0.
         12    1    1    2    0    0  0.72605798476E+01  0.39853774819E+02  0.34820105836E+01  0.40659116871E+02  0.00000000000E+00 0. -1.
         11    1    3    3    0    0 -0.23395587539E+01  0.19328198896E+01 -0.74411796576E+00  0.31245863240E+01  0.51100000000E-03 0. -1.
        -11    1    3    3    0    0 -0.11041125114E+02 -0.21787476238E+02 -0.82403659809E+01  0.25777978904E+02  0.51100000000E-03 0.  1.
         12    1    3    3    0    0  0.61201040206E+01 -0.19999118471E+02  0.55024733630E+01  0.21626317901E+02  0.00000000000E+00 0. -1.
</event>
<event>
 7    1  0.2661323E-011  0.5052885E+02  0.7816164E-02  0.1300439E+00
        -11   -1    0    0    0    0  0.00000000000E+00  0.00000000000E+00  0.45593999997E+02  0.45594000000E+02  0.51100000000E-03 0.  1.
         11   -1    0    0    0    0 -0.00000000000E+00 -0.00000000000E+00 -0.45593999997E+02  0.45594000000E+02  0.51100000000E-03 0. -1.
    9900012    2    1    2    0    0  0.30951637235E+02 -0.25022437229E+01  0.26246936158E+02  0.50528846924E+02  0.29999960711E+02 0.  0.
         12    1    1    2    0    0 -0.30951637235E+02  0.25022437229E+01 -0.26246936158E+02  0.40659153076E+02  0.00000000000E+00 0. -1.
         11    1    3    3    0    0  0.11026968004E+02 -0.42730028947E+01  0.92766650530E+01  0.15030272515E+02  0.51100000000E-03 0. -1.
        -11    1    3    3    0    0  0.24231383348E+02  0.33004696653E+00  0.18730130490E+02  0.30628200378E+02  0.51100000000E-03 0.  1.
         12    1    3    3    0    0 -0.43067141175E+01  0.14407122053E+01 -0.17598593854E+01  0.48703740313E+01  0.00000000000E+00 0. -1.
</event>
<event>
 7    1  0.2661323E-011  0.5052887E+02  0.7816164E-02  0.1300439E+00
        -11   -1    0    0    0    0  0.00000000000E+00  0.00000000000E+00  0.45593999997E+02  0.45594000000E+02  0.51100000000E-03 0.  1.
         11   -1    0    0    0    0 -0.00000000000E+00 -0.00000000000E+00 -0.45593999997E+02  0.45594000000E+02  0.51100000000E-03 0. -1.
    9900012    2    1    2    0    0 -0.40606916917E+02  0.10227832554E+01 -0.17881335207E+01  0.50528865619E+02  0.30000017536E+02 0.  0.
         12    1    1    2    0    0  0.40606916917E+02 -0.10227832554E+01  0.17881335207E+01  0.40659134381E+02  0.00000000000E+00 0. -1.
         11    1    3    3    0    0 -0.84087061554E+01  0.10886111819E+02 -0.28671842322E+01  0.14051139293E+02  0.51100000000E-03 0. -1.
        -11    1    3    3    0    0 -0.85344966366E+01  0.31864034675E+01  0.24040999777E+01  0.94218096384E+01  0.51100000000E-03 0.  1.
        -12    1    3    3    0    0 -0.23663714125E+02 -0.13049732031E+02 -0.13250492662E+01  0.27055916688E+02  0.00000000000E+00 0.  1.
</event>
<event>
 7    1  0.2661323E-011  0.5052886E+02  0.7816164E-02  0.1300439E+00
        -11   -1    0    0    0    0  0.00000000000E+00  0.00000000000E+00  0.45593999997E+02  0.45594000000E+02  0.51100000000E-03 0. -1.
         11   -1    0    0    0    0 -0.00000000000E+00 -0.00000000000E+00 -0.45593999997E+02  0.45594000000E+02  0.51100000000E-03 0.  1.
    9900012    2    1    2    0    0 -0.33763364087E+02 -0.86527885614E+01 -0.20936338379E+02  0.50528858727E+02  0.29999996587E+02 0.  0.
         12    1    1    2    0    0  0.33763364087E+02  0.86527885614E+01  0.20936338379E+02  0.40659141273E+02  0.00000000000E+00 0. -1.
         11    1    3    3    0    0 -0.37250851997E+01  0.20347042874E+01 -0.11162224347E+02  0.11942007114E+02  0.51100000000E-03 0. -1.
        -11    1    3    3    0    0 -0.20952786530E+02 -0.11416616579E+02 -0.14898437123E+02  0.28130443055E+02  0.51100000000E-03 0.  1.
        -12    1    3    3    0    0 -0.90854923565E+01  0.72912373049E+00  0.51243230915E+01  0.10456408558E+02  0.00000000000E+00 0.  1.
</event>
<event>
 7    1  0.2661323E-011  0.5052886E+02  0.7816164E-02  0.1300439E+00
        -11   -1    0    0    0    0  0.00000000000E+00  0.00000000000E+00  0.45593999997E+02  0.45594000000E+02  0.51100000000E-03 0. -1.
         11   -1    0    0    0    0 -0.00000000000E+00 -0.00000000000E+00 -0.45593999997E+02  0.45594000000E+02  0.51100000000E-03 0.  1.
    9900012    2    1    2    0    0  0.33342560043E+02 -0.11456535738E+02 -0.20253080405E+02  0.50528858504E+02  0.29999995908E+02 0.  0.
         12    1    1    2    0    0 -0.33342560043E+02  0.11456535738E+02  0.20253080405E+02  0.40659141496E+02  0.00000000000E+00 0. -1.
         11    1    3    3    0    0  0.19690161509E+02  0.63020331217E+01 -0.10102062903E+02  0.23010209840E+02  0.51100000000E-03 0.  1.
        -11    1    3    3    0    0  0.75319810781E+01 -0.18749645106E+01 -0.12386115463E+00  0.77628327770E+01  0.51100000000E-03 0. -1.
        -12    1    3    3    0    0  0.61204174557E+01 -0.15883604349E+02 -0.10027156347E+02  0.19755815887E+02  0.00000000000E+00 0.  1.
</event>
<event>
 7    1  0.2661323E-011  0.5052886E+02  0.7816164E-02  0.1300439E+00
        -11   -1    0    0    0    0  0.00000000000E+00  0.00000000000E+00  0.45593999997E+02  0.45594000000E+02  0.51100000000E-03 0.  1.
         11   -1    0    0    0    0 -0.00000000000E+00 -0.00000000000E+00 -0.45593999997E+02  0.45594000000E+02  0.51100000000E-03 0. -1.
    9900012    2    1    2    0    0  0.54651089530E+01 -0.89863353869E+01  0.39275229097E+02  0.50528864985E+02  0.30000015608E+02 0.  0.
         12    1    1    2    0    0 -0.54651089530E+01  0.89863353869E+01 -0.39275229097E+02  0.40659135015E+02  0.00000000000E+00 0. -1.
         11    1    3    3    0    0  0.79338163166E+01 -0.89195720980E+01  0.15751206151E+02  0.19763721897E+02  0.51100000000E-03 0. -1.
        -11    1    3    3    0    0  0.55946988906E+01 -0.34042905081E+01  0.20513634737E+02  0.21533672700E+02  0.51100000000E-03 0.  1.
         12    1    3    3    0    0 -0.80634062542E+01  0.33375272192E+01  0.30103882086E+01  0.92314703881E+01  0.00000000000E+00 0. -1.
</event>
<event>
 7    1  0.2661323E-011  0.5052886E+02  0.7816164E-02  0.1300439E+00
        -11   -1    0    0    0    0  0.00000000000E+00  0.00000000000E+00  0.45593999997E+02  0.45594000000E+02  0.51100000000E-03 0. -1.
         11   -1    0    0    0    0 -0.00000000000E+00 -0.00000000000E+00 -0.45593999997E+02  0.45594000000E+02  0.51100000000E-03 0.  1.
    9900012    2    1    2    0    0 -0.22288451344E+02  0.33740315997E+02 -0.42405023243E+01  0.50528857770E+02  0.29999993679E+02 0.  0.
         12    1    1    2    0    0  0.22288451344E+02 -0.33740315997E+02  0.42405023243E+01  0.40659142230E+02  0.00000000000E+00 0. -1.
         11    1    3    3    0    0  0.10517411806E+01 -0.55262549836E+00  0.17386394612E+01  0.21058067075E+01  0.51100000000E-03 0. -1.
        -11    1    3    3    0    0 -0.10720001335E+02  0.44285476615E+01  0.69467462001E+01  0.13519901851E+02  0.51100000000E-03 0.  1.
         12    1    3    3    0    0 -0.12620191190E+02  0.29864393834E+02 -0.12925887986E+02  0.34903149212E+02  0.00000000000E+00 0. -1.
</event>
<event>
 7    1  0.2661323E-011  0.5052885E+02  0.7816164E-02  0.1300439E+00
        -11   -1    0    0    0    0  0.00000000000E+00  0.00000000000E+00  0.45593999997E+02  0.45594000000E+02  0.51100000000E-03 0.  1.
         11   -1    0    0    0    0 -0.00000000000E+00 -0.00000000000E+00 -0.45593999997E+02  0.45594000000E+02  0.51100000000E-03 0. -1.
    9900012    2    1    2    0    0  0.12852093857E+02  0.29311393224E+02  0.25076535106E+02  0.50528847252E+02  0.29999961707E+02 0.  0.
         12    1    1    2    0    0 -0.12852093857E+02 -0.29311393224E+02 -0.25076535106E+02  0.40659152748E+02  0.00000000000E+00 0. -1.
         11    1    3    3    0    0  0.13173384103E+02  0.24778619213E+01  0.89897700881E+01  0.16139820783E+02  0.51100000000E-03 0. -1.
        -11    1    3    3    0    0  0.59475883844E+01  0.88709206377E+01  0.93858551908E+01  0.14218344435E+02  0.51100000000E-03 0.  1.
        -12    1    3    3    0    0 -0.62688786299E+01  0.17962610665E+02  0.67009098270E+01  0.20170682034E+02  0.00000000000E+00 0.  1.
</event>
<event>
 7    1  0.2661323E-011  0.5052884E+02  0.7816164E-02  0.1300439E+00
        -11   -1    0    0    0    0  0.00000000000E+00  0.00000000000E+00  0.45593999997E+02  0.45594000000E+02  0.51100000000E-03 0.  1.
         11   -1    0    0    0    0 -0.00000000000E+00 -0.00000000000E+00 -0.45593999997E+02  0.45594000000E+02  0.51100000000E-03 0. -1.
    9900012    2    1    2    0    0 -0.99753649970E+00 -0.30482352836E+02  0.26888633901E+02  0.50528836869E+02  0.29999930147E+02 0.  0.
         12    1    1    2    0    0  0.99753649970E+00  0.30482352836E+02 -0.26888633901E+02  0.40659163131E+02  0.00000000000E+00 0. -1.
         11    1    3    3    0    0  0.46856820854E+00 -0.12275222984E+02  0.94477977853E+01  0.15497146148E+02  0.51100000000E-03 0. -1.
        -11    1    3    3    0    0 -0.18603998629E+01 -0.23974280194E+02  0.11205497761E+02  0.26529047831E+02  0.51100000000E-03 0.  1.
         12    1    3    3    0    0  0.39429515471E+00  0.57671503421E+01  0.62353383540E+01  0.85026428907E+01  0.00000000000E+00 0. -1.
</event>
<event>
 7    1  0.2661323E-011  0.5052885E+02  0.7816164E-02  0.1300439E+00
        -11   -1    0    0    0    0  0.00000000000E+00  0.00000000000E+00  0.45593999997E+02  0.45594000000E+02  0.51100000000E-03 0.  1.
         11   -1    0    0    0    0 -0.00000000000E+00 -0.00000000000E+00 -0.45593999997E+02  0.45594000000E+02  0.51100000000E-03 0. -1.
    9900012    2    1    2    0    0  0.29784353246E+02 -0.26807973606E+02 -0.68841220947E+01  0.50528852393E+02  0.29999977333E+02 0.  0.
         12    1    1    2    0    0 -0.29784353246E+02  0.26807973606E+02  0.68841220947E+01  0.40659147607E+02  0.00000000000E+00 0. -1.
         11    1    3    3    0    0  0.17443779748E+02 -0.15315406561E+02 -0.90207509306E+01  0.24904238146E+02  0.51100000000E-03 0.  1.
        -11    1    3    3    0    0  0.36625507850E+01 -0.14784008692E+02  0.47989468719E+01  0.15969066429E+02  0.51100000000E-03 0. -1.
         12    1    3    3    0    0  0.86780227133E+01  0.32914416481E+01 -0.26623180360E+01  0.96555478178E+01  0.00000000000E+00 0. -1.
</event>
<event>
 7    1  0.2661323E-011  0.5052884E+02  0.7816164E-02  0.1300439E+00
        -11   -1    0    0    0    0  0.00000000000E+00  0.00000000000E+00  0.45593999997E+02  0.45594000000E+02  0.51100000000E-03 0. -1.
         11   -1    0    0    0    0 -0.00000000000E+00 -0.00000000000E+00 -0.45593999997E+02  0.45594000000E+02  0.51100000000E-03 0.  1.
    9900012    2    1    2    0    0  0.13551408626E+02  0.28659950442E+02 -0.25458480919E+02  0.50528835156E+02  0.29999924940E+02 0.  0.
         12    1    1    2    0    0 -0.13551408626E+02 -0.28659950442E+02  0.25458480919E+02  0.40659164844E+02  0.00000000000E+00 0. -1.
         11    1    3    3    0    0 -0.51069501686E-01  0.11499719456E+02 -0.44224694758E+01  0.12320892508E+02  0.51100000000E-03 0. -1.
        -11    1    3    3    0    0 -0.51353045268E+01  0.80958896996E+01 -0.15814586735E+01  0.97167790141E+01  0.51100000000E-03 0.  1.
         12    1    3    3    0    0  0.18737782654E+02  0.90643412865E+01 -0.19454552770E+02  0.28491163634E+02  0.00000000000E+00 0. -1.
</event>
<event>
 7    1  0.2661323E-011  0.5052886E+02  0.7816164E-02  0.1300439E+00
        -11   -1    0    0    0    0  0.00000000000E+00  0.00000000000E+00  0.45593999997E+02  0.45594000000E+02  0.51100000000E-03 0.  1.
         11   -1    0    0    0    0 -0.00000000000E+00 -0.00000000000E+00 -0.45593999997E+02  0.45594000000E+02  0.51100000000E-03 0. -1.
    9900012    2    1    2    0    0 -0.15882126752E+02 -0.22763973339E+02  0.29710690071E+02  0.50528861583E+02  0.30000005266E+02 0.  0.
         12    1    1    2    0    0  0.15882126752E+02  0.22763973339E+02 -0.29710690071E+02  0.40659138417E+02  0.00000000000E+00 0. -1.
         11    1    3    3    0    0 -0.79137937557E+01 -0.80899170348E+01  0.20372005440E+02  0.23304366439E+02  0.51100000000E-03 0. -1.
        -11    1    3    3    0    0 -0.13128048711E+02 -0.14791229952E+02  0.97450084010E+01  0.22047479118E+02  0.51100000000E-03 0.  1.
        -12    1    3    3    0    0  0.51597157148E+01  0.11717364760E+00 -0.40632376983E+00  0.51770160254E+01  0.00000000000E+00 0.  1.
</event>
<event>
 7    1  0.2661323E-011  0.5052886E+02  0.7816164E-02  0.1300439E+00
        -11   -1    0    0    0    0  0.00000000000E+00  0.00000000000E+00  0.45593999997E+02  0.45594000000E+02  0.51100000000E-03 0. -1.
         11   -1    0    0    0    0 -0.00000000000E+00 -0.00000000000E+00 -0.45593999997E+02  0.45594000000E+02  0.51100000000E-03 0.  1.
    9900012    2    1    2    0    0  0.23217655452E+02 -0.17635462828E+02 -0.28338958436E+02  0.50528860325E+02  0.30000001444E+02 0.  0.
         12    1    1    2    0    0 -0.23217655452E+02  0.17635462828E+02  0.28338958436E+02  0.40659139675E+02  0.00000000000E+00 0. -1.
         11    1    3    3    0    0  0.16586893718E+01  0.45117984074E+01 -0.16752984140E+01  0.50905992121E+01  0.51100000000E-03 0. -1.
        -11    1    3    3    0    0  0.37165185360E-01  0.20881054151E+01  0.14417338068E+01  0.25377474474E+01  0.51100000000E-03 0.  1.
        -12    1    3    3    0    0  0.21521800895E+02 -0.24235366651E+02 -0.28105393829E+02  0.42900513665E+02  0.00000000000E+00 0.  1.
</event>
<event>
 7    1  0.2661323E-011  0.5052887E+02  0.7816164E-02  0.1300439E+00
        -11   -1    0    0    0    0  0.00000000000E+00  0.00000000000E+00  0.45593999997E+02  0.45594000000E+02  0.51100000000E-03 0.  1.
         11   -1    0    0    0    0 -0.00000000000E+00 -0.00000000000E+00 -0.45593999997E+02  0.45594000000E+02  0.51100000000E-03 0. -1.
    9900012    2    1    2    0    0  0.65030459374E+00 -0.22942633586E+02  0.33561550919E+02  0.50528867790E+02  0.30000024136E+02 0.  0.
         12    1    1    2    0    0 -0.65030459374E+00  0.22942633586E+02 -0.33561550919E+02  0.40659132210E+02  0.00000000000E+00 0. -1.
         11    1    3    3    0    0 -0.46681661171E+00  0.75577302386E+00  0.19394210800E+01  0.21331818955E+01  0.51100000000E-03 0. -1.
        -11    1    3    3    0    0 -0.58922182074E+01  0.67212470968E+00  0.19321816211E+02  0.20211446484E+02  0.51100000000E-03 0.  1.
         12    1    3    3    0    0  0.70093394128E+01 -0.24370531320E+02  0.12300313628E+02  0.28184239411E+02  0.00000000000E+00 0. -1.
</event>
<event>
 7    1  0.2661323E-011  0.5052885E+02  0.7816164E-02  0.1300439E+00
        -11   -1    0    0    0    0  0.00000000000E+00  0.00000000000E+00  0.45593999997E+02  0.45594000000E+02  0.51100000000E-03 0. -1.
         11   -1    0    0    0    0 -0.00000000000E+00 -0.00000000000E+00 -0.45593999997E+02  0.45594000000E+02  0.51100000000E-03 0.  1.
    9900012    2    1    2    0    0 -0.29712045309E+01 -0.15549885812E+02 -0.37450489813E+02  0.50528853521E+02  0.29999980763E+02 0.  0.
         12    1    1    2    0    0  0.29712045309E+01  0.15549885812E+02  0.37450489813E+02  0.40659146479E+02  0.00000000000E+00 0. -1.
         11    1    3    3    0    0  0.74968001513E+01 -0.47572091746E+01 -0.72337331888E+01  0.11452508360E+02  0.51100000000E-03 0. -1.
        -11    1    3    3    0    0 -0.99062856462E+01 -0.13530053488E+02 -0.31737295930E+02  0.35895024668E+02  0.51100000000E-03 0.  1.
         12    1    3    3    0    0 -0.56171903599E+00  0.27373768508E+01  0.15205393057E+01  0.31813204929E+01  0.00000000000E+00 0. -1.
</event>
<event>
 7    1  0.2661323E-011  0.5052884E+02  0.7816164E-02  0.1300439E+00
        -11   -1    0    0    0    0  0.00000000000E+00  0.00000000000E+00  0.45593999997E+02  0.45594000000E+02  0.51100000000E-03 0.  1.
         11   -1    0    0    0    0 -0.00000000000E+00 -0.00000000000E+00 -0.45593999997E+02  0.45594000000E+02  0.51100000000E-03 0. -1.
    9900012    2    1    2    0    0 -0.21351821622E+02 -0.26013492841E+02  0.22815898423E+02  0.50528839689E+02  0.29999938719E+02 0.  0.
         12    1    1    2    0    0  0.21351821622E+02  0.26013492841E+02 -0.22815898423E+02  0.40659160311E+02  0.00000000000E+00 0. -1.
         11    1    3    3    0    0 -0.16301077143E+02 -0.18597089501E+02  0.15476791152E+02  0.29173753933E+02  0.51100000000E-03 0. -1.
        -11    1    3    3    0    0 -0.10344674869E+02 -0.69813530733E+01  0.94346025925E+01  0.15644913398E+02  0.51100000000E-03 0.  1.
         12    1    3    3    0    0  0.52939303906E+01 -0.43505026625E+00 -0.20954953216E+01  0.57101723579E+01  0.00000000000E+00 0. -1.
</event>
<event>
 7    1  0.2661323E-011  0.5052884E+02  0.7816164E-02  0.1300439E+00
        -11   -1    0    0    0    0  0.00000000000E+00  0.00000000000E+00  0.45593999997E+02  0.45594000000E+02  0.51100000000E-03 0. -1.
         11   -1    0    0    0    0 -0.00000000000E+00 -0.00000000000E+00 -0.45593999997E+02  0.45594000000E+02  0.51100000000E-03 0.  1.
    9900012    2    1    2    0    0  0.32788545138E+02 -0.23053844783E+02  0.68263281902E+01  0.50528841030E+02  0.29999942796E+02 0.  0.
         12    1    1    2    0    0 -0.32788545138E+02  0.23053844783E+02 -0.68263281902E+01  0.40659158970E+02  0.00000000000E+00 0. -1.
         11    1    3    3    0    0  0.80162472368E+01 -0.15798531558E+02 -0.12302776284E+01  0.17758586725E+02  0.51100000000E-03 0. -1.
        -11    1    3    3    0    0  0.26361280090E+00 -0.60491372389E+01 -0.18144520666E+01  0.63209010123E+01  0.51100000000E-03 0.  1.
        -12    1    3    3    0    0  0.24508685101E+02 -0.12061759860E+01  0.98710578852E+01  0.26449353294E+02  0.00000000000E+00 0.  1.
</event>
<event>
 7    1  0.2661323E-011  0.5052886E+02  0.7816164E-02  0.1300439E+00
        -11   -1    0    0    0    0  0.00000000000E+00  0.00000000000E+00  0.45593999997E+02  0.45594000000E+02  0.51100000000E-03 0. -1.
         11   -1    0    0    0    0 -0.00000000000E+00 -0.00000000000E+00 -0.45593999997E+02  0.45594000000E+02  0.51100000000E-03 0.  1.
    9900012    2    1    2    0    0 -0.19414603745E+02  0.19932612567E+02 -0.29646752603E+02  0.50528858074E+02  0.29999994600E+02 0.  0.
         12    1    1    2    0    0  0.19414603745E+02 -0.19932612567E+02  0.29646752603E+02  0.40659141926E+02  0.00000000000E+00 0. -1.
         11    1    3    3    0    0 -0.17908637083E+02  0.49685208344E+01 -0.46828253864E+01  0.19165968155E+02  0.51100000000E-03 0. -1.
        -11    1    3    3    0    0 -0.46059009308E+00  0.16971868171E+01 -0.14028459975E+02  0.14138255757E+02  0.51100000000E-03 0.  1.
        -12    1    3    3    0    0 -0.10453765686E+01  0.13266904915E+02 -0.10935467241E+02  0.17224634161E+02  0.00000000000E+00 0.  1.
</event>
<event>
 7    1  0.2661323E-011  0.5052887E+02  0.7816164E-02  0.1300439E+00
        -11   -1    0    0    0    0  0.00000000000E+00  0.00000000000E+00  0.45593999997E+02  0.45594000000E+02  0.51100000000E-03 0.  1.
         11   -1    0    0    0    0 -0.00000000000E+00 -0.00000000000E+00 -0.45593999997E+02  0.45594000000E+02  0.51100000000E-03 0. -1.
    9900012    2    1    2    0    0 -0.10485389349E+02 -0.93598784798E+01  0.38152512812E+02  0.50528868814E+02  0.30000027247E+02 0.  0.
         12    1    1    2    0    0  0.10485389349E+02  0.93598784798E+01 -0.38152512812E+02  0.40659131186E+02  0.00000000000E+00 0. -1.
         11    1    3    3    0    0 -0.13514244725E+02 -0.35424254973E+01  0.46597574011E+01  0.14727420962E+02  0.51100000000E-03 0. -1.
        -11    1    3    3    0    0 -0.81339230404E+00  0.56414989772E+00 -0.42360391480E+00  0.10767138362E+01  0.51100000000E-03 0.  1.
        -12    1    3    3    0    0  0.38422476803E+01 -0.63816028802E+01  0.33916359325E+02  0.34724734015E+02  0.00000000000E+00 0.  1.
</event>
<event>
 7    1  0.2661323E-011  0.5052886E+02  0.7816164E-02  0.1300439E+00
        -11   -1    0    0    0    0  0.00000000000E+00  0.00000000000E+00  0.45593999997E+02  0.45594000000E+02  0.51100000000E-03 0.  1.
         11   -1    0    0    0    0 -0.00000000000E+00 -0.00000000000E+00 -0.45593999997E+02  0.45594000000E+02  0.51100000000E-03 0. -1.
    9900012    2    1    2    0    0 -0.35614850644E+02 -0.41018402217E+01  0.19181314718E+02  0.50528861865E+02  0.30000006125E+02 0.  0.
         12    1    1    2    0    0  0.35614850644E+02  0.41018402217E+01 -0.19181314718E+02  0.40659138135E+02  0.00000000000E+00 0. -1.
         11    1    3    3    0    0 -0.27167695132E+00 -0.12518625469E+01  0.34760598811E+01  0.37045864493E+01  0.51100000000E-03 0. -1.
        -11    1    3    3    0    0 -0.85530857755E+01 -0.12747151519E+02  0.33801908453E+01  0.15718487158E+02  0.51100000000E-03 0.  1.
        -12    1    3    3    0    0 -0.26790087917E+02  0.98971738445E+01  0.12325063991E+02  0.31105788257E+02  0.00000000000E+00 0.  1.
</event>
<event>
 7    1  0.2661323E-011  0.5052886E+02  0.7816164E-02  0.1300439E+00
        -11   -1    0    0    0    0  0.00000000000E+00  0.00000000000E+00  0.45593999997E+02  0.45594000000E+02  0.51100000000E-03 0.  1.
         11   -1    0    0    0    0 -0.00000000000E+00 -0.00000000000E+00 -0.45593999997E+02  0.45594000000E+02  0.51100000000E-03 0. -1.
    9900012    2    1    2    0    0  0.10980639410E+02 -0.29462875754E+02  0.25778481605E+02  0.50528860764E+02  0.30000002779E+02 0.  0.
         12    1    1    2    0    0 -0.10980639410E+02  0.29462875754E+02 -0.25778481605E+02  0.40659139236E+02  0.00000000000E+00 0. -1.
         11    1    3    3    0    0  0.16625227189E+01 -0.15208655389E+02  0.11018993805E+02  0.18854320599E+02  0.51100000000E-03 0. -1.
        -11    1    3    3    0    0 -0.29145442853E+01 -0.15141288441E+02  0.57508605812E+01  0.16456779203E+02  0.51100000000E-03 0.  1.
         12    1    3    3    0    0  0.12232660977E+02  0.88706807529E+00  0.90086272180E+01  0.15217760962E+02  0.00000000000E+00 0. -1.
</event>
<event>
 7    1  0.2661323E-011  0.5052886E+02  0.7816164E-02  0.1300439E+00
        -11   -1    0    0    0    0  0.00000000000E+00  0.00000000000E+00  0.45593999997E+02  0.45594000000E+02  0.51100000000E-03 0.  1.
         11   -1    0    0    0    0 -0.00000000000E+00 -0.00000000000E+00 -0.45593999997E+02  0.45594000000E+02  0.51100000000E-03 0. -1.
    9900012    2    1    2    0    0  0.55370656000E+01  0.70834881203E+01  0.39652626293E+02  0.50528859928E+02  0.30000000238E+02 0.  0.
         12    1    1    2    0    0 -0.55370656000E+01 -0.70834881203E+01 -0.39652626293E+02  0.40659140072E+02  0.00000000000E+00 0. -1.
         11    1    3    3    0    0 -0.54118573956E+00 -0.85589880183E+00  0.21299079680E+02  0.21323138612E+02  0.51100000000E-03 0. -1.
        -11    1    3    3    0    0  0.10969960606E+01 -0.68924050409E+01  0.69119154769E+01  0.98225874100E+01  0.51100000000E-03 0.  1.
        -12    1    3    3    0    0  0.49812552790E+01  0.14831791963E+02  0.11441631136E+02  0.19383133907E+02  0.00000000000E+00 0.  1.
</event>
<event>
 7    1  0.2661323E-011  0.5052886E+02  0.7816164E-02  0.1300439E+00
        -11   -1    0    0    0    0  0.00000000000E+00  0.00000000000E+00  0.45593999997E+02  0.45594000000E+02  0.51100000000E-03 0. -1.
         11   -1    0    0    0    0 -0.00000000000E+00 -0.00000000000E+00 -0.45593999997E+02  0.45594000000E+02  0.51100000000E-03 0.  1.
    9900012    2    1    2    0    0 -0.19712172500E+02  0.31888441917E+02 -0.15739233037E+02  0.50528856758E+02  0.29999990603E+02 0.  0.
         12    1    1    2    0    0  0.19712172500E+02 -0.31888441917E+02  0.15739233037E+02  0.40659143242E+02  0.00000000000E+00 0. -1.
         11    1    3    3    0    0 -0.26087357347E+01 -0.41453990059E+01 -0.54487059942E+01  0.73265429995E+01  0.51100000000E-03 0. -1.
        -11    1    3    3    0    0 -0.74130455519E+01  0.38626198116E+01 -0.19396706186E+01  0.85811070692E+01  0.51100000000E-03 0.  1.
         12    1    3    3    0    0 -0.96903912133E+01  0.32171221111E+02 -0.83508564246E+01  0.34621206690E+02  0.00000000000E+00 0. -1.
</event>
<event>
 7    1  0.2661323E-011  0.5052887E+02  0.7816164E-02  0.1300439E+00
        -11   -1    0    0    0    0  0.00000000000E+00  0.00000000000E+00  0.45593999997E+02  0.45594000000E+02  0.51100000000E-03 0.  1.
         11   -1    0    0    0    0 -0.00000000000E+00 -0.00000000000E+00 -0.45593999997E+02  0.45594000000E+02  0.51100000000E-03 0. -1.
    9900012    2    1    2    0    0 -0.50775499927E+01  0.23625261505E+02  0.32699092139E+02  0.50528866686E+02  0.30000020779E+02 0.  0.
         12    1    1    2    0    0  0.50775499927E+01 -0.23625261505E+02 -0.32699092139E+02  0.40659133314E+02  0.00000000000E+00 0. -1.
         11    1    3    3    0    0  0.15752173234E+01  0.69841197452E+01 -0.19577131355E+01  0.74223903976E+01  0.51100000000E-03 0. -1.
        -11    1    3    3    0    0 -0.59732432854E+00 -0.18568459975E+01 -0.12123855332E+01  0.22966393610E+01  0.51100000000E-03 0.  1.
        -12    1    3    3    0    0 -0.60554429876E+01  0.18497987758E+02  0.35869190808E+02  0.40809836928E+02  0.00000000000E+00 0.  1.
</event>
<event>
 7    1  0.2661323E-011  0.5052886E+02  0.7816164E-02  0.1300439E+00
        -11   -1    0    0    0    0  0.00000000000E+00  0.00000000000E+00  0.45593999997E+02  0.45594000000E+02  0.51100000000E-03 0. -1.
         11   -1    0    0    0    0 -0.00000000000E+00 -0.00000000000E+00 -0.45593999997E+02  0.45594000000E+02  0.51100000000E-03 0.  1.
    9900012    2    1    2    0    0 -0.28034957891E+02  0.26215454532E+02  0.13414800040E+02  0.50528858588E+02  0.29999996163E+02 0.  0.
         12    1    1    2    0    0  0.28034957891E+02 -0.26215454532E+02 -0.13414800040E+02  0.40659141412E+02  0.00000000000E+00 0. -1.
         11    1    3    3    0    0 -0.19603027024E+02  0.13146258248E+02  0.10528516100E+01  0.23626495110E+02  0.51100000000E-03 0.  1.
        -11    1    3    3    0    0 -0.71295016823E+01 -0.30787463923E+00 -0.18188196096E+01  0.73642844910E+01  0.51100000000E-03 0. -1.
         12    1    3    3    0    0 -0.13024291848E+01  0.13377070924E+02  0.14180768040E+02  0.19538078987E+02  0.00000000000E+00 0. -1.
</event>
<event>
 7    1  0.2661323E-011  0.5052886E+02  0.7816164E-02  0.1300439E+00
        -11   -1    0    0    0    0  0.00000000000E+00  0.00000000000E+00  0.45593999997E+02  0.45594000000E+02  0.51100000000E-03 0. -1.
         11   -1    0    0    0    0 -0.00000000000E+00 -0.00000000000E+00 -0.45593999997E+02  0.45594000000E+02  0.51100000000E-03 0.  1.
    9900012    2    1    2    0    0 -0.28071594361E+02  0.10983542891E+02 -0.27285768688E+02  0.50528858380E+02  0.29999995531E+02 0.  0.
         12    1    1    2    0    0  0.28071594361E+02 -0.10983542891E+02  0.27285768688E+02  0.40659141620E+02  0.00000000000E+00 0. -1.
         11    1    3    3    0    0 -0.59543607578E+01 -0.12655308715E+01 -0.72007871713E+01  0.94290676404E+01  0.51100000000E-03 0. -1.
        -11    1    3    3    0    0 -0.26284032090E+02  0.49218161971E+01 -0.18516535272E+02  0.32525938823E+02  0.51100000000E-03 0.  1.
         12    1    3    3    0    0  0.41667984864E+01  0.73272575652E+01 -0.15684462439E+01  0.85738519158E+01  0.00000000000E+00 0. -1.
</event>
<event>
 7    1  0.2661323E-011  0.5052887E+02  0.7816164E-02  0.1300439E+00
        -11   -1    0    0    0    0  0.00000000000E+00  0.00000000000E+00  0.45593999997E+02  0.45594000000E+02  0.51100000000E-03 0.  1.
         11   -1    0    0    0    0 -0.00000000000E+00 -0.00000000000E+00 -0.45593999997E+02  0.45594000000E+02  0.51100000000E-03 0. -1.
    9900012    2    1    2    0    0  0.32885902367E+00 -0.40540177089E+02  0.30904100945E+01  0.50528871366E+02  0.30000035005E+02 0.  0.
         12    1    1    2    0    0 -0.32885902367E+00  0.40540177089E+02 -0.30904100945E+01  0.40659128634E+02  0.00000000000E+00 0. -1.
         11    1    3    3    0    0  0.13509500060E+01  0.10212679421E+01  0.48357681654E+01  0.51237396634E+01  0.51100000000E-03 0. -1.
        -11    1    3    3    0    0 -0.60360332853E+01 -0.78449157148E+01 -0.51327149778E+01  0.11149940076E+02  0.51100000000E-03 0.  1.
         12    1    3    3    0    0  0.50139423030E+01 -0.33716529317E+02  0.33873569070E+01  0.34255191627E+02  0.00000000000E+00 0. -1.
</event>
<event>
 7    1  0.2661323E-011  0.5052886E+02  0.7816164E-02  0.1300439E+00
        -11   -1    0    0    0    0  0.00000000000E+00  0.00000000000E+00  0.45593999997E+02  0.45594000000E+02  0.51100000000E-03 0. -1.
         11   -1    0    0    0    0 -0.00000000000E+00 -0.00000000000E+00 -0.45593999997E+02  0.45594000000E+02  0.51100000000E-03 0.  1.
    9900012    2    1    2    0    0 -0.11056077366E+01 -0.27928638908E+02  0.29528538530E+02  0.50528858009E+02  0.29999994404E+02 0.  0.
         12    1    1    2    0    0  0.11056077366E+01  0.27928638908E+02 -0.29528538530E+02  0.40659141991E+02  0.00000000000E+00 0. -1.
         11    1    3    3    0    0 -0.36728640219E+01 -0.45820630067E+01  0.88770362309E+01  0.10643636786E+02  0.51100000000E-03 0. -1.
        -11    1    3    3    0    0 -0.61704100541E+01 -0.24142972627E+02  0.12370709747E+02  0.27820703575E+02  0.51100000000E-03 0.  1.
        -12    1    3    3    0    0  0.87376663394E+01  0.79639672482E+00  0.82807925516E+01  0.12064517648E+02  0.00000000000E+00 0.  1.
</event>
<event>
 7    1  0.2661323E-011  0.5052885E+02  0.7816164E-02  0.1300439E+00
        -11   -1    0    0    0    0  0.00000000000E+00  0.00000000000E+00  0.45593999997E+02  0.45594000000E+02  0.51100000000E-03 0.  1.
         11   -1    0    0    0    0 -0.00000000000E+00 -0.00000000000E+00 -0.45593999997E+02  0.45594000000E+02  0.51100000000E-03 0. -1.
    9900012    2    1    2    0    0 -0.33526881021E+02 -0.66583920345E+01  0.22017734808E+02  0.50528848735E+02  0.29999966216E+02 0.  0.
         12    1    1    2    0    0  0.33526881021E+02  0.66583920345E+01 -0.22017734808E+02  0.40659151265E+02  0.00000000000E+00 0. -1.
         11    1    3    3    0    0 -0.11757683809E+02 -0.39126268445E+01  0.50360620928E+01  0.13375862553E+02  0.51100000000E-03 0. -1.
        -11    1    3    3    0    0 -0.21649334007E+02 -0.74956803184E+01  0.20887167297E+02  0.31002461908E+02  0.51100000000E-03 0.  1.
         12    1    3    3    0    0 -0.11986320411E+00  0.47499151284E+01 -0.39054945819E+01  0.61505242739E+01  0.00000000000E+00 0. -1.
</event>
<event>
 7    1  0.2661323E-011  0.5052886E+02  0.7816164E-02  0.1300439E+00
        -11   -1    0    0    0    0  0.00000000000E+00  0.00000000000E+00  0.45593999997E+02  0.45594000000E+02  0.51100000000E-03 0.  1.
         11   -1    0    0    0    0 -0.00000000000E+00 -0.00000000000E+00 -0.45593999997E+02  0.45594000000E+02  0.51100000000E-03 0. -1.
    9900012    2    1    2    0    0 -0.14552905389E+02  0.33301108669E+01  0.37819165120E+02  0.50528856576E+02  0.29999990047E+02 0.  0.
         12    1    1    2    0    0  0.14552905389E+02 -0.33301108669E+01 -0.37819165120E+02  0.40659143424E+02  0.00000000000E+00 0. -1.
         11    1    3    3    0    0  0.13279603637E+00 -0.16052756616E+01 -0.23255249789E+01  0.28288887262E+01  0.51100000000E-03 0. -1.
        -11    1    3    3    0    0 -0.53578078184E+01 -0.75179945170E+01  0.90407296216E+01  0.12921344300E+02  0.51100000000E-03 0.  1.
        -12    1    3    3    0    0 -0.93278936074E+01  0.12453381045E+02  0.31103960477E+02  0.34778623549E+02  0.00000000000E+00 0.  1.
</event>
<event>
 7    1  0.2661323E-011  0.5052889E+02  0.7816164E-02  0.1300439E+00
        -11   -1    0    0    0    0  0.00000000000E+00  0.00000000000E+00  0.45593999997E+02  0.45594000000E+02  0.51100000000E-03 0.  1.
         11   -1    0    0    0    0 -0.00000000000E+00 -0.00000000000E+00 -0.45593999997E+02  0.45594000000E+02  0.51100000000E-03 0. -1.
    9900012    2    1    2    0    0 -0.77281092212E+01  0.39912944275E+02  0.62945856010E+00  0.50528892645E+02  0.30000099683E+02 0.  0.
         12    1    1    2    0    0  0.77281092212E+01 -0.39912944275E+02 -0.62945856010E+00  0.40659107355E+02  0.00000000000E+00 0. -1.
         11    1    3    3    0    0  0.23457191690E-01 -0.18549458615E+01 -0.43949213132E+00  0.19064438056E+01  0.51100000000E-03 0. -1.
        -11    1    3    3    0    0  0.80907066862E+01  0.83474993289E+01  0.35678126995E+00  0.11630458842E+02  0.51100000000E-03 0.  1.
         12    1    3    3    0    0 -0.15842273099E+02  0.33420390808E+02  0.71216942147E+00  0.36991989998E+02  0.00000000000E+00 0. -1.
</event>
<event>
 7    1  0.2661323E-011  0.5052887E+02  0.7816164E-02  0.1300439E+00
        -11   -1    0    0    0    0  0.00000000000E+00  0.00000000000E+00  0.45593999997E+02  0.45594000000E+02  0.51100000000E-03 0.  1.
         11   -1    0    0    0    0 -0.00000000000E+00 -0.00000000000E+00 -0.45593999997E+02  0.45594000000E+02  0.51100000000E-03 0. -1.
    9900012    2    1    2    0    0 -0.38937729432E+01 -0.40462236464E+02  0.90058148521E+00  0.50528867023E+02  0.30000021804E+02 0.  0.
         12    1    1    2    0    0  0.38937729432E+01  0.40462236464E+02 -0.90058148521E+00  0.40659132977E+02  0.00000000000E+00 0. -1.
         11    1    3    3    0    0  0.12023421913E+02 -0.14582464555E+02  0.51614072775E+01  0.19592117608E+02  0.51100000000E-03 0. -1.
        -11    1    3    3    0    0 -0.85427837731E-01  0.11856622087E+00 -0.16918402485E+00  0.22356063960E+00  0.51100000000E-03 0.  1.
        -12    1    3    3    0    0 -0.15831767019E+02 -0.25998338130E+02 -0.40916417675E+01  0.30713188776E+02  0.00000000000E+00 0.  1.
</event>
<event>
 7    1  0.2661323E-011  0.5052888E+02  0.7816164E-02  0.1300439E+00
        -11   -1    0    0    0    0  0.00000000000E+00  0.00000000000E+00  0.45593999997E+02  0.45594000000E+02  0.51100000000E-03 0. -1.
         11   -1    0    0    0    0 -0.00000000000E+00 -0.00000000000E+00 -0.45593999997E+02  0.45594000000E+02  0.51100000000E-03 0.  1.
    9900012    2    1    2    0    0  0.17712505611E+02 -0.61301055807E+01 -0.36081201396E+02  0.50528878715E+02  0.30000057343E+02 0.  0.
         12    1    1    2    0    0 -0.17712505611E+02  0.61301055807E+01  0.36081201396E+02  0.40659121285E+02  0.00000000000E+00 0. -1.
         11    1    3    3    0    0 -0.13839611673E+01  0.31338043635E+01  0.29187898810E+01  0.45006013967E+01  0.51100000000E-03 0. -1.
        -11    1    3    3    0    0  0.36265683464E+01  0.20766770983E+01 -0.27099054257E+01  0.49807804026E+01  0.51100000000E-03 0.  1.
        -12    1    3    3    0    0  0.15469898432E+02 -0.11340587043E+02 -0.36290085852E+02  0.41047496916E+02  0.00000000000E+00 0.  1.
</event>
<event>
 7    1  0.2661323E-011  0.5052885E+02  0.7816164E-02  0.1300439E+00
        -11   -1    0    0    0    0  0.00000000000E+00  0.00000000000E+00  0.45593999997E+02  0.45594000000E+02  0.51100000000E-03 0.  1.
         11   -1    0    0    0    0 -0.00000000000E+00 -0.00000000000E+00 -0.45593999997E+02  0.45594000000E+02  0.51100000000E-03 0. -1.
    9900012    2    1    2    0    0 -0.14508315671E+02  0.54985381929E+01  0.37582457302E+02  0.50528852902E+02  0.29999978882E+02 0.  0.
         12    1    1    2    0    0  0.14508315671E+02 -0.54985381929E+01 -0.37582457302E+02  0.40659147098E+02  0.00000000000E+00 0. -1.
         11    1    3    3    0    0 -0.12273144629E+02 -0.96302036104E+01  0.14688498988E+02  0.21427153414E+02  0.51100000000E-03 0. -1.
        -11    1    3    3    0    0 -0.29008621636E+01  0.12288452552E+01  0.12910207013E+01  0.34046727692E+01  0.51100000000E-03 0.  1.
        -12    1    3    3    0    0  0.66569112098E+00  0.13899896548E+02  0.21602937613E+02  0.25697026719E+02  0.00000000000E+00 0.  1.
</event>
<event>
 7    1  0.2661323E-011  0.5052886E+02  0.7816164E-02  0.1300439E+00
        -11   -1    0    0    0    0  0.00000000000E+00  0.00000000000E+00  0.45593999997E+02  0.45594000000E+02  0.51100000000E-03 0.  1.
         11   -1    0    0    0    0 -0.00000000000E+00 -0.00000000000E+00 -0.45593999997E+02  0.45594000000E+02  0.51100000000E-03 0. -1.
    9900012    2    1    2    0    0 -0.28744501083E+02 -0.18594848095E+02  0.21935151513E+02  0.50528860928E+02  0.30000003276E+02 0.  0.
         12    1    1    2    0    0  0.28744501083E+02  0.18594848095E+02 -0.21935151513E+02  0.40659139072E+02  0.00000000000E+00 0. -1.
         11    1    3    3    0    0 -0.16753064548E+02 -0.67223297799E+00 -0.21692606807E+00  0.16767949370E+02  0.51100000000E-03 0. -1.
        -11    1    3    3    0    0 -0.90452198224E+01 -0.19895043925E+01  0.75510960571E+01  0.11949610089E+02  0.51100000000E-03 0.  1.
        -12    1    3    3    0    0 -0.29462167134E+01 -0.15933110724E+02  0.14600981524E+02  0.21811301468E+02  0.00000000000E+00 0.  1.
</event>
<event>
 7    1  0.2661323E-011  0.5052886E+02  0.7816164E-02  0.1300439E+00
        -11   -1    0    0    0    0  0.00000000000E+00  0.00000000000E+00  0.45593999997E+02  0.45594000000E+02  0.51100000000E-03 0.  1.
         11   -1    0    0    0    0 -0.00000000000E+00 -0.00000000000E+00 -0.45593999997E+02  0.45594000000E+02  0.51100000000E-03 0. -1.
    9900012    2    1    2    0    0  0.71519413122E+01 -0.73638421939E+01  0.39341954410E+02  0.50528858184E+02  0.29999994936E+02 0.  0.
         12    1    1    2    0    0 -0.71519413122E+01  0.73638421939E+01 -0.39341954410E+02  0.40659141816E+02  0.00000000000E+00 0. -1.
         11    1    3    3    0    0 -0.68202407970E+00 -0.10568490470E+02  0.29391110581E+02  0.31240927149E+02  0.51100000000E-03 0. -1.
        -11    1    3    3    0    0 -0.21854858894E+00 -0.39793494284E+01  0.70745338950E+01  0.81198531669E+01  0.51100000000E-03 0.  1.
        -12    1    3    3    0    0  0.80525139809E+01  0.71839977046E+01  0.28763099341E+01  0.11168077868E+02  0.00000000000E+00 0.  1.
</event>
<event>
 7    1  0.2661323E-011  0.5052885E+02  0.7816164E-02  0.1300439E+00
        -11   -1    0    0    0    0  0.00000000000E+00  0.00000000000E+00  0.45593999997E+02  0.45594000000E+02  0.51100000000E-03 0. -1.
         11   -1    0    0    0    0 -0.00000000000E+00 -0.00000000000E+00 -0.45593999997E+02  0.45594000000E+02  0.51100000000E-03 0.  1.
    9900012    2    1    2    0    0 -0.18552611817E+02  0.35669404468E+02 -0.60548067340E+01  0.50528849678E+02  0.29999969081E+02 0.  0.
         12    1    1    2    0    0  0.18552611817E+02 -0.35669404468E+02  0.60548067340E+01  0.40659150322E+02  0.00000000000E+00 0. -1.
         11    1    3    3    0    0  0.18340107324E+01  0.22390044015E+01  0.22001105315E+01  0.36355498468E+01  0.51100000000E-03 0. -1.
        -11    1    3    3    0    0 -0.16909346661E+00  0.14460351084E+02  0.60743732882E+01  0.15685291109E+02  0.51100000000E-03 0.  1.
        -12    1    3    3    0    0 -0.20217529083E+02  0.18970048983E+02 -0.14329290554E+02  0.31208008722E+02  0.00000000000E+00 0.  1.
</event>
<event>
 7    1  0.2661323E-011  0.5052886E+02  0.7816164E-02  0.1300439E+00
        -11   -1    0    0    0    0  0.00000000000E+00  0.00000000000E+00  0.45593999997E+02  0.45594000000E+02  0.51100000000E-03 0.  1.
         11   -1    0    0    0    0 -0.00000000000E+00 -0.00000000000E+00 -0.45593999997E+02  0.45594000000E+02  0.51100000000E-03 0. -1.
    9900012    2    1    2    0    0 -0.26700885723E+02 -0.20622247922E+02  0.22692544839E+02  0.50528855899E+02  0.29999987990E+02 0.  0.
         12    1    1    2    0    0  0.26700885723E+02  0.20622247922E+02 -0.22692544839E+02  0.40659144101E+02  0.00000000000E+00 0. -1.
         11    1    3    3    0    0 -0.10177182789E+02 -0.14410815652E+02 -0.13076735835E+01  0.17690581328E+02  0.51100000000E-03 0. -1.
        -11    1    3    3    0    0 -0.14694043406E+02 -0.82128925799E+01  0.12353481891E+02  0.20880015116E+02  0.51100000000E-03 0.  1.
        -12    1    3    3    0    0 -0.18296595291E+01  0.20014603097E+01  0.11646736531E+02  0.11958259455E+02  0.00000000000E+00 0.  1.
</event>
<event>
 7    1  0.2661323E-011  0.5052885E+02  0.7816164E-02  0.1300439E+00
        -11   -1    0    0    0    0  0.00000000000E+00  0.00000000000E+00  0.45593999997E+02  0.45594000000E+02  0.51100000000E-03 0.  1.
         11   -1    0    0    0    0 -0.00000000000E+00 -0.00000000000E+00 -0.45593999997E+02  0.45594000000E+02  0.51100000000E-03 0. -1.
    9900012    2    1    2    0    0 -0.39884316731E+02  0.62435777057E+01 -0.48400149545E+01  0.50528846929E+02  0.29999960726E+02 0.  0.
         12    1    1    2    0    0  0.39884316731E+02 -0.62435777057E+01  0.48400149545E+01  0.40659153071E+02  0.00000000000E+00 0. -1.
         11    1    3    3    0    0 -0.27663555074E+02 -0.11456091755E+01  0.36660552172E+01  0.27928921584E+02  0.51100000000E-03 0. -1.
        -11    1    3    3    0    0 -0.13440463594E+02  0.30760510094E+01 -0.95788316620E+00  0.13821204429E+02  0.51100000000E-03 0.  1.
         12    1    3    3    0    0  0.12197019369E+01  0.43131358718E+01 -0.75481870055E+01  0.87787209167E+01  0.00000000000E+00 0. -1.
</event>
<event>
 7    1  0.2661323E-011  0.5052885E+02  0.7816164E-02  0.1300439E+00
        -11   -1    0    0    0    0  0.00000000000E+00  0.00000000000E+00  0.45593999997E+02  0.45594000000E+02  0.51100000000E-03 0.  1.
         11   -1    0    0    0    0 -0.00000000000E+00 -0.00000000000E+00 -0.45593999997E+02  0.45594000000E+02  0.51100000000E-03 0. -1.
    9900012    2    1    2    0    0 -0.23870811679E+02  0.14876496056E+02  0.29360530048E+02  0.50528849618E+02  0.29999968897E+02 0.  0.
         12    1    1    2    0    0  0.23870811679E+02 -0.14876496056E+02 -0.29360530048E+02  0.40659150382E+02  0.00000000000E+00 0. -1.
         11    1    3    3    0    0 -0.46618959530E+01  0.26508175270E+00  0.10577317615E+02  0.11562144715E+02  0.51100000000E-03 0. -1.
        -11    1    3    3    0    0 -0.39621272295E+01  0.12311979883E+02  0.19648401183E+02  0.23523243189E+02  0.51100000000E-03 0.  1.
         12    1    3    3    0    0 -0.15246788497E+02  0.22994344198E+01 -0.86518875043E+00  0.15443461713E+02  0.00000000000E+00 0. -1.
</event>
<event>
 7    1  0.2661323E-011  0.5052886E+02  0.7816164E-02  0.1300439E+00
        -11   -1    0    0    0    0  0.00000000000E+00  0.00000000000E+00  0.45593999997E+02  0.45594000000E+02  0.51100000000E-03 0.  1.
         11   -1    0    0    0    0 -0.00000000000E+00 -0.00000000000E+00 -0.45593999997E+02  0.45594000000E+02  0.51100000000E-03 0. -1.
    9900012    2    1    2    0    0 -0.48397642822E+01  0.24259935062E+02  0.32267600864E+02  0.50528857940E+02  0.29999994194E+02 0.  0.
         12    1    1    2    0    0  0.48397642822E+01 -0.24259935062E+02 -0.32267600864E+02  0.40659142060E+02  0.00000000000E+00 0. -1.
         11    1    3    3    0    0  0.37639345674E+01 -0.17598545480E+01  0.57140145825E+01  0.70650020784E+01  0.51100000000E-03 0. -1.
        -11    1    3    3    0    0 -0.10198924321E+02  0.10933926038E+02  0.23708103373E+02  0.28029323248E+02  0.51100000000E-03 0.  1.
        -12    1    3    3    0    0  0.15952254708E+01  0.15085863572E+02  0.28454829084E+01  0.15434532614E+02  0.00000000000E+00 0.  1.
</event>
<event>
 7    1  0.2661323E-011  0.5052886E+02  0.7816164E-02  0.1300439E+00
        -11   -1    0    0    0    0  0.00000000000E+00  0.00000000000E+00  0.45593999997E+02  0.45594000000E+02  0.51100000000E-03 0.  1.
         11   -1    0    0    0    0 -0.00000000000E+00 -0.00000000000E+00 -0.45593999997E+02  0.45594000000E+02  0.51100000000E-03 0. -1.
    9900012    2    1    2    0    0  0.10670396319E+02  0.53500438594E+00  0.39230368350E+02  0.50528863411E+02  0.30000010825E+02 0.  0.
         12    1    1    2    0    0 -0.10670396319E+02 -0.53500438594E+00 -0.39230368350E+02  0.40659136589E+02  0.00000000000E+00 0. -1.
         11    1    3    3    0    0 -0.87222511403E+00 -0.35148019439E+01 -0.11828661785E+00  0.36233411846E+01  0.51100000000E-03 0. -1.
        -11    1    3    3    0    0 -0.67600225855E+01  0.15005871132E+00  0.11848768914E+02  0.13642351264E+02  0.51100000000E-03 0.  1.
         12    1    3    3    0    0  0.18302644018E+02  0.38997476186E+01  0.27499886054E+02  0.33263170963E+02  0.00000000000E+00 0. -1.
</event>
<event>
 7    1  0.2661323E-011  0.5052889E+02  0.7816164E-02  0.1300439E+00
        -11   -1    0    0    0    0  0.00000000000E+00  0.00000000000E+00  0.45593999997E+02  0.45594000000E+02  0.51100000000E-03 0.  1.
         11   -1    0    0    0    0 -0.00000000000E+00 -0.00000000000E+00 -0.45593999997E+02  0.45594000000E+02  0.51100000000E-03 0. -1.
    9900012    2    1    2    0    0 -0.12168532308E+02  0.15625018924E+02  0.35509839925E+02  0.50528891224E+02  0.30000095365E+02 0.  0.
         12    1    1    2    0    0  0.12168532308E+02 -0.15625018924E+02 -0.35509839925E+02  0.40659108776E+02  0.00000000000E+00 0. -1.
         11    1    3    3    0    0  0.68395179160E+01  0.36248323041E+01  0.11947628077E+02  0.14236018808E+02  0.51100000000E-03 0. -1.
        -11    1    3    3    0    0 -0.99946638692E+01  0.10637276741E+02  0.22895954610E+02  0.27152710732E+02  0.51100000000E-03 0.  1.
         12    1    3    3    0    0 -0.90133863548E+01  0.13629098791E+01  0.66625723809E+00  0.91401616849E+01  0.00000000000E+00 0. -1.
</event>
<event>
 7    1  0.2661323E-011  0.5052886E+02  0.7816164E-02  0.1300439E+00
        -11   -1    0    0    0    0  0.00000000000E+00  0.00000000000E+00  0.45593999997E+02  0.45594000000E+02  0.51100000000E-03 0.  1.
         11   -1    0    0    0    0 -0.00000000000E+00 -0.00000000000E+00 -0.45593999997E+02  0.45594000000E+02  0.51100000000E-03 0. -1.
    9900012    2    1    2    0    0 -0.33257529066E+02 -0.11855801260E+02  0.20162898607E+02  0.50528859044E+02  0.29999997549E+02 0.  0.
         12    1    1    2    0    0  0.33257529066E+02  0.11855801260E+02 -0.20162898607E+02  0.40659140956E+02  0.00000000000E+00 0. -1.
         11    1    3    3    0    0 -0.22219985080E+02 -0.95455623301E+01  0.17324622708E+02  0.29748748703E+02  0.51100000000E-03 0. -1.
        -11    1    3    3    0    0 -0.94216267422E+01  0.15088043732E+01  0.91553035460E+01  0.13223582131E+02  0.51100000000E-03 0.  1.
         12    1    3    3    0    0 -0.16159172440E+01 -0.38190433031E+01 -0.63170276469E+01  0.75565282096E+01  0.00000000000E+00 0. -1.
</event>
<event>
 7    1  0.2661323E-011  0.5052885E+02  0.7816164E-02  0.1300439E+00
        -11   -1    0    0    0    0  0.00000000000E+00  0.00000000000E+00  0.45593999997E+02  0.45594000000E+02  0.51100000000E-03 0. -1.
         11   -1    0    0    0    0 -0.00000000000E+00 -0.00000000000E+00 -0.45593999997E+02  0.45594000000E+02  0.51100000000E-03 0.  1.
    9900012    2    1    2    0    0 -0.20535163973E+02  0.26013508057E+02 -0.23553567933E+02  0.50528854372E+02  0.29999983349E+02 0.  0.
         12    1    1    2    0    0  0.20535163973E+02 -0.26013508057E+02  0.23553567933E+02  0.40659145628E+02  0.00000000000E+00 0. -1.
         11    1    3    3    0    0 -0.36045184331E+01  0.98336747434E+01 -0.40925733231E+01  0.11244681799E+02  0.51100000000E-03 0. -1.
        -11    1    3    3    0    0 -0.21497587567E+02  0.19029565717E+02 -0.16994351379E+02  0.33362832938E+02  0.51100000000E-03 0.  1.
         12    1    3    3    0    0  0.45669420270E+01 -0.28497324032E+01 -0.24666432308E+01  0.59213396353E+01  0.00000000000E+00 0. -1.
</event>
<event>
 7    1  0.2661323E-011  0.5052886E+02  0.7816164E-02  0.1300439E+00
        -11   -1    0    0    0    0  0.00000000000E+00  0.00000000000E+00  0.45593999997E+02  0.45594000000E+02  0.51100000000E-03 0.  1.
         11   -1    0    0    0    0 -0.00000000000E+00 -0.00000000000E+00 -0.45593999997E+02  0.45594000000E+02  0.51100000000E-03 0. -1.
    9900012    2    1    2    0    0 -0.10402631970E+01  0.82655185697E+01  0.39796538757E+02  0.50528862752E+02  0.30000008820E+02 0.  0.
         12    1    1    2    0    0  0.10402631970E+01 -0.82655185697E+01 -0.39796538757E+02  0.40659137248E+02  0.00000000000E+00 0. -1.
         11    1    3    3    0    0 -0.47298030017E+01  0.18713905901E+01  0.90515406153E+01  0.10382847728E+02  0.51100000000E-03 0. -1.
        -11    1    3    3    0    0 -0.30731149339E+00  0.14471256498E+02  0.26475475701E+02  0.30173871459E+02  0.51100000000E-03 0.  1.
        -12    1    3    3    0    0  0.39968512981E+01 -0.80771285184E+01  0.42695224407E+01  0.99721435646E+01  0.00000000000E+00 0.  1.
</event>
<event>
 7    1  0.2661323E-011  0.5052887E+02  0.7816164E-02  0.1300439E+00
        -11   -1    0    0    0    0  0.00000000000E+00  0.00000000000E+00  0.45593999997E+02  0.45594000000E+02  0.51100000000E-03 0.  1.
         11   -1    0    0    0    0 -0.00000000000E+00 -0.00000000000E+00 -0.45593999997E+02  0.45594000000E+02  0.51100000000E-03 0. -1.
    9900012    2    1    2    0    0  0.23704547285E+02 -0.59884855592E+00  0.33028780649E+02  0.50528873931E+02  0.30000042800E+02 0.  0.
         12    1    1    2    0    0 -0.23704547285E+02  0.59884855592E+00 -0.33028780649E+02  0.40659126069E+02  0.00000000000E+00 0. -1.
         11    1    3    3    0    0  0.29295576301E+01  0.30953290425E+01  0.68502661853E+00  0.43165531989E+01  0.51100000000E-03 0. -1.
        -11    1    3    3    0    0  0.12890554376E+02  0.80039448021E+01  0.59754929198E+01  0.16307545505E+02  0.51100000000E-03 0.  1.
        -12    1    3    3    0    0  0.78844352791E+01 -0.11698122400E+02  0.26368261110E+02  0.29904775227E+02  0.00000000000E+00 0.  1.
</event>
<event>
 7    1  0.2661323E-011  0.5052886E+02  0.7816164E-02  0.1300439E+00
        -11   -1    0    0    0    0  0.00000000000E+00  0.00000000000E+00  0.45593999997E+02  0.45594000000E+02  0.51100000000E-03 0.  1.
         11   -1    0    0    0    0 -0.00000000000E+00 -0.00000000000E+00 -0.45593999997E+02  0.45594000000E+02  0.51100000000E-03 0. -1.
    9900012    2    1    2    0    0 -0.65028000223E+01  0.55311346800E+01  0.39752813219E+02  0.50528855668E+02  0.29999987288E+02 0.  0.
         12    1    1    2    0    0  0.65028000223E+01 -0.55311346800E+01 -0.39752813219E+02  0.40659144332E+02  0.00000000000E+00 0. -1.
         11    1    3    3    0    0  0.26768221815E+01  0.34905004956E+00 -0.46129685445E+00  0.27386142440E+01  0.51100000000E-03 0. -1.
        -11    1    3    3    0    0 -0.88121933794E+01 -0.38130526467E+01  0.38777386304E+01  0.10355239243E+02  0.51100000000E-03 0.  1.
        -12    1    3    3    0    0 -0.36742882444E+00  0.89951372772E+01  0.36336371443E+02  0.37435002180E+02  0.00000000000E+00 0.  1.
</event>
<event>
 7    1  0.2661323E-011  0.5052885E+02  0.7816164E-02  0.1300439E+00
        -11   -1    0    0    0    0  0.00000000000E+00  0.00000000000E+00  0.45593999997E+02  0.45594000000E+02  0.51100000000E-03 0.  1.
         11   -1    0    0    0    0 -0.00000000000E+00 -0.00000000000E+00 -0.45593999997E+02  0.45594000000E+02  0.51100000000E-03 0. -1.
    9900012    2    1    2    0    0  0.19523030487E+01  0.52181628447E+01  0.40275626948E+02  0.50528845597E+02  0.29999956677E+02 0.  0.
         12    1    1    2    0    0 -0.19523030487E+01 -0.52181628447E+01 -0.40275626948E+02  0.40659154403E+02  0.00000000000E+00 0. -1.
         11    1    3    3    0    0 -0.79261789795E+01 -0.65685013326E+01  0.76212209161E+01  0.12808299320E+02  0.51100000000E-03 0. -1.
        -11    1    3    3    0    0 -0.46262005621E+00  0.29535356375E+01  0.81575768290E+00  0.30988467108E+01  0.51100000000E-03 0.  1.
        -12    1    3    3    0    0  0.10341102084E+02  0.88331285398E+01  0.31838648349E+02  0.34621699566E+02  0.00000000000E+00 0.  1.
</event>
<event>
 7    1  0.2661323E-011  0.5052885E+02  0.7816164E-02  0.1300439E+00
        -11   -1    0    0    0    0  0.00000000000E+00  0.00000000000E+00  0.45593999997E+02  0.45594000000E+02  0.51100000000E-03 0.  1.
         11   -1    0    0    0    0 -0.00000000000E+00 -0.00000000000E+00 -0.45593999997E+02  0.45594000000E+02  0.51100000000E-03 0. -1.
    9900012    2    1    2    0    0  0.16925395840E+02  0.36968763700E+02  0.87541110272E-01  0.50528853707E+02  0.29999981327E+02 0.  0.
         12    1    1    2    0    0 -0.16925395840E+02 -0.36968763700E+02 -0.87541110272E-01  0.40659146293E+02  0.00000000000E+00 0. -1.
         11    1    3    3    0    0  0.24053655796E+01  0.90494103145E+01 -0.83789321903E+01  0.12565194607E+02  0.51100000000E-03 0. -1.
        -11    1    3    3    0    0  0.13369089279E+02  0.10243374976E+02  0.10932649448E+02  0.20079394992E+02  0.51100000000E-03 0.  1.
         12    1    3    3    0    0  0.11509409818E+01  0.17675978410E+02 -0.24661761470E+01  0.17884264108E+02  0.00000000000E+00 0. -1.
</event>
<event>
 7    1  0.2661323E-011  0.5052888E+02  0.7816164E-02  0.1300439E+00
        -11   -1    0    0    0    0  0.00000000000E+00  0.00000000000E+00  0.45593999997E+02  0.45594000000E+02  0.51100000000E-03 0.  1.
         11   -1    0    0    0    0 -0.00000000000E+00 -0.00000000000E+00 -0.45593999997E+02  0.45594000000E+02  0.51100000000E-03 0. -1.
    9900012    2    1    2    0    0  0.32827496158E+01 -0.27643069620E+02  0.29635255340E+02  0.50528879225E+02  0.30000058894E+02 0.  0.
         12    1    1    2    0    0 -0.32827496158E+01  0.27643069620E+02 -0.29635255340E+02  0.40659120775E+02  0.00000000000E+00 0. -1.
         11    1    3    3    0    0  0.53088448842E+01 -0.15072369125E+01  0.15425386896E+01  0.57301852487E+01  0.51100000000E-03 0. -1.
        -11    1    3    3    0    0  0.70298183705E+01 -0.65212063827E+01  0.19150464805E+02  0.21416927453E+02  0.51100000000E-03 0.  1.
        -12    1    3    3    0    0 -0.90559136388E+01 -0.19614626325E+02  0.89422518456E+01  0.23381766524E+02  0.00000000000E+00 0.  1.
</event>
<event>
 7    1  0.2661323E-011  0.5052886E+02  0.7816164E-02  0.1300439E+00
        -11   -1    0    0    0    0  0.00000000000E+00  0.00000000000E+00  0.45593999997E+02  0.45594000000E+02  0.51100000000E-03 0.  1.
         11   -1    0    0    0    0 -0.00000000000E+00 -0.00000000000E+00 -0.45593999997E+02  0.45594000000E+02  0.51100000000E-03 0. -1.
    9900012    2    1    2    0    0 -0.39104850475E+02  0.11074880770E+02 -0.11502236677E+01  0.50528864136E+02  0.30000013027E+02 0.  0.
         12    1    1    2    0    0  0.39104850475E+02 -0.11074880770E+02  0.11502236677E+01  0.40659135864E+02  0.00000000000E+00 0. -1.
         11    1    3    3    0    0 -0.28076907794E+02  0.69284864196E+01 -0.72533239889E+01  0.29814885284E+02  0.51100000000E-03 0. -1.
        -11    1    3    3    0    0 -0.10692321983E+02  0.76635661037E+01 -0.56551012549E+00  0.13167224339E+02  0.51100000000E-03 0.  1.
         12    1    3    3    0    0 -0.33562069756E+00 -0.35171717529E+01  0.66686104467E+01  0.75467545132E+01  0.00000000000E+00 0. -1.
</event>
<event>
 7    1  0.2661323E-011  0.5052887E+02  0.7816164E-02  0.1300439E+00
        -11   -1    0    0    0    0  0.00000000000E+00  0.00000000000E+00  0.45593999997E+02  0.45594000000E+02  0.51100000000E-03 0. -1.
         11   -1    0    0    0    0 -0.00000000000E+00 -0.00000000000E+00 -0.45593999997E+02  0.45594000000E+02  0.51100000000E-03 0.  1.
    9900012    2    1    2    0    0  0.18863034449E+02  0.29180695689E+02 -0.21114875203E+02  0.50528867885E+02  0.30000024422E+02 0.  0.
         12    1    1    2    0    0 -0.18863034449E+02 -0.29180695689E+02  0.21114875203E+02  0.40659132115E+02  0.00000000000E+00 0. -1.
         11    1    3    3    0    0  0.38210266388E+01  0.67021326027E+01 -0.57577423253E+01  0.96265478207E+01  0.51100000000E-03 0. -1.
        -11    1    3    3    0    0  0.21107947007E+02  0.90433146979E+01 -0.11408991200E+02  0.25641607751E+02  0.51100000000E-03 0.  1.
         12    1    3    3    0    0 -0.60659391967E+01  0.13435248389E+02 -0.39481416776E+01  0.15260712313E+02  0.00000000000E+00 0. -1.
</event>
<event>
 7    1  0.2661323E-011  0.5052886E+02  0.7816164E-02  0.1300439E+00
        -11   -1    0    0    0    0  0.00000000000E+00  0.00000000000E+00  0.45593999997E+02  0.45594000000E+02  0.51100000000E-03 0. -1.
         11   -1    0    0    0    0 -0.00000000000E+00 -0.00000000000E+00 -0.45593999997E+02  0.45594000000E+02  0.51100000000E-03 0.  1.
    9900012    2    1    2    0    0  0.94909137307E+01 -0.22028516741E+02 -0.32830361122E+02  0.50528860749E+02  0.30000002733E+02 0.  0.
         12    1    1    2    0    0 -0.94909137307E+01  0.22028516741E+02  0.32830361122E+02  0.40659139251E+02  0.00000000000E+00 0. -1.
         11    1    3    3    0    0  0.87523119414E+01 -0.10334083529E-01 -0.13440793903E+02  0.16039264700E+02  0.51100000000E-03 0. -1.
        -11    1    3    3    0    0  0.81027584266E+01 -0.45557828160E+01 -0.86960140792E+01  0.12729120642E+02  0.51100000000E-03 0.  1.
         12    1    3    3    0    0 -0.73641566374E+01 -0.17462399841E+02 -0.10693553140E+02  0.21760475407E+02  0.00000000000E+00 0. -1.
</event>
<event>
 7    1  0.2661323E-011  0.5052886E+02  0.7816164E-02  0.1300439E+00
        -11   -1    0    0    0    0  0.00000000000E+00  0.00000000000E+00  0.45593999997E+02  0.45594000000E+02  0.51100000000E-03 0.  1.
         11   -1    0    0    0    0 -0.00000000000E+00 -0.00000000000E+00 -0.45593999997E+02  0.45594000000E+02  0.51100000000E-03 0. -1.
    9900012    2    1    2    0    0 -0.14849929339E+02 -0.19552815076E+02  0.32408833175E+02  0.50528862693E+02  0.30000008641E+02 0.  0.
         12    1    1    2    0    0  0.14849929339E+02  0.19552815076E+02 -0.32408833175E+02  0.40659137307E+02  0.00000000000E+00 0. -1.
         11    1    3    3    0    0 -0.95196311130E+01  0.38056994750E+01  0.11198900277E+02  0.15182954018E+02  0.51100000000E-03 0. -1.
        -11    1    3    3    0    0  0.23258556863E+01  0.85210011515E+00  0.38807458974E+01  0.46038970733E+01  0.51100000000E-03 0.  1.
         12    1    3    3    0    0 -0.76561539124E+01 -0.24210614666E+02  0.17329187001E+02  0.30742011602E+02  0.00000000000E+00 0. -1.
</event>
<event>
 7    1  0.2661323E-011  0.5052886E+02  0.7816164E-02  0.1300439E+00
        -11   -1    0    0    0    0  0.00000000000E+00  0.00000000000E+00  0.45593999997E+02  0.45594000000E+02  0.51100000000E-03 0.  1.
         11   -1    0    0    0    0 -0.00000000000E+00 -0.00000000000E+00 -0.45593999997E+02  0.45594000000E+02  0.51100000000E-03 0. -1.
    9900012    2    1    2    0    0  0.12128237758E+02 -0.29870899718E+02  0.24775007223E+02  0.50528858544E+02  0.29999996030E+02 0.  0.
         12    1    1    2    0    0 -0.12128237758E+02  0.29870899718E+02 -0.24775007223E+02  0.40659141456E+02  0.00000000000E+00 0. -1.
         11    1    3    3    0    0 -0.50954296116E+01 -0.25425528178E+01  0.81230583090E+01  0.99202849914E+01  0.51100000000E-03 0. -1.
        -11    1    3    3    0    0  0.75110631945E+01 -0.20238833746E+02  0.20383885819E+01  0.21683668739E+02  0.51100000000E-03 0.  1.
        -12    1    3    3    0    0  0.97126041754E+01 -0.70895131542E+01  0.14613560332E+02  0.18924904814E+02  0.00000000000E+00 0.  1.
</event>
<event>
 7    1  0.2661323E-011  0.5052886E+02  0.7816164E-02  0.1300439E+00
        -11   -1    0    0    0    0  0.00000000000E+00  0.00000000000E+00  0.45593999997E+02  0.45594000000E+02  0.51100000000E-03 0.  1.
         11   -1    0    0    0    0 -0.00000000000E+00 -0.00000000000E+00 -0.45593999997E+02  0.45594000000E+02  0.51100000000E-03 0. -1.
    9900012    2    1    2    0    0  0.14806571763E+02 -0.37291137028E+02  0.65804548226E+01  0.50528857684E+02  0.29999993417E+02 0.  0.
         12    1    1    2    0    0 -0.14806571763E+02  0.37291137028E+02 -0.65804548226E+01  0.40659142316E+02  0.00000000000E+00 0. -1.
         11    1    3    3    0    0  0.19629709893E+02 -0.28028513079E+02  0.78569465549E+01  0.35109182066E+02  0.51100000000E-03 0. -1.
        -11    1    3    3    0    0 -0.55268653149E+00 -0.53961711909E+01 -0.59134818500E+01  0.80245494437E+01  0.51100000000E-03 0.  1.
        -12    1    3    3    0    0 -0.42704515986E+01 -0.38664527576E+01  0.46369901178E+01  0.73951261744E+01  0.00000000000E+00 0.  1.
</event>
<event>
 7    1  0.2661323E-011  0.5052883E+02  0.7816164E-02  0.1300439E+00
        -11   -1    0    0    0    0  0.00000000000E+00  0.00000000000E+00  0.45593999997E+02  0.45594000000E+02  0.51100000000E-03 0.  1.
         11   -1    0    0    0    0 -0.00000000000E+00 -0.00000000000E+00 -0.45593999997E+02  0.45594000000E+02  0.51100000000E-03 0. -1.
    9900012    2    1    2    0    0 -0.38592340758E+02 -0.52034124519E+01  0.11692902395E+02  0.50528828430E+02  0.29999904496E+02 0.  0.
         12    1    1    2    0    0  0.38592340758E+02  0.52034124519E+01 -0.11692902395E+02  0.40659171570E+02  0.00000000000E+00 0. -1.
         11    1    3    3    0    0 -0.25928284786E+02 -0.46045574490E+01  0.14560132738E+02  0.30091117740E+02  0.51100000000E-03 0. -1.
        -11    1    3    3    0    0 -0.15528459226E+02 -0.18943296458E+01  0.72969213160E+00  0.15660586886E+02  0.51100000000E-03 0.  1.
         12    1    3    3    0    0  0.28644032540E+01  0.12954746430E+01 -0.35969224746E+01  0.47771238042E+01  0.00000000000E+00 0. -1.
</event>
<event>
 7    1  0.2661323E-011  0.5052874E+02  0.7816164E-02  0.1300439E+00
        -11   -1    0    0    0    0  0.00000000000E+00  0.00000000000E+00  0.45593999997E+02  0.45594000000E+02  0.51100000000E-03 0.  1.
         11   -1    0    0    0    0 -0.00000000000E+00 -0.00000000000E+00 -0.45593999997E+02  0.45594000000E+02  0.51100000000E-03 0. -1.
    9900012    2    1    2    0    0  0.21836296596E+02 -0.41646779508E+01  0.34044186438E+02  0.50528744944E+02  0.29999650731E+02 0.  0.
         12    1    1    2    0    0 -0.21836296596E+02  0.41646779508E+01 -0.34044186438E+02  0.40659255056E+02  0.00000000000E+00 0. -1.
         11    1    3    3    0    0 -0.13031383915E+01  0.12342016931E+01 -0.13932629593E+01  0.22721367523E+01  0.51100000000E-03 0. -1.
        -11    1    3    3    0    0  0.68577338936E+01  0.82668799829E+01  0.72766952744E+01  0.12973824154E+02  0.51100000000E-03 0.  1.
         12    1    3    3    0    0  0.16281701094E+02 -0.13665759627E+02  0.28160754123E+02  0.35282784038E+02  0.00000000000E+00 0. -1.
</event>
<event>
 7    1  0.2661323E-011  0.5052881E+02  0.7816164E-02  0.1300439E+00
        -11   -1    0    0    0    0  0.00000000000E+00  0.00000000000E+00  0.45593999997E+02  0.45594000000E+02  0.51100000000E-03 0.  1.
         11   -1    0    0    0    0 -0.00000000000E+00 -0.00000000000E+00 -0.45593999997E+02  0.45594000000E+02  0.51100000000E-03 0. -1.
    9900012    2    1    2    0    0  0.27040648880E+02 -0.17332992348E+02  0.24930704484E+02  0.50528814794E+02  0.29999863047E+02 0.  0.
         12    1    1    2    0    0 -0.27040648880E+02  0.17332992348E+02 -0.24930704484E+02  0.40659185206E+02  0.00000000000E+00 0. -1.
         11    1    3    3    0    0 -0.39473806963E+01  0.10130600970E+01  0.19168721515E+01  0.45036101328E+01  0.51100000000E-03 0. -1.
        -11    1    3    3    0    0  0.42861521605E+01 -0.11467091004E+02  0.80674151820E+01  0.14661120845E+02  0.51100000000E-03 0.  1.
         12    1    3    3    0    0  0.26701877415E+02 -0.68789614402E+01  0.14946417151E+02  0.31364083816E+02  0.00000000000E+00 0. -1.
</event>
<event>
 7    1  0.2661323E-011  0.5052887E+02  0.7816164E-02  0.1300439E+00
        -11   -1    0    0    0    0  0.00000000000E+00  0.00000000000E+00  0.45593999997E+02  0.45594000000E+02  0.51100000000E-03 0. -1.
         11   -1    0    0    0    0 -0.00000000000E+00 -0.00000000000E+00 -0.45593999997E+02  0.45594000000E+02  0.51100000000E-03 0.  1.
    9900012    2    1    2    0    0 -0.22736045409E+02 -0.33391722682E+02 -0.46075682307E+01  0.50528873233E+02  0.30000040679E+02 0.  0.
         12    1    1    2    0    0  0.22736045409E+02  0.33391722682E+02  0.46075682307E+01  0.40659126767E+02  0.00000000000E+00 0. -1.
         11    1    3    3    0    0  0.21781234627E+01  0.17084701961E+01 -0.28259819788E+01  0.39559153979E+01  0.51100000000E-03 0. -1.
        -11    1    3    3    0    0 -0.59680320926E+01 -0.33732733102E+01 -0.63422518173E+01  0.93391936621E+01  0.51100000000E-03 0.  1.
         12    1    3    3    0    0 -0.18946136779E+02 -0.31726919568E+02  0.45606655655E+01  0.37233764173E+02  0.00000000000E+00 0. -1.
</event>
<event>
 7    1  0.2661323E-011  0.5052886E+02  0.7816164E-02  0.1300439E+00
        -11   -1    0    0    0    0  0.00000000000E+00  0.00000000000E+00  0.45593999997E+02  0.45594000000E+02  0.51100000000E-03 0.  1.
         11   -1    0    0    0    0 -0.00000000000E+00 -0.00000000000E+00 -0.45593999997E+02  0.45594000000E+02  0.51100000000E-03 0. -1.
    9900012    2    1    2    0    0 -0.35710564055E+02  0.18787035946E+02  0.49968918412E+01  0.50528855483E+02  0.29999986726E+02 0.  0.
         12    1    1    2    0    0  0.35710564055E+02 -0.18787035946E+02 -0.49968918412E+01  0.40659144517E+02  0.00000000000E+00 0. -1.
         11    1    3    3    0    0 -0.58399770302E+01 -0.32437736770E+01  0.13611274261E+01  0.68176291709E+01  0.51100000000E-03 0. -1.
        -11    1    3    3    0    0 -0.33413978728E+02  0.17235466753E+02  0.31238269741E+01  0.37726828436E+02  0.51100000000E-03 0.  1.
         12    1    3    3    0    0  0.35433917025E+01  0.47953428701E+01  0.51193744102E+00  0.59843978764E+01  0.00000000000E+00 0. -1.
</event>
<event>
 7    1  0.2661323E-011  0.5052887E+02  0.7816164E-02  0.1300439E+00
        -11   -1    0    0    0    0  0.00000000000E+00  0.00000000000E+00  0.45593999997E+02  0.45594000000E+02  0.51100000000E-03 0. -1.
         11   -1    0    0    0    0 -0.00000000000E+00 -0.00000000000E+00 -0.45593999997E+02  0.45594000000E+02  0.51100000000E-03 0.  1.
    9900012    2    1    2    0    0 -0.26617722715E+02 -0.24651339880E+01 -0.30636331109E+02  0.50528870251E+02  0.30000031615E+02 0.  0.
         12    1    1    2    0    0  0.26617722715E+02  0.24651339880E+01  0.30636331109E+02  0.40659129749E+02  0.00000000000E+00 0. -1.
         11    1    3    3    0    0  0.28201460501E+01  0.12376527678E+01 -0.51308995770E+01  0.59842408748E+01  0.51100000000E-03 0. -1.
        -11    1    3    3    0    0  0.33091543493E+01  0.60395102938E+00 -0.13473104270E+01  0.36236038693E+01  0.51100000000E-03 0.  1.
        -12    1    3    3    0    0 -0.32747023115E+02 -0.43067377851E+01 -0.24158121105E+02  0.40921025507E+02  0.00000000000E+00 0.  1.
</event>
<event>
 7    1  0.2661323E-011  0.5052887E+02  0.7816164E-02  0.1300439E+00
        -11   -1    0    0    0    0  0.00000000000E+00  0.00000000000E+00  0.45593999997E+02  0.45594000000E+02  0.51100000000E-03 0. -1.
         11   -1    0    0    0    0 -0.00000000000E+00 -0.00000000000E+00 -0.45593999997E+02  0.45594000000E+02  0.51100000000E-03 0.  1.
    9900012    2    1    2    0    0  0.31966629465E+02 -0.24576712157E+02  0.52234436547E+01  0.50528873799E+02  0.30000042399E+02 0.  0.
         12    1    1    2    0    0 -0.31966629465E+02  0.24576712157E+02 -0.52234436547E+01  0.40659126201E+02  0.00000000000E+00 0. -1.
         11    1    3    3    0    0  0.25985664412E+01 -0.56172817851E+01  0.10954234098E+02  0.12581798247E+02  0.51100000000E-03 0. -1.
        -11    1    3    3    0    0  0.53550155764E+01 -0.75091731092E+01  0.33861449543E+01  0.98249605862E+01  0.51100000000E-03 0.  1.
         12    1    3    3    0    0  0.24013047448E+02 -0.11450257263E+02 -0.91169353972E+01  0.28122114966E+02  0.00000000000E+00 0. -1.
</event>
<event>
 7    1  0.2661323E-011  0.5052886E+02  0.7816164E-02  0.1300439E+00
        -11   -1    0    0    0    0  0.00000000000E+00  0.00000000000E+00  0.45593999997E+02  0.45594000000E+02  0.51100000000E-03 0. -1.
         11   -1    0    0    0    0 -0.00000000000E+00 -0.00000000000E+00 -0.45593999997E+02  0.45594000000E+02  0.51100000000E-03 0.  1.
    9900012    2    1    2    0    0  0.27434103871E+02 -0.26046853335E+01 -0.29895671649E+02  0.50528860508E+02  0.30000001999E+02 0.  0.
         12    1    1    2    0    0 -0.27434103871E+02  0.26046853335E+01  0.29895671649E+02  0.40659139492E+02  0.00000000000E+00 0. -1.
         11    1    3    3    0    0 -0.89073824120E+00  0.41857542551E+01 -0.14396664963E+02  0.15019251500E+02  0.51100000000E-03 0. -1.
        -11    1    3    3    0    0  0.27777535091E+01  0.32685507967E+01 -0.78959266708E+00  0.43615130068E+01  0.51100000000E-03 0.  1.
        -12    1    3    3    0    0  0.25547088603E+02 -0.10058990385E+02 -0.14709414019E+02  0.31148096000E+02  0.00000000000E+00 0.  1.
</event>
<event>
 7    1  0.2661323E-011  0.5052886E+02  0.7816164E-02  0.1300439E+00
        -11   -1    0    0    0    0  0.00000000000E+00  0.00000000000E+00  0.45593999997E+02  0.45594000000E+02  0.51100000000E-03 0. -1.
         11   -1    0    0    0    0 -0.00000000000E+00 -0.00000000000E+00 -0.45593999997E+02  0.45594000000E+02  0.51100000000E-03 0.  1.
    9900012    2    1    2    0    0  0.71982546858E+01  0.39519796357E+02 -0.62878282566E+01  0.50528856394E+02  0.29999989495E+02 0.  0.
         12    1    1    2    0    0 -0.71982546858E+01 -0.39519796357E+02  0.62878282566E+01  0.40659143606E+02  0.00000000000E+00 0. -1.
         11    1    3    3    0    0  0.11162045445E+02  0.17012146532E+02 -0.74935425164E+01  0.21683117116E+02  0.51100000000E-03 0. -1.
        -11    1    3    3    0    0  0.10237160601E+01  0.14524292208E+01 -0.58283844737E+01  0.60932430649E+01  0.51100000000E-03 0.  1.
        -12    1    3    3    0    0 -0.49875068190E+01  0.21055220604E+02  0.70340987335E+01  0.22752496213E+02  0.00000000000E+00 0.  1.
</event>
<event>
 7    1  0.2661323E-011  0.5052885E+02  0.7816164E-02  0.1300439E+00
        -11   -1    0    0    0    0  0.00000000000E+00  0.00000000000E+00  0.45593999997E+02  0.45594000000E+02  0.51100000000E-03 0.  1.
         11   -1    0    0    0    0 -0.00000000000E+00 -0.00000000000E+00 -0.45593999997E+02  0.45594000000E+02  0.51100000000E-03 0. -1.
    9900012    2    1    2    0    0  0.14242127494E+01 -0.35839932174E+02 -0.19147769312E+02  0.50528853552E+02  0.29999980858E+02 0.  0.
         12    1    1    2    0    0 -0.14242127494E+01  0.35839932174E+02  0.19147769312E+02  0.40659146448E+02  0.00000000000E+00 0. -1.
         11    1    3    3    0    0  0.47707549330E+01 -0.10829410981E+01 -0.80189519264E+01  0.93934261221E+01  0.51100000000E-03 0. -1.
        -11    1    3    3    0    0 -0.31094416470E+01 -0.32355645704E+02 -0.15600236724E+02  0.36054456346E+02  0.51100000000E-03 0.  1.
         12    1    3    3    0    0 -0.23710053650E+00 -0.24013453723E+01  0.44714193386E+01  0.50809710847E+01  0.00000000000E+00 0. -1.
</event>
<event>
 7    1  0.2661323E-011  0.5052885E+02  0.7816164E-02  0.1300439E+00
        -11   -1    0    0    0    0  0.00000000000E+00  0.00000000000E+00  0.45593999997E+02  0.45594000000E+02  0.51100000000E-03 0.  1.
         11   -1    0    0    0    0 -0.00000000000E+00 -0.00000000000E+00 -0.45593999997E+02  0.45594000000E+02  0.51100000000E-03 0. -1.
    9900012    2    1    2    0    0 -0.98032990224E+01  0.26443697148E+02  0.29288091282E+02  0.50528854884E+02  0.29999984906E+02 0.  0.
         12    1    1    2    0    0  0.98032990224E+01 -0.26443697148E+02 -0.29288091282E+02  0.40659145116E+02  0.00000000000E+00 0. -1.
         11    1    3    3    0    0 -0.30337330441E+01  0.11918097059E+02  0.25422966165E+02  0.28241313400E+02  0.51100000000E-03 0.  1.
        -11    1    3    3    0    0  0.44700928248E+01  0.61675508130E+01  0.32090941387E+01  0.82655125881E+01  0.51100000000E-03 0. -1.
        -12    1    3    3    0    0 -0.11239658803E+02  0.83580492764E+01  0.65603097907E+00  0.14022028896E+02  0.00000000000E+00 0.  1.
</event>
<event>
 7    1  0.2661323E-011  0.5052885E+02  0.7816164E-02  0.1300439E+00
        -11   -1    0    0    0    0  0.00000000000E+00  0.00000000000E+00  0.45593999997E+02  0.45594000000E+02  0.51100000000E-03 0.  1.
         11   -1    0    0    0    0 -0.00000000000E+00 -0.00000000000E+00 -0.45593999997E+02  0.45594000000E+02  0.51100000000E-03 0. -1.
    9900012    2    1    2    0    0 -0.16884169144E+02 -0.20533146906E+02  0.30764931160E+02  0.50528852458E+02  0.29999977531E+02 0.  0.
         12    1    1    2    0    0  0.16884169144E+02  0.20533146906E+02 -0.30764931160E+02  0.40659147542E+02  0.00000000000E+00 0. -1.
         11    1    3    3    0    0 -0.84930341339E+01  0.32017958877E+01  0.11126713124E+02  0.14359208575E+02  0.51100000000E-03 0.  1.
        -11    1    3    3    0    0  0.39267433979E+01 -0.28764703349E+01 -0.18101945222E+00  0.48709509958E+01  0.51100000000E-03 0. -1.
        -12    1    3    3    0    0 -0.12317878408E+02 -0.20858472459E+02  0.19819237489E+02  0.31298692887E+02  0.00000000000E+00 0.  1.
</event>
<event>
 7    1  0.2661323E-011  0.5052886E+02  0.7816164E-02  0.1300439E+00
        -11   -1    0    0    0    0  0.00000000000E+00  0.00000000000E+00  0.45593999997E+02  0.45594000000E+02  0.51100000000E-03 0.  1.
         11   -1    0    0    0    0 -0.00000000000E+00 -0.00000000000E+00 -0.45593999997E+02  0.45594000000E+02  0.51100000000E-03 0. -1.
    9900012    2    1    2    0    0 -0.23508804821E+02 -0.10795165936E+02  0.31368236936E+02  0.50528858344E+02  0.29999995423E+02 0.  0.
         12    1    1    2    0    0  0.23508804821E+02  0.10795165936E+02 -0.31368236936E+02  0.40659141656E+02  0.00000000000E+00 0. -1.
         11    1    3    3    0    0 -0.23574017639E+02 -0.82195914480E+01  0.22851561861E+02  0.33845086363E+02  0.51100000000E-03 0. -1.
        -11    1    3    3    0    0 -0.60231559032E+01 -0.19679903222E+01  0.84536614400E+01  0.10564837194E+02  0.51100000000E-03 0.  1.
         12    1    3    3    0    0  0.60883687211E+01 -0.60758416609E+00  0.63013635483E-01  0.61189347865E+01  0.00000000000E+00 0. -1.
</event>
<event>
 7    1  0.2661323E-011  0.5052886E+02  0.7816164E-02  0.1300439E+00
        -11   -1    0    0    0    0  0.00000000000E+00  0.00000000000E+00  0.45593999997E+02  0.45594000000E+02  0.51100000000E-03 0. -1.
         11   -1    0    0    0    0 -0.00000000000E+00 -0.00000000000E+00 -0.45593999997E+02  0.45594000000E+02  0.51100000000E-03 0.  1.
    9900012    2    1    2    0    0  0.17851756568E+02 -0.20000914369E+02 -0.30568669206E+02  0.50528864185E+02  0.30000013178E+02 0.  0.
         12    1    1    2    0    0 -0.17851756568E+02  0.20000914369E+02  0.30568669206E+02  0.40659135815E+02  0.00000000000E+00 0. -1.
         11    1    3    3    0    0  0.12493912559E+02 -0.86511446198E+01 -0.18459251876E+02  0.23909917072E+02  0.51100000000E-03 0. -1.
        -11    1    3    3    0    0  0.64631349196E+01 -0.24538270930E+01 -0.15549606588E+02  0.17017157392E+02  0.51100000000E-03 0.  1.
         12    1    3    3    0    0 -0.11052909105E+01 -0.88959426559E+01  0.34401892582E+01  0.96017897220E+01  0.00000000000E+00 0. -1.
</event>
<event>
 7    1  0.2661323E-011  0.5052886E+02  0.7816164E-02  0.1300439E+00
        -11   -1    0    0    0    0  0.00000000000E+00  0.00000000000E+00  0.45593999997E+02  0.45594000000E+02  0.51100000000E-03 0. -1.
         11   -1    0    0    0    0 -0.00000000000E+00 -0.00000000000E+00 -0.45593999997E+02  0.45594000000E+02  0.51100000000E-03 0.  1.
    9900012    2    1    2    0    0 -0.12137835009E+02 -0.77642233285E+01 -0.38020457718E+02  0.50528863171E+02  0.30000010095E+02 0.  0.
         12    1    1    2    0    0  0.12137835009E+02  0.77642233285E+01  0.38020457718E+02  0.40659136829E+02  0.00000000000E+00 0. -1.
         11    1    3    3    0    0  0.28024526062E+01 -0.12812427279E+01  0.60300967584E+00  0.31398956142E+01  0.51100000000E-03 0.  1.
        -11    1    3    3    0    0  0.28612948791E+01  0.35197056765E+01 -0.10969944463E+01  0.46667690655E+01  0.51100000000E-03 0. -1.
        -12    1    3    3    0    0 -0.17801582495E+02 -0.10002686277E+02 -0.37526472947E+02  0.42722198491E+02  0.00000000000E+00 0.  1.
</event>
<event>
 7    1  0.2661323E-011  0.5052886E+02  0.7816164E-02  0.1300439E+00
        -11   -1    0    0    0    0  0.00000000000E+00  0.00000000000E+00  0.45593999997E+02  0.45594000000E+02  0.51100000000E-03 0.  1.
         11   -1    0    0    0    0 -0.00000000000E+00 -0.00000000000E+00 -0.45593999997E+02  0.45594000000E+02  0.51100000000E-03 0. -1.
    9900012    2    1    2    0    0 -0.50345893660E+01  0.45320767919E+01  0.40090883280E+02  0.50528859179E+02  0.29999997961E+02 0.  0.
         12    1    1    2    0    0  0.50345893660E+01 -0.45320767919E+01 -0.40090883280E+02  0.40659140821E+02  0.00000000000E+00 0. -1.
         11    1    3    3    0    0 -0.12408744963E+02  0.36860296324E+01  0.15236030473E+02  0.19992508368E+02  0.51100000000E-03 0. -1.
        -11    1    3    3    0    0 -0.31080638325E+01  0.13734591303E+01  0.17234273653E+02  0.17566064994E+02  0.51100000000E-03 0.  1.
         12    1    3    3    0    0  0.10482219429E+02 -0.52741197083E+00  0.76205791539E+01  0.12970285818E+02  0.00000000000E+00 0. -1.
</event>
<event>
 7    1  0.2661323E-011  0.5052886E+02  0.7816164E-02  0.1300439E+00
        -11   -1    0    0    0    0  0.00000000000E+00  0.00000000000E+00  0.45593999997E+02  0.45594000000E+02  0.51100000000E-03 0. -1.
         11   -1    0    0    0    0 -0.00000000000E+00 -0.00000000000E+00 -0.45593999997E+02  0.45594000000E+02  0.51100000000E-03 0.  1.
    9900012    2    1    2    0    0 -0.87713568150E+01  0.35910229171E+02 -0.16931761129E+02  0.50528858415E+02  0.29999995637E+02 0.  0.
         12    1    1    2    0    0  0.87713568150E+01 -0.35910229171E+02  0.16931761129E+02  0.40659141585E+02  0.00000000000E+00 0. -1.
         11    1    3    3    0    0 -0.88886971487E+00  0.14677573169E+01  0.40773624592E+01  0.44237185485E+01  0.51100000000E-03 0. -1.
        -11    1    3    3    0    0  0.13011375781E+01  0.30248635845E+02 -0.11979753915E+02  0.32560519554E+02  0.51100000000E-03 0.  1.
        -12    1    3    3    0    0 -0.91836246783E+01  0.41938360090E+01 -0.90293696735E+01  0.13544620312E+02  0.00000000000E+00 0.  1.
</event>
<event>
 7    1  0.2661323E-011  0.5052885E+02  0.7816164E-02  0.1300439E+00
        -11   -1    0    0    0    0  0.00000000000E+00  0.00000000000E+00  0.45593999997E+02  0.45594000000E+02  0.51100000000E-03 0.  1.
         11   -1    0    0    0    0 -0.00000000000E+00 -0.00000000000E+00 -0.45593999997E+02  0.45594000000E+02  0.51100000000E-03 0. -1.
    9900012    2    1    2    0    0 -0.65514574440E+01  0.37704848029E+02  0.13732771493E+02  0.50528853766E+02  0.29999981509E+02 0.  0.
         12    1    1    2    0    0  0.65514574440E+01 -0.37704848029E+02 -0.13732771493E+02  0.40659146234E+02  0.00000000000E+00 0. -1.
         11    1    3    3    0    0 -0.50404375685E+01 -0.43024837562E+00  0.32275452043E+01  0.60006810325E+01  0.51100000000E-03 0. -1.
        -11    1    3    3    0    0  0.68102730848E+01  0.79237439319E+01  0.78710701510E+01  0.13081256934E+02  0.51100000000E-03 0.  1.
        -12    1    3    3    0    0 -0.83212929602E+01  0.30211352473E+02  0.26341561379E+01  0.31446915800E+02  0.00000000000E+00 0.  1.
</event>
<event>
 7    1  0.2661323E-011  0.5052885E+02  0.7816164E-02  0.1300439E+00
        -11   -1    0    0    0    0  0.00000000000E+00  0.00000000000E+00  0.45593999997E+02  0.45594000000E+02  0.51100000000E-03 0.  1.
         11   -1    0    0    0    0 -0.00000000000E+00 -0.00000000000E+00 -0.45593999997E+02  0.45594000000E+02  0.51100000000E-03 0. -1.
    9900012    2    1    2    0    0 -0.60406036172E+01  0.19392487850E+02  0.35222279039E+02  0.50528850749E+02  0.29999972338E+02 0.  0.
         12    1    1    2    0    0  0.60406036172E+01 -0.19392487850E+02 -0.35222279039E+02  0.40659149251E+02  0.00000000000E+00 0. -1.
         11    1    3    3    0    0 -0.12637178805E+01  0.10755337834E+02  0.70171783487E+01  0.12904071724E+02  0.51100000000E-03 0. -1.
        -11    1    3    3    0    0 -0.39592566702E+01  0.16509204202E+02  0.18736376136E+02  0.25284013284E+02  0.51100000000E-03 0.  1.
        -12    1    3    3    0    0 -0.81762906647E+00 -0.78720541866E+01  0.94687245545E+01  0.12340765742E+02  0.00000000000E+00 0.  1.
</event>
<event>
 7    1  0.2661323E-011  0.5052884E+02  0.7816164E-02  0.1300439E+00
        -11   -1    0    0    0    0  0.00000000000E+00  0.00000000000E+00  0.45593999997E+02  0.45594000000E+02  0.51100000000E-03 0.  1.
         11   -1    0    0    0    0 -0.00000000000E+00 -0.00000000000E+00 -0.45593999997E+02  0.45594000000E+02  0.51100000000E-03 0. -1.
    9900012    2    1    2    0    0  0.78739987854E+01 -0.24841372071E+02  0.31210159250E+02  0.50528835429E+02  0.29999925769E+02 0.  0.
         12    1    1    2    0    0 -0.78739987854E+01  0.24841372071E+02 -0.31210159250E+02  0.40659164571E+02  0.00000000000E+00 0. -1.
         11    1    3    3    0    0  0.64666389914E+01  0.88855419041E+00  0.32581776590E+01  0.72953869201E+01  0.51100000000E-03 0. -1.
        -11    1    3    3    0    0  0.53974043541E+01 -0.23114747511E+01 -0.81243197213E+00  0.59274729234E+01  0.51100000000E-03 0.  1.
        -12    1    3    3    0    0 -0.39900445601E+01 -0.23418451510E+02  0.28764413563E+02  0.37305975585E+02  0.00000000000E+00 0.  1.
</event>
<event>
 7    1  0.2661323E-011  0.5052886E+02  0.7816164E-02  0.1300439E+00
        -11   -1    0    0    0    0  0.00000000000E+00  0.00000000000E+00  0.45593999997E+02  0.45594000000E+02  0.51100000000E-03 0. -1.
         11   -1    0    0    0    0 -0.00000000000E+00 -0.00000000000E+00 -0.45593999997E+02  0.45594000000E+02  0.51100000000E-03 0.  1.
    9900012    2    1    2    0    0 -0.36977669091E+02  0.26359094927E+01 -0.16699382457E+02  0.50528863207E+02  0.30000010205E+02 0.  0.
         12    1    1    2    0    0  0.36977669091E+02 -0.26359094927E+01  0.16699382457E+02  0.40659136793E+02  0.00000000000E+00 0. -1.
         11    1    3    3    0    0 -0.18678447288E+02  0.32808301452E+01  0.51883612448E+01  0.19661315628E+02  0.51100000000E-03 0. -1.
        -11    1    3    3    0    0 -0.10240944866E+02 -0.46499899802E+01 -0.63603064970E+01  0.12921023859E+02  0.51100000000E-03 0.  1.
        -12    1    3    3    0    0 -0.80582769368E+01  0.40050693276E+01 -0.15527437205E+02  0.17946523721E+02  0.00000000000E+00 0.  1.
</event>
<event>
 7    1  0.2661323E-011  0.5052878E+02  0.7816164E-02  0.1300439E+00
        -11   -1    0    0    0    0  0.00000000000E+00  0.00000000000E+00  0.45593999997E+02  0.45594000000E+02  0.51100000000E-03 0.  1.
         11   -1    0    0    0    0 -0.00000000000E+00 -0.00000000000E+00 -0.45593999997E+02  0.45594000000E+02  0.51100000000E-03 0. -1.
    9900012    2    1    2    0    0  0.37046476753E+01  0.46568434028E+01  0.40221407253E+02  0.50528779567E+02  0.29999755969E+02 0.  0.
         12    1    1    2    0    0 -0.37046476753E+01 -0.46568434028E+01 -0.40221407253E+02  0.40659220433E+02  0.00000000000E+00 0. -1.
         11    1    3    3    0    0  0.59735449155E+01  0.86806621132E-01  0.24517967075E+02  0.25235322150E+02  0.51100000000E-03 0. -1.
        -11    1    3    3    0    0 -0.17698886266E+01  0.57669759855E+01  0.19955857285E+02  0.20847703902E+02  0.51100000000E-03 0.  1.
         12    1    3    3    0    0 -0.49900861358E+00 -0.11969392038E+01 -0.42524171074E+01  0.44457535143E+01  0.00000000000E+00 0. -1.
</event>
<event>
 7    1  0.2661323E-011  0.5052885E+02  0.7816164E-02  0.1300439E+00
        -11   -1    0    0    0    0  0.00000000000E+00  0.00000000000E+00  0.45593999997E+02  0.45594000000E+02  0.51100000000E-03 0.  1.
         11   -1    0    0    0    0 -0.00000000000E+00 -0.00000000000E+00 -0.45593999997E+02  0.45594000000E+02  0.51100000000E-03 0. -1.
    9900012    2    1    2    0    0 -0.17610274923E+02  0.29028852692E+01  0.36532423731E+02  0.50528849623E+02  0.29999968913E+02 0.  0.
         12    1    1    2    0    0  0.17610274923E+02 -0.29028852692E+01 -0.36532423731E+02  0.40659150377E+02  0.00000000000E+00 0. -1.
         11    1    3    3    0    0 -0.46680136574E+01 -0.16922479242E+01  0.20152437211E+02  0.20755114559E+02  0.51100000000E-03 0. -1.
        -11    1    3    3    0    0 -0.99274517772E+01  0.67536373336E+00  0.20853267012E+02  0.23105608849E+02  0.51100000000E-03 0.  1.
         12    1    3    3    0    0 -0.30148094882E+01  0.39197694601E+01 -0.44732804911E+01  0.66681262152E+01  0.00000000000E+00 0. -1.
</event>
<event>
 7    1  0.2661323E-011  0.5052885E+02  0.7816164E-02  0.1300439E+00
        -11   -1    0    0    0    0  0.00000000000E+00  0.00000000000E+00  0.45593999997E+02  0.45594000000E+02  0.51100000000E-03 0.  1.
         11   -1    0    0    0    0 -0.00000000000E+00 -0.00000000000E+00 -0.45593999997E+02  0.45594000000E+02  0.51100000000E-03 0. -1.
    9900012    2    1    2    0    0  0.89667302502E+01 -0.40136842896E+01  0.39454460921E+02  0.50528850974E+02  0.29999973021E+02 0.  0.
         12    1    1    2    0    0 -0.89667302502E+01  0.40136842896E+01 -0.39454460921E+02  0.40659149026E+02  0.00000000000E+00 0. -1.
         11    1    3    3    0    0 -0.50873902755E+01 -0.53208280853E+00  0.23770597079E+01  0.56404844691E+01  0.51100000000E-03 0. -1.
        -11    1    3    3    0    0  0.18682865909E+01  0.46919251766E+01  0.26045762248E+02  0.26530857280E+02  0.51100000000E-03 0.  1.
        -12    1    3    3    0    0  0.12185833935E+02 -0.81735266577E+01  0.11031638964E+02  0.18357509225E+02  0.00000000000E+00 0.  1.
</event>
<event>
 7    1  0.2661323E-011  0.5052886E+02  0.7816164E-02  0.1300439E+00
        -11   -1    0    0    0    0  0.00000000000E+00  0.00000000000E+00  0.45593999997E+02  0.45594000000E+02  0.51100000000E-03 0. -1.
         11   -1    0    0    0    0 -0.00000000000E+00 -0.00000000000E+00 -0.45593999997E+02  0.45594000000E+02  0.51100000000E-03 0.  1.
    9900012    2    1    2    0    0 -0.20023098577E+02 -0.32868293171E+02 -0.13111691863E+02  0.50528860362E+02  0.30000001557E+02 0.  0.
         12    1    1    2    0    0  0.20023098577E+02  0.32868293171E+02  0.13111691863E+02  0.40659139638E+02  0.00000000000E+00 0. -1.
         11    1    3    3    0    0  0.16095381608E+00 -0.13324126684E+02  0.87199699849E+00  0.13353600153E+02  0.51100000000E-03 0. -1.
        -11    1    3    3    0    0 -0.32354191200E+01 -0.10959578564E+02 -0.14134517699E+02  0.18175942617E+02  0.51100000000E-03 0.  1.
        -12    1    3    3    0    0 -0.16948633273E+02 -0.85845879234E+01  0.15082883793E+00  0.18999317592E+02  0.00000000000E+00 0.  1.
</event>
<event>
 7    1  0.2661323E-011  0.5052886E+02  0.7816164E-02  0.1300439E+00
        -11   -1    0    0    0    0  0.00000000000E+00  0.00000000000E+00  0.45593999997E+02  0.45594000000E+02  0.51100000000E-03 0. -1.
         11   -1    0    0    0    0 -0.00000000000E+00 -0.00000000000E+00 -0.45593999997E+02  0.45594000000E+02  0.51100000000E-03 0.  1.
    9900012    2    1    2    0    0 -0.36226079484E+02  0.73551606463E+01  0.16933358032E+02  0.50528857890E+02  0.29999994042E+02 0.  0.
         12    1    1    2    0    0  0.36226079484E+02 -0.73551606463E+01 -0.16933358032E+02  0.40659142110E+02  0.00000000000E+00 0. -1.
         11    1    3    3    0    0 -0.96215238230E+00 -0.21751215677E+01 -0.37376233588E+01  0.44302053761E+01  0.51100000000E-03 0. -1.
        -11    1    3    3    0    0 -0.27051900934E+02  0.30068949328E+01  0.56825740016E+01  0.27805366547E+02  0.51100000000E-03 0.  1.
        -12    1    3    3    0    0 -0.82120261676E+01  0.65233872811E+01  0.14988407389E+02  0.18293285967E+02  0.00000000000E+00 0.  1.
</event>
<event>
 7    1  0.2661323E-011  0.5052883E+02  0.7816164E-02  0.1300439E+00
        -11   -1    0    0    0    0  0.00000000000E+00  0.00000000000E+00  0.45593999997E+02  0.45594000000E+02  0.51100000000E-03 0. -1.
         11   -1    0    0    0    0 -0.00000000000E+00 -0.00000000000E+00 -0.45593999997E+02  0.45594000000E+02  0.51100000000E-03 0.  1.
    9900012    2    1    2    0    0 -0.34104544231E+02 -0.21100408784E+02 -0.66948496357E+01  0.50528828836E+02  0.29999905731E+02 0.  0.
         12    1    1    2    0    0  0.34104544231E+02  0.21100408784E+02  0.66948496357E+01  0.40659171164E+02  0.00000000000E+00 0. -1.
         11    1    3    3    0    0  0.44276004088E+01 -0.15758869441E+01 -0.35577013157E+01  0.58944299092E+01  0.51100000000E-03 0. -1.
        -11    1    3    3    0    0  0.65667559175E-01 -0.22239730273E+01 -0.82047152371E-01  0.22264546370E+01  0.51100000000E-03 0.  1.
        -12    1    3    3    0    0 -0.38597812199E+02 -0.17300548813E+02 -0.30551011676E+01  0.42407944290E+02  0.00000000000E+00 0.  1.
</event>
<event>
 7    1  0.2661323E-011  0.5052886E+02  0.7816164E-02  0.1300439E+00
        -11   -1    0    0    0    0  0.00000000000E+00  0.00000000000E+00  0.45593999997E+02  0.45594000000E+02  0.51100000000E-03 0. -1.
         11   -1    0    0    0    0 -0.00000000000E+00 -0.00000000000E+00 -0.45593999997E+02  0.45594000000E+02  0.51100000000E-03 0.  1.
    9900012    2    1    2    0    0  0.21517411767E+02  0.33810339684E+02 -0.68576756981E+01  0.50528858412E+02  0.29999995629E+02 0.  0.
         12    1    1    2    0    0 -0.21517411767E+02 -0.33810339684E+02  0.68576756981E+01  0.40659141588E+02  0.00000000000E+00 0. -1.
         11    1    3    3    0    0  0.91640370394E+01  0.73884021260E+01  0.72266988973E+01  0.13812792551E+02  0.51100000000E-03 0. -1.
        -11    1    3    3    0    0  0.52139920508E+01  0.42629951082E+01  0.34535208375E+01  0.75687282178E+01  0.51100000000E-03 0.  1.
        -12    1    3    3    0    0  0.71393826769E+01  0.22158942450E+02 -0.17537895433E+02  0.29147337644E+02  0.00000000000E+00 0.  1.
</event>
<event>
 7    1  0.2661323E-011  0.5052889E+02  0.7816164E-02  0.1300439E+00
        -11   -1    0    0    0    0  0.00000000000E+00  0.00000000000E+00  0.45593999997E+02  0.45594000000E+02  0.51100000000E-03 0.  1.
         11   -1    0    0    0    0 -0.00000000000E+00 -0.00000000000E+00 -0.45593999997E+02  0.45594000000E+02  0.51100000000E-03 0. -1.
    9900012    2    1    2    0    0 -0.87161266015E+01  0.24875491143E+01  0.39635894556E+02  0.50528893999E+02  0.30000103800E+02 0.  0.
         12    1    1    2    0    0  0.87161266015E+01 -0.24875491143E+01 -0.39635894556E+02  0.40659106001E+02  0.00000000000E+00 0. -1.
         11    1    3    3    0    0 -0.43144904224E+00 -0.49462799077E+01  0.40892791903E+01  0.64322653676E+01  0.51100000000E-03 0.  1.
        -11    1    3    3    0    0 -0.72958383552E+01  0.13495796648E+02  0.11220228234E+02  0.19006822626E+02  0.51100000000E-03 0. -1.
         12    1    3    3    0    0 -0.98883920413E+00 -0.60619676264E+01  0.24326387132E+02  0.25089806005E+02  0.00000000000E+00 0. -1.
</event>
<event>
 7    1  0.2661323E-011  0.5052886E+02  0.7816164E-02  0.1300439E+00
        -11   -1    0    0    0    0  0.00000000000E+00  0.00000000000E+00  0.45593999997E+02  0.45594000000E+02  0.51100000000E-03 0.  1.
         11   -1    0    0    0    0 -0.00000000000E+00 -0.00000000000E+00 -0.45593999997E+02  0.45594000000E+02  0.51100000000E-03 0. -1.
    9900012    2    1    2    0    0 -0.13509516174E+02  0.12706755306E+02  0.36182829204E+02  0.50528858508E+02  0.29999995921E+02 0.  0.
         12    1    1    2    0    0  0.13509516174E+02 -0.12706755306E+02 -0.36182829204E+02  0.40659141492E+02  0.00000000000E+00 0. -1.
         11    1    3    3    0    0 -0.18900308544E+01  0.46733286065E+01 -0.36083637538E+00  0.50539509342E+01  0.51100000000E-03 0.  1.
        -11    1    3    3    0    0 -0.32799078334E+01 -0.27340161826E+01 -0.19122003117E+01  0.46785842063E+01  0.51100000000E-03 0. -1.
        -12    1    3    3    0    0 -0.83395774860E+01  0.10767442882E+02  0.38455865891E+02  0.40796323367E+02  0.00000000000E+00 0.  1.
</event>
<event>
 7    1  0.2661323E-011  0.5052888E+02  0.7816164E-02  0.1300439E+00
        -11   -1    0    0    0    0  0.00000000000E+00  0.00000000000E+00  0.45593999997E+02  0.45594000000E+02  0.51100000000E-03 0.  1.
         11   -1    0    0    0    0 -0.00000000000E+00 -0.00000000000E+00 -0.45593999997E+02  0.45594000000E+02  0.51100000000E-03 0. -1.
    9900012    2    1    2    0    0 -0.37993898161E+02 -0.12453756535E+02  0.73845620447E+01  0.50528879180E+02  0.30000058754E+02 0.  0.
         12    1    1    2    0    0  0.37993898161E+02  0.12453756535E+02 -0.73845620447E+01  0.40659120820E+02  0.00000000000E+00 0. -1.
         11    1    3    3    0    0 -0.98414477096E+00  0.18070640255E+01 -0.10606201187E+01  0.23149377140E+01  0.51100000000E-03 0. -1.
        -11    1    3    3    0    0 -0.41391393363E+00  0.56226693551E+01  0.24057020520E+01  0.61296931445E+01  0.51100000000E-03 0.  1.
        -12    1    3    3    0    0 -0.36595839456E+02 -0.19883489916E+02  0.60394801114E+01  0.42084248321E+02  0.00000000000E+00 0.  1.
</event>
<event>
 7    1  0.2661323E-011  0.5052886E+02  0.7816164E-02  0.1300439E+00
        -11   -1    0    0    0    0  0.00000000000E+00  0.00000000000E+00  0.45593999997E+02  0.45594000000E+02  0.51100000000E-03 0.  1.
         11   -1    0    0    0    0 -0.00000000000E+00 -0.00000000000E+00 -0.45593999997E+02  0.45594000000E+02  0.51100000000E-03 0. -1.
    9900012    2    1    2    0    0 -0.21555284783E+01 -0.12530763132E+02  0.38619930280E+02  0.50528863972E+02  0.30000012529E+02 0.  0.
         12    1    1    2    0    0  0.21555284783E+01  0.12530763132E+02 -0.38619930280E+02  0.40659136028E+02  0.00000000000E+00 0. -1.
         11    1    3    3    0    0 -0.29190540517E+01 -0.22976378486E+00  0.61802329419E+01  0.68387825986E+01  0.51100000000E-03 0. -1.
        -11    1    3    3    0    0 -0.58280757519E+01 -0.57915511842E+01  0.33381974973E+02  0.34378260361E+02  0.51100000000E-03 0.  1.
         12    1    3    3    0    0  0.65916013253E+01 -0.65094481633E+01 -0.94227763454E+00  0.93118210122E+01  0.00000000000E+00 0. -1.
</event>
<event>
 7    1  0.2661323E-011  0.5052884E+02  0.7816164E-02  0.1300439E+00
        -11   -1    0    0    0    0  0.00000000000E+00  0.00000000000E+00  0.45593999997E+02  0.45594000000E+02  0.51100000000E-03 0. -1.
         11   -1    0    0    0    0 -0.00000000000E+00 -0.00000000000E+00 -0.45593999997E+02  0.45594000000E+02  0.51100000000E-03 0.  1.
    9900012    2    1    2    0    0  0.22317747133E+02 -0.30941788580E+02 -0.14060257109E+02  0.50528844234E+02  0.29999952534E+02 0.  0.
         12    1    1    2    0    0 -0.22317747133E+02  0.30941788580E+02  0.14060257109E+02  0.40659155766E+02  0.00000000000E+00 0. -1.
         11    1    3    3    0    0 -0.60852401989E+01 -0.21947800231E+01 -0.19126820407E+01  0.67457809391E+01  0.51100000000E-03 0. -1.
        -11    1    3    3    0    0  0.35022347393E+00 -0.35346333414E+01 -0.37040191650E+01  0.51318658961E+01  0.51100000000E-03 0.  1.
         12    1    3    3    0    0  0.28052763858E+02 -0.25212375216E+02 -0.84435559029E+01  0.38651197399E+02  0.00000000000E+00 0. -1.
</event>
<event>
 7    1  0.2661323E-011  0.5052889E+02  0.7816164E-02  0.1300439E+00
        -11   -1    0    0    0    0  0.00000000000E+00  0.00000000000E+00  0.45593999997E+02  0.45594000000E+02  0.51100000000E-03 0.  1.
         11   -1    0    0    0    0 -0.00000000000E+00 -0.00000000000E+00 -0.45593999997E+02  0.45594000000E+02  0.51100000000E-03 0. -1.
    9900012    2    1    2    0    0  0.16899636446E+02  0.40170631067E+01  0.36761781022E+02  0.50528892141E+02  0.30000098150E+02 0.  0.
         12    1    1    2    0    0 -0.16899636446E+02 -0.40170631067E+01 -0.36761781022E+02  0.40659107859E+02  0.00000000000E+00 0. -1.
         11    1    3    3    0    0  0.11251157540E+02  0.21546823204E+01 -0.92682450296E+00  0.11493050327E+02  0.51100000000E-03 0. -1.
        -11    1    3    3    0    0  0.70081620209E+00  0.29715880227E+01  0.43538261790E+01  0.53176387038E+01  0.51100000000E-03 0.  1.
         12    1    3    3    0    0  0.49476627038E+01 -0.11092072364E+01  0.33334779346E+02  0.33718203110E+02  0.00000000000E+00 0. -1.
</event>
<event>
 7    1  0.2661323E-011  0.5052885E+02  0.7816164E-02  0.1300439E+00
        -11   -1    0    0    0    0  0.00000000000E+00  0.00000000000E+00  0.45593999997E+02  0.45594000000E+02  0.51100000000E-03 0. -1.
         11   -1    0    0    0    0 -0.00000000000E+00 -0.00000000000E+00 -0.45593999997E+02  0.45594000000E+02  0.51100000000E-03 0.  1.
    9900012    2    1    2    0    0  0.10898691532E+02  0.37737969262E+02 -0.10499060782E+02  0.50528854922E+02  0.29999985022E+02 0.  0.
         12    1    1    2    0    0 -0.10898691532E+02 -0.37737969262E+02  0.10499060782E+02  0.40659145078E+02  0.00000000000E+00 0. -1.
         11    1    3    3    0    0  0.71481671386E+01  0.19267455678E+02  0.67010397313E+00  0.20561619132E+02  0.51100000000E-03 0. -1.
        -11    1    3    3    0    0  0.27316604494E+01  0.87783835958E+01  0.54600677120E+01  0.10692723088E+02  0.51100000000E-03 0.  1.
         12    1    3    3    0    0  0.10188639441E+01  0.96921299887E+01 -0.16629232467E+02  0.19274512702E+02  0.00000000000E+00 0. -1.
</event>
<event>
 7    1  0.2661323E-011  0.5052889E+02  0.7816164E-02  0.1300439E+00
        -11   -1    0    0    0    0  0.00000000000E+00  0.00000000000E+00  0.45593999997E+02  0.45594000000E+02  0.51100000000E-03 0. -1.
         11   -1    0    0    0    0 -0.00000000000E+00 -0.00000000000E+00 -0.45593999997E+02  0.45594000000E+02  0.51100000000E-03 0.  1.
    9900012    2    1    2    0    0  0.16230736037E+02  0.89968955338E+01 -0.36177096836E+02  0.50528889618E+02  0.30000090482E+02 0.  0.
         12    1    1    2    0    0 -0.16230736037E+02 -0.89968955338E+01  0.36177096836E+02  0.40659110382E+02  0.00000000000E+00 0. -1.
         11    1    3    3    0    0  0.46189929059E+01  0.44622760049E+01 -0.17919500502E+01  0.66676898437E+01  0.51100000000E-03 0. -1.
        -11    1    3    3    0    0  0.17828259770E+02 -0.93942792443E+00 -0.17231519822E+02  0.24812388980E+02  0.51100000000E-03 0.  1.
        -12    1    3    3    0    0 -0.62165166388E+01  0.54740474533E+01 -0.17153626964E+02  0.19048810794E+02  0.00000000000E+00 0.  1.
</event>
<event>
 7    1  0.2661323E-011  0.5052879E+02  0.7816164E-02  0.1300439E+00
        -11   -1    0    0    0    0  0.00000000000E+00  0.00000000000E+00  0.45593999997E+02  0.45594000000E+02  0.51100000000E-03 0. -1.
         11   -1    0    0    0    0 -0.00000000000E+00 -0.00000000000E+00 -0.45593999997E+02  0.45594000000E+02  0.51100000000E-03 0.  1.
    9900012    2    1    2    0    0  0.22679383084E+02  0.82034320341E+01 -0.32734088958E+02  0.50528790784E+02  0.29999790065E+02 0.  0.
         12    1    1    2    0    0 -0.22679383084E+02 -0.82034320341E+01  0.32734088958E+02  0.40659209216E+02  0.00000000000E+00 0. -1.
         11    1    3    3    0    0  0.25368158275E+02  0.50979318126E+00 -0.29714036076E+02  0.39073357720E+02  0.51100000000E-03 0. -1.
        -11    1    3    3    0    0  0.14443795700E+01  0.56472986357E+01 -0.35311281940E+01  0.68152095203E+01  0.51100000000E-03 0.  1.
        -12    1    3    3    0    0 -0.41331547604E+01  0.20463402171E+01  0.51107531223E+00  0.46402235434E+01  0.00000000000E+00 0.  1.
</event>
<event>
 7    1  0.2661323E-011  0.5052886E+02  0.7816164E-02  0.1300439E+00
        -11   -1    0    0    0    0  0.00000000000E+00  0.00000000000E+00  0.45593999997E+02  0.45594000000E+02  0.51100000000E-03 0.  1.
         11   -1    0    0    0    0 -0.00000000000E+00 -0.00000000000E+00 -0.45593999997E+02  0.45594000000E+02  0.51100000000E-03 0. -1.
    9900012    2    1    2    0    0  0.89497543586E+01  0.27985163109E+02  0.28105131583E+02  0.50528857380E+02  0.29999992492E+02 0.  0.
         12    1    1    2    0    0 -0.89497543586E+01 -0.27985163109E+02 -0.28105131583E+02  0.40659142620E+02  0.00000000000E+00 0. -1.
         11    1    3    3    0    0 -0.31320631197E+01 -0.64020836658E+00  0.27986154436E+01  0.42487568535E+01  0.51100000000E-03 0. -1.
        -11    1    3    3    0    0  0.67875566979E+01  0.30941254334E+02  0.16419555017E+02  0.35679601075E+02  0.51100000000E-03 0.  1.
         12    1    3    3    0    0  0.52942607803E+01 -0.23158828582E+01  0.88869611221E+01  0.10600499451E+02  0.00000000000E+00 0. -1.
</event>
<event>
 7    1  0.2661323E-011  0.5052886E+02  0.7816164E-02  0.1300439E+00
        -11   -1    0    0    0    0  0.00000000000E+00  0.00000000000E+00  0.45593999997E+02  0.45594000000E+02  0.51100000000E-03 0.  1.
         11   -1    0    0    0    0 -0.00000000000E+00 -0.00000000000E+00 -0.45593999997E+02  0.45594000000E+02  0.51100000000E-03 0. -1.
    9900012    2    1    2    0    0 -0.38770546881E+02 -0.11844863366E+02  0.31160201735E+01  0.50528859880E+02  0.30000000090E+02 0.  0.
         12    1    1    2    0    0  0.38770546881E+02  0.11844863366E+02 -0.31160201735E+01  0.40659140120E+02  0.00000000000E+00 0. -1.
         11    1    3    3    0    0 -0.17584600300E+02  0.59982913737E+01  0.69550712610E+01  0.19838615971E+02  0.51100000000E-03 0. -1.
        -11    1    3    3    0    0 -0.45089117544E+01  0.11969136251E+01  0.13422847497E+01  0.48543399186E+01  0.51100000000E-03 0.  1.
         12    1    3    3    0    0 -0.16677034826E+02 -0.19040068365E+02 -0.51813358372E+01  0.25835903990E+02  0.00000000000E+00 0. -1.
</event>
<event>
 7    1  0.2661323E-011  0.5052886E+02  0.7816164E-02  0.1300439E+00
        -11   -1    0    0    0    0  0.00000000000E+00  0.00000000000E+00  0.45593999997E+02  0.45594000000E+02  0.51100000000E-03 0.  1.
         11   -1    0    0    0    0 -0.00000000000E+00 -0.00000000000E+00 -0.45593999997E+02  0.45594000000E+02  0.51100000000E-03 0. -1.
    9900012    2    1    2    0    0  0.19067944975E+02  0.89938353287E+01  0.34766220422E+02  0.50528859799E+02  0.29999999844E+02 0.  0.
         12    1    1    2    0    0 -0.19067944975E+02 -0.89938353287E+01 -0.34766220422E+02  0.40659140201E+02  0.00000000000E+00 0. -1.
         11    1    3    3    0    0  0.19467762887E+01  0.34164051843E+01  0.23195648381E+01  0.45653196603E+01  0.51100000000E-03 0. -1.
        -11    1    3    3    0    0  0.80085166875E+01  0.15950157615E+02  0.23508200175E+02  0.29515747377E+02  0.51100000000E-03 0.  1.
         12    1    3    3    0    0  0.91126519988E+01 -0.10372727471E+02  0.89384554087E+01  0.16447792761E+02  0.00000000000E+00 0. -1.
</event>
<event>
 7    1  0.2661323E-011  0.5052887E+02  0.7816164E-02  0.1300439E+00
        -11   -1    0    0    0    0  0.00000000000E+00  0.00000000000E+00  0.45593999997E+02  0.45594000000E+02  0.51100000000E-03 0. -1.
         11   -1    0    0    0    0 -0.00000000000E+00 -0.00000000000E+00 -0.45593999997E+02  0.45594000000E+02  0.51100000000E-03 0.  1.
    9900012    2    1    2    0    0 -0.15540769105E+02 -0.21654935774E+02 -0.30703635443E+02  0.50528868465E+02  0.30000026185E+02 0.  0.
         12    1    1    2    0    0  0.15540769105E+02  0.21654935774E+02  0.30703635443E+02  0.40659131535E+02  0.00000000000E+00 0. -1.
         11    1    3    3    0    0 -0.99592798831E+01 -0.89635255876E+01 -0.47794650111E+01  0.14225868438E+02  0.51100000000E-03 0. -1.
        -11    1    3    3    0    0  0.36132927779E+01 -0.13745090599E+02 -0.84637746500E+01  0.16541429257E+02  0.51100000000E-03 0.  1.
         12    1    3    3    0    0 -0.91947820002E+01  0.10536804124E+01 -0.17460395782E+02  0.19761570770E+02  0.00000000000E+00 0. -1.
</event>
<event>
 7    1  0.2661323E-011  0.5052886E+02  0.7816164E-02  0.1300439E+00
        -11   -1    0    0    0    0  0.00000000000E+00  0.00000000000E+00  0.45593999997E+02  0.45594000000E+02  0.51100000000E-03 0.  1.
         11   -1    0    0    0    0 -0.00000000000E+00 -0.00000000000E+00 -0.45593999997E+02  0.45594000000E+02  0.51100000000E-03 0. -1.
    9900012    2    1    2    0    0  0.39877264669E+01  0.17823954058E+01  0.40423836742E+02  0.50528862371E+02  0.30000007664E+02 0.  0.
         12    1    1    2    0    0 -0.39877264669E+01 -0.17823954058E+01 -0.40423836742E+02  0.40659137629E+02  0.00000000000E+00 0. -1.
         11    1    3    3    0    0  0.44917436514E+01 -0.26385681280E+01  0.15108315188E+02  0.15981207429E+02  0.51100000000E-03 0.  1.
        -11    1    3    3    0    0  0.68080690426E+01  0.60223782836E+00  0.25394418447E+02  0.26298079455E+02  0.51100000000E-03 0. -1.
         12    1    3    3    0    0 -0.73120862272E+01  0.38187257054E+01 -0.78896893062E-01  0.82495754877E+01  0.00000000000E+00 0. -1.
</event>
<event>
 7    1  0.2661323E-011  0.5052885E+02  0.7816164E-02  0.1300439E+00
        -11   -1    0    0    0    0  0.00000000000E+00  0.00000000000E+00  0.45593999997E+02  0.45594000000E+02  0.51100000000E-03 0.  1.
         11   -1    0    0    0    0 -0.00000000000E+00 -0.00000000000E+00 -0.45593999997E+02  0.45594000000E+02  0.51100000000E-03 0. -1.
    9900012    2    1    2    0    0  0.31816296727E+02 -0.22903266730E+02  0.10785629746E+02  0.50528853755E+02  0.29999981473E+02 0.  0.
         12    1    1    2    0    0 -0.31816296727E+02  0.22903266730E+02 -0.10785629746E+02  0.40659146245E+02  0.00000000000E+00 0. -1.
         11    1    3    3    0    0 -0.11927375693E+01 -0.60178147602E+01 -0.12999766242E+01  0.62710969441E+01  0.51100000000E-03 0.  1.
        -11    1    3    3    0    0 -0.15649259459E+01 -0.52884702970E+01 -0.81709466968E+00  0.55753524784E+01  0.51100000000E-03 0. -1.
        -12    1    3    3    0    0  0.34573960243E+02 -0.11596981673E+02  0.12902701040E+02  0.38682404332E+02  0.00000000000E+00 0.  1.
</event>
<event>
 7    1  0.2661323E-011  0.5052886E+02  0.7816164E-02  0.1300439E+00
        -11   -1    0    0    0    0  0.00000000000E+00  0.00000000000E+00  0.45593999997E+02  0.45594000000E+02  0.51100000000E-03 0. -1.
         11   -1    0    0    0    0 -0.00000000000E+00 -0.00000000000E+00 -0.45593999997E+02  0.45594000000E+02  0.51100000000E-03 0.  1.
    9900012    2    1    2    0    0 -0.21859228318E+02 -0.11650292269E+02  0.32242991901E+02  0.50528859585E+02  0.29999999193E+02 0.  0.
         12    1    1    2    0    0  0.21859228318E+02  0.11650292269E+02 -0.32242991901E+02  0.40659140415E+02  0.00000000000E+00 0. -1.
         11    1    3    3    0    0  0.24569846420E+01 -0.11984679762E+02  0.15606015808E+02  0.19829701264E+02  0.51100000000E-03 0. -1.
        -11    1    3    3    0    0 -0.46003627436E+01 -0.28280841973E+01  0.60093101247E+01  0.80791835006E+01  0.51100000000E-03 0.  1.
        -12    1    3    3    0    0 -0.19715850217E+02  0.31624716908E+01  0.10627665968E+02  0.22619974820E+02  0.00000000000E+00 0.  1.
</event>
<event>
 7    1  0.2661323E-011  0.5052885E+02  0.7816164E-02  0.1300439E+00
        -11   -1    0    0    0    0  0.00000000000E+00  0.00000000000E+00  0.45593999997E+02  0.45594000000E+02  0.51100000000E-03 0.  1.
         11   -1    0    0    0    0 -0.00000000000E+00 -0.00000000000E+00 -0.45593999997E+02  0.45594000000E+02  0.51100000000E-03 0. -1.
    9900012    2    1    2    0    0  0.12496572401E+02 -0.85258350457E+01  0.37740066315E+02  0.50528846167E+02  0.29999958409E+02 0.  0.
         12    1    1    2    0    0 -0.12496572401E+02  0.85258350457E+01 -0.37740066315E+02  0.40659153833E+02  0.00000000000E+00 0. -1.
         11    1    3    3    0    0  0.56520278791E+01 -0.10317328370E+02  0.37132049775E+01  0.12336149128E+02  0.51100000000E-03 0. -1.
        -11    1    3    3    0    0  0.71200059894E+01 -0.33233448297E+01  0.65121399686E+01  0.10205247345E+02  0.51100000000E-03 0.  1.
         12    1    3    3    0    0 -0.27546146771E+00  0.51148381542E+01  0.27514721368E+02  0.27987449694E+02  0.00000000000E+00 0. -1.
</event>
<event>
 7    1  0.2661323E-011  0.5052885E+02  0.7816164E-02  0.1300439E+00
        -11   -1    0    0    0    0  0.00000000000E+00  0.00000000000E+00  0.45593999997E+02  0.45594000000E+02  0.51100000000E-03 0.  1.
         11   -1    0    0    0    0 -0.00000000000E+00 -0.00000000000E+00 -0.45593999997E+02  0.45594000000E+02  0.51100000000E-03 0. -1.
    9900012    2    1    2    0    0 -0.22052162063E+02  0.34123046981E+02 -0.15767442988E+01  0.50528852081E+02  0.29999976384E+02 0.  0.
         12    1    1    2    0    0  0.22052162063E+02 -0.34123046981E+02  0.15767442988E+01  0.40659147919E+02  0.00000000000E+00 0. -1.
         11    1    3    3    0    0 -0.89794465527E+01  0.39154097048E+01 -0.19181413313E-01  0.97959819180E+01  0.51100000000E-03 0. -1.
        -11    1    3    3    0    0 -0.10710786355E+02  0.27427325820E+01 -0.63544338888E+01  0.12752347104E+02  0.51100000000E-03 0.  1.
        -12    1    3    3    0    0 -0.23619291555E+01  0.27464904695E+02  0.47968710033E+01  0.27980523059E+02  0.00000000000E+00 0.  1.
</event>
<event>
 7    1  0.2661323E-011  0.5052887E+02  0.7816164E-02  0.1300439E+00
        -11   -1    0    0    0    0  0.00000000000E+00  0.00000000000E+00  0.45593999997E+02  0.45594000000E+02  0.51100000000E-03 0. -1.
         11   -1    0    0    0    0 -0.00000000000E+00 -0.00000000000E+00 -0.45593999997E+02  0.45594000000E+02  0.51100000000E-03 0.  1.
    9900012    2    1    2    0    0 -0.86403438911E+00 -0.71563944564E+01 -0.40015049918E+02  0.50528871173E+02  0.30000034418E+02 0.  0.
         12    1    1    2    0    0  0.86403438911E+00  0.71563944564E+01  0.40015049918E+02  0.40659128827E+02  0.00000000000E+00 0. -1.
         11    1    3    3    0    0  0.15959276685E+01  0.10136049991E+02 -0.10075978642E+02  0.14380954085E+02  0.51100000000E-03 0. -1.
        -11    1    3    3    0    0 -0.13735227515E+01 -0.48058326479E+01 -0.17462254205E+01  0.52945156217E+01  0.51100000000E-03 0.  1.
        -12    1    3    3    0    0 -0.10864393061E+01 -0.12486611800E+02 -0.28192845856E+02  0.30853401466E+02  0.00000000000E+00 0.  1.
</event>
<event>
 7    1  0.2661323E-011  0.5052886E+02  0.7816164E-02  0.1300439E+00
        -11   -1    0    0    0    0  0.00000000000E+00  0.00000000000E+00  0.45593999997E+02  0.45594000000E+02  0.51100000000E-03 0.  1.
         11   -1    0    0    0    0 -0.00000000000E+00 -0.00000000000E+00 -0.45593999997E+02  0.45594000000E+02  0.51100000000E-03 0. -1.
    9900012    2    1    2    0    0 -0.26366773606E+02  0.71873508810E+01  0.30104828761E+02  0.50528862308E+02  0.30000007473E+02 0.  0.
         12    1    1    2    0    0  0.26366773606E+02 -0.71873508810E+01 -0.30104828761E+02  0.40659137692E+02  0.00000000000E+00 0. -1.
         11    1    3    3    0    0 -0.73755245417E+01  0.68942294105E+01 -0.75374154238E+00  0.10124074674E+02  0.51100000000E-03 0. -1.
        -11    1    3    3    0    0 -0.15005919578E+01  0.58650914240E+01  0.23430804285E+01  0.64916176560E+01  0.51100000000E-03 0.  1.
        -12    1    3    3    0    0 -0.17490657106E+02 -0.55719699534E+01  0.28515489875E+02  0.33913169979E+02  0.00000000000E+00 0.  1.
</event>
<event>
 7    1  0.2661323E-011  0.5052884E+02  0.7816164E-02  0.1300439E+00
        -11   -1    0    0    0    0  0.00000000000E+00  0.00000000000E+00  0.45593999997E+02  0.45594000000E+02  0.51100000000E-03 0. -1.
         11   -1    0    0    0    0 -0.00000000000E+00 -0.00000000000E+00 -0.45593999997E+02  0.45594000000E+02  0.51100000000E-03 0.  1.
    9900012    2    1    2    0    0 -0.17697504515E+02  0.30924064713E+02 -0.19587449738E+02  0.50528835822E+02  0.29999926963E+02 0.  0.
         12    1    1    2    0    0  0.17697504515E+02 -0.30924064713E+02  0.19587449738E+02  0.40659164178E+02  0.00000000000E+00 0. -1.
         11    1    3    3    0    0 -0.12791520075E+02  0.25179802036E+02 -0.60164112990E+01  0.28876333243E+02  0.51100000000E-03 0. -1.
        -11    1    3    3    0    0 -0.63612951161E+00  0.87385729001E+01 -0.13895623044E+02  0.16427283924E+02  0.51100000000E-03 0.  1.
         12    1    3    3    0    0 -0.42698549281E+01 -0.29943102228E+01  0.32458460456E+00  0.52252186541E+01  0.00000000000E+00 0. -1.
</event>
<event>
 7    1  0.2661323E-011  0.5052886E+02  0.7816164E-02  0.1300439E+00
        -11   -1    0    0    0    0  0.00000000000E+00  0.00000000000E+00  0.45593999997E+02  0.45594000000E+02  0.51100000000E-03 0. -1.
         11   -1    0    0    0    0 -0.00000000000E+00 -0.00000000000E+00 -0.45593999997E+02  0.45594000000E+02  0.51100000000E-03 0.  1.
    9900012    2    1    2    0    0  0.16996239861E+02 -0.33076951801E+02 -0.16438027574E+02  0.50528860063E+02  0.30000000648E+02 0.  0.
         12    1    1    2    0    0 -0.16996239861E+02  0.33076951801E+02  0.16438027574E+02  0.40659139937E+02  0.00000000000E+00 0. -1.
         11    1    3    3    0    0  0.14645519165E+02 -0.10575603049E+02 -0.56717015036E+01  0.18934170425E+02  0.51100000000E-03 0. -1.
        -11    1    3    3    0    0  0.70701029164E+01 -0.13502116798E+02  0.18965292843E+01  0.15358721850E+02  0.51100000000E-03 0.  1.
        -12    1    3    3    0    0 -0.47193822197E+01 -0.89992319538E+01 -0.12662855355E+02  0.16235967788E+02  0.00000000000E+00 0.  1.
</event>
<event>
 7    1  0.2661323E-011  0.5052885E+02  0.7816164E-02  0.1300439E+00
        -11   -1    0    0    0    0  0.00000000000E+00  0.00000000000E+00  0.45593999997E+02  0.45594000000E+02  0.51100000000E-03 0.  1.
         11   -1    0    0    0    0 -0.00000000000E+00 -0.00000000000E+00 -0.45593999997E+02  0.45594000000E+02  0.51100000000E-03 0. -1.
    9900012    2    1    2    0    0  0.33064977831E+02 -0.22858102918E+02  0.61139795363E+01  0.50528851291E+02  0.29999973984E+02 0.  0.
         12    1    1    2    0    0 -0.33064977831E+02  0.22858102918E+02 -0.61139795363E+01  0.40659148709E+02  0.00000000000E+00 0. -1.
         11    1    3    3    0    0  0.47514678370E+01 -0.24977708269E+01 -0.16903319673E+01  0.56278351193E+01  0.51100000000E-03 0. -1.
        -11    1    3    3    0    0  0.12503070706E+02  0.55722518161E+01  0.68547158022E+00  0.13705715557E+02  0.51100000000E-03 0.  1.
        -12    1    3    3    0    0  0.15810439289E+02 -0.25932583907E+02  0.71188399233E+01  0.31195300615E+02  0.00000000000E+00 0.  1.
</event>
<event>
 7    1  0.2661323E-011  0.5052887E+02  0.7816164E-02  0.1300439E+00
        -11   -1    0    0    0    0  0.00000000000E+00  0.00000000000E+00  0.45593999997E+02  0.45594000000E+02  0.51100000000E-03 0.  1.
         11   -1    0    0    0    0 -0.00000000000E+00 -0.00000000000E+00 -0.45593999997E+02  0.45594000000E+02  0.51100000000E-03 0. -1.
    9900012    2    1    2    0    0 -0.31197222913E+02 -0.13801017941E+02  0.22123070680E+02  0.50528867324E+02  0.30000022717E+02 0.  0.
         12    1    1    2    0    0  0.31197222913E+02  0.13801017941E+02 -0.22123070680E+02  0.40659132676E+02  0.00000000000E+00 0. -1.
         11    1    3    3    0    0 -0.23084245616E+02  0.23407172881E+01  0.18398916145E+02  0.29612184463E+02  0.51100000000E-03 0.  1.
        -11    1    3    3    0    0 -0.58152100094E+01 -0.20743342145E+01 -0.39937507327E-01  0.61742307337E+01  0.51100000000E-03 0. -1.
        -12    1    3    3    0    0 -0.22977672871E+01 -0.14067401015E+02  0.37640920425E+01  0.14742452127E+02  0.00000000000E+00 0.  1.
</event>
<event>
 7    1  0.2661323E-011  0.5052888E+02  0.7816164E-02  0.1300439E+00
        -11   -1    0    0    0    0  0.00000000000E+00  0.00000000000E+00  0.45593999997E+02  0.45594000000E+02  0.51100000000E-03 0.  1.
         11   -1    0    0    0    0 -0.00000000000E+00 -0.00000000000E+00 -0.45593999997E+02  0.45594000000E+02  0.51100000000E-03 0. -1.
    9900012    2    1    2    0    0 -0.16182384626E+02 -0.37288476351E+02  0.92942548086E+00  0.50528882050E+02  0.30000067480E+02 0.  0.
         12    1    1    2    0    0  0.16182384626E+02  0.37288476351E+02 -0.92942548086E+00  0.40659117950E+02  0.00000000000E+00 0. -1.
         11    1    3    3    0    0 -0.66373009754E+00  0.13433717690E+00 -0.44430049830E+01  0.44943161504E+01  0.51100000000E-03 0. -1.
        -11    1    3    3    0    0 -0.17557854257E+02 -0.22892822570E+02 -0.32225762002E+01  0.29030063193E+02  0.51100000000E-03 0.  1.
         12    1    3    3    0    0  0.20391997290E+01 -0.14529990957E+02  0.85950066640E+01  0.17004502707E+02  0.00000000000E+00 0. -1.
</event>
<event>
 7    1  0.2661323E-011  0.5052888E+02  0.7816164E-02  0.1300439E+00
        -11   -1    0    0    0    0  0.00000000000E+00  0.00000000000E+00  0.45593999997E+02  0.45594000000E+02  0.51100000000E-03 0. -1.
         11   -1    0    0    0    0 -0.00000000000E+00 -0.00000000000E+00 -0.45593999997E+02  0.45594000000E+02  0.51100000000E-03 0.  1.
    9900012    2    1    2    0    0 -0.58912184751E+01 -0.24433156487E+02 -0.31960575725E+02  0.50528880583E+02  0.30000063021E+02 0.  0.
         12    1    1    2    0    0  0.58912184751E+01  0.24433156487E+02  0.31960575725E+02  0.40659119417E+02  0.00000000000E+00 0. -1.
         11    1    3    3    0    0 -0.78449488057E+01 -0.16264740414E+02 -0.34548424661E+01  0.18385345774E+02  0.51100000000E-03 0. -1.
        -11    1    3    3    0    0  0.63704295198E+00  0.88962035680E+00  0.85531329356E+00  0.13888157521E+01  0.51100000000E-03 0.  1.
        -12    1    3    3    0    0  0.13166873787E+01 -0.90580364297E+01 -0.29361046553E+02  0.30754719057E+02  0.00000000000E+00 0.  1.
</event>
<event>
 7    1  0.2661323E-011  0.5052886E+02  0.7816164E-02  0.1300439E+00
        -11   -1    0    0    0    0  0.00000000000E+00  0.00000000000E+00  0.45593999997E+02  0.45594000000E+02  0.51100000000E-03 0.  1.
         11   -1    0    0    0    0 -0.00000000000E+00 -0.00000000000E+00 -0.45593999997E+02  0.45594000000E+02  0.51100000000E-03 0. -1.
    9900012    2    1    2    0    0  0.20792914831E+02 -0.11648905835E+02  0.32941212131E+02  0.50528858703E+02  0.29999996515E+02 0.  0.
         12    1    1    2    0    0 -0.20792914831E+02  0.11648905835E+02 -0.32941212131E+02  0.40659141297E+02  0.00000000000E+00 0. -1.
         11    1    3    3    0    0 -0.21559598364E+01  0.29448762262E+00  0.10620859257E+01  0.24213451944E+01  0.51100000000E-03 0.  1.
        -11    1    3    3    0    0  0.15131036396E+02 -0.39977861597E+01  0.14692637950E+01  0.15719074177E+02  0.51100000000E-03 0. -1.
         12    1    3    3    0    0  0.78178382710E+01 -0.79456072977E+01  0.30409862410E+02  0.32388439332E+02  0.00000000000E+00 0. -1.
</event>
<event>
 7    1  0.2661323E-011  0.5052876E+02  0.7816164E-02  0.1300439E+00
        -11   -1    0    0    0    0  0.00000000000E+00  0.00000000000E+00  0.45593999997E+02  0.45594000000E+02  0.51100000000E-03 0. -1.
         11   -1    0    0    0    0 -0.00000000000E+00 -0.00000000000E+00 -0.45593999997E+02  0.45594000000E+02  0.51100000000E-03 0.  1.
    9900012    2    1    2    0    0 -0.24904199099E+02  0.74074138195E+01 -0.31274351111E+02  0.50528758127E+02  0.29999690803E+02 0.  0.
         12    1    1    2    0    0  0.24904199099E+02 -0.74074138195E+01  0.31274351111E+02  0.40659241873E+02  0.00000000000E+00 0. -1.
         11    1    3    3    0    0 -0.22448811307E+01  0.53002711677E+01  0.12053534625E+01  0.58809219492E+01  0.51100000000E-03 0. -1.
        -11    1    3    3    0    0 -0.10047105252E+02 -0.88644522981E+01 -0.10440255026E+02  0.16985928404E+02  0.51100000000E-03 0.  1.
         12    1    3    3    0    0 -0.12612212716E+02  0.10971594950E+02 -0.22039449548E+02  0.27661907774E+02  0.00000000000E+00 0. -1.
</event>
<event>
 7    1  0.2661323E-011  0.5052886E+02  0.7816164E-02  0.1300439E+00
        -11   -1    0    0    0    0  0.00000000000E+00  0.00000000000E+00  0.45593999997E+02  0.45594000000E+02  0.51100000000E-03 0. -1.
         11   -1    0    0    0    0 -0.00000000000E+00 -0.00000000000E+00 -0.45593999997E+02  0.45594000000E+02  0.51100000000E-03 0.  1.
    9900012    2    1    2    0    0  0.93067090300E+01  0.24649399885E+02 -0.30967049064E+02  0.50528857419E+02  0.29999992611E+02 0.  0.
         12    1    1    2    0    0 -0.93067090300E+01 -0.24649399885E+02  0.30967049064E+02  0.40659142581E+02  0.00000000000E+00 0. -1.
         11    1    3    3    0    0 -0.13428488719E+01  0.14982345166E+02 -0.85497101194E+01  0.17302353978E+02  0.51100000000E-03 0. -1.
        -11    1    3    3    0    0 -0.36605720513E+01  0.53407574542E+01 -0.23804414848E+00  0.64792085322E+01  0.51100000000E-03 0.  1.
        -12    1    3    3    0    0  0.14310129953E+02  0.43262972648E+01 -0.22179294796E+02  0.26747294909E+02  0.00000000000E+00 0.  1.
</event>
<event>
 7    1  0.2661323E-011  0.5052887E+02  0.7816164E-02  0.1300439E+00
        -11   -1    0    0    0    0  0.00000000000E+00  0.00000000000E+00  0.45593999997E+02  0.45594000000E+02  0.51100000000E-03 0.  1.
         11   -1    0    0    0    0 -0.00000000000E+00 -0.00000000000E+00 -0.45593999997E+02  0.45594000000E+02  0.51100000000E-03 0. -1.
    9900012    2    1    2    0    0  0.44307869063E+01  0.18807422326E+02  0.35774488855E+02  0.50528867446E+02  0.30000023089E+02 0.  0.
         12    1    1    2    0    0 -0.44307869063E+01 -0.18807422326E+02 -0.35774488855E+02  0.40659132554E+02  0.00000000000E+00 0. -1.
         11    1    3    3    0    0 -0.12061624137E+01  0.82713436235E+01 -0.54946266164E+00  0.83768647228E+01  0.51100000000E-03 0. -1.
        -11    1    3    3    0    0 -0.39337511140E+01 -0.13104106513E+01  0.20048910168E+01  0.46055577460E+01  0.51100000000E-03 0.  1.
        -12    1    3    3    0    0  0.95707004340E+01  0.11846489354E+02  0.34319060500E+02  0.37546444977E+02  0.00000000000E+00 0.  1.
</event>
<event>
 7    1  0.2661323E-011  0.5052885E+02  0.7816164E-02  0.1300439E+00
        -11   -1    0    0    0    0  0.00000000000E+00  0.00000000000E+00  0.45593999997E+02  0.45594000000E+02  0.51100000000E-03 0.  1.
         11   -1    0    0    0    0 -0.00000000000E+00 -0.00000000000E+00 -0.45593999997E+02  0.45594000000E+02  0.51100000000E-03 0. -1.
    9900012    2    1    2    0    0 -0.30450256257E+02 -0.11522501575E+01  0.26918777378E+02  0.50528851435E+02  0.29999974421E+02 0.  0.
         12    1    1    2    0    0  0.30450256257E+02  0.11522501575E+01 -0.26918777378E+02  0.40659148565E+02  0.00000000000E+00 0. -1.
         11    1    3    3    0    0 -0.19277590181E+02 -0.14492165835E+01  0.69752124108E+01  0.20551868536E+02  0.51100000000E-03 0. -1.
        -11    1    3    3    0    0 -0.60426583483E+01  0.94646659756E+01  0.13857332944E+02  0.17835899151E+02  0.51100000000E-03 0.  1.
         12    1    3    3    0    0 -0.51300077271E+01 -0.91676995496E+01  0.60862320230E+01  0.12141083747E+02  0.00000000000E+00 0. -1.
</event>
<event>
 7    1  0.2661323E-011  0.5052886E+02  0.7816164E-02  0.1300439E+00
        -11   -1    0    0    0    0  0.00000000000E+00  0.00000000000E+00  0.45593999997E+02  0.45594000000E+02  0.51100000000E-03 0. -1.
         11   -1    0    0    0    0 -0.00000000000E+00 -0.00000000000E+00 -0.45593999997E+02  0.45594000000E+02  0.51100000000E-03 0.  1.
    9900012    2    1    2    0    0 -0.17233774086E+02  0.29654423821E+02 -0.21835248749E+02  0.50528857002E+02  0.29999991345E+02 0.  0.
         12    1    1    2    0    0  0.17233774086E+02 -0.29654423821E+02  0.21835248749E+02  0.40659142998E+02  0.00000000000E+00 0. -1.
         11    1    3    3    0    0  0.33146682316E+01  0.11623533775E+02 -0.71145515966E+01  0.14025348751E+02  0.51100000000E-03 0. -1.
        -11    1    3    3    0    0 -0.58120733635E+01  0.17527961374E+02 -0.10119123468E+02  0.21057214601E+02  0.51100000000E-03 0.  1.
         12    1    3    3    0    0 -0.14736368954E+02  0.50292867202E+00 -0.46015736842E+01  0.15446293651E+02  0.00000000000E+00 0. -1.
</event>
<event>
 7    1  0.2661323E-011  0.5052887E+02  0.7816164E-02  0.1300439E+00
        -11   -1    0    0    0    0  0.00000000000E+00  0.00000000000E+00  0.45593999997E+02  0.45594000000E+02  0.51100000000E-03 0. -1.
         11   -1    0    0    0    0 -0.00000000000E+00 -0.00000000000E+00 -0.45593999997E+02  0.45594000000E+02  0.51100000000E-03 0.  1.
    9900012    2    1    2    0    0 -0.88332636002E+00 -0.54851709797E+01 -0.40277758084E+02  0.50528866187E+02  0.30000019263E+02 0.  0.
         12    1    1    2    0    0  0.88332636002E+00  0.54851709797E+01  0.40277758084E+02  0.40659133813E+02  0.00000000000E+00 0. -1.
         11    1    3    3    0    0 -0.45483621416E+01 -0.31533499281E+01 -0.22358256263E+02  0.23033081368E+02  0.51100000000E-03 0. -1.
        -11    1    3    3    0    0 -0.52212233953E+01 -0.64833879448E+01 -0.15179210648E+02  0.17311959136E+02  0.51100000000E-03 0.  1.
         12    1    3    3    0    0  0.88862591770E+01  0.41515668932E+01 -0.27402911733E+01  0.10183825683E+02  0.00000000000E+00 0. -1.
</event>
<event>
 7    1  0.2661323E-011  0.5052887E+02  0.7816164E-02  0.1300439E+00
        -11   -1    0    0    0    0  0.00000000000E+00  0.00000000000E+00  0.45593999997E+02  0.45594000000E+02  0.51100000000E-03 0. -1.
         11   -1    0    0    0    0 -0.00000000000E+00 -0.00000000000E+00 -0.45593999997E+02  0.45594000000E+02  0.51100000000E-03 0.  1.
    9900012    2    1    2    0    0  0.30353344713E+02  0.10034338098E+02 -0.25122722454E+02  0.50528872368E+02  0.30000038050E+02 0.  0.
         12    1    1    2    0    0 -0.30353344713E+02 -0.10034338098E+02  0.25122722454E+02  0.40659127632E+02  0.00000000000E+00 0. -1.
         11    1    3    3    0    0  0.19139097770E+02  0.16094587976E+02 -0.10393699495E+02  0.27080801595E+02  0.51100000000E-03 0. -1.
        -11    1    3    3    0    0  0.59536467456E+01  0.36791990227E+01 -0.41511925530E+01  0.81372486071E+01  0.51100000000E-03 0.  1.
        -12    1    3    3    0    0  0.52606001971E+01 -0.97394489005E+01 -0.10577830406E+02  0.15310822166E+02  0.00000000000E+00 0.  1.
</event>
<event>
 7    1  0.2661323E-011  0.5052886E+02  0.7816164E-02  0.1300439E+00
        -11   -1    0    0    0    0  0.00000000000E+00  0.00000000000E+00  0.45593999997E+02  0.45594000000E+02  0.51100000000E-03 0.  1.
         11   -1    0    0    0    0 -0.00000000000E+00 -0.00000000000E+00 -0.45593999997E+02  0.45594000000E+02  0.51100000000E-03 0. -1.
    9900012    2    1    2    0    0 -0.71859915935E+01 -0.34772263902E+02  0.19809507725E+02  0.50528863163E+02  0.30000010070E+02 0.  0.
         12    1    1    2    0    0  0.71859915935E+01  0.34772263902E+02 -0.19809507725E+02  0.40659136837E+02  0.00000000000E+00 0. -1.
         11    1    3    3    0    0 -0.74523870181E+01  0.14028657351E+01  0.33910064219E+01  0.83069265889E+01  0.51100000000E-03 0. -1.
        -11    1    3    3    0    0 -0.91893205261E+00 -0.16423545101E+02 -0.94768491595E-01  0.16449506106E+02  0.51100000000E-03 0.  1.
        -12    1    3    3    0    0  0.11853274773E+01 -0.19751584536E+02  0.16513269795E+02  0.25772430467E+02  0.00000000000E+00 0.  1.
</event>
<event>
 7    1  0.2661323E-011  0.5052888E+02  0.7816164E-02  0.1300439E+00
        -11   -1    0    0    0    0  0.00000000000E+00  0.00000000000E+00  0.45593999997E+02  0.45594000000E+02  0.51100000000E-03 0.  1.
         11   -1    0    0    0    0 -0.00000000000E+00 -0.00000000000E+00 -0.45593999997E+02  0.45594000000E+02  0.51100000000E-03 0. -1.
    9900012    2    1    2    0    0 -0.30813712522E+02 -0.15709177641E+02  0.21375245230E+02  0.50528877406E+02  0.30000053362E+02 0.  0.
         12    1    1    2    0    0  0.30813712522E+02  0.15709177641E+02 -0.21375245230E+02  0.40659122594E+02  0.00000000000E+00 0. -1.
         11    1    3    3    0    0 -0.28367589388E+02 -0.10978726217E+02  0.19126057142E+02  0.35931304166E+02  0.51100000000E-03 0. -1.
        -11    1    3    3    0    0 -0.39942749566E+01  0.28542350271E+01  0.43686368382E+01  0.65715963133E+01  0.51100000000E-03 0.  1.
         12    1    3    3    0    0  0.15481518226E+01 -0.75846864506E+01 -0.21194487501E+01  0.80259769265E+01  0.00000000000E+00 0. -1.
</event>
<event>
 7    1  0.2661323E-011  0.5052885E+02  0.7816164E-02  0.1300439E+00
        -11   -1    0    0    0    0  0.00000000000E+00  0.00000000000E+00  0.45593999997E+02  0.45594000000E+02  0.51100000000E-03 0.  1.
         11   -1    0    0    0    0 -0.00000000000E+00 -0.00000000000E+00 -0.45593999997E+02  0.45594000000E+02  0.51100000000E-03 0. -1.
    9900012    2    1    2    0    0  0.23637354225E+02 -0.22835040074E+02  0.23937471866E+02  0.50528854297E+02  0.29999983121E+02 0.  0.
         12    1    1    2    0    0 -0.23637354225E+02  0.22835040074E+02 -0.23937471866E+02  0.40659145703E+02  0.00000000000E+00 0. -1.
         11    1    3    3    0    0  0.72652660776E+01 -0.18703398302E+02  0.16151375870E+02  0.25757875339E+02  0.51100000000E-03 0. -1.
        -11    1    3    3    0    0  0.96622002567E+01 -0.74205011778E+01  0.11206163329E+02  0.16552946818E+02  0.51100000000E-03 0.  1.
         12    1    3    3    0    0  0.67098878910E+01  0.32888594050E+01 -0.34200673334E+01  0.82180321404E+01  0.00000000000E+00 0. -1.
</event>
<event>
 7    1  0.2661323E-011  0.5052887E+02  0.7816164E-02  0.1300439E+00
        -11   -1    0    0    0    0  0.00000000000E+00  0.00000000000E+00  0.45593999997E+02  0.45594000000E+02  0.51100000000E-03 0.  1.
         11   -1    0    0    0    0 -0.00000000000E+00 -0.00000000000E+00 -0.45593999997E+02  0.45594000000E+02  0.51100000000E-03 0. -1.
    9900012    2    1    2    0    0  0.28520005757E+02  0.53815620679E+01  0.28474776499E+02  0.50528870209E+02  0.30000031487E+02 0.  0.
         12    1    1    2    0    0 -0.28520005757E+02 -0.53815620679E+01 -0.28474776499E+02  0.40659129791E+02  0.00000000000E+00 0. -1.
         11    1    3    3    0    0  0.15506817096E+02  0.12570985755E+02  0.11168358152E+02  0.22874074481E+02  0.51100000000E-03 0. -1.
        -11    1    3    3    0    0  0.15115058275E+02 -0.11309915820E+01  0.12099583561E+02  0.19394433512E+02  0.51100000000E-03 0.  1.
        -12    1    3    3    0    0 -0.21018696144E+01 -0.60584321052E+01  0.52068347863E+01  0.82603622161E+01  0.00000000000E+00 0.  1.
</event>
<event>
 7    1  0.2661323E-011  0.5052886E+02  0.7816164E-02  0.1300439E+00
        -11   -1    0    0    0    0  0.00000000000E+00  0.00000000000E+00  0.45593999997E+02  0.45594000000E+02  0.51100000000E-03 0.  1.
         11   -1    0    0    0    0 -0.00000000000E+00 -0.00000000000E+00 -0.45593999997E+02  0.45594000000E+02  0.51100000000E-03 0. -1.
    9900012    2    1    2    0    0 -0.22316115657E+02 -0.16047409415E+02  0.29960594891E+02  0.50528860644E+02  0.30000002414E+02 0.  0.
         12    1    1    2    0    0  0.22316115657E+02  0.16047409415E+02 -0.29960594891E+02  0.40659139356E+02  0.00000000000E+00 0. -1.
         11    1    3    3    0    0 -0.15156408268E+01  0.31515604271E+01 -0.90149832075E+00  0.36113985830E+01  0.51100000000E-03 0. -1.
        -11    1    3    3    0    0  0.39095245638E+01 -0.28253272899E+01  0.11740649117E+01  0.49644018056E+01  0.51100000000E-03 0.  1.
        -12    1    3    3    0    0 -0.24709999394E+02 -0.16373642552E+02  0.29688028300E+02  0.41953060256E+02  0.00000000000E+00 0.  1.
</event>
<event>
 7    1  0.2661323E-011  0.5052889E+02  0.7816164E-02  0.1300439E+00
        -11   -1    0    0    0    0  0.00000000000E+00  0.00000000000E+00  0.45593999997E+02  0.45594000000E+02  0.51100000000E-03 0.  1.
         11   -1    0    0    0    0 -0.00000000000E+00 -0.00000000000E+00 -0.45593999997E+02  0.45594000000E+02  0.51100000000E-03 0. -1.
    9900012    2    1    2    0    0  0.27799707553E+02  0.15716860985E+02  0.25165842200E+02  0.50528891883E+02  0.30000097366E+02 0.  0.
         12    1    1    2    0    0 -0.27799707553E+02 -0.15716860985E+02 -0.25165842200E+02  0.40659108117E+02  0.00000000000E+00 0. -1.
         11    1    3    3    0    0  0.88782730296E+00  0.21830579125E+01 -0.15460272144E+01  0.28185421015E+01  0.51100000000E-03 0. -1.
        -11    1    3    3    0    0 -0.45072338667E+01  0.27743297193E+01  0.79971431790E+01  0.95899093743E+01  0.51100000000E-03 0.  1.
         12    1    3    3    0    0  0.31419114117E+02  0.10759473353E+02  0.18714726236E+02  0.38120440407E+02  0.00000000000E+00 0. -1.
</event>
<event>
 7    1  0.2661323E-011  0.5052886E+02  0.7816164E-02  0.1300439E+00
        -11   -1    0    0    0    0  0.00000000000E+00  0.00000000000E+00  0.45593999997E+02  0.45594000000E+02  0.51100000000E-03 0.  1.
         11   -1    0    0    0    0 -0.00000000000E+00 -0.00000000000E+00 -0.45593999997E+02  0.45594000000E+02  0.51100000000E-03 0. -1.
    9900012    2    1    2    0    0 -0.11360478585E+02 -0.25356555969E+02  0.29684173154E+02  0.50528861542E+02  0.30000005144E+02 0.  0.
         12    1    1    2    0    0  0.11360478585E+02  0.25356555969E+02 -0.29684173154E+02  0.40659138458E+02  0.00000000000E+00 0. -1.
         11    1    3    3    0    0  0.19274942779E+01  0.37995836572E+01  0.85799120613E+00  0.43460579069E+01  0.51100000000E-03 0. -1.
        -11    1    3    3    0    0 -0.10966629689E+02 -0.78079058297E+01  0.56858623459E+01  0.14613671375E+02  0.51100000000E-03 0.  1.
         12    1    3    3    0    0 -0.23213431729E+01 -0.21348233796E+02  0.23140319602E+02  0.31569132260E+02  0.00000000000E+00 0. -1.
</event>
<event>
 7    1  0.2661323E-011  0.5052886E+02  0.7816164E-02  0.1300439E+00
        -11   -1    0    0    0    0  0.00000000000E+00  0.00000000000E+00  0.45593999997E+02  0.45594000000E+02  0.51100000000E-03 0.  1.
         11   -1    0    0    0    0 -0.00000000000E+00 -0.00000000000E+00 -0.45593999997E+02  0.45594000000E+02  0.51100000000E-03 0. -1.
    9900012    2    1    2    0    0  0.20774459493E+02  0.15998190887E+02  0.31074834681E+02  0.50528860445E+02  0.30000001808E+02 0.  0.
         12    1    1    2    0    0 -0.20774459493E+02 -0.15998190887E+02 -0.31074834681E+02  0.40659139555E+02  0.00000000000E+00 0. -1.
         11    1    3    3    0    0  0.37171227004E+01  0.39984837326E+01 -0.22019790061E+01  0.58867295788E+01  0.51100000000E-03 0. -1.
        -11    1    3    3    0    0  0.18035653017E+02  0.16558634098E+02  0.24134601369E+02  0.34379530631E+02  0.51100000000E-03 0.  1.
         12    1    3    3    0    0 -0.97831622360E+00 -0.45589269436E+01  0.91422123180E+01  0.10262600235E+02  0.00000000000E+00 0. -1.
</event>
<event>
 7    1  0.2661323E-011  0.5052887E+02  0.7816164E-02  0.1300439E+00
        -11   -1    0    0    0    0  0.00000000000E+00  0.00000000000E+00  0.45593999997E+02  0.45594000000E+02  0.51100000000E-03 0.  1.
         11   -1    0    0    0    0 -0.00000000000E+00 -0.00000000000E+00 -0.45593999997E+02  0.45594000000E+02  0.51100000000E-03 0. -1.
    9900012    2    1    2    0    0  0.29727656917E+02  0.85241656203E+01  0.26396405911E+02  0.50528865352E+02  0.30000016725E+02 0.  0.
         12    1    1    2    0    0 -0.29727656917E+02 -0.85241656203E+01 -0.26396405911E+02  0.40659134648E+02  0.00000000000E+00 0. -1.
         11    1    3    3    0    0  0.10063522656E+02  0.14149977528E+01  0.10945121527E+02  0.14935608203E+02  0.51100000000E-03 0. -1.
        -11    1    3    3    0    0  0.14466730479E+02  0.26410024170E+00  0.20897931213E+02  0.25418095305E+02  0.51100000000E-03 0.  1.
         12    1    3    3    0    0  0.51974037819E+01  0.68450676258E+01 -0.54466468296E+01  0.10175161844E+02  0.00000000000E+00 0. -1.
</event>
<event>
 7    1  0.2661323E-011  0.5052888E+02  0.7816164E-02  0.1300439E+00
        -11   -1    0    0    0    0  0.00000000000E+00  0.00000000000E+00  0.45593999997E+02  0.45594000000E+02  0.51100000000E-03 0.  1.
         11   -1    0    0    0    0 -0.00000000000E+00 -0.00000000000E+00 -0.45593999997E+02  0.45594000000E+02  0.51100000000E-03 0. -1.
    9900012    2    1    2    0    0 -0.33107555066E+02 -0.23063243342E+02  0.50140272979E+01  0.50528882134E+02  0.30000067734E+02 0.  0.
         12    1    1    2    0    0  0.33107555066E+02  0.23063243342E+02 -0.50140272979E+01  0.40659117866E+02  0.00000000000E+00 0. -1.
         11    1    3    3    0    0 -0.11031583878E+01 -0.12982880669E+01 -0.26392746386E+01  0.31413820545E+01  0.51100000000E-03 0. -1.
        -11    1    3    3    0    0 -0.27852435807E+02 -0.22030854818E+02 -0.33053121106E+01  0.35665695463E+02  0.51100000000E-03 0.  1.
         12    1    3    3    0    0 -0.41519608709E+01  0.26589954284E+00  0.10958614047E+02  0.11721804617E+02  0.00000000000E+00 0. -1.
</event>
<event>
 7    1  0.2661323E-011  0.5052891E+02  0.7816164E-02  0.1300439E+00
        -11   -1    0    0    0    0  0.00000000000E+00  0.00000000000E+00  0.45593999997E+02  0.45594000000E+02  0.51100000000E-03 0.  1.
         11   -1    0    0    0    0 -0.00000000000E+00 -0.00000000000E+00 -0.45593999997E+02  0.45594000000E+02  0.51100000000E-03 0. -1.
    9900012    2    1    2    0    0 -0.23533096689E+02  0.10511755852E+02  0.31446107145E+02  0.50528913617E+02  0.30000163431E+02 0.  0.
         12    1    1    2    0    0  0.23533096689E+02 -0.10511755852E+02 -0.31446107145E+02  0.40659086383E+02  0.00000000000E+00 0. -1.
         11    1    3    3    0    0 -0.31959404553E+01  0.11448772274E+01  0.79355959181E+01  0.86312491620E+01  0.51100000000E-03 0. -1.
        -11    1    3    3    0    0 -0.10625675462E+02 -0.38035575577E+01  0.22891248629E+02  0.25522172580E+02  0.51100000000E-03 0.  1.
         12    1    3    3    0    0 -0.97114807719E+01  0.13170436182E+02  0.61926259816E+00  0.16375491876E+02  0.00000000000E+00 0. -1.
</event>
<event>
 7    1  0.2661323E-011  0.5052886E+02  0.7816164E-02  0.1300439E+00
        -11   -1    0    0    0    0  0.00000000000E+00  0.00000000000E+00  0.45593999997E+02  0.45594000000E+02  0.51100000000E-03 0.  1.
         11   -1    0    0    0    0 -0.00000000000E+00 -0.00000000000E+00 -0.45593999997E+02  0.45594000000E+02  0.51100000000E-03 0. -1.
    9900012    2    1    2    0    0 -0.33416455689E+02 -0.15665510836E+02  0.17061588782E+02  0.50528861392E+02  0.30000004688E+02 0.  0.
         12    1    1    2    0    0  0.33416455689E+02  0.15665510836E+02 -0.17061588782E+02  0.40659138608E+02  0.00000000000E+00 0. -1.
         11    1    3    3    0    0  0.37157264260E+01  0.33260274395E+01 -0.28965697109E+00  0.49952960697E+01  0.51100000000E-03 0. -1.
        -11    1    3    3    0    0 -0.12201707088E+02 -0.61310562780E+01  0.86431778969E+01  0.16160941537E+02  0.51100000000E-03 0.  1.
        -12    1    3    3    0    0 -0.24930475027E+02 -0.12860481997E+02  0.87080678561E+01  0.29372623785E+02  0.00000000000E+00 0.  1.
</event>
<event>
 7    1  0.2661323E-011  0.5052887E+02  0.7816164E-02  0.1300439E+00
        -11   -1    0    0    0    0  0.00000000000E+00  0.00000000000E+00  0.45593999997E+02  0.45594000000E+02  0.51100000000E-03 0.  1.
         11   -1    0    0    0    0 -0.00000000000E+00 -0.00000000000E+00 -0.45593999997E+02  0.45594000000E+02  0.51100000000E-03 0. -1.
    9900012    2    1    2    0    0 -0.21201588495E+02 -0.34668382729E+02  0.13270347215E+01  0.50528866501E+02  0.30000020217E+02 0.  0.
         12    1    1    2    0    0  0.21201588495E+02  0.34668382729E+02 -0.13270347215E+01  0.40659133499E+02  0.00000000000E+00 0. -1.
         11    1    3    3    0    0  0.51867206769E+00 -0.16210963176E+02  0.24366366137E+01  0.16401266599E+02  0.51100000000E-03 0. -1.
        -11    1    3    3    0    0 -0.22688126744E+02 -0.16963146950E+02 -0.59706482970E+01  0.28950787398E+02  0.51100000000E-03 0.  1.
         12    1    3    3    0    0  0.96786618089E+00 -0.14942726022E+01  0.48610464048E+01  0.51768125042E+01  0.00000000000E+00 0. -1.
</event>
<event>
 7    1  0.2661323E-011  0.5052885E+02  0.7816164E-02  0.1300439E+00
        -11   -1    0    0    0    0  0.00000000000E+00  0.00000000000E+00  0.45593999997E+02  0.45594000000E+02  0.51100000000E-03 0.  1.
         11   -1    0    0    0    0 -0.00000000000E+00 -0.00000000000E+00 -0.45593999997E+02  0.45594000000E+02  0.51100000000E-03 0. -1.
    9900012    2    1    2    0    0  0.73005388091E+00 -0.37629568220E+02  0.15383402865E+02  0.50528850146E+02  0.29999970505E+02 0.  0.
         12    1    1    2    0    0 -0.73005388091E+00  0.37629568220E+02 -0.15383402865E+02  0.40659149854E+02  0.00000000000E+00 0. -1.
         11    1    3    3    0    0  0.33774665019E+01 -0.29043113277E+02  0.16940527581E+02  0.33791880442E+02  0.51100000000E-03 0. -1.
        -11    1    3    3    0    0  0.32114554776E+01 -0.81094168397E+01  0.30798526407E+01  0.92499502871E+01  0.51100000000E-03 0.  1.
         12    1    3    3    0    0 -0.58588680986E+01 -0.47703810356E+00 -0.46369773570E+01  0.74870194175E+01  0.00000000000E+00 0. -1.
</event>
<event>
 7    1  0.2661323E-011  0.5052886E+02  0.7816164E-02  0.1300439E+00
        -11   -1    0    0    0    0  0.00000000000E+00  0.00000000000E+00  0.45593999997E+02  0.45594000000E+02  0.51100000000E-03 0.  1.
         11   -1    0    0    0    0 -0.00000000000E+00 -0.00000000000E+00 -0.45593999997E+02  0.45594000000E+02  0.51100000000E-03 0. -1.
    9900012    2    1    2    0    0 -0.41188681155E+00  0.24839796150E+02  0.32186647213E+02  0.50528863482E+02  0.30000011041E+02 0.  0.
         12    1    1    2    0    0  0.41188681155E+00 -0.24839796150E+02 -0.32186647213E+02  0.40659136518E+02  0.00000000000E+00 0. -1.
         11    1    3    3    0    0  0.20949227257E+01  0.12788554064E+02  0.91231092824E+01  0.15848247206E+02  0.51100000000E-03 0. -1.
        -11    1    3    3    0    0  0.46865911715E+01  0.16627163553E+02  0.13982224535E+02  0.22224520419E+02  0.51100000000E-03 0.  1.
         12    1    3    3    0    0 -0.71934007088E+01 -0.45759214663E+01  0.90813133956E+01  0.12456095858E+02  0.00000000000E+00 0. -1.
</event>
<event>
 7    1  0.2661323E-011  0.5052887E+02  0.7816164E-02  0.1300439E+00
        -11   -1    0    0    0    0  0.00000000000E+00  0.00000000000E+00  0.45593999997E+02  0.45594000000E+02  0.51100000000E-03 0. -1.
         11   -1    0    0    0    0 -0.00000000000E+00 -0.00000000000E+00 -0.45593999997E+02  0.45594000000E+02  0.51100000000E-03 0.  1.
    9900012    2    1    2    0    0  0.37756686291E+02 -0.12519572463E+02 -0.84177157714E+01  0.50528868269E+02  0.30000025590E+02 0.  0.
         12    1    1    2    0    0 -0.37756686291E+02  0.12519572463E+02  0.84177157714E+01  0.40659131731E+02  0.00000000000E+00 0. -1.
         11    1    3    3    0    0  0.68595251666E+01 -0.41870989729E+01  0.44366564713E+00  0.80487093865E+01  0.51100000000E-03 0. -1.
        -11    1    3    3    0    0  0.27702902999E+02 -0.12323272699E+02 -0.15539383921E+02  0.34070314608E+02  0.51100000000E-03 0.  1.
         12    1    3    3    0    0  0.31942581254E+01  0.39907992083E+01  0.66780025028E+01  0.84098442744E+01  0.00000000000E+00 0. -1.
</event>
<event>
 7    1  0.2661323E-011  0.5052886E+02  0.7816164E-02  0.1300439E+00
        -11   -1    0    0    0    0  0.00000000000E+00  0.00000000000E+00  0.45593999997E+02  0.45594000000E+02  0.51100000000E-03 0. -1.
         11   -1    0    0    0    0 -0.00000000000E+00 -0.00000000000E+00 -0.45593999997E+02  0.45594000000E+02  0.51100000000E-03 0.  1.
    9900012    2    1    2    0    0  0.78230988698E+01 -0.37843950465E+02 -0.12641213357E+02  0.50528859110E+02  0.29999997751E+02 0.  0.
         12    1    1    2    0    0 -0.78230988698E+01  0.37843950465E+02  0.12641213357E+02  0.40659140890E+02  0.00000000000E+00 0. -1.
         11    1    3    3    0    0 -0.20342419190E-01  0.23933825307E+01  0.13358675245E+01  0.27410282845E+01  0.51100000000E-03 0. -1.
        -11    1    3    3    0    0  0.29959455927E+01 -0.16481764047E+02 -0.16373369072E+02  0.23424590735E+02  0.51100000000E-03 0.  1.
        -12    1    3    3    0    0  0.48474956963E+01 -0.23755568949E+02  0.23962881898E+01  0.24363240091E+02  0.00000000000E+00 0.  1.
</event>
<event>
 7    1  0.2661323E-011  0.5052887E+02  0.7816164E-02  0.1300439E+00
        -11   -1    0    0    0    0  0.00000000000E+00  0.00000000000E+00  0.45593999997E+02  0.45594000000E+02  0.51100000000E-03 0.  1.
         11   -1    0    0    0    0 -0.00000000000E+00 -0.00000000000E+00 -0.45593999997E+02  0.45594000000E+02  0.51100000000E-03 0. -1.
    9900012    2    1    2    0    0  0.86571640473E+01 -0.22221034020E+02  0.32930898929E+02  0.50528868842E+02  0.30000027333E+02 0.  0.
         12    1    1    2    0    0 -0.86571640473E+01  0.22221034020E+02 -0.32930898929E+02  0.40659131158E+02  0.00000000000E+00 0. -1.
         11    1    3    3    0    0  0.10533261328E+02 -0.11664643772E+01  0.14163795457E+02  0.17689639209E+02  0.51100000000E-03 0. -1.
        -11    1    3    3    0    0 -0.71577381659E+01 -0.48385370685E+01  0.11292987055E+02  0.14218868222E+02  0.51100000000E-03 0.  1.
        -12    1    3    3    0    0  0.52816408855E+01 -0.16216032574E+02  0.74741164164E+01  0.18620361412E+02  0.00000000000E+00 0.  1.
</event>
<event>
 7    1  0.2661323E-011  0.5052885E+02  0.7816164E-02  0.1300439E+00
        -11   -1    0    0    0    0  0.00000000000E+00  0.00000000000E+00  0.45593999997E+02  0.45594000000E+02  0.51100000000E-03 0. -1.
         11   -1    0    0    0    0 -0.00000000000E+00 -0.00000000000E+00 -0.45593999997E+02  0.45594000000E+02  0.51100000000E-03 0.  1.
    9900012    2    1    2    0    0  0.11097696420E+02 -0.25436913920E+02 -0.29714823382E+02  0.50528853622E+02  0.29999981069E+02 0.  0.
         12    1    1    2    0    0 -0.11097696420E+02  0.25436913920E+02  0.29714823382E+02  0.40659146378E+02  0.00000000000E+00 0. -1.
         11    1    3    3    0    0 -0.13826862856E+01 -0.42328064352E+01  0.21234026340E+00  0.44579771568E+01  0.51100000000E-03 0. -1.
        -11    1    3    3    0    0 -0.30024378802E+00 -0.21831473324E+02 -0.15437487399E+02  0.26739846508E+02  0.51100000000E-03 0.  1.
        -12    1    3    3    0    0  0.12780626493E+02  0.62736583985E+00 -0.14489676247E+02  0.19331029957E+02  0.00000000000E+00 0.  1.
</event>
<event>
 7    1  0.2661323E-011  0.5052886E+02  0.7816164E-02  0.1300439E+00
        -11   -1    0    0    0    0  0.00000000000E+00  0.00000000000E+00  0.45593999997E+02  0.45594000000E+02  0.51100000000E-03 0.  1.
         11   -1    0    0    0    0 -0.00000000000E+00 -0.00000000000E+00 -0.45593999997E+02  0.45594000000E+02  0.51100000000E-03 0. -1.
    9900012    2    1    2    0    0 -0.15166805340E+02 -0.21053506222E+02  0.31303086177E+02  0.50528864339E+02  0.30000013646E+02 0.  0.
         12    1    1    2    0    0  0.15166805340E+02  0.21053506222E+02 -0.31303086177E+02  0.40659135661E+02  0.00000000000E+00 0. -1.
         11    1    3    3    0    0  0.10366056874E+01  0.36318245720E+01  0.13058826208E+02  0.13594029692E+02  0.51100000000E-03 0. -1.
        -11    1    3    3    0    0 -0.83014614699E+01 -0.46426005924E+01  0.14568268603E+01  0.96223878304E+01  0.51100000000E-03 0.  1.
        -12    1    3    3    0    0 -0.79019495576E+01 -0.20042730202E+02  0.16787433108E+02  0.27312446817E+02  0.00000000000E+00 0.  1.
</event>
<event>
 7    1  0.2661323E-011  0.5052886E+02  0.7816164E-02  0.1300439E+00
        -11   -1    0    0    0    0  0.00000000000E+00  0.00000000000E+00  0.45593999997E+02  0.45594000000E+02  0.51100000000E-03 0.  1.
         11   -1    0    0    0    0 -0.00000000000E+00 -0.00000000000E+00 -0.45593999997E+02  0.45594000000E+02  0.51100000000E-03 0. -1.
    9900012    2    1    2    0    0 -0.20497522792E+02 -0.32258658983E+02  0.13870682766E+02  0.50528863752E+02  0.30000011862E+02 0.  0.
         12    1    1    2    0    0  0.20497522792E+02  0.32258658983E+02 -0.13870682766E+02  0.40659136248E+02  0.00000000000E+00 0. -1.
         11    1    3    3    0    0 -0.55909454638E+01 -0.10589957823E+02  0.49817700138E+01  0.12970116059E+02  0.51100000000E-03 0. -1.
        -11    1    3    3    0    0 -0.11703981097E+02 -0.20195455135E+02  0.16892554883E+02  0.28813156585E+02  0.51100000000E-03 0.  1.
         12    1    3    3    0    0 -0.32025962310E+01 -0.14732460256E+01 -0.80036421309E+01  0.87455911081E+01  0.00000000000E+00 0. -1.
</event>
<event>
 7    1  0.2661323E-011  0.5052886E+02  0.7816164E-02  0.1300439E+00
        -11   -1    0    0    0    0  0.00000000000E+00  0.00000000000E+00  0.45593999997E+02  0.45594000000E+02  0.51100000000E-03 0.  1.
         11   -1    0    0    0    0 -0.00000000000E+00 -0.00000000000E+00 -0.45593999997E+02  0.45594000000E+02  0.51100000000E-03 0. -1.
    9900012    2    1    2    0    0  0.11530294368E+02  0.11879567379E+02  0.37136151846E+02  0.50528861012E+02  0.30000003532E+02 0.  0.
         12    1    1    2    0    0 -0.11530294368E+02 -0.11879567379E+02 -0.37136151846E+02  0.40659138988E+02  0.00000000000E+00 0. -1.
         11    1    3    3    0    0 -0.61637510407E+01 -0.23037965750E+01  0.13536521950E+02  0.15051137243E+02  0.51100000000E-03 0. -1.
        -11    1    3    3    0    0  0.27976537419E+01 -0.27359394784E+01  0.41558133456E+01  0.57081534767E+01  0.51100000000E-03 0.  1.
        -12    1    3    3    0    0  0.14896391667E+02  0.16919303432E+02  0.19443816550E+02  0.29769570292E+02  0.00000000000E+00 0.  1.
</event>
<event>
 7    1  0.2661323E-011  0.5052886E+02  0.7816164E-02  0.1300439E+00
        -11   -1    0    0    0    0  0.00000000000E+00  0.00000000000E+00  0.45593999997E+02  0.45594000000E+02  0.51100000000E-03 0.  1.
         11   -1    0    0    0    0 -0.00000000000E+00 -0.00000000000E+00 -0.45593999997E+02  0.45594000000E+02  0.51100000000E-03 0. -1.
    9900012    2    1    2    0    0  0.53063245156E+00  0.90714902910E+01  0.39630701814E+02  0.50528855479E+02  0.29999986715E+02 0.  0.
         12    1    1    2    0    0 -0.53063245156E+00 -0.90714902910E+01 -0.39630701814E+02  0.40659144521E+02  0.00000000000E+00 0. -1.
         11    1    3    3    0    0 -0.34164481490E+01  0.52822759974E+01  0.32849310658E+01  0.70968535307E+01  0.51100000000E-03 0. -1.
        -11    1    3    3    0    0  0.29627610957E+01  0.12712410365E+02  0.29106739185E+02  0.31899617503E+02  0.51100000000E-03 0.  1.
         12    1    3    3    0    0  0.98431950485E+00 -0.89231960718E+01  0.72390315633E+01  0.11532384445E+02  0.00000000000E+00 0. -1.
</event>
<event>
 7    1  0.2661323E-011  0.5052887E+02  0.7816164E-02  0.1300439E+00
        -11   -1    0    0    0    0  0.00000000000E+00  0.00000000000E+00  0.45593999997E+02  0.45594000000E+02  0.51100000000E-03 0. -1.
         11   -1    0    0    0    0 -0.00000000000E+00 -0.00000000000E+00 -0.45593999997E+02  0.45594000000E+02  0.51100000000E-03 0.  1.
    9900012    2    1    2    0    0  0.94813100984E+01 -0.28234393544E+02  0.27678305974E+02  0.50528870132E+02  0.30000031254E+02 0.  0.
         12    1    1    2    0    0 -0.94813100984E+01  0.28234393544E+02 -0.27678305974E+02  0.40659129868E+02  0.00000000000E+00 0. -1.
         11    1    3    3    0    0 -0.21526521092E+01 -0.10935756159E+02  0.15292662304E+02  0.18923271241E+02  0.51100000000E-03 0. -1.
        -11    1    3    3    0    0  0.29712474427E+01 -0.17473417647E+02  0.14250639354E+02  0.22742677017E+02  0.51100000000E-03 0.  1.
        -12    1    3    3    0    0  0.86627147650E+01  0.17478026174E+00 -0.18649956843E+01  0.88629218738E+01  0.00000000000E+00 0.  1.
</event>
<event>
 7    1  0.2661323E-011  0.5052886E+02  0.7816164E-02  0.1300439E+00
        -11   -1    0    0    0    0  0.00000000000E+00  0.00000000000E+00  0.45593999997E+02  0.45594000000E+02  0.51100000000E-03 0. -1.
         11   -1    0    0    0    0 -0.00000000000E+00 -0.00000000000E+00 -0.45593999997E+02  0.45594000000E+02  0.51100000000E-03 0.  1.
    9900012    2    1    2    0    0  0.17444488633E+02 -0.24342285980E+02 -0.27501067855E+02  0.50528858302E+02  0.29999995295E+02 0.  0.
         12    1    1    2    0    0 -0.17444488633E+02  0.24342285980E+02  0.27501067855E+02  0.40659141698E+02  0.00000000000E+00 0. -1.
         11    1    3    3    0    0  0.97613322866E+00 -0.85050796877E+01 -0.15378086930E+02  0.17600419724E+02  0.51100000000E-03 0. -1.
        -11    1    3    3    0    0  0.19145060702E+02 -0.13624533058E+02 -0.15447422156E+02  0.28120883732E+02  0.51100000000E-03 0.  1.
         12    1    3    3    0    0 -0.26767052979E+01 -0.22126732351E+01  0.33244412313E+01  0.48075548460E+01  0.00000000000E+00 0. -1.
</event>
<event>
 7    1  0.2661323E-011  0.5052888E+02  0.7816164E-02  0.1300439E+00
        -11   -1    0    0    0    0  0.00000000000E+00  0.00000000000E+00  0.45593999997E+02  0.45594000000E+02  0.51100000000E-03 0.  1.
         11   -1    0    0    0    0 -0.00000000000E+00 -0.00000000000E+00 -0.45593999997E+02  0.45594000000E+02  0.51100000000E-03 0. -1.
    9900012    2    1    2    0    0  0.77805305984E+01 -0.39422125415E+02 -0.62067320411E+01  0.50528878621E+02  0.30000057058E+02 0.  0.
         12    1    1    2    0    0 -0.77805305984E+01  0.39422125415E+02  0.62067320411E+01  0.40659121379E+02  0.00000000000E+00 0. -1.
         11    1    3    3    0    0 -0.16480749497E+00 -0.94987309048E+01 -0.12104269734E+01  0.95769611063E+01  0.51100000000E-03 0.  1.
        -11    1    3    3    0    0  0.21281267711E+01 -0.30878060419E+02 -0.10700611988E+02  0.32748841750E+02  0.51100000000E-03 0. -1.
         12    1    3    3    0    0  0.58172113223E+01  0.95466590894E+00  0.57043069200E+01  0.82030757648E+01  0.00000000000E+00 0. -1.
</event>
<event>
 7    1  0.2661323E-011  0.5052887E+02  0.7816164E-02  0.1300439E+00
        -11   -1    0    0    0    0  0.00000000000E+00  0.00000000000E+00  0.45593999997E+02  0.45594000000E+02  0.51100000000E-03 0.  1.
         11   -1    0    0    0    0 -0.00000000000E+00 -0.00000000000E+00 -0.45593999997E+02  0.45594000000E+02  0.51100000000E-03 0. -1.
    9900012    2    1    2    0    0  0.11267808101E+02 -0.10220381359E+02  0.37706040997E+02  0.50528865452E+02  0.30000017028E+02 0.  0.
         12    1    1    2    0    0 -0.11267808101E+02  0.10220381359E+02 -0.37706040997E+02  0.40659134548E+02  0.00000000000E+00 0. -1.
         11    1    3    3    0    0 -0.29258070720E+01  0.38316940225E+01 -0.20616095571E+00  0.48254252357E+01  0.51100000000E-03 0. -1.
        -11    1    3    3    0    0 -0.12924169387E+01 -0.52875803342E+01  0.23320279401E+01  0.59217566574E+01  0.51100000000E-03 0.  1.
        -12    1    3    3    0    0  0.15486032112E+02 -0.87644950474E+01  0.35580174013E+02  0.39781683559E+02  0.00000000000E+00 0.  1.
</event>
<event>
 7    1  0.2661323E-011  0.5052888E+02  0.7816164E-02  0.1300439E+00
        -11   -1    0    0    0    0  0.00000000000E+00  0.00000000000E+00  0.45593999997E+02  0.45594000000E+02  0.51100000000E-03 0. -1.
         11   -1    0    0    0    0 -0.00000000000E+00 -0.00000000000E+00 -0.45593999997E+02  0.45594000000E+02  0.51100000000E-03 0.  1.
    9900012    2    1    2    0    0 -0.53470667169E+01 -0.32001211349E+02 -0.24505008450E+02  0.50528879382E+02  0.30000059369E+02 0.  0.
         12    1    1    2    0    0  0.53470667169E+01  0.32001211349E+02  0.24505008450E+02  0.40659120618E+02  0.00000000000E+00 0. -1.
         11    1    3    3    0    0  0.48142838748E+01 -0.10033142903E+02  0.34292737139E+01  0.11644793008E+02  0.51100000000E-03 0. -1.
        -11    1    3    3    0    0 -0.10461312816E+02 -0.12127146761E+02 -0.11465787363E+02  0.19696980340E+02  0.51100000000E-03 0.  1.
        -12    1    3    3    0    0  0.29996222399E+00 -0.98409216854E+01 -0.16468494801E+02  0.19187106034E+02  0.00000000000E+00 0.  1.
</event>
<event>
 7    1  0.2661323E-011  0.5052886E+02  0.7816164E-02  0.1300439E+00
        -11   -1    0    0    0    0  0.00000000000E+00  0.00000000000E+00  0.45593999997E+02  0.45594000000E+02  0.51100000000E-03 0.  1.
         11   -1    0    0    0    0 -0.00000000000E+00 -0.00000000000E+00 -0.45593999997E+02  0.45594000000E+02  0.51100000000E-03 0. -1.
    9900012    2    1    2    0    0 -0.18543600590E+02 -0.24136532557E+02  0.26957896021E+02  0.50528862225E+02  0.30000007220E+02 0.  0.
         12    1    1    2    0    0  0.18543600590E+02  0.24136532557E+02 -0.26957896021E+02  0.40659137775E+02  0.00000000000E+00 0. -1.
         11    1    3    3    0    0  0.39653675299E+01  0.11132727091E+01 -0.14577930666E+01  0.43690590129E+01  0.51100000000E-03 0. -1.
        -11    1    3    3    0    0 -0.23044349012E+01 -0.46547725089E+00 -0.11432650292E+01  0.26142196681E+01  0.51100000000E-03 0.  1.
        -12    1    3    3    0    0 -0.20204533219E+02 -0.24784328015E+02  0.29558954117E+02  0.43545583544E+02  0.00000000000E+00 0.  1.
</event>
<event>
 7    1  0.2661323E-011  0.5052886E+02  0.7816164E-02  0.1300439E+00
        -11   -1    0    0    0    0  0.00000000000E+00  0.00000000000E+00  0.45593999997E+02  0.45594000000E+02  0.51100000000E-03 0.  1.
         11   -1    0    0    0    0 -0.00000000000E+00 -0.00000000000E+00 -0.45593999997E+02  0.45594000000E+02  0.51100000000E-03 0. -1.
    9900012    2    1    2    0    0  0.18116641651E+02 -0.32315242461E+02  0.16753440651E+02  0.50528863589E+02  0.30000011366E+02 0.  0.
         12    1    1    2    0    0 -0.18116641651E+02  0.32315242461E+02 -0.16753440651E+02  0.40659136411E+02  0.00000000000E+00 0. -1.
         11    1    3    3    0    0  0.94395156414E+01 -0.25143110745E+01  0.14057652070E+02  0.17118522065E+02  0.51100000000E-03 0. -1.
        -11    1    3    3    0    0  0.27973405698E+01 -0.81514284689E+01  0.63182314716E+01  0.10686016542E+02  0.51100000000E-03 0.  1.
         12    1    3    3    0    0  0.58797854403E+01 -0.21649502917E+02 -0.36224428900E+01  0.22724324982E+02  0.00000000000E+00 0. -1.
</event>
<event>
 7    1  0.2661323E-011  0.5052886E+02  0.7816164E-02  0.1300439E+00
        -11   -1    0    0    0    0  0.00000000000E+00  0.00000000000E+00  0.45593999997E+02  0.45594000000E+02  0.51100000000E-03 0.  1.
         11   -1    0    0    0    0 -0.00000000000E+00 -0.00000000000E+00 -0.45593999997E+02  0.45594000000E+02  0.51100000000E-03 0. -1.
    9900012    2    1    2    0    0 -0.33287017075E+02 -0.77065354396E+01  0.22039728630E+02  0.50528857949E+02  0.29999994221E+02 0.  0.
         12    1    1    2    0    0  0.33287017075E+02  0.77065354396E+01 -0.22039728630E+02  0.40659142051E+02  0.00000000000E+00 0. -1.
         11    1    3    3    0    0  0.37515875813E+01 -0.15644916841E+00  0.43881745976E+01  0.57753755101E+01  0.51100000000E-03 0. -1.
        -11    1    3    3    0    0 -0.28181962170E+01  0.19982522631E+01  0.67638335624E+01  0.75950435644E+01  0.51100000000E-03 0.  1.
        -12    1    3    3    0    0 -0.34220408439E+02 -0.95483385343E+01  0.10887720470E+02  0.37158438874E+02  0.00000000000E+00 0.  1.
</event>
<event>
 7    1  0.2661323E-011  0.5052889E+02  0.7816164E-02  0.1300439E+00
        -11   -1    0    0    0    0  0.00000000000E+00  0.00000000000E+00  0.45593999997E+02  0.45594000000E+02  0.51100000000E-03 0.  1.
         11   -1    0    0    0    0 -0.00000000000E+00 -0.00000000000E+00 -0.45593999997E+02  0.45594000000E+02  0.51100000000E-03 0. -1.
    9900012    2    1    2    0    0 -0.17887088920E+02 -0.20315408907E+02  0.30339738394E+02  0.50528886447E+02  0.30000080845E+02 0.  0.
         12    1    1    2    0    0  0.17887088920E+02  0.20315408907E+02 -0.30339738394E+02  0.40659113553E+02  0.00000000000E+00 0. -1.
         11    1    3    3    0    0 -0.19446658201E+02 -0.25144049022E+02  0.24008941464E+02  0.39834971908E+02  0.51100000000E-03 0. -1.
        -11    1    3    3    0    0 -0.24483690537E+01  0.48701074484E+00  0.30293803816E+01  0.39254090547E+01  0.51100000000E-03 0.  1.
         12    1    3    3    0    0  0.40079383338E+01  0.43416293702E+01  0.33014165480E+01  0.67685054849E+01  0.00000000000E+00 0. -1.
</event>
<event>
 7    1  0.2661323E-011  0.5052883E+02  0.7816164E-02  0.1300439E+00
        -11   -1    0    0    0    0  0.00000000000E+00  0.00000000000E+00  0.45593999997E+02  0.45594000000E+02  0.51100000000E-03 0.  1.
         11   -1    0    0    0    0 -0.00000000000E+00 -0.00000000000E+00 -0.45593999997E+02  0.45594000000E+02  0.51100000000E-03 0. -1.
    9900012    2    1    2    0    0 -0.51793072174E+01 -0.26273814464E+02  0.30594602170E+02  0.50528828443E+02  0.29999904537E+02 0.  0.
         12    1    1    2    0    0  0.51793072174E+01  0.26273814464E+02 -0.30594602170E+02  0.40659171557E+02  0.00000000000E+00 0. -1.
         11    1    3    3    0    0  0.37744695772E+01 -0.18061438410E+01  0.70133460549E+01  0.81667496172E+01  0.51100000000E-03 0. -1.
        -11    1    3    3    0    0 -0.19386002189E+01 -0.17905801051E+02  0.26749190533E+02  0.32247404183E+02  0.51100000000E-03 0.  1.
        -12    1    3    3    0    0 -0.70151765757E+01 -0.65618695715E+01 -0.31679344182E+01  0.10114674643E+02  0.00000000000E+00 0.  1.
</event>
<event>
 7    1  0.2661323E-011  0.5052886E+02  0.7816164E-02  0.1300439E+00
        -11   -1    0    0    0    0  0.00000000000E+00  0.00000000000E+00  0.45593999997E+02  0.45594000000E+02  0.51100000000E-03 0.  1.
         11   -1    0    0    0    0 -0.00000000000E+00 -0.00000000000E+00 -0.45593999997E+02  0.45594000000E+02  0.51100000000E-03 0. -1.
    9900012    2    1    2    0    0  0.15152221379E+02  0.17820607009E+02  0.33256604301E+02  0.50528861095E+02  0.30000003784E+02 0.  0.
         12    1    1    2    0    0 -0.15152221379E+02 -0.17820607009E+02 -0.33256604301E+02  0.40659138905E+02  0.00000000000E+00 0. -1.
         11    1    3    3    0    0  0.50809247011E+01  0.10450573953E+02  0.12432419525E+02  0.17017501205E+02  0.51100000000E-03 0. -1.
        -11    1    3    3    0    0  0.17035669878E+02  0.85881854245E+01  0.13806707260E+02  0.23549865025E+02  0.51100000000E-03 0.  1.
         12    1    3    3    0    0 -0.69643731996E+01 -0.12181523681E+01  0.70174775163E+01  0.99614948651E+01  0.00000000000E+00 0. -1.
</event>
<event>
 7    1  0.2661323E-011  0.5052886E+02  0.7816164E-02  0.1300439E+00
        -11   -1    0    0    0    0  0.00000000000E+00  0.00000000000E+00  0.45593999997E+02  0.45594000000E+02  0.51100000000E-03 0.  1.
         11   -1    0    0    0    0 -0.00000000000E+00 -0.00000000000E+00 -0.45593999997E+02  0.45594000000E+02  0.51100000000E-03 0. -1.
    9900012    2    1    2    0    0  0.16751332051E+02 -0.24511338802E+02  0.27780445651E+02  0.50528855692E+02  0.29999987360E+02 0.  0.
         12    1    1    2    0    0 -0.16751332051E+02  0.24511338802E+02 -0.27780445651E+02  0.40659144308E+02  0.00000000000E+00 0. -1.
         11    1    3    3    0    0  0.44276907754E+00  0.12158650972E+00 -0.22390456104E+01  0.22856406634E+01  0.51100000000E-03 0. -1.
        -11    1    3    3    0    0  0.79818796023E+01 -0.14468441823E+02  0.11975588396E+01  0.16567448754E+02  0.51100000000E-03 0.  1.
        -12    1    3    3    0    0  0.83266833707E+01 -0.10164483489E+02  0.28821932422E+02  0.31675766274E+02  0.00000000000E+00 0.  1.
</event>
<event>
 7    1  0.2661323E-011  0.5052886E+02  0.7816164E-02  0.1300439E+00
        -11   -1    0    0    0    0  0.00000000000E+00  0.00000000000E+00  0.45593999997E+02  0.45594000000E+02  0.51100000000E-03 0.  1.
         11   -1    0    0    0    0 -0.00000000000E+00 -0.00000000000E+00 -0.45593999997E+02  0.45594000000E+02  0.51100000000E-03 0. -1.
    9900012    2    1    2    0    0  0.39740229528E+02  0.46802238694E+01  0.72093703558E+01  0.50528863765E+02  0.30000011901E+02 0.  0.
         12    1    1    2    0    0 -0.39740229528E+02 -0.46802238694E+01 -0.72093703558E+01  0.40659136235E+02  0.00000000000E+00 0. -1.
         11    1    3    3    0    0  0.14253681398E+02 -0.27447330614E+01  0.15238390809E+01  0.14595310164E+02  0.51100000000E-03 0. -1.
        -11    1    3    3    0    0  0.14200679643E+02 -0.55072339008E+01  0.10018613694E+02  0.18230785726E+02  0.51100000000E-03 0.  1.
         12    1    3    3    0    0  0.11285868487E+02  0.12932190832E+02 -0.43330824190E+01  0.17702767876E+02  0.00000000000E+00 0. -1.
</event>
<event>
 7    1  0.2661323E-011  0.5052886E+02  0.7816164E-02  0.1300439E+00
        -11   -1    0    0    0    0  0.00000000000E+00  0.00000000000E+00  0.45593999997E+02  0.45594000000E+02  0.51100000000E-03 0. -1.
         11   -1    0    0    0    0 -0.00000000000E+00 -0.00000000000E+00 -0.45593999997E+02  0.45594000000E+02  0.51100000000E-03 0.  1.
    9900012    2    1    2    0    0  0.33000581749E+02  0.71310204008E+01 -0.22655600049E+02  0.50528855134E+02  0.29999985664E+02 0.  0.
         12    1    1    2    0    0 -0.33000581749E+02 -0.71310204008E+01  0.22655600049E+02  0.40659144866E+02  0.00000000000E+00 0. -1.
         11    1    3    3    0    0  0.13209680642E+01  0.98100559583E+01 -0.74737826028E+01  0.12403208504E+02  0.51100000000E-03 0. -1.
        -11    1    3    3    0    0  0.11257445458E+02 -0.45828708461E+01 -0.12508922760E+02  0.17441500288E+02  0.51100000000E-03 0.  1.
         12    1    3    3    0    0  0.20422168226E+02  0.19038352885E+01 -0.26728946860E+01  0.20684146341E+02  0.00000000000E+00 0. -1.
</event>
<event>
 7    1  0.2661323E-011  0.5052884E+02  0.7816164E-02  0.1300439E+00
        -11   -1    0    0    0    0  0.00000000000E+00  0.00000000000E+00  0.45593999997E+02  0.45594000000E+02  0.51100000000E-03 0.  1.
         11   -1    0    0    0    0 -0.00000000000E+00 -0.00000000000E+00 -0.45593999997E+02  0.45594000000E+02  0.51100000000E-03 0. -1.
    9900012    2    1    2    0    0 -0.78489289824E+01 -0.37756248142E+02  0.12885156080E+02  0.50528841042E+02  0.29999942832E+02 0.  0.
         12    1    1    2    0    0  0.78489289824E+01  0.37756248142E+02 -0.12885156080E+02  0.40659158958E+02  0.00000000000E+00 0. -1.
         11    1    3    3    0    0 -0.75277260574E+01 -0.31158751302E+02  0.67579322394E+01  0.32759793813E+02  0.51100000000E-03 0. -1.
        -11    1    3    3    0    0  0.71034785092E+01 -0.48624112599E+01  0.52771877094E+01  0.10097086737E+02  0.51100000000E-03 0.  1.
        -12    1    3    3    0    0 -0.74246814342E+01 -0.17350855806E+01  0.85003613093E+00  0.76719604923E+01  0.00000000000E+00 0.  1.
</event>
<event>
 7    1  0.2661323E-011  0.5052886E+02  0.7816164E-02  0.1300439E+00
        -11   -1    0    0    0    0  0.00000000000E+00  0.00000000000E+00  0.45593999997E+02  0.45594000000E+02  0.51100000000E-03 0. -1.
         11   -1    0    0    0    0 -0.00000000000E+00 -0.00000000000E+00 -0.45593999997E+02  0.45594000000E+02  0.51100000000E-03 0.  1.
    9900012    2    1    2    0    0 -0.25590810853E+02 -0.11775621221E+02 -0.29319126386E+02  0.50528855551E+02  0.29999986933E+02 0.  0.
         12    1    1    2    0    0  0.25590810853E+02  0.11775621221E+02  0.29319126386E+02  0.40659144449E+02  0.00000000000E+00 0. -1.
         11    1    3    3    0    0 -0.77405708382E+01 -0.63045926878E+01 -0.58560497804E+01  0.11574007307E+02  0.51100000000E-03 0. -1.
        -11    1    3    3    0    0 -0.37753509677E+01 -0.12358286937E+02 -0.18406518531E+02  0.22489563260E+02  0.51100000000E-03 0.  1.
        -12    1    3    3    0    0 -0.14074889048E+02  0.68872584037E+01 -0.50565580751E+01  0.16465284984E+02  0.00000000000E+00 0.  1.
</event>
<event>
 7    1  0.2661323E-011  0.5052886E+02  0.7816164E-02  0.1300439E+00
        -11   -1    0    0    0    0  0.00000000000E+00  0.00000000000E+00  0.45593999997E+02  0.45594000000E+02  0.51100000000E-03 0.  1.
         11   -1    0    0    0    0 -0.00000000000E+00 -0.00000000000E+00 -0.45593999997E+02  0.45594000000E+02  0.51100000000E-03 0. -1.
    9900012    2    1    2    0    0 -0.38614750809E+02 -0.11982822105E+02  0.42986414535E+01  0.50528864200E+02  0.30000013224E+02 0.  0.
         12    1    1    2    0    0  0.38614750809E+02  0.11982822105E+02 -0.42986414535E+01  0.40659135800E+02  0.00000000000E+00 0. -1.
         11    1    3    3    0    0  0.27861897380E+00  0.17475872995E+01 -0.73479349064E+00  0.19161449937E+01  0.51100000000E-03 0. -1.
        -11    1    3    3    0    0  0.24341670272E+01 -0.17698433795E+01 -0.36406465070E+01  0.47235391344E+01  0.51100000000E-03 0.  1.
        -12    1    3    3    0    0 -0.41327536810E+02 -0.11960566025E+02  0.86740814511E+01  0.43889180072E+02  0.00000000000E+00 0.  1.
</event>
<event>
 7    1  0.2661323E-011  0.5052885E+02  0.7816164E-02  0.1300439E+00
        -11   -1    0    0    0    0  0.00000000000E+00  0.00000000000E+00  0.45593999997E+02  0.45594000000E+02  0.51100000000E-03 0.  1.
         11   -1    0    0    0    0 -0.00000000000E+00 -0.00000000000E+00 -0.45593999997E+02  0.45594000000E+02  0.51100000000E-03 0. -1.
    9900012    2    1    2    0    0  0.15033767943E+02  0.16048238212E+01  0.37743571730E+02  0.50528845496E+02  0.29999956369E+02 0.  0.
         12    1    1    2    0    0 -0.15033767943E+02 -0.16048238212E+01 -0.37743571730E+02  0.40659154504E+02  0.00000000000E+00 0. -1.
         11    1    3    3    0    0  0.42626659145E+01  0.40710595268E+01  0.97313095479E+01  0.11377268220E+02  0.51100000000E-03 0. -1.
        -11    1    3    3    0    0  0.17030929827E+01  0.34797331508E+01  0.28041596186E+02  0.28307952689E+02  0.51100000000E-03 0.  1.
         12    1    3    3    0    0  0.90680090460E+01 -0.59459688564E+01 -0.29334004367E-01  0.10843624587E+02  0.00000000000E+00 0. -1.
</event>
<event>
 7    1  0.2661323E-011  0.5052885E+02  0.7816164E-02  0.1300439E+00
        -11   -1    0    0    0    0  0.00000000000E+00  0.00000000000E+00  0.45593999997E+02  0.45594000000E+02  0.51100000000E-03 0.  1.
         11   -1    0    0    0    0 -0.00000000000E+00 -0.00000000000E+00 -0.45593999997E+02  0.45594000000E+02  0.51100000000E-03 0. -1.
    9900012    2    1    2    0    0  0.39336896849E+02  0.55939687883E+01  0.86303044568E+01  0.50528854712E+02  0.29999984382E+02 0.  0.
         12    1    1    2    0    0 -0.39336896849E+02 -0.55939687883E+01 -0.86303044568E+01  0.40659145288E+02  0.00000000000E+00 0. -1.
         11    1    3    3    0    0  0.10392060497E+02  0.57191276225E+01  0.27875322119E+01  0.12184977563E+02  0.51100000000E-03 0. -1.
        -11    1    3    3    0    0  0.82045948461E+01  0.10055444607E+02  0.78256112503E+01  0.15154785862E+02  0.51100000000E-03 0.  1.
        -12    1    3    3    0    0  0.20740241507E+02 -0.10180603441E+02 -0.19828390055E+01  0.23189091287E+02  0.00000000000E+00 0.  1.
</event>
<event>
 7    1  0.2661323E-011  0.5052886E+02  0.7816164E-02  0.1300439E+00
        -11   -1    0    0    0    0  0.00000000000E+00  0.00000000000E+00  0.45593999997E+02  0.45594000000E+02  0.51100000000E-03 0.  1.
         11   -1    0    0    0    0 -0.00000000000E+00 -0.00000000000E+00 -0.45593999997E+02  0.45594000000E+02  0.51100000000E-03 0. -1.
    9900012    2    1    2    0    0 -0.34945171544E+02 -0.20276739554E+02  0.45667032929E+01  0.50528856377E+02  0.29999989442E+02 0.  0.
         12    1    1    2    0    0  0.34945171544E+02  0.20276739554E+02 -0.45667032929E+01  0.40659143623E+02  0.00000000000E+00 0. -1.
         11    1    3    3    0    0 -0.81830293152E+01  0.26801258301E+00  0.27771618192E+01  0.86456016303E+01  0.51100000000E-03 0. -1.
        -11    1    3    3    0    0 -0.11538787151E+02  0.33909824574E+01 -0.44763232714E+01  0.12832764364E+02  0.51100000000E-03 0.  1.
        -12    1    3    3    0    0 -0.15223355078E+02 -0.23935734595E+02  0.62658647451E+01  0.29050490382E+02  0.00000000000E+00 0.  1.
</event>
<event>
 7    1  0.2661323E-011  0.5052886E+02  0.7816164E-02  0.1300439E+00
        -11   -1    0    0    0    0  0.00000000000E+00  0.00000000000E+00  0.45593999997E+02  0.45594000000E+02  0.51100000000E-03 0. -1.
         11   -1    0    0    0    0 -0.00000000000E+00 -0.00000000000E+00 -0.45593999997E+02  0.45594000000E+02  0.51100000000E-03 0.  1.
    9900012    2    1    2    0    0  0.29537880544E+02  0.26534327880E+02 -0.87526234992E+01  0.50528863743E+02  0.30000011832E+02 0.  0.
         12    1    1    2    0    0 -0.29537880544E+02 -0.26534327880E+02  0.87526234992E+01  0.40659136257E+02  0.00000000000E+00 0. -1.
         11    1    3    3    0    0 -0.21051808149E+01  0.35457050798E+01  0.64242764279E+00  0.41733109534E+01  0.51100000000E-03 0. -1.
        -11    1    3    3    0    0  0.17858860345E+01 -0.23532222698E+01 -0.64364108969E+01  0.70819792060E+01  0.51100000000E-03 0.  1.
        -12    1    3    3    0    0  0.29857175325E+02  0.25341845070E+02 -0.29586402450E+01  0.39273573583E+02  0.00000000000E+00 0.  1.
</event>
<event>
 7    1  0.2661323E-011  0.5052886E+02  0.7816164E-02  0.1300439E+00
        -11   -1    0    0    0    0  0.00000000000E+00  0.00000000000E+00  0.45593999997E+02  0.45594000000E+02  0.51100000000E-03 0.  1.
         11   -1    0    0    0    0 -0.00000000000E+00 -0.00000000000E+00 -0.45593999997E+02  0.45594000000E+02  0.51100000000E-03 0. -1.
    9900012    2    1    2    0    0  0.10401496286E+02  0.95982267680E+01  0.38116253362E+02  0.50528857702E+02  0.29999993471E+02 0.  0.
         12    1    1    2    0    0 -0.10401496286E+02 -0.95982267680E+01 -0.38116253362E+02  0.40659142298E+02  0.00000000000E+00 0. -1.
         11    1    3    3    0    0  0.83921882946E-01 -0.57710261843E+01  0.40550966530E+01  0.70537646139E+01  0.51100000000E-03 0. -1.
        -11    1    3    3    0    0  0.67340164835E+01  0.29195549944E+01  0.28406872808E+02  0.29339754640E+02  0.51100000000E-03 0.  1.
         12    1    3    3    0    0  0.35835579195E+01  0.12449697958E+02  0.56542839008E+01  0.14135338448E+02  0.00000000000E+00 0. -1.
</event>
<event>
 7    1  0.2661323E-011  0.5052886E+02  0.7816164E-02  0.1300439E+00
        -11   -1    0    0    0    0  0.00000000000E+00  0.00000000000E+00  0.45593999997E+02  0.45594000000E+02  0.51100000000E-03 0. -1.
         11   -1    0    0    0    0 -0.00000000000E+00 -0.00000000000E+00 -0.45593999997E+02  0.45594000000E+02  0.51100000000E-03 0.  1.
    9900012    2    1    2    0    0 -0.33115004763E+02  0.14582264071E+02  0.18545064001E+02  0.50528863699E+02  0.30000011700E+02 0.  0.
         12    1    1    2    0    0  0.33115004763E+02 -0.14582264071E+02 -0.18545064001E+02  0.40659136301E+02  0.00000000000E+00 0. -1.
         11    1    3    3    0    0 -0.97828918839E+01  0.49152009136E+01  0.24243034105E+01  0.11213448217E+02  0.51100000000E-03 0.  1.
        -11    1    3    3    0    0 -0.30497825220E+01 -0.74153925494E+01  0.85869007307E+01  0.11748365185E+02  0.51100000000E-03 0. -1.
         12    1    3    3    0    0 -0.20282330357E+02  0.17082455707E+02  0.75338598598E+01  0.27567050297E+02  0.00000000000E+00 0. -1.
</event>
<event>
 7    1  0.2661323E-011  0.5052885E+02  0.7816164E-02  0.1300439E+00
        -11   -1    0    0    0    0  0.00000000000E+00  0.00000000000E+00  0.45593999997E+02  0.45594000000E+02  0.51100000000E-03 0.  1.
         11   -1    0    0    0    0 -0.00000000000E+00 -0.00000000000E+00 -0.45593999997E+02  0.45594000000E+02  0.51100000000E-03 0. -1.
    9900012    2    1    2    0    0  0.34749443336E+02 -0.13419857527E+02  0.16295716829E+02  0.50528846354E+02  0.29999958978E+02 0.  0.
         12    1    1    2    0    0 -0.34749443336E+02  0.13419857527E+02 -0.16295716829E+02  0.40659153646E+02  0.00000000000E+00 0. -1.
         11    1    3    3    0    0  0.11546950232E+02 -0.98789420378E+01  0.21230743515E+01  0.15343826133E+02  0.51100000000E-03 0. -1.
        -11    1    3    3    0    0  0.10246805219E+02 -0.12688236307E+02  0.63566443804E+01  0.17504150531E+02  0.51100000000E-03 0.  1.
         12    1    3    3    0    0  0.12955687885E+02  0.91473208179E+01  0.78159980976E+01  0.17680869689E+02  0.00000000000E+00 0. -1.
</event>
<event>
 7    1  0.2661323E-011  0.5052886E+02  0.7816164E-02  0.1300439E+00
        -11   -1    0    0    0    0  0.00000000000E+00  0.00000000000E+00  0.45593999997E+02  0.45594000000E+02  0.51100000000E-03 0.  1.
         11   -1    0    0    0    0 -0.00000000000E+00 -0.00000000000E+00 -0.45593999997E+02  0.45594000000E+02  0.51100000000E-03 0. -1.
    9900012    2    1    2    0    0 -0.14471936265E+02 -0.28169434766E+02  0.25499243831E+02  0.50528862893E+02  0.30000009250E+02 0.  0.
         12    1    1    2    0    0  0.14471936265E+02  0.28169434766E+02 -0.25499243831E+02  0.40659137107E+02  0.00000000000E+00 0. -1.
         11    1    3    3    0    0 -0.24782349158E+01 -0.34148546381E+01  0.16508084876E+02  0.17038771875E+02  0.51100000000E-03 0. -1.
        -11    1    3    3    0    0  0.14198958620E+01 -0.13902000654E+02  0.82332579333E+01  0.16219379239E+02  0.51100000000E-03 0.  1.
         12    1    3    3    0    0 -0.13413597212E+02 -0.10852579474E+02  0.75790102261E+00  0.17270711779E+02  0.00000000000E+00 0. -1.
</event>
<event>
 7    1  0.2661323E-011  0.5052886E+02  0.7816164E-02  0.1300439E+00
        -11   -1    0    0    0    0  0.00000000000E+00  0.00000000000E+00  0.45593999997E+02  0.45594000000E+02  0.51100000000E-03 0. -1.
         11   -1    0    0    0    0 -0.00000000000E+00 -0.00000000000E+00 -0.45593999997E+02  0.45594000000E+02  0.51100000000E-03 0.  1.
    9900012    2    1    2    0    0  0.20440893666E+02 -0.34358415464E+02 -0.74050496774E+01  0.50528860710E+02  0.30000002614E+02 0.  0.
         12    1    1    2    0    0 -0.20440893666E+02  0.34358415464E+02  0.74050496774E+01  0.40659139290E+02  0.00000000000E+00 0. -1.
         11    1    3    3    0    0  0.97814935699E+01 -0.12840304197E+02 -0.13725534111E+02  0.21188235302E+02  0.51100000000E-03 0. -1.
        -11    1    3    3    0    0  0.10103981781E+02 -0.12907415313E+02 -0.29728227508E+01  0.16659216466E+02  0.51100000000E-03 0.  1.
         12    1    3    3    0    0  0.55541831453E+00 -0.86106959546E+01  0.92933071842E+01  0.12681408942E+02  0.00000000000E+00 0. -1.
</event>
<event>
 7    1  0.2661323E-011  0.5052885E+02  0.7816164E-02  0.1300439E+00
        -11   -1    0    0    0    0  0.00000000000E+00  0.00000000000E+00  0.45593999997E+02  0.45594000000E+02  0.51100000000E-03 0. -1.
         11   -1    0    0    0    0 -0.00000000000E+00 -0.00000000000E+00 -0.45593999997E+02  0.45594000000E+02  0.51100000000E-03 0.  1.
    9900012    2    1    2    0    0  0.14488535964E+02 -0.37943513449E+02  0.18810845311E+01  0.50528851383E+02  0.29999974264E+02 0.  0.
         12    1    1    2    0    0 -0.14488535964E+02  0.37943513449E+02 -0.18810845311E+01  0.40659148617E+02  0.00000000000E+00 0. -1.
         11    1    3    3    0    0  0.10695208083E+02 -0.21648689594E+02 -0.24724311223E+01  0.24272745066E+02  0.51100000000E-03 0. -1.
        -11    1    3    3    0    0 -0.60234497143E+01 -0.12654103493E+02  0.66883928019E+01  0.15528775876E+02  0.51100000000E-03 0.  1.
         12    1    3    3    0    0  0.98167775952E+01 -0.36407203613E+01 -0.23348771485E+01  0.10727330442E+02  0.00000000000E+00 0. -1.
</event>
<event>
 7    1  0.2661323E-011  0.5052887E+02  0.7816164E-02  0.1300439E+00
        -11   -1    0    0    0    0  0.00000000000E+00  0.00000000000E+00  0.45593999997E+02  0.45594000000E+02  0.51100000000E-03 0.  1.
         11   -1    0    0    0    0 -0.00000000000E+00 -0.00000000000E+00 -0.45593999997E+02  0.45594000000E+02  0.51100000000E-03 0. -1.
    9900012    2    1    2    0    0  0.10453621010E+02 -0.38886742832E+02  0.56309550710E+01  0.50528872915E+02  0.30000039714E+02 0.  0.
         12    1    1    2    0    0 -0.10453621010E+02  0.38886742832E+02 -0.56309550710E+01  0.40659127085E+02  0.00000000000E+00 0. -1.
         11    1    3    3    0    0 -0.10450193040E+01 -0.15622294427E+02 -0.75320126524E+01  0.17374675921E+02  0.51100000000E-03 0. -1.
        -11    1    3    3    0    0  0.60275087571E+01 -0.26818552608E+00 -0.12976167072E+00  0.60348673263E+01  0.51100000000E-03 0.  1.
         12    1    3    3    0    0  0.54711315566E+01 -0.22996262879E+02  0.13292729394E+02  0.27119329668E+02  0.00000000000E+00 0. -1.
</event>
<event>
 7    1  0.2661323E-011  0.5052889E+02  0.7816164E-02  0.1300439E+00
        -11   -1    0    0    0    0  0.00000000000E+00  0.00000000000E+00  0.45593999997E+02  0.45594000000E+02  0.51100000000E-03 0. -1.
         11   -1    0    0    0    0 -0.00000000000E+00 -0.00000000000E+00 -0.45593999997E+02  0.45594000000E+02  0.51100000000E-03 0.  1.
    9900012    2    1    2    0    0  0.24939418771E+02  0.31753763357E+02  0.47840908742E+01  0.50528885137E+02  0.30000076861E+02 0.  0.
         12    1    1    2    0    0 -0.24939418771E+02 -0.31753763357E+02 -0.47840908742E+01  0.40659114863E+02  0.00000000000E+00 0. -1.
         11    1    3    3    0    0  0.70110149048E+01  0.23476650469E+00  0.68256957373E+01  0.97877253673E+01  0.51100000000E-03 0. -1.
        -11    1    3    3    0    0 -0.23606273473E+01  0.25961174709E+01  0.35273292135E+01  0.49753833055E+01  0.51100000000E-03 0.  1.
        -12    1    3    3    0    0  0.20289031214E+02  0.28922879382E+02 -0.55689340766E+01  0.35765776464E+02  0.00000000000E+00 0.  1.
</event>
<event>
 7    1  0.2661323E-011  0.5052887E+02  0.7816164E-02  0.1300439E+00
        -11   -1    0    0    0    0  0.00000000000E+00  0.00000000000E+00  0.45593999997E+02  0.45594000000E+02  0.51100000000E-03 0. -1.
         11   -1    0    0    0    0 -0.00000000000E+00 -0.00000000000E+00 -0.45593999997E+02  0.45594000000E+02  0.51100000000E-03 0.  1.
    9900012    2    1    2    0    0 -0.20255121917E+02  0.17078121006E+02 -0.30842065193E+02  0.50528866139E+02  0.30000019115E+02 0.  0.
         12    1    1    2    0    0  0.20255121917E+02 -0.17078121006E+02  0.30842065193E+02  0.40659133861E+02  0.00000000000E+00 0. -1.
         11    1    3    3    0    0 -0.11422797093E+02  0.69589804907E+01 -0.15062783496E+02  0.20144357766E+02  0.51100000000E-03 0. -1.
        -11    1    3    3    0    0 -0.14276892720E+02  0.27573137288E+01 -0.15458367669E+02  0.21222478083E+02  0.51100000000E-03 0.  1.
         12    1    3    3    0    0  0.54445678965E+01  0.73618267867E+01 -0.32091402877E+00  0.91620302898E+01  0.00000000000E+00 0. -1.
</event>
<event>
 7    1  0.2661323E-011  0.5052885E+02  0.7816164E-02  0.1300439E+00
        -11   -1    0    0    0    0  0.00000000000E+00  0.00000000000E+00  0.45593999997E+02  0.45594000000E+02  0.51100000000E-03 0. -1.
         11   -1    0    0    0    0 -0.00000000000E+00 -0.00000000000E+00 -0.45593999997E+02  0.45594000000E+02  0.51100000000E-03 0.  1.
    9900012    2    1    2    0    0 -0.38007151466E+01 -0.12605756844E+02 -0.38468377617E+02  0.50528848291E+02  0.29999964865E+02 0.  0.
         12    1    1    2    0    0  0.38007151466E+01  0.12605756844E+02  0.38468377617E+02  0.40659151709E+02  0.00000000000E+00 0. -1.
         11    1    3    3    0    0  0.71877078009E+01 -0.75880092259E+01 -0.85407912538E+01  0.13497634717E+02  0.51100000000E-03 0. -1.
        -11    1    3    3    0    0 -0.14120706183E+01  0.62274222018E+00 -0.24701701862E+02  0.24749865180E+02  0.51100000000E-03 0.  1.
        -12    1    3    3    0    0 -0.95763523292E+01 -0.56404898386E+01 -0.52258845011E+01  0.12281348394E+02  0.00000000000E+00 0.  1.
</event>
<event>
 7    1  0.2661323E-011  0.5052886E+02  0.7816164E-02  0.1300439E+00
        -11   -1    0    0    0    0  0.00000000000E+00  0.00000000000E+00  0.45593999997E+02  0.45594000000E+02  0.51100000000E-03 0.  1.
         11   -1    0    0    0    0 -0.00000000000E+00 -0.00000000000E+00 -0.45593999997E+02  0.45594000000E+02  0.51100000000E-03 0. -1.
    9900012    2    1    2    0    0  0.39212253942E+02 -0.54949415480E+01  0.92396288671E+01  0.50528856091E+02  0.29999988575E+02 0.  0.
         12    1    1    2    0    0 -0.39212253942E+02  0.54949415480E+01 -0.92396288671E+01  0.40659143909E+02  0.00000000000E+00 0. -1.
         11    1    3    3    0    0  0.32341551952E+02  0.34080639060E+01  0.67238172266E+01  0.33208441707E+02  0.51100000000E-03 0.  1.
        -11    1    3    3    0    0  0.86908635055E+01 -0.13852220435E+01  0.36026978622E+01  0.95094364043E+01  0.51100000000E-03 0. -1.
         12    1    3    3    0    0 -0.18201615154E+01 -0.75177834105E+01 -0.10868862216E+01  0.78109779802E+01  0.00000000000E+00 0. -1.
</event>
<event>
 7    1  0.2661323E-011  0.5052886E+02  0.7816164E-02  0.1300439E+00
        -11   -1    0    0    0    0  0.00000000000E+00  0.00000000000E+00  0.45593999997E+02  0.45594000000E+02  0.51100000000E-03 0.  1.
         11   -1    0    0    0    0 -0.00000000000E+00 -0.00000000000E+00 -0.45593999997E+02  0.45594000000E+02  0.51100000000E-03 0. -1.
    9900012    2    1    2    0    0  0.93743608234E+01 -0.11919200684E+02  0.37725585459E+02  0.50528858543E+02  0.29999996027E+02 0.  0.
         12    1    1    2    0    0 -0.93743608234E+01  0.11919200684E+02 -0.37725585459E+02  0.40659141457E+02  0.00000000000E+00 0. -1.
         11    1    3    3    0    0  0.10563290839E+02 -0.51901919685E+01  0.10027688711E+02  0.15462074478E+02  0.51100000000E-03 0. -1.
        -11    1    3    3    0    0  0.95145601531E+01 -0.46539626969E+01  0.13078695808E+02  0.16829691262E+02  0.51100000000E-03 0.  1.
         12    1    3    3    0    0 -0.10703490168E+02 -0.20750460189E+01  0.14619200940E+02  0.18237092803E+02  0.00000000000E+00 0. -1.
</event>
<event>
 7    1  0.2661323E-011  0.5052886E+02  0.7816164E-02  0.1300439E+00
        -11   -1    0    0    0    0  0.00000000000E+00  0.00000000000E+00  0.45593999997E+02  0.45594000000E+02  0.51100000000E-03 0.  1.
         11   -1    0    0    0    0 -0.00000000000E+00 -0.00000000000E+00 -0.45593999997E+02  0.45594000000E+02  0.51100000000E-03 0. -1.
    9900012    2    1    2    0    0  0.27468152829E+02 -0.23849829260E+02  0.18161818680E+02  0.50528862855E+02  0.30000009134E+02 0.  0.
         12    1    1    2    0    0 -0.27468152829E+02  0.23849829260E+02 -0.18161818680E+02  0.40659137145E+02  0.00000000000E+00 0. -1.
         11    1    3    3    0    0  0.60190501770E+01 -0.10315564383E+02  0.28020255656E+01  0.12267484710E+02  0.51100000000E-03 0. -1.
        -11    1    3    3    0    0  0.76169264981E+01 -0.16522092127E+02  0.11850013518E+01  0.18231876645E+02  0.51100000000E-03 0.  1.
        -12    1    3    3    0    0  0.13832176154E+02  0.29878272497E+01  0.14174791763E+02  0.20029501500E+02  0.00000000000E+00 0.  1.
</event>
<event>
 7    1  0.2661323E-011  0.5052885E+02  0.7816164E-02  0.1300439E+00
        -11   -1    0    0    0    0  0.00000000000E+00  0.00000000000E+00  0.45593999997E+02  0.45594000000E+02  0.51100000000E-03 0. -1.
         11   -1    0    0    0    0 -0.00000000000E+00 -0.00000000000E+00 -0.45593999997E+02  0.45594000000E+02  0.51100000000E-03 0.  1.
    9900012    2    1    2    0    0  0.13917938785E+02  0.30080000337E+02  0.23551025001E+02  0.50528853195E+02  0.29999979773E+02 0.  0.
         12    1    1    2    0    0 -0.13917938785E+02 -0.30080000337E+02 -0.23551025001E+02  0.40659146805E+02  0.00000000000E+00 0. -1.
         11    1    3    3    0    0 -0.15032737759E+01  0.16244773676E+02  0.21012944796E+02  0.26602562905E+02  0.51100000000E-03 0. -1.
        -11    1    3    3    0    0 -0.58927585884E+00  0.47846434528E+01  0.27173002477E+01  0.55338756677E+01  0.51100000000E-03 0.  1.
         12    1    3    3    0    0  0.16010488419E+02  0.90505832085E+01 -0.17922004307E+00  0.18392414623E+02  0.00000000000E+00 0. -1.
</event>
<event>
 7    1  0.2661323E-011  0.5052888E+02  0.7816164E-02  0.1300439E+00
        -11   -1    0    0    0    0  0.00000000000E+00  0.00000000000E+00  0.45593999997E+02  0.45594000000E+02  0.51100000000E-03 0.  1.
         11   -1    0    0    0    0 -0.00000000000E+00 -0.00000000000E+00 -0.45593999997E+02  0.45594000000E+02  0.51100000000E-03 0. -1.
    9900012    2    1    2    0    0 -0.19008233101E+02 -0.10528698502E+02  0.34365651430E+02  0.50528875367E+02  0.30000047165E+02 0.  0.
         12    1    1    2    0    0  0.19008233101E+02  0.10528698502E+02 -0.34365651430E+02  0.40659124633E+02  0.00000000000E+00 0. -1.
         11    1    3    3    0    0 -0.12363715214E+00 -0.28536961668E+01 -0.18761679115E+01  0.34174367955E+01  0.51100000000E-03 0. -1.
        -11    1    3    3    0    0  0.81695394736E+00  0.43274552551E+01  0.31458861734E+00  0.44151159664E+01  0.51100000000E-03 0.  1.
        -12    1    3    3    0    0 -0.19701549896E+02 -0.12002457590E+02  0.35927230724E+02  0.42696322605E+02  0.00000000000E+00 0.  1.
</event>
<event>
 7    1  0.2661323E-011  0.5052886E+02  0.7816164E-02  0.1300439E+00
        -11   -1    0    0    0    0  0.00000000000E+00  0.00000000000E+00  0.45593999997E+02  0.45594000000E+02  0.51100000000E-03 0.  1.
         11   -1    0    0    0    0 -0.00000000000E+00 -0.00000000000E+00 -0.45593999997E+02  0.45594000000E+02  0.51100000000E-03 0. -1.
    9900012    2    1    2    0    0  0.20707830026E+02 -0.25870514362E+02  0.23559875503E+02  0.50528862386E+02  0.30000007709E+02 0.  0.
         12    1    1    2    0    0 -0.20707830026E+02  0.25870514362E+02 -0.23559875503E+02  0.40659137614E+02  0.00000000000E+00 0. -1.
         11    1    3    3    0    0  0.79905265810E+01 -0.43810481306E+01  0.12161717207E+02  0.15197021532E+02  0.51100000000E-03 0. -1.
        -11    1    3    3    0    0  0.17777637848E+02 -0.10031333339E+02  0.40522389420E+01  0.20810879288E+02  0.51100000000E-03 0.  1.
         12    1    3    3    0    0 -0.50603344033E+01 -0.11458132892E+02  0.73459193545E+01  0.14520961567E+02  0.00000000000E+00 0. -1.
</event>
<event>
 7    1  0.2661323E-011  0.5052886E+02  0.7816164E-02  0.1300439E+00
        -11   -1    0    0    0    0  0.00000000000E+00  0.00000000000E+00  0.45593999997E+02  0.45594000000E+02  0.51100000000E-03 0. -1.
         11   -1    0    0    0    0 -0.00000000000E+00 -0.00000000000E+00 -0.45593999997E+02  0.45594000000E+02  0.51100000000E-03 0.  1.
    9900012    2    1    2    0    0 -0.26037220435E+02  0.29928490451E+02 -0.89170790084E+01  0.50528859740E+02  0.29999999666E+02 0.  0.
         12    1    1    2    0    0  0.26037220435E+02 -0.29928490451E+02  0.89170790084E+01  0.40659140260E+02  0.00000000000E+00 0. -1.
         11    1    3    3    0    0 -0.61284813298E+01  0.11746562126E+02 -0.12797742104E+02  0.18420700541E+02  0.51100000000E-03 0. -1.
        -11    1    3    3    0    0 -0.68354321362E+01  0.17487648037E+02  0.20070928493E+01  0.18883044996E+02  0.51100000000E-03 0.  1.
         12    1    3    3    0    0 -0.13073306969E+02  0.69428028708E+00  0.18735702462E+01  0.13225114203E+02  0.00000000000E+00 0. -1.
</event>
<event>
 7    1  0.2661323E-011  0.5052879E+02  0.7816164E-02  0.1300439E+00
        -11   -1    0    0    0    0  0.00000000000E+00  0.00000000000E+00  0.45593999997E+02  0.45594000000E+02  0.51100000000E-03 0. -1.
         11   -1    0    0    0    0 -0.00000000000E+00 -0.00000000000E+00 -0.45593999997E+02  0.45594000000E+02  0.51100000000E-03 0.  1.
    9900012    2    1    2    0    0  0.33765728468E+02 -0.65640324887E+01 -0.21678572801E+02  0.50528788741E+02  0.29999783856E+02 0.  0.
         12    1    1    2    0    0 -0.33765728468E+02  0.65640324887E+01  0.21678572801E+02  0.40659211259E+02  0.00000000000E+00 0. -1.
         11    1    3    3    0    0  0.84134828324E+01 -0.53937829844E+01 -0.90888967312E+01  0.13508798329E+02  0.51100000000E-03 0. -1.
        -11    1    3    3    0    0  0.25707013567E+02 -0.78656680297E+01 -0.58485986770E+01  0.27512277020E+02  0.51100000000E-03 0.  1.
         12    1    3    3    0    0 -0.35476793117E+00  0.66954185254E+01 -0.67410773927E+01  0.95077133912E+01  0.00000000000E+00 0. -1.
</event>
<event>
 7    1  0.2661323E-011  0.5052886E+02  0.7816164E-02  0.1300439E+00
        -11   -1    0    0    0    0  0.00000000000E+00  0.00000000000E+00  0.45593999997E+02  0.45594000000E+02  0.51100000000E-03 0.  1.
         11   -1    0    0    0    0 -0.00000000000E+00 -0.00000000000E+00 -0.45593999997E+02  0.45594000000E+02  0.51100000000E-03 0. -1.
    9900012    2    1    2    0    0  0.18010909704E+02 -0.25623093562E+02  0.25927394428E+02  0.50528861127E+02  0.30000003881E+02 0.  0.
         12    1    1    2    0    0 -0.18010909704E+02  0.25623093562E+02 -0.25927394428E+02  0.40659138873E+02  0.00000000000E+00 0. -1.
         11    1    3    3    0    0  0.48612008606E+01 -0.21968316087E+01  0.10534268523E+01  0.54375593163E+01  0.51100000000E-03 0. -1.
        -11    1    3    3    0    0  0.17819938585E+02 -0.25485994242E+02  0.25127174658E+02  0.39980758125E+02  0.51100000000E-03 0.  1.
         12    1    3    3    0    0 -0.46702297415E+01  0.20597322878E+01 -0.25320708290E+00  0.51105436857E+01  0.00000000000E+00 0. -1.
</event>
<event>
 7    1  0.2661323E-011  0.5052885E+02  0.7816164E-02  0.1300439E+00
        -11   -1    0    0    0    0  0.00000000000E+00  0.00000000000E+00  0.45593999997E+02  0.45594000000E+02  0.51100000000E-03 0.  1.
         11   -1    0    0    0    0 -0.00000000000E+00 -0.00000000000E+00 -0.45593999997E+02  0.45594000000E+02  0.51100000000E-03 0. -1.
    9900012    2    1    2    0    0  0.79594444409E+01 -0.18942526445E+01  0.39827444039E+02  0.50528852843E+02  0.29999978701E+02 0.  0.
         12    1    1    2    0    0 -0.79594444409E+01  0.18942526445E+01 -0.39827444039E+02  0.40659147157E+02  0.00000000000E+00 0. -1.
         11    1    3    3    0    0  0.44584686710E+01 -0.68035319559E+00  0.18999553086E+02  0.19527514974E+02  0.51100000000E-03 0. -1.
        -11    1    3    3    0    0  0.12098703442E+02 -0.42453699329E+01  0.16537160684E+02  0.20925569875E+02  0.51100000000E-03 0.  1.
         12    1    3    3    0    0 -0.85977276720E+01  0.30314704840E+01  0.42907302689E+01  0.10075767993E+02  0.00000000000E+00 0. -1.
</event>
<event>
 7    1  0.2661323E-011  0.5052884E+02  0.7816164E-02  0.1300439E+00
        -11   -1    0    0    0    0  0.00000000000E+00  0.00000000000E+00  0.45593999997E+02  0.45594000000E+02  0.51100000000E-03 0.  1.
         11   -1    0    0    0    0 -0.00000000000E+00 -0.00000000000E+00 -0.45593999997E+02  0.45594000000E+02  0.51100000000E-03 0. -1.
    9900012    2    1    2    0    0  0.17374280308E+02  0.10061474481E+02  0.35356301064E+02  0.50528844698E+02  0.29999953945E+02 0.  0.
         12    1    1    2    0    0 -0.17374280308E+02 -0.10061474481E+02 -0.35356301064E+02  0.40659155302E+02  0.00000000000E+00 0. -1.
         11    1    3    3    0    0  0.15006528191E+02  0.60748299245E+01  0.99376707845E+01  0.18996229832E+02  0.51100000000E-03 0. -1.
        -11    1    3    3    0    0  0.58588267152E+01  0.94466438330E+01  0.10604460604E+02  0.15362926647E+02  0.51100000000E-03 0.  1.
         12    1    3    3    0    0 -0.34910745980E+01 -0.54599992770E+01  0.14814169675E+02  0.16169688220E+02  0.00000000000E+00 0. -1.
</event>
<event>
 7    1  0.2661323E-011  0.5052885E+02  0.7816164E-02  0.1300439E+00
        -11   -1    0    0    0    0  0.00000000000E+00  0.00000000000E+00  0.45593999997E+02  0.45594000000E+02  0.51100000000E-03 0. -1.
         11   -1    0    0    0    0 -0.00000000000E+00 -0.00000000000E+00 -0.45593999997E+02  0.45594000000E+02  0.51100000000E-03 0.  1.
    9900012    2    1    2    0    0 -0.10274166689E+02  0.21621962273E+02 -0.32864853983E+02  0.50528851202E+02  0.29999973713E+02 0.  0.
         12    1    1    2    0    0  0.10274166689E+02 -0.21621962273E+02  0.32864853983E+02  0.40659148798E+02  0.00000000000E+00 0. -1.
         11    1    3    3    0    0 -0.46908823948E+01  0.16635773319E+02 -0.11704774103E+02  0.20874747151E+02  0.51100000000E-03 0. -1.
        -11    1    3    3    0    0 -0.50137160807E+01  0.93852680391E+01 -0.22608930916E+02  0.24987684217E+02  0.51100000000E-03 0.  1.
        -12    1    3    3    0    0 -0.56956821321E+00 -0.43990790849E+01  0.14488510360E+01  0.46664198342E+01  0.00000000000E+00 0.  1.
</event>
<event>
 7    1  0.2661323E-011  0.5052880E+02  0.7816164E-02  0.1300439E+00
        -11   -1    0    0    0    0  0.00000000000E+00  0.00000000000E+00  0.45593999997E+02  0.45594000000E+02  0.51100000000E-03 0.  1.
         11   -1    0    0    0    0 -0.00000000000E+00 -0.00000000000E+00 -0.45593999997E+02  0.45594000000E+02  0.51100000000E-03 0. -1.
    9900012    2    1    2    0    0 -0.26229185572E+02 -0.83956402861E+01  0.29911756846E+02  0.50528804863E+02  0.29999832860E+02 0.  0.
         12    1    1    2    0    0  0.26229185572E+02  0.83956402861E+01 -0.29911756846E+02  0.40659195137E+02  0.00000000000E+00 0. -1.
         11    1    3    3    0    0 -0.12983755206E+02 -0.18252494611E+01  0.58316088297E+01  0.14349811729E+02  0.51100000000E-03 0. -1.
        -11    1    3    3    0    0 -0.16406861878E+02  0.32082883154E+01  0.15299571852E+02  0.22661754780E+02  0.51100000000E-03 0.  1.
         12    1    3    3    0    0  0.31614315121E+01 -0.97786791403E+01  0.87805761648E+01  0.13517238354E+02  0.00000000000E+00 0. -1.
</event>
<event>
 7    1  0.2661323E-011  0.5052886E+02  0.7816164E-02  0.1300439E+00
        -11   -1    0    0    0    0  0.00000000000E+00  0.00000000000E+00  0.45593999997E+02  0.45594000000E+02  0.51100000000E-03 0. -1.
         11   -1    0    0    0    0 -0.00000000000E+00 -0.00000000000E+00 -0.45593999997E+02  0.45594000000E+02  0.51100000000E-03 0.  1.
    9900012    2    1    2    0    0  0.39657861117E+02 -0.88791883554E+01  0.12569675034E+01  0.50528857098E+02  0.29999991635E+02 0.  0.
         12    1    1    2    0    0 -0.39657861117E+02  0.88791883554E+01 -0.12569675034E+01  0.40659142902E+02  0.00000000000E+00 0. -1.
         11    1    3    3    0    0  0.16564276869E+01  0.17891744061E+01  0.10031703249E+01  0.26365220840E+01  0.51100000000E-03 0. -1.
        -11    1    3    3    0    0  0.10536045690E+02 -0.46451889461E+01  0.12699985659E+02  0.17142802429E+02  0.51100000000E-03 0.  1.
        -12    1    3    3    0    0  0.27465387740E+02 -0.60231738154E+01 -0.12446188480E+02  0.30749532585E+02  0.00000000000E+00 0.  1.
</event>
<event>
 7    1  0.2661323E-011  0.5052886E+02  0.7816164E-02  0.1300439E+00
        -11   -1    0    0    0    0  0.00000000000E+00  0.00000000000E+00  0.45593999997E+02  0.45594000000E+02  0.51100000000E-03 0.  1.
         11   -1    0    0    0    0 -0.00000000000E+00 -0.00000000000E+00 -0.45593999997E+02  0.45594000000E+02  0.51100000000E-03 0. -1.
    9900012    2    1    2    0    0 -0.32076808506E+02 -0.14163527659E+02  0.20582479012E+02  0.50528860782E+02  0.30000002833E+02 0.  0.
         12    1    1    2    0    0  0.32076808506E+02  0.14163527659E+02 -0.20582479012E+02  0.40659139218E+02  0.00000000000E+00 0. -1.
         11    1    3    3    0    0 -0.39301932635E+01 -0.62010114347E+01  0.10630552019E+02  0.12919272363E+02  0.51100000000E-03 0.  1.
        -11    1    3    3    0    0 -0.52563632567E+01 -0.10248344344E+02  0.89453846083E+01  0.14583477724E+02  0.51100000000E-03 0. -1.
         12    1    3    3    0    0 -0.22890251986E+02  0.22858281194E+01  0.10065423845E+01  0.23026110695E+02  0.00000000000E+00 0. -1.
</event>
<event>
 7    1  0.2661323E-011  0.5052893E+02  0.7816164E-02  0.1300439E+00
        -11   -1    0    0    0    0  0.00000000000E+00  0.00000000000E+00  0.45593999997E+02  0.45594000000E+02  0.51100000000E-03 0. -1.
         11   -1    0    0    0    0 -0.00000000000E+00 -0.00000000000E+00 -0.45593999997E+02  0.45594000000E+02  0.51100000000E-03 0.  1.
    9900012    2    1    2    0    0  0.18470936797E+02 -0.36056185759E+02 -0.34548339277E+01  0.50528930715E+02  0.30000215400E+02 0.  0.
         12    1    1    2    0    0 -0.18470936797E+02  0.36056185759E+02  0.34548339277E+01  0.40659069285E+02  0.00000000000E+00 0. -1.
         11    1    3    3    0    0 -0.23822706639E+01 -0.59962058166E+01 -0.18030954644E+01  0.66993172209E+01  0.51100000000E-03 0. -1.
        -11    1    3    3    0    0  0.14769476664E+02 -0.12059876340E+02 -0.11664295211E+02  0.22352490718E+02  0.51100000000E-03 0.  1.
         12    1    3    3    0    0  0.60837307972E+01 -0.18000103603E+02  0.10012556747E+02  0.21477122776E+02  0.00000000000E+00 0. -1.
</event>
<event>
 7    1  0.2661323E-011  0.5052886E+02  0.7816164E-02  0.1300439E+00
        -11   -1    0    0    0    0  0.00000000000E+00  0.00000000000E+00  0.45593999997E+02  0.45594000000E+02  0.51100000000E-03 0.  1.
         11   -1    0    0    0    0 -0.00000000000E+00 -0.00000000000E+00 -0.45593999997E+02  0.45594000000E+02  0.51100000000E-03 0. -1.
    9900012    2    1    2    0    0  0.10031532425E+02  0.34441279844E+02  0.19139806789E+02  0.50528860757E+02  0.30000002756E+02 0.  0.
         12    1    1    2    0    0 -0.10031532425E+02 -0.34441279844E+02 -0.19139806789E+02  0.40659139243E+02  0.00000000000E+00 0. -1.
         11    1    3    3    0    0  0.27117645740E+01 -0.21312199992E+00  0.80411582802E+00  0.28364926613E+01  0.51100000000E-03 0. -1.
        -11    1    3    3    0    0 -0.32923653052E+01  0.58915272703E+01  0.15497298222E+02  0.16903136257E+02  0.51100000000E-03 0.  1.
        -12    1    3    3    0    0  0.10612133157E+02  0.28762874573E+02  0.28383927394E+01  0.30789231838E+02  0.00000000000E+00 0.  1.
</event>
<event>
 7    1  0.2661323E-011  0.5052886E+02  0.7816164E-02  0.1300439E+00
        -11   -1    0    0    0    0  0.00000000000E+00  0.00000000000E+00  0.45593999997E+02  0.45594000000E+02  0.51100000000E-03 0. -1.
         11   -1    0    0    0    0 -0.00000000000E+00 -0.00000000000E+00 -0.45593999997E+02  0.45594000000E+02  0.51100000000E-03 0.  1.
    9900012    2    1    2    0    0  0.25125560217E+02  0.31624057875E+02  0.46680927335E+01  0.50528857086E+02  0.29999991599E+02 0.  0.
         12    1    1    2    0    0 -0.25125560217E+02 -0.31624057875E+02 -0.46680927335E+01  0.40659142914E+02  0.00000000000E+00 0. -1.
         11    1    3    3    0    0  0.53671416107E+01  0.16164200710E+02 -0.31092566066E+01  0.17313436128E+02  0.51100000000E-03 0. -1.
        -11    1    3    3    0    0  0.19250453566E+02  0.10740049812E+02 -0.22130099093E+01  0.22154594232E+02  0.51100000000E-03 0.  1.
         12    1    3    3    0    0  0.50796504085E+00  0.47198073539E+01  0.99903592495E+01  0.11060826727E+02  0.00000000000E+00 0. -1.
</event>
<event>
 7    1  0.2661323E-011  0.5052886E+02  0.7816164E-02  0.1300439E+00
        -11   -1    0    0    0    0  0.00000000000E+00  0.00000000000E+00  0.45593999997E+02  0.45594000000E+02  0.51100000000E-03 0.  1.
         11   -1    0    0    0    0 -0.00000000000E+00 -0.00000000000E+00 -0.45593999997E+02  0.45594000000E+02  0.51100000000E-03 0. -1.
    9900012    2    1    2    0    0 -0.40509785572E+02 -0.21591630535E+01 -0.27314657338E+01  0.50528860594E+02  0.30000002263E+02 0.  0.
         12    1    1    2    0    0  0.40509785572E+02  0.21591630535E+01  0.27314657338E+01  0.40659139406E+02  0.00000000000E+00 0. -1.
         11    1    3    3    0    0 -0.47762075271E+01 -0.37160630238E+01 -0.70535680122E+01  0.92937669813E+01  0.51100000000E-03 0. -1.
        -11    1    3    3    0    0 -0.11409741131E+02 -0.81411564376E+01  0.54158082986E+01  0.15026363519E+02  0.51100000000E-03 0.  1.
         12    1    3    3    0    0 -0.24323836913E+02  0.96980564079E+01 -0.10937060202E+01  0.26208730094E+02  0.00000000000E+00 0. -1.
</event>
<event>
 7    1  0.2661323E-011  0.5052886E+02  0.7816164E-02  0.1300439E+00
        -11   -1    0    0    0    0  0.00000000000E+00  0.00000000000E+00  0.45593999997E+02  0.45594000000E+02  0.51100000000E-03 0.  1.
         11   -1    0    0    0    0 -0.00000000000E+00 -0.00000000000E+00 -0.45593999997E+02  0.45594000000E+02  0.51100000000E-03 0. -1.
    9900012    2    1    2    0    0 -0.15045907935E+02  0.37017418200E+02  0.75164569301E+01  0.50528859323E+02  0.29999998398E+02 0.  0.
         12    1    1    2    0    0  0.15045907935E+02 -0.37017418200E+02 -0.75164569301E+01  0.40659140677E+02  0.00000000000E+00 0. -1.
         11    1    3    3    0    0 -0.69937402802E+01  0.72222937109E+01 -0.49789542681E+01  0.11218908834E+02  0.51100000000E-03 0. -1.
        -11    1    3    3    0    0  0.16324924663E+01  0.40442593564E+01 -0.50553915552E+01  0.66766795214E+01  0.51100000000E-03 0.  1.
        -12    1    3    3    0    0 -0.96846601213E+01  0.25750865133E+02  0.17550802753E+02  0.32633270968E+02  0.00000000000E+00 0.  1.
</event>
<event>
 7    1  0.2661323E-011  0.5052886E+02  0.7816164E-02  0.1300439E+00
        -11   -1    0    0    0    0  0.00000000000E+00  0.00000000000E+00  0.45593999997E+02  0.45594000000E+02  0.51100000000E-03 0.  1.
         11   -1    0    0    0    0 -0.00000000000E+00 -0.00000000000E+00 -0.45593999997E+02  0.45594000000E+02  0.51100000000E-03 0. -1.
    9900012    2    1    2    0    0 -0.72467606521E+01 -0.28930164913E+02  0.27635045019E+02  0.50528859637E+02  0.29999999352E+02 0.  0.
         12    1    1    2    0    0  0.72467606521E+01  0.28930164913E+02 -0.27635045019E+02  0.40659140363E+02  0.00000000000E+00 0. -1.
         11    1    3    3    0    0 -0.11725400167E+02 -0.19282060634E+02  0.17126198169E+02  0.28330011214E+02  0.51100000000E-03 0. -1.
        -11    1    3    3    0    0 -0.52783200130E+01 -0.81002014865E+01  0.49077882394E+01  0.10842523320E+02  0.51100000000E-03 0.  1.
         12    1    3    3    0    0  0.97569595281E+01 -0.15479027927E+01  0.56010586106E+01  0.11356325103E+02  0.00000000000E+00 0. -1.
</event>
<event>
 7    1  0.2661323E-011  0.5052881E+02  0.7816164E-02  0.1300439E+00
        -11   -1    0    0    0    0  0.00000000000E+00  0.00000000000E+00  0.45593999997E+02  0.45594000000E+02  0.51100000000E-03 0.  1.
         11   -1    0    0    0    0 -0.00000000000E+00 -0.00000000000E+00 -0.45593999997E+02  0.45594000000E+02  0.51100000000E-03 0. -1.
    9900012    2    1    2    0    0 -0.29010875541E+01  0.69672417852E+01  0.39952611570E+02  0.50528807456E+02  0.29999840743E+02 0.  0.
         12    1    1    2    0    0  0.29010875541E+01 -0.69672417852E+01 -0.39952611570E+02  0.40659192544E+02  0.00000000000E+00 0. -1.
         11    1    3    3    0    0  0.17408909568E+01  0.28126495879E+01  0.20945756439E+01  0.39152198427E+01  0.51100000000E-03 0. -1.
        -11    1    3    3    0    0  0.16479562460E+01  0.73161351251E+01 -0.59354323885E+00  0.75228908535E+01  0.51100000000E-03 0.  1.
        -12    1    3    3    0    0 -0.62899347569E+01 -0.31615429277E+01  0.38451579164E+02  0.39090696760E+02  0.00000000000E+00 0.  1.
</event>
<event>
 7    1  0.2661323E-011  0.5052886E+02  0.7816164E-02  0.1300439E+00
        -11   -1    0    0    0    0  0.00000000000E+00  0.00000000000E+00  0.45593999997E+02  0.45594000000E+02  0.51100000000E-03 0.  1.
         11   -1    0    0    0    0 -0.00000000000E+00 -0.00000000000E+00 -0.45593999997E+02  0.45594000000E+02  0.51100000000E-03 0. -1.
    9900012    2    1    2    0    0  0.10320235288E+02 -0.10493826908E+02  0.37901686621E+02  0.50528861934E+02  0.30000006333E+02 0.  0.
         12    1    1    2    0    0 -0.10320235288E+02  0.10493826908E+02 -0.37901686621E+02  0.40659138066E+02  0.00000000000E+00 0. -1.
         11    1    3    3    0    0  0.13198402949E+02  0.53359025264E+00  0.24552711863E+02  0.27880427168E+02  0.51100000000E-03 0. -1.
        -11    1    3    3    0    0  0.55908346193E+01 -0.20588242146E+01  0.41504635862E+01  0.72610286550E+01  0.51100000000E-03 0.  1.
         12    1    3    3    0    0 -0.84690022798E+01 -0.89685929455E+01  0.91985111717E+01  0.15387406111E+02  0.00000000000E+00 0. -1.
</event>
<event>
 7    1  0.2661323E-011  0.5052886E+02  0.7816164E-02  0.1300439E+00
        -11   -1    0    0    0    0  0.00000000000E+00  0.00000000000E+00  0.45593999997E+02  0.45594000000E+02  0.51100000000E-03 0. -1.
         11   -1    0    0    0    0 -0.00000000000E+00 -0.00000000000E+00 -0.45593999997E+02  0.45594000000E+02  0.51100000000E-03 0.  1.
    9900012    2    1    2    0    0  0.27100442637E+02  0.13875046769E+02 -0.26948366295E+02  0.50528863758E+02  0.30000011879E+02 0.  0.
         12    1    1    2    0    0 -0.27100442637E+02 -0.13875046769E+02  0.26948366295E+02  0.40659136242E+02  0.00000000000E+00 0. -1.
         11    1    3    3    0    0  0.16538729925E+02  0.53402224419E+01 -0.14926208811E+02  0.22909370856E+02  0.51100000000E-03 0. -1.
        -11    1    3    3    0    0  0.16700558259E+02  0.47615914101E+01 -0.10370339296E+02  0.20226846919E+02  0.51100000000E-03 0.  1.
         12    1    3    3    0    0 -0.61388455474E+01  0.37732329174E+01 -0.16518181881E+01  0.73926459830E+01  0.00000000000E+00 0. -1.
</event>
<event>
 7    1  0.2661323E-011  0.5052886E+02  0.7816164E-02  0.1300439E+00
        -11   -1    0    0    0    0  0.00000000000E+00  0.00000000000E+00  0.45593999997E+02  0.45594000000E+02  0.51100000000E-03 0.  1.
         11   -1    0    0    0    0 -0.00000000000E+00 -0.00000000000E+00 -0.45593999997E+02  0.45594000000E+02  0.51100000000E-03 0. -1.
    9900012    2    1    2    0    0  0.14186409143E+02  0.35848733117E+02  0.12914330819E+02  0.50528858211E+02  0.29999995020E+02 0.  0.
         12    1    1    2    0    0 -0.14186409143E+02 -0.35848733117E+02 -0.12914330819E+02  0.40659141789E+02  0.00000000000E+00 0. -1.
         11    1    3    3    0    0 -0.21535752388E+01  0.11600497561E+02 -0.43927125861E-01  0.11798786371E+02  0.51100000000E-03 0. -1.
        -11    1    3    3    0    0 -0.13105278821E+01  0.15380105433E+02  0.10843950133E+02  0.18864155990E+02  0.51100000000E-03 0.  1.
        -12    1    3    3    0    0  0.17650512264E+02  0.88681301227E+01  0.21143078121E+01  0.19865915851E+02  0.00000000000E+00 0.  1.
</event>
<event>
 7    1  0.2661323E-011  0.5052883E+02  0.7816164E-02  0.1300439E+00
        -11   -1    0    0    0    0  0.00000000000E+00  0.00000000000E+00  0.45593999997E+02  0.45594000000E+02  0.51100000000E-03 0.  1.
         11   -1    0    0    0    0 -0.00000000000E+00 -0.00000000000E+00 -0.45593999997E+02  0.45594000000E+02  0.51100000000E-03 0. -1.
    9900012    2    1    2    0    0 -0.38370217112E+02  0.82120409866E+01 -0.10651630521E+02  0.50528826237E+02  0.29999897829E+02 0.  0.
         12    1    1    2    0    0  0.38370217112E+02 -0.82120409866E+01  0.10651630521E+02  0.40659173763E+02  0.00000000000E+00 0. -1.
         11    1    3    3    0    0 -0.33087053945E+01 -0.16339595039E+01 -0.78971196894E+01  0.87167571205E+01  0.51100000000E-03 0. -1.
        -11    1    3    3    0    0 -0.29954482798E+02  0.92044747740E-01 -0.55223978898E+01  0.30459422034E+02  0.51100000000E-03 0.  1.
        -12    1    3    3    0    0 -0.51070289196E+01  0.97539557428E+01  0.27678870580E+01  0.11352647083E+02  0.00000000000E+00 0.  1.
</event>
<event>
 7    1  0.2661323E-011  0.5052885E+02  0.7816164E-02  0.1300439E+00
        -11   -1    0    0    0    0  0.00000000000E+00  0.00000000000E+00  0.45593999997E+02  0.45594000000E+02  0.51100000000E-03 0.  1.
         11   -1    0    0    0    0 -0.00000000000E+00 -0.00000000000E+00 -0.45593999997E+02  0.45594000000E+02  0.51100000000E-03 0. -1.
    9900012    2    1    2    0    0  0.12254404793E+02  0.14346267385E+00  0.38768230850E+02  0.50528846767E+02  0.29999960233E+02 0.  0.
         12    1    1    2    0    0 -0.12254404793E+02 -0.14346267385E+00 -0.38768230850E+02  0.40659153233E+02  0.00000000000E+00 0. -1.
         11    1    3    3    0    0 -0.11074936883E+01 -0.29275508522E+01  0.40548259167E+00  0.31561864101E+01  0.51100000000E-03 0. -1.
        -11    1    3    3    0    0  0.48478524261E+01 -0.10587955830E+02  0.14671807353E+02  0.18731481871E+02  0.51100000000E-03 0.  1.
         12    1    3    3    0    0  0.85140460549E+01  0.13658969356E+02  0.23690940905E+02  0.28641178486E+02  0.00000000000E+00 0. -1.
</event>
<event>
 7    1  0.2661323E-011  0.5052887E+02  0.7816164E-02  0.1300439E+00
        -11   -1    0    0    0    0  0.00000000000E+00  0.00000000000E+00  0.45593999997E+02  0.45594000000E+02  0.51100000000E-03 0. -1.
         11   -1    0    0    0    0 -0.00000000000E+00 -0.00000000000E+00 -0.45593999997E+02  0.45594000000E+02  0.51100000000E-03 0.  1.
    9900012    2    1    2    0    0 -0.17676643349E+02 -0.34809520565E+02  0.11357756020E+02  0.50528867399E+02  0.30000022947E+02 0.  0.
         12    1    1    2    0    0  0.17676643349E+02  0.34809520565E+02 -0.11357756020E+02  0.40659132601E+02  0.00000000000E+00 0. -1.
         11    1    3    3    0    0 -0.64265665345E+00 -0.12927482200E+02  0.41949944450E+01  0.13606277311E+02  0.51100000000E-03 0. -1.
        -11    1    3    3    0    0 -0.40664256002E+01 -0.10645525229E+02  0.14345804411E+02  0.18321166148E+02  0.51100000000E-03 0.  1.
         12    1    3    3    0    0 -0.12967561096E+02 -0.11236513136E+02 -0.71830428367E+01  0.18601423940E+02  0.00000000000E+00 0. -1.
</event>
<event>
 7    1  0.2661323E-011  0.5052886E+02  0.7816164E-02  0.1300439E+00
        -11   -1    0    0    0    0  0.00000000000E+00  0.00000000000E+00  0.45593999997E+02  0.45594000000E+02  0.51100000000E-03 0.  1.
         11   -1    0    0    0    0 -0.00000000000E+00 -0.00000000000E+00 -0.45593999997E+02  0.45594000000E+02  0.51100000000E-03 0. -1.
    9900012    2    1    2    0    0  0.36783993105E+02 -0.16827097024E+02  0.41173614053E+01  0.50528855789E+02  0.29999987656E+02 0.  0.
         12    1    1    2    0    0 -0.36783993105E+02  0.16827097024E+02 -0.41173614053E+01  0.40659144211E+02  0.00000000000E+00 0. -1.
         11    1    3    3    0    0  0.10494447776E+02 -0.13490209879E+02 -0.15946593850E+01  0.17165725604E+02  0.51100000000E-03 0. -1.
        -11    1    3    3    0    0  0.14302783729E+02 -0.11481353001E+02  0.39829574281E+01  0.18768458628E+02  0.51100000000E-03 0.  1.
         12    1    3    3    0    0  0.11986761601E+02  0.81444658556E+01  0.17290633621E+01  0.14594671557E+02  0.00000000000E+00 0. -1.
</event>
<event>
 7    1  0.2661323E-011  0.5052886E+02  0.7816164E-02  0.1300439E+00
        -11   -1    0    0    0    0  0.00000000000E+00  0.00000000000E+00  0.45593999997E+02  0.45594000000E+02  0.51100000000E-03 0.  1.
         11   -1    0    0    0    0 -0.00000000000E+00 -0.00000000000E+00 -0.45593999997E+02  0.45594000000E+02  0.51100000000E-03 0. -1.
    9900012    2    1    2    0    0  0.10661357629E+02  0.14214855134E+01  0.39210716357E+02  0.50528862714E+02  0.30000008707E+02 0.  0.
         12    1    1    2    0    0 -0.10661357629E+02 -0.14214855134E+01 -0.39210716357E+02  0.40659137286E+02  0.00000000000E+00 0. -1.
         11    1    3    3    0    0 -0.51206605073E+01 -0.78279581068E+01  0.69625609714E+01  0.11660846783E+02  0.51100000000E-03 0. -1.
        -11    1    3    3    0    0  0.16786233846E+00 -0.76625571732E+00  0.94219793540E+01  0.94545767117E+01  0.51100000000E-03 0.  1.
         12    1    3    3    0    0  0.15614155798E+02  0.10015699338E+02  0.22826176032E+02  0.29413439220E+02  0.00000000000E+00 0. -1.
</event>
<event>
 7    1  0.2661323E-011  0.5052885E+02  0.7816164E-02  0.1300439E+00
        -11   -1    0    0    0    0  0.00000000000E+00  0.00000000000E+00  0.45593999997E+02  0.45594000000E+02  0.51100000000E-03 0.  1.
         11   -1    0    0    0    0 -0.00000000000E+00 -0.00000000000E+00 -0.45593999997E+02  0.45594000000E+02  0.51100000000E-03 0. -1.
    9900012    2    1    2    0    0 -0.15532314881E+02  0.60926175719E+01  0.37078210504E+02  0.50528849878E+02  0.29999969690E+02 0.  0.
         12    1    1    2    0    0  0.15532314881E+02 -0.60926175719E+01 -0.37078210504E+02  0.40659150122E+02  0.00000000000E+00 0. -1.
         11    1    3    3    0    0 -0.21670034799E+00  0.12973950355E+02  0.18515090703E+02  0.22609266483E+02  0.51100000000E-03 0.  1.
        -11    1    3    3    0    0 -0.99149806320E+01  0.20071926627E+01  0.11659394626E+02  0.15436228381E+02  0.51100000000E-03 0. -1.
        -12    1    3    3    0    0 -0.54006339009E+01 -0.88885254461E+01  0.69037251748E+01  0.12483355015E+02  0.00000000000E+00 0.  1.
</event>
<event>
 7    1  0.2661323E-011  0.5052884E+02  0.7816164E-02  0.1300439E+00
        -11   -1    0    0    0    0  0.00000000000E+00  0.00000000000E+00  0.45593999997E+02  0.45594000000E+02  0.51100000000E-03 0.  1.
         11   -1    0    0    0    0 -0.00000000000E+00 -0.00000000000E+00 -0.45593999997E+02  0.45594000000E+02  0.51100000000E-03 0. -1.
    9900012    2    1    2    0    0  0.13374119974E+02  0.38377468712E+02 -0.12124247628E+01  0.50528841578E+02  0.29999944460E+02 0.  0.
         12    1    1    2    0    0 -0.13374119974E+02 -0.38377468712E+02  0.12124247628E+01  0.40659158422E+02  0.00000000000E+00 0. -1.
         11    1    3    3    0    0 -0.28587137418E+00  0.19527895680E+02  0.81723543410E+01  0.21170918919E+02  0.51100000000E-03 0. -1.
        -11    1    3    3    0    0 -0.15904483894E+01  0.90332325798E+01 -0.56250566516E+00  0.91894085666E+01  0.51100000000E-03 0.  1.
         12    1    3    3    0    0  0.15250439738E+02  0.98163404520E+01 -0.88222734386E+01  0.20168514092E+02  0.00000000000E+00 0. -1.
</event>
<event>
 7    1  0.2661323E-011  0.5052879E+02  0.7816164E-02  0.1300439E+00
        -11   -1    0    0    0    0  0.00000000000E+00  0.00000000000E+00  0.45593999997E+02  0.45594000000E+02  0.51100000000E-03 0.  1.
         11   -1    0    0    0    0 -0.00000000000E+00 -0.00000000000E+00 -0.45593999997E+02  0.45594000000E+02  0.51100000000E-03 0. -1.
    9900012    2    1    2    0    0 -0.22198128991E+01  0.34694320679E+02 -0.21084298214E+02  0.50528793319E+02  0.29999797772E+02 0.  0.
         12    1    1    2    0    0  0.22198128991E+01 -0.34694320679E+02  0.21084298214E+02  0.40659206681E+02  0.00000000000E+00 0. -1.
         11    1    3    3    0    0 -0.38510011042E+01  0.25719597382E+01 -0.55632831523E+01  0.72384602018E+01  0.51100000000E-03 0. -1.
        -11    1    3    3    0    0 -0.63690292042E+01  0.17943837719E+02 -0.18717069448E+02  0.26699710374E+02  0.51100000000E-03 0.  1.
        -12    1    3    3    0    0  0.80002174093E+01  0.14178523222E+02  0.31960543860E+01  0.16590622743E+02  0.00000000000E+00 0.  1.
</event>
<event>
 7    1  0.2661323E-011  0.5052884E+02  0.7816164E-02  0.1300439E+00
        -11   -1    0    0    0    0  0.00000000000E+00  0.00000000000E+00  0.45593999997E+02  0.45594000000E+02  0.51100000000E-03 0. -1.
         11   -1    0    0    0    0 -0.00000000000E+00 -0.00000000000E+00 -0.45593999997E+02  0.45594000000E+02  0.51100000000E-03 0.  1.
    9900012    2    1    2    0    0 -0.34176457029E+02  0.21703753553E+02 -0.37528887149E+01  0.50528839814E+02  0.29999939097E+02 0.  0.
         12    1    1    2    0    0  0.34176457029E+02 -0.21703753553E+02  0.37528887149E+01  0.40659160186E+02  0.00000000000E+00 0. -1.
         11    1    3    3    0    0 -0.18169225457E+02  0.46376836594E+01  0.12379515965E+01  0.18792588642E+02  0.51100000000E-03 0. -1.
        -11    1    3    3    0    0 -0.46231230777E+01 -0.30120424833E+01 -0.65960052860E+01  0.85995902755E+01  0.51100000000E-03 0.  1.
        -12    1    3    3    0    0 -0.11384108494E+02  0.20078112377E+02  0.16051649746E+01  0.23136660896E+02  0.00000000000E+00 0.  1.
</event>
<event>
 7    1  0.2661323E-011  0.5052886E+02  0.7816164E-02  0.1300439E+00
        -11   -1    0    0    0    0  0.00000000000E+00  0.00000000000E+00  0.45593999997E+02  0.45594000000E+02  0.51100000000E-03 0.  1.
         11   -1    0    0    0    0 -0.00000000000E+00 -0.00000000000E+00 -0.45593999997E+02  0.45594000000E+02  0.51100000000E-03 0. -1.
    9900012    2    1    2    0    0  0.17266737235E+02 -0.26412062056E+02  0.25640368202E+02  0.50528859351E+02  0.29999998483E+02 0.  0.
         12    1    1    2    0    0 -0.17266737235E+02  0.26412062056E+02 -0.25640368202E+02  0.40659140649E+02  0.00000000000E+00 0. -1.
         11    1    3    3    0    0  0.11367372248E+01 -0.18114825309E+02  0.94722230198E+01  0.20473448090E+02  0.51100000000E-03 0. -1.
        -11    1    3    3    0    0 -0.14513514612E+01 -0.17180502793E+01 -0.26495889827E+01  0.34754049929E+01  0.51100000000E-03 0.  1.
        -12    1    3    3    0    0  0.17581351471E+02 -0.65791864678E+01  0.18817734165E+02  0.26580006269E+02  0.00000000000E+00 0.  1.
</event>
<event>
 7    1  0.2661323E-011  0.5052886E+02  0.7816164E-02  0.1300439E+00
        -11   -1    0    0    0    0  0.00000000000E+00  0.00000000000E+00  0.45593999997E+02  0.45594000000E+02  0.51100000000E-03 0.  1.
         11   -1    0    0    0    0 -0.00000000000E+00 -0.00000000000E+00 -0.45593999997E+02  0.45594000000E+02  0.51100000000E-03 0. -1.
    9900012    2    1    2    0    0 -0.19153188419E+02 -0.25636166377E+02  0.25082020388E+02  0.50528863268E+02  0.30000010388E+02 0.  0.
         12    1    1    2    0    0  0.19153188419E+02  0.25636166377E+02 -0.25082020388E+02  0.40659136732E+02  0.00000000000E+00 0. -1.
         11    1    3    3    0    0 -0.19291618615E+02 -0.15974821306E+02  0.16917808386E+02  0.30225381808E+02  0.51100000000E-03 0. -1.
        -11    1    3    3    0    0 -0.55966250835E+01 -0.10906484027E+02  0.33372809053E+01  0.12704764864E+02  0.51100000000E-03 0.  1.
         12    1    3    3    0    0  0.57350552803E+01  0.12451389565E+01  0.48269310967E+01  0.75987165957E+01  0.00000000000E+00 0. -1.
</event>
<event>
 7    1  0.2661323E-011  0.5052886E+02  0.7816164E-02  0.1300439E+00
        -11   -1    0    0    0    0  0.00000000000E+00  0.00000000000E+00  0.45593999997E+02  0.45594000000E+02  0.51100000000E-03 0. -1.
         11   -1    0    0    0    0 -0.00000000000E+00 -0.00000000000E+00 -0.45593999997E+02  0.45594000000E+02  0.51100000000E-03 0.  1.
    9900012    2    1    2    0    0  0.20294178699E+02 -0.33272605042E+02 -0.11586449466E+02  0.50528859003E+02  0.29999997426E+02 0.  0.
         12    1    1    2    0    0 -0.20294178699E+02  0.33272605042E+02  0.11586449466E+02  0.40659140997E+02  0.00000000000E+00 0. -1.
         11    1    3    3    0    0  0.19331243406E+02 -0.23176950297E+02 -0.12870650813E+02  0.32810389350E+02  0.51100000000E-03 0. -1.
        -11    1    3    3    0    0  0.49815944985E+00 -0.17063072233E+00 -0.56038271759E+01  0.56285128551E+01  0.51100000000E-03 0.  1.
         12    1    3    3    0    0  0.46477584369E+00 -0.99250240232E+01  0.68880285232E+01  0.12089956798E+02  0.00000000000E+00 0. -1.
</event>
<event>
 7    1  0.2661323E-011  0.5052886E+02  0.7816164E-02  0.1300439E+00
        -11   -1    0    0    0    0  0.00000000000E+00  0.00000000000E+00  0.45593999997E+02  0.45594000000E+02  0.51100000000E-03 0.  1.
         11   -1    0    0    0    0 -0.00000000000E+00 -0.00000000000E+00 -0.45593999997E+02  0.45594000000E+02  0.51100000000E-03 0. -1.
    9900012    2    1    2    0    0 -0.35755036498E+00  0.32433961133E+02  0.24516845008E+02  0.50528863681E+02  0.30000011646E+02 0.  0.
         12    1    1    2    0    0  0.35755036498E+00 -0.32433961133E+02 -0.24516845008E+02  0.40659136319E+02  0.00000000000E+00 0. -1.
         11    1    3    3    0    0 -0.74751631706E+01  0.19841955261E+02  0.88264901463E+01  0.22967110867E+02  0.51100000000E-03 0. -1.
        -11    1    3    3    0    0  0.80709563030E+01  0.15924505933E+02  0.16139165809E+02  0.24066634541E+02  0.51100000000E-03 0.  1.
        -12    1    3    3    0    0 -0.95334349733E+00 -0.33325000611E+01 -0.44881094705E+00  0.34951182737E+01  0.00000000000E+00 0.  1.
</event>
<event>
 7    1  0.2661323E-011  0.5052886E+02  0.7816164E-02  0.1300439E+00
        -11   -1    0    0    0    0  0.00000000000E+00  0.00000000000E+00  0.45593999997E+02  0.45594000000E+02  0.51100000000E-03 0.  1.
         11   -1    0    0    0    0 -0.00000000000E+00 -0.00000000000E+00 -0.45593999997E+02  0.45594000000E+02  0.51100000000E-03 0. -1.
    9900012    2    1    2    0    0  0.14298808605E+02  0.37538291687E+02  0.62917513095E+01  0.50528863206E+02  0.30000010200E+02 0.  0.
         12    1    1    2    0    0 -0.14298808605E+02 -0.37538291687E+02 -0.62917513095E+01  0.40659136794E+02  0.00000000000E+00 0. -1.
         11    1    3    3    0    0  0.21333583518E+00 -0.22408643667E+01  0.57641884364E+01  0.61881219995E+01  0.51100000000E-03 0. -1.
        -11    1    3    3    0    0  0.63839164412E+01  0.38907529587E+01  0.14877632666E+01  0.76227152323E+01  0.51100000000E-03 0.  1.
         12    1    3    3    0    0  0.77015563287E+01  0.35888403095E+02 -0.96020039351E+00  0.36718025974E+02  0.00000000000E+00 0. -1.
</event>
<event>
 7    1  0.2661323E-011  0.5052884E+02  0.7816164E-02  0.1300439E+00
        -11   -1    0    0    0    0  0.00000000000E+00  0.00000000000E+00  0.45593999997E+02  0.45594000000E+02  0.51100000000E-03 0.  1.
         11   -1    0    0    0    0 -0.00000000000E+00 -0.00000000000E+00 -0.45593999997E+02  0.45594000000E+02  0.51100000000E-03 0. -1.
    9900012    2    1    2    0    0  0.26279787110E+02  0.28302953470E+01  0.30895456397E+02  0.50528843488E+02  0.29999950266E+02 0.  0.
         12    1    1    2    0    0 -0.26279787110E+02 -0.28302953470E+01 -0.30895456397E+02  0.40659156512E+02  0.00000000000E+00 0. -1.
         11    1    3    3    0    0  0.30213315183E+01 -0.24878442639E+01  0.21190548805E+02  0.21548948284E+02  0.51100000000E-03 0. -1.
        -11    1    3    3    0    0  0.81733044522E+01 -0.21101163657E+01  0.87195577695E+01  0.12136151973E+02  0.51100000000E-03 0.  1.
         12    1    3    3    0    0  0.15085151140E+02  0.74282559766E+01  0.98534982205E+00  0.16843743231E+02  0.00000000000E+00 0. -1.
</event>
<event>
 7    1  0.2661323E-011  0.5052885E+02  0.7816164E-02  0.1300439E+00
        -11   -1    0    0    0    0  0.00000000000E+00  0.00000000000E+00  0.45593999997E+02  0.45594000000E+02  0.51100000000E-03 0. -1.
         11   -1    0    0    0    0 -0.00000000000E+00 -0.00000000000E+00 -0.45593999997E+02  0.45594000000E+02  0.51100000000E-03 0.  1.
    9900012    2    1    2    0    0 -0.39334691747E+02  0.76518745827E+01 -0.68845735645E+01  0.50528849583E+02  0.29999968792E+02 0.  0.
         12    1    1    2    0    0  0.39334691747E+02 -0.76518745827E+01  0.68845735645E+01  0.40659150417E+02  0.00000000000E+00 0. -1.
         11    1    3    3    0    0 -0.81680173963E+01  0.90569939887E+01 -0.58741800058E+01  0.13537046919E+02  0.51100000000E-03 0. -1.
        -11    1    3    3    0    0 -0.21410350346E+02  0.78514322290E+01 -0.41557033154E+01  0.23180119937E+02  0.51100000000E-03 0.  1.
        -12    1    3    3    0    0 -0.97563240046E+01 -0.92565516350E+01  0.31453097567E+01  0.13811682726E+02  0.00000000000E+00 0.  1.
</event>
<event>
 7    1  0.2661323E-011  0.5052879E+02  0.7816164E-02  0.1300439E+00
        -11   -1    0    0    0    0  0.00000000000E+00  0.00000000000E+00  0.45593999997E+02  0.45594000000E+02  0.51100000000E-03 0.  1.
         11   -1    0    0    0    0 -0.00000000000E+00 -0.00000000000E+00 -0.45593999997E+02  0.45594000000E+02  0.51100000000E-03 0. -1.
    9900012    2    1    2    0    0  0.49156544867E+01 -0.34495818638E+02  0.20953431942E+02  0.50528788587E+02  0.29999783389E+02 0.  0.
         12    1    1    2    0    0 -0.49156544867E+01  0.34495818638E+02 -0.20953431942E+02  0.40659211413E+02  0.00000000000E+00 0. -1.
         11    1    3    3    0    0 -0.74627837915E+01 -0.12657495215E+02  0.83769725203E+01  0.16913869927E+02  0.51100000000E-03 0. -1.
        -11    1    3    3    0    0  0.80202079386E+01 -0.65079964009E+01 -0.35694052494E+01  0.10927872923E+02  0.51100000000E-03 0.  1.
         12    1    3    3    0    0  0.43582303396E+01 -0.15330327022E+02  0.16145864671E+02  0.22687045738E+02  0.00000000000E+00 0. -1.
</event>
<event>
 7    1  0.2661323E-011  0.5052887E+02  0.7816164E-02  0.1300439E+00
        -11   -1    0    0    0    0  0.00000000000E+00  0.00000000000E+00  0.45593999997E+02  0.45594000000E+02  0.51100000000E-03 0.  1.
         11   -1    0    0    0    0 -0.00000000000E+00 -0.00000000000E+00 -0.45593999997E+02  0.45594000000E+02  0.51100000000E-03 0. -1.
    9900012    2    1    2    0    0 -0.40260676429E+02 -0.20734035611E+01 -0.52861814783E+01  0.50528870847E+02  0.30000033428E+02 0.  0.
         12    1    1    2    0    0  0.40260676429E+02  0.20734035611E+01  0.52861814783E+01  0.40659129153E+02  0.00000000000E+00 0. -1.
         11    1    3    3    0    0 -0.27560326193E+02  0.59968567249E+00 -0.90508208119E+01  0.29014626663E+02  0.51100000000E-03 0. -1.
        -11    1    3    3    0    0 -0.16358533428E+02 -0.29416552139E+01  0.53899729549E+00  0.16629656330E+02  0.51100000000E-03 0.  1.
        -12    1    3    3    0    0  0.36581831919E+01  0.26856598031E+00  0.32256420380E+01  0.48845878546E+01  0.00000000000E+00 0.  1.
</event>
<event>
 7    1  0.2661323E-011  0.5052886E+02  0.7816164E-02  0.1300439E+00
        -11   -1    0    0    0    0  0.00000000000E+00  0.00000000000E+00  0.45593999997E+02  0.45594000000E+02  0.51100000000E-03 0.  1.
         11   -1    0    0    0    0 -0.00000000000E+00 -0.00000000000E+00 -0.45593999997E+02  0.45594000000E+02  0.51100000000E-03 0. -1.
    9900012    2    1    2    0    0  0.79604010045E+01 -0.27501581580E+01  0.39777311295E+02  0.50528857758E+02  0.29999993640E+02 0.  0.
         12    1    1    2    0    0 -0.79604010045E+01  0.27501581580E+01 -0.39777311295E+02  0.40659142242E+02  0.00000000000E+00 0. -1.
         11    1    3    3    0    0  0.24322859285E+01 -0.24774999963E+01 -0.38752850645E+01  0.52030621428E+01  0.51100000000E-03 0. -1.
        -11    1    3    3    0    0  0.96600667395E+00 -0.50442895654E+01  0.13158637394E+02  0.14125429708E+02  0.51100000000E-03 0.  1.
        -12    1    3    3    0    0  0.45621084020E+01  0.47716314037E+01  0.30493958966E+02  0.31200365907E+02  0.00000000000E+00 0.  1.
</event>
<event>
 7    1  0.2661323E-011  0.5052886E+02  0.7816164E-02  0.1300439E+00
        -11   -1    0    0    0    0  0.00000000000E+00  0.00000000000E+00  0.45593999997E+02  0.45594000000E+02  0.51100000000E-03 0.  1.
         11   -1    0    0    0    0 -0.00000000000E+00 -0.00000000000E+00 -0.45593999997E+02  0.45594000000E+02  0.51100000000E-03 0. -1.
    9900012    2    1    2    0    0 -0.34420276038E+01  0.27448490243E+02  0.29797627811E+02  0.50528858422E+02  0.29999995660E+02 0.  0.
         12    1    1    2    0    0  0.34420276038E+01 -0.27448490243E+02 -0.29797627811E+02  0.40659141578E+02  0.00000000000E+00 0. -1.
         11    1    3    3    0    0 -0.63544150493E+01  0.17875831829E+02  0.93169643028E+01  0.21135983022E+02  0.51100000000E-03 0. -1.
        -11    1    3    3    0    0 -0.24588365137E+00  0.12538742404E+02  0.21546909874E+02  0.24930901412E+02  0.51100000000E-03 0.  1.
        -12    1    3    3    0    0  0.31582710970E+01 -0.29660839902E+01 -0.10662463655E+01  0.44619739881E+01  0.00000000000E+00 0.  1.
</event>
<event>
 7    1  0.2661323E-011  0.5052890E+02  0.7816164E-02  0.1300439E+00
        -11   -1    0    0    0    0  0.00000000000E+00  0.00000000000E+00  0.45593999997E+02  0.45594000000E+02  0.51100000000E-03 0.  1.
         11   -1    0    0    0    0 -0.00000000000E+00 -0.00000000000E+00 -0.45593999997E+02  0.45594000000E+02  0.51100000000E-03 0. -1.
    9900012    2    1    2    0    0  0.38006921641E+02 -0.87437317762E+00  0.14417763325E+02  0.50528898677E+02  0.30000118019E+02 0.  0.
         12    1    1    2    0    0 -0.38006921641E+02  0.87437317762E+00 -0.14417763325E+02  0.40659101323E+02  0.00000000000E+00 0. -1.
         11    1    3    3    0    0  0.10305795302E+02  0.14000035905E+01  0.82850248098E+01  0.13297032121E+02  0.51100000000E-03 0. -1.
        -11    1    3    3    0    0  0.28420608577E+02  0.51071325585E+01  0.71448305744E+01  0.29746636769E+02  0.51100000000E-03 0.  1.
         12    1    3    3    0    0 -0.71948223844E+00 -0.73815093267E+01 -0.10120920590E+01  0.74852297872E+01  0.00000000000E+00 0. -1.
</event>
<event>
 7    1  0.2661323E-011  0.5052886E+02  0.7816164E-02  0.1300439E+00
        -11   -1    0    0    0    0  0.00000000000E+00  0.00000000000E+00  0.45593999997E+02  0.45594000000E+02  0.51100000000E-03 0. -1.
         11   -1    0    0    0    0 -0.00000000000E+00 -0.00000000000E+00 -0.45593999997E+02  0.45594000000E+02  0.51100000000E-03 0.  1.
    9900012    2    1    2    0    0  0.54069216105E+01 -0.39252934478E+02 -0.91180201481E+01  0.50528856405E+02  0.29999989529E+02 0.  0.
         12    1    1    2    0    0 -0.54069216105E+01  0.39252934478E+02  0.91180201481E+01  0.40659143595E+02  0.00000000000E+00 0. -1.
         11    1    3    3    0    0  0.57846829196E+01 -0.14184401645E+02  0.40298076061E+01  0.15839796593E+02  0.51100000000E-03 0. -1.
        -11    1    3    3    0    0 -0.82087737672E+01 -0.76283258887E+01  0.47201381781E+00  0.11215976102E+02  0.51100000000E-03 0.  1.
         12    1    3    3    0    0  0.78310124581E+01 -0.17440206944E+02 -0.13619841572E+02  0.23473083709E+02  0.00000000000E+00 0. -1.
</event>
<event>
 7    1  0.2661323E-011  0.5052885E+02  0.7816164E-02  0.1300439E+00
        -11   -1    0    0    0    0  0.00000000000E+00  0.00000000000E+00  0.45593999997E+02  0.45594000000E+02  0.51100000000E-03 0.  1.
         11   -1    0    0    0    0 -0.00000000000E+00 -0.00000000000E+00 -0.45593999997E+02  0.45594000000E+02  0.51100000000E-03 0. -1.
    9900012    2    1    2    0    0 -0.21614375219E+02  0.23937770003E+02  0.24758191057E+02  0.50528854986E+02  0.29999985216E+02 0.  0.
         12    1    1    2    0    0  0.21614375219E+02 -0.23937770003E+02 -0.24758191057E+02  0.40659145014E+02  0.00000000000E+00 0. -1.
         11    1    3    3    0    0 -0.14438888842E+02 -0.18023646669E+01  0.75224589229E+01  0.16380397366E+02  0.51100000000E-03 0. -1.
        -11    1    3    3    0    0 -0.32284651742E+01  0.69633085507E+01 -0.92333041607E+00  0.77306657327E+01  0.51100000000E-03 0.  1.
        -12    1    3    3    0    0 -0.39470212031E+01  0.18776826120E+02  0.18159062550E+02  0.26417791887E+02  0.00000000000E+00 0.  1.
</event>
<event>
 7    1  0.2661323E-011  0.5052886E+02  0.7816164E-02  0.1300439E+00
        -11   -1    0    0    0    0  0.00000000000E+00  0.00000000000E+00  0.45593999997E+02  0.45594000000E+02  0.51100000000E-03 0. -1.
         11   -1    0    0    0    0 -0.00000000000E+00 -0.00000000000E+00 -0.45593999997E+02  0.45594000000E+02  0.51100000000E-03 0.  1.
    9900012    2    1    2    0    0 -0.89837723833E+01 -0.45821054636E+01 -0.39388604007E+02  0.50528856104E+02  0.29999988613E+02 0.  0.
         12    1    1    2    0    0  0.89837723833E+01  0.45821054636E+01  0.39388604007E+02  0.40659143896E+02  0.00000000000E+00 0. -1.
         11    1    3    3    0    0 -0.10739848310E+02 -0.84319317511E+01 -0.20474047027E+02  0.24609518823E+02  0.51100000000E-03 0. -1.
        -11    1    3    3    0    0  0.71828915525E+01 -0.18955934011E+01 -0.15735090177E+02  0.17400582420E+02  0.51100000000E-03 0.  1.
         12    1    3    3    0    0 -0.54268156253E+01  0.57454196885E+01 -0.31794668035E+01  0.85187548611E+01  0.00000000000E+00 0. -1.
</event>
<event>
 7    1  0.2661323E-011  0.5052886E+02  0.7816164E-02  0.1300439E+00
        -11   -1    0    0    0    0  0.00000000000E+00  0.00000000000E+00  0.45593999997E+02  0.45594000000E+02  0.51100000000E-03 0.  1.
         11   -1    0    0    0    0 -0.00000000000E+00 -0.00000000000E+00 -0.45593999997E+02  0.45594000000E+02  0.51100000000E-03 0. -1.
    9900012    2    1    2    0    0 -0.32006784818E+02  0.13092513562E+02 -0.21384977147E+02  0.50528862856E+02  0.30000009137E+02 0.  0.
         12    1    1    2    0    0  0.32006784818E+02 -0.13092513562E+02  0.21384977147E+02  0.40659137144E+02  0.00000000000E+00 0. -1.
         11    1    3    3    0    0  0.34254783827E+01  0.44533302257E+01 -0.37153848482E+01  0.67357358233E+01  0.51100000000E-03 0. -1.
        -11    1    3    3    0    0 -0.41426450176E-03  0.84024903658E+00 -0.54442179832E+01  0.55086775477E+01  0.51100000000E-03 0.  1.
        -12    1    3    3    0    0 -0.35431848936E+02  0.77989343001E+01 -0.12225374315E+02  0.38284449485E+02  0.00000000000E+00 0.  1.
</event>
<event>
 7    1  0.2661323E-011  0.5052885E+02  0.7816164E-02  0.1300439E+00
        -11   -1    0    0    0    0  0.00000000000E+00  0.00000000000E+00  0.45593999997E+02  0.45594000000E+02  0.51100000000E-03 0. -1.
         11   -1    0    0    0    0 -0.00000000000E+00 -0.00000000000E+00 -0.45593999997E+02  0.45594000000E+02  0.51100000000E-03 0.  1.
    9900012    2    1    2    0    0 -0.38773610253E+02 -0.12238073264E+02  0.53581682463E-01  0.50528853917E+02  0.29999981965E+02 0.  0.
         12    1    1    2    0    0  0.38773610253E+02  0.12238073264E+02 -0.53581682463E-01  0.40659146083E+02  0.00000000000E+00 0. -1.
         11    1    3    3    0    0 -0.13197246904E+02 -0.30235352158E+01  0.13760509601E+01  0.13608916473E+02  0.51100000000E-03 0. -1.
        -11    1    3    3    0    0 -0.17780317530E+02  0.66457926747E+01 -0.27926904604E+01  0.19186072345E+02  0.51100000000E-03 0.  1.
         12    1    3    3    0    0 -0.77960458185E+01 -0.15860330723E+02  0.14702211828E+01  0.17733865099E+02  0.00000000000E+00 0. -1.
</event>
<event>
 7    1  0.2661323E-011  0.5052886E+02  0.7816164E-02  0.1300439E+00
        -11   -1    0    0    0    0  0.00000000000E+00  0.00000000000E+00  0.45593999997E+02  0.45594000000E+02  0.51100000000E-03 0. -1.
         11   -1    0    0    0    0 -0.00000000000E+00 -0.00000000000E+00 -0.45593999997E+02  0.45594000000E+02  0.51100000000E-03 0.  1.
    9900012    2    1    2    0    0 -0.10466415961E+02 -0.36177602335E+02 -0.15323202902E+02  0.50528864238E+02  0.30000013337E+02 0.  0.
         12    1    1    2    0    0  0.10466415961E+02  0.36177602335E+02  0.15323202902E+02  0.40659135762E+02  0.00000000000E+00 0. -1.
         11    1    3    3    0    0  0.31472397286E+00 -0.78060394133E+01 -0.34291686186E+01  0.85318520953E+01  0.51100000000E-03 0. -1.
        -11    1    3    3    0    0  0.33270151358E+01 -0.23958326585E+02 -0.21315493258E+01  0.24281967492E+02  0.51100000000E-03 0.  1.
        -12    1    3    3    0    0 -0.14108155069E+02 -0.44132363362E+01 -0.97624849581E+01  0.17715044651E+02  0.00000000000E+00 0.  1.
</event>
<event>
 7    1  0.2661323E-011  0.5052886E+02  0.7816164E-02  0.1300439E+00
        -11   -1    0    0    0    0  0.00000000000E+00  0.00000000000E+00  0.45593999997E+02  0.45594000000E+02  0.51100000000E-03 0.  1.
         11   -1    0    0    0    0 -0.00000000000E+00 -0.00000000000E+00 -0.45593999997E+02  0.45594000000E+02  0.51100000000E-03 0. -1.
    9900012    2    1    2    0    0  0.17151843336E+02  0.27419297881E+02  0.24640655449E+02  0.50528861702E+02  0.30000005631E+02 0.  0.
         12    1    1    2    0    0 -0.17151843336E+02 -0.27419297881E+02 -0.24640655449E+02  0.40659138298E+02  0.00000000000E+00 0. -1.
         11    1    3    3    0    0  0.20557303020E+02  0.26360103016E+02  0.98586809085E+01  0.34851848272E+02  0.51100000000E-03 0. -1.
        -11    1    3    3    0    0  0.24106666488E+00  0.14003213177E+01  0.26853444185E+01  0.30381059620E+01  0.51100000000E-03 0.  1.
         12    1    3    3    0    0 -0.36465263487E+01 -0.34112645257E+00  0.12096630123E+02  0.12638907468E+02  0.00000000000E+00 0. -1.
</event>
<event>
 7    1  0.2661323E-011  0.5052886E+02  0.7816164E-02  0.1300439E+00
        -11   -1    0    0    0    0  0.00000000000E+00  0.00000000000E+00  0.45593999997E+02  0.45594000000E+02  0.51100000000E-03 0. -1.
         11   -1    0    0    0    0 -0.00000000000E+00 -0.00000000000E+00 -0.45593999997E+02  0.45594000000E+02  0.51100000000E-03 0.  1.
    9900012    2    1    2    0    0 -0.26912456053E+02  0.29204766974E+02  0.87159039655E+01  0.50528859739E+02  0.29999999663E+02 0.  0.
         12    1    1    2    0    0  0.26912456053E+02 -0.29204766974E+02 -0.87159039655E+01  0.40659140261E+02  0.00000000000E+00 0. -1.
         11    1    3    3    0    0 -0.13508537063E+02  0.19320804633E+00  0.30566600762E+00  0.13513376147E+02  0.51100000000E-03 0. -1.
        -11    1    3    3    0    0  0.36892740835E+00  0.66686527000E+01 -0.42070684544E+01  0.78934442107E+01  0.51100000000E-03 0.  1.
         12    1    3    3    0    0 -0.13772846398E+02  0.22342906228E+02  0.12617306412E+02  0.29122039381E+02  0.00000000000E+00 0. -1.
</event>
<event>
 7    1  0.2661323E-011  0.5052885E+02  0.7816164E-02  0.1300439E+00
        -11   -1    0    0    0    0  0.00000000000E+00  0.00000000000E+00  0.45593999997E+02  0.45594000000E+02  0.51100000000E-03 0.  1.
         11   -1    0    0    0    0 -0.00000000000E+00 -0.00000000000E+00 -0.45593999997E+02  0.45594000000E+02  0.51100000000E-03 0. -1.
    9900012    2    1    2    0    0  0.18626344963E+01 -0.39290630449E+01  0.40425980176E+02  0.50528845842E+02  0.29999957420E+02 0.  0.
         12    1    1    2    0    0 -0.18626344963E+01  0.39290630449E+01 -0.40425980176E+02  0.40659154158E+02  0.00000000000E+00 0. -1.
         11    1    3    3    0    0 -0.30841489114E+01  0.42153306949E+01  0.80854075705E+01  0.96257365026E+01  0.51100000000E-03 0. -1.
        -11    1    3    3    0    0  0.89287190416E+01 -0.87737576826E+01  0.34232786151E+02  0.36449753024E+02  0.51100000000E-03 0.  1.
         12    1    3    3    0    0 -0.39819356339E+01  0.62936394277E+00 -0.18922135455E+01  0.44533563148E+01  0.00000000000E+00 0. -1.
</event>
<event>
 7    1  0.2661323E-011  0.5052886E+02  0.7816164E-02  0.1300439E+00
        -11   -1    0    0    0    0  0.00000000000E+00  0.00000000000E+00  0.45593999997E+02  0.45594000000E+02  0.51100000000E-03 0.  1.
         11   -1    0    0    0    0 -0.00000000000E+00 -0.00000000000E+00 -0.45593999997E+02  0.45594000000E+02  0.51100000000E-03 0. -1.
    9900012    2    1    2    0    0  0.19590775786E+02  0.33684345402E+02  0.11607399753E+02  0.50528863879E+02  0.30000012248E+02 0.  0.
         12    1    1    2    0    0 -0.19590775786E+02 -0.33684345402E+02 -0.11607399753E+02  0.40659136121E+02  0.00000000000E+00 0. -1.
         11    1    3    3    0    0 -0.47216348041E+01  0.52128581240E+01  0.29239487733E+01  0.76169023713E+01  0.51100000000E-03 0. -1.
        -11    1    3    3    0    0  0.10766078259E+01  0.14450779861E+02  0.58467338279E+01  0.15625889406E+02  0.51100000000E-03 0.  1.
         12    1    3    3    0    0  0.23235802765E+02  0.14020707417E+02  0.28367171522E+01  0.27286072102E+02  0.00000000000E+00 0. -1.
</event>
<event>
 7    1  0.2661323E-011  0.5052883E+02  0.7816164E-02  0.1300439E+00
        -11   -1    0    0    0    0  0.00000000000E+00  0.00000000000E+00  0.45593999997E+02  0.45594000000E+02  0.51100000000E-03 0.  1.
         11   -1    0    0    0    0 -0.00000000000E+00 -0.00000000000E+00 -0.45593999997E+02  0.45594000000E+02  0.51100000000E-03 0. -1.
    9900012    2    1    2    0    0  0.12265561056E+02  0.36784716507E+02  0.12231470060E+02  0.50528828631E+02  0.29999905108E+02 0.  0.
         12    1    1    2    0    0 -0.12265561056E+02 -0.36784716507E+02 -0.12231470060E+02  0.40659171369E+02  0.00000000000E+00 0. -1.
         11    1    3    3    0    0 -0.39408114759E+01  0.15285573818E+01  0.31370828881E+01  0.52638172523E+01  0.51100000000E-03 0. -1.
        -11    1    3    3    0    0 -0.35236101966E+00  0.16995368744E+02  0.11460097966E+02  0.20501233199E+02  0.51100000000E-03 0.  1.
        -12    1    3    3    0    0  0.16558733551E+02  0.18260790382E+02 -0.23657107944E+01  0.24763778180E+02  0.00000000000E+00 0.  1.
</event>
<event>
 7    1  0.2661323E-011  0.5052886E+02  0.7816164E-02  0.1300439E+00
        -11   -1    0    0    0    0  0.00000000000E+00  0.00000000000E+00  0.45593999997E+02  0.45594000000E+02  0.51100000000E-03 0. -1.
         11   -1    0    0    0    0 -0.00000000000E+00 -0.00000000000E+00 -0.45593999997E+02  0.45594000000E+02  0.51100000000E-03 0.  1.
    9900012    2    1    2    0    0  0.32567364688E+02  0.17845300460E+02 -0.16555288309E+02  0.50528861271E+02  0.30000004318E+02 0.  0.
         12    1    1    2    0    0 -0.32567364688E+02 -0.17845300460E+02  0.16555288309E+02  0.40659138729E+02  0.00000000000E+00 0. -1.
         11    1    3    3    0    0  0.19808814255E+02  0.22751605876E+02 -0.83987490946E+01  0.31313953419E+02  0.51100000000E-03 0. -1.
        -11    1    3    3    0    0  0.53380324767E+01 -0.14278252576E+01  0.22521995320E+01  0.59670494117E+01  0.51100000000E-03 0.  1.
        -12    1    3    3    0    0  0.74205179561E+01 -0.34784801582E+01 -0.10408738746E+02  0.13247858440E+02  0.00000000000E+00 0.  1.
</event>
<event>
 7    1  0.2661323E-011  0.5052886E+02  0.7816164E-02  0.1300439E+00
        -11   -1    0    0    0    0  0.00000000000E+00  0.00000000000E+00  0.45593999997E+02  0.45594000000E+02  0.51100000000E-03 0.  1.
         11   -1    0    0    0    0 -0.00000000000E+00 -0.00000000000E+00 -0.45593999997E+02  0.45594000000E+02  0.51100000000E-03 0. -1.
    9900012    2    1    2    0    0  0.38019945944E+02 -0.13208509710E+02  0.57606248118E+01  0.50528858142E+02  0.29999994809E+02 0.  0.
         12    1    1    2    0    0 -0.38019945944E+02  0.13208509710E+02 -0.57606248118E+01  0.40659141858E+02  0.00000000000E+00 0. -1.
         11    1    3    3    0    0  0.59685248550E+01  0.82794376928E+00 -0.73871906548E+00  0.60707895655E+01  0.51100000000E-03 0. -1.
        -11    1    3    3    0    0  0.30085097185E+02 -0.17337888605E+02 -0.23577091800E+01  0.34803365451E+02  0.51100000000E-03 0.  1.
        -12    1    3    3    0    0  0.19663239046E+01  0.33014351252E+01  0.88570530573E+01  0.96547031256E+01  0.00000000000E+00 0.  1.
</event>
<event>
 7    1  0.2661323E-011  0.5052886E+02  0.7816164E-02  0.1300439E+00
        -11   -1    0    0    0    0  0.00000000000E+00  0.00000000000E+00  0.45593999997E+02  0.45594000000E+02  0.51100000000E-03 0. -1.
         11   -1    0    0    0    0 -0.00000000000E+00 -0.00000000000E+00 -0.45593999997E+02  0.45594000000E+02  0.51100000000E-03 0.  1.
    9900012    2    1    2    0    0 -0.14581131600E+02 -0.12979309460E+02 -0.35666421866E+02  0.50528861771E+02  0.30000005838E+02 0.  0.
         12    1    1    2    0    0  0.14581131600E+02  0.12979309460E+02  0.35666421866E+02  0.40659138229E+02  0.00000000000E+00 0. -1.
         11    1    3    3    0    0 -0.14200108880E+02 -0.86911672469E+01 -0.37358402110E+01  0.17062707366E+02  0.51100000000E-03 0. -1.
        -11    1    3    3    0    0  0.25872541995E+01 -0.59683283655E+01 -0.18542495320E+02  0.19650418844E+02  0.51100000000E-03 0.  1.
        -12    1    3    3    0    0 -0.29682769199E+01  0.16801861526E+01 -0.13388086335E+02  0.13815735561E+02  0.00000000000E+00 0.  1.
</event>
<event>
 7    1  0.2661323E-011  0.5052886E+02  0.7816164E-02  0.1300439E+00
        -11   -1    0    0    0    0  0.00000000000E+00  0.00000000000E+00  0.45593999997E+02  0.45594000000E+02  0.51100000000E-03 0. -1.
         11   -1    0    0    0    0 -0.00000000000E+00 -0.00000000000E+00 -0.45593999997E+02  0.45594000000E+02  0.51100000000E-03 0.  1.
    9900012    2    1    2    0    0  0.19796918595E+02  0.33625834277E+02 -0.11425873738E+02  0.50528864405E+02  0.30000013845E+02 0.  0.
         12    1    1    2    0    0 -0.19796918595E+02 -0.33625834277E+02  0.11425873738E+02  0.40659135595E+02  0.00000000000E+00 0. -1.
         11    1    3    3    0    0  0.12072413443E+02  0.18033965424E+02 -0.11114737719E+02  0.24382462346E+02  0.51100000000E-03 0. -1.
        -11    1    3    3    0    0  0.45583050845E+01  0.18098330728E+02 -0.56060588776E+01  0.19487319384E+02  0.51100000000E-03 0.  1.
         12    1    3    3    0    0  0.31662000675E+01 -0.25064618742E+01  0.52949228584E+01  0.66590826749E+01  0.00000000000E+00 0. -1.
</event>
<event>
 7    1  0.2713307E-011  0.5052887E+02  0.7816164E-02  0.1300439E+00
        -11   -1    0    0    0    0  0.00000000000E+00  0.00000000000E+00  0.45593999997E+02  0.45594000000E+02  0.51100000000E-03 0. -1.
         11   -1    0    0    0    0 -0.00000000000E+00 -0.00000000000E+00 -0.45593999997E+02  0.45594000000E+02  0.51100000000E-03 0.  1.
    9900012    2    1    2    0    0 -0.28447379729E+02 -0.15619137133E+02 -0.24493963506E+02  0.50528866875E+02  0.30000021354E+02 0.  0.
         12    1    1    2    0    0  0.28447379729E+02  0.15619137133E+02  0.24493963506E+02  0.40659133125E+02  0.00000000000E+00 0. -1.
         11    1    3    3    0    0 -0.17477954489E+02 -0.93748345167E+01 -0.79203995857E+01  0.21356477828E+02  0.51100000000E-03 0. -1.
        -11    1    3    3    0    0 -0.12553673710E+02 -0.11351761647E+02 -0.16763259259E+02  0.23821504515E+02  0.51100000000E-03 0.  1.
         12    1    3    3    0    0  0.15842484694E+01  0.51074590305E+01  0.18969533942E+00  0.53508845328E+01  0.00000000000E+00 0. -1.
</event>
<event>
 7    1  0.2661323E-011  0.5052886E+02  0.7816164E-02  0.1300439E+00
        -11   -1    0    0    0    0  0.00000000000E+00  0.00000000000E+00  0.45593999997E+02  0.45594000000E+02  0.51100000000E-03 0.  1.
         11   -1    0    0    0    0 -0.00000000000E+00 -0.00000000000E+00 -0.45593999997E+02  0.45594000000E+02  0.51100000000E-03 0. -1.
    9900012    2    1    2    0    0 -0.29718175725E+01  0.94683479255E+01  0.39429482164E+02  0.50528863562E+02  0.30000011284E+02 0.  0.
         12    1    1    2    0    0  0.29718175725E+01 -0.94683479255E+01 -0.39429482164E+02  0.40659136438E+02  0.00000000000E+00 0. -1.
         11    1    3    3    0    0  0.24192327371E+01 -0.49712623927E+01 -0.13757686805E+01  0.56972692175E+01  0.51100000000E-03 0. -1.
        -11    1    3    3    0    0  0.37109898215E+00  0.42550073914E+01  0.29035302769E+01  0.51646191230E+01  0.51100000000E-03 0.  1.
         12    1    3    3    0    0 -0.57621492917E+01  0.10184602927E+02  0.37901720568E+02  0.39666975222E+02  0.00000000000E+00 0. -1.
</event>
<event>
 7    1  0.2661323E-011  0.5052887E+02  0.7816164E-02  0.1300439E+00
        -11   -1    0    0    0    0  0.00000000000E+00  0.00000000000E+00  0.45593999997E+02  0.45594000000E+02  0.51100000000E-03 0. -1.
         11   -1    0    0    0    0 -0.00000000000E+00 -0.00000000000E+00 -0.45593999997E+02  0.45594000000E+02  0.51100000000E-03 0.  1.
    9900012    2    1    2    0    0  0.21966794885E+02  0.19551456325E+02 -0.28077846238E+02  0.50528868537E+02  0.30000026406E+02 0.  0.
         12    1    1    2    0    0 -0.21966794885E+02 -0.19551456325E+02  0.28077846238E+02  0.40659131463E+02  0.00000000000E+00 0. -1.
         11    1    3    3    0    0 -0.44362017183E+01  0.73640896284E+01 -0.13221131765E+02  0.15770479611E+02  0.51100000000E-03 0. -1.
        -11    1    3    3    0    0  0.15199173167E+02  0.53021077162E+01 -0.14402795329E+02  0.21600178813E+02  0.51100000000E-03 0.  1.
        -12    1    3    3    0    0  0.11203823436E+02  0.68852589798E+01 -0.45391914416E+00  0.13158210114E+02  0.00000000000E+00 0.  1.
</event>
<event>
 7    1  0.2661323E-011  0.5052886E+02  0.7816164E-02  0.1300439E+00
        -11   -1    0    0    0    0  0.00000000000E+00  0.00000000000E+00  0.45593999997E+02  0.45594000000E+02  0.51100000000E-03 0.  1.
         11   -1    0    0    0    0 -0.00000000000E+00 -0.00000000000E+00 -0.45593999997E+02  0.45594000000E+02  0.51100000000E-03 0. -1.
    9900012    2    1    2    0    0 -0.83330418495E+01 -0.34572458910E+02  0.19709676947E+02  0.50528857524E+02  0.29999992929E+02 0.  0.
         12    1    1    2    0    0  0.83330418495E+01  0.34572458910E+02 -0.19709676947E+02  0.40659142476E+02  0.00000000000E+00 0. -1.
         11    1    3    3    0    0  0.37863160613E+01  0.22339816329E+01  0.37712547431E+01  0.57921693562E+01  0.51100000000E-03 0. -1.
        -11    1    3    3    0    0  0.99906757747E-01 -0.30182685724E+01  0.71296119063E+01  0.77428220134E+01  0.51100000000E-03 0.  1.
         12    1    3    3    0    0 -0.12219264668E+02 -0.33788171971E+02  0.88088102978E+01  0.36993866154E+02  0.00000000000E+00 0. -1.
</event>
<event>
 7    1  0.2661323E-011  0.5052886E+02  0.7816164E-02  0.1300439E+00
        -11   -1    0    0    0    0  0.00000000000E+00  0.00000000000E+00  0.45593999997E+02  0.45594000000E+02  0.51100000000E-03 0.  1.
         11   -1    0    0    0    0 -0.00000000000E+00 -0.00000000000E+00 -0.45593999997E+02  0.45594000000E+02  0.51100000000E-03 0. -1.
    9900012    2    1    2    0    0  0.35979698621E+02 -0.14541354412E+00  0.18936900062E+02  0.50528855371E+02  0.29999986387E+02 0.  0.
         12    1    1    2    0    0 -0.35979698621E+02  0.14541354412E+00 -0.18936900062E+02  0.40659144629E+02  0.00000000000E+00 0. -1.
         11    1    3    3    0    0  0.51386844001E+01  0.52313558498E+01  0.11028961046E+01  0.74154933396E+01  0.51100000000E-03 0. -1.
        -11    1    3    3    0    0  0.24708365033E+02  0.43893330688E+01  0.45192027772E+01  0.25498877258E+02  0.51100000000E-03 0.  1.
         12    1    3    3    0    0  0.61326491874E+01 -0.97661024627E+01  0.13314801181E+02  0.17614484774E+02  0.00000000000E+00 0. -1.
</event>
<event>
 7    1  0.2661323E-011  0.5052886E+02  0.7816164E-02  0.1300439E+00
        -11   -1    0    0    0    0  0.00000000000E+00  0.00000000000E+00  0.45593999997E+02  0.45594000000E+02  0.51100000000E-03 0. -1.
         11   -1    0    0    0    0 -0.00000000000E+00 -0.00000000000E+00 -0.45593999997E+02  0.45594000000E+02  0.51100000000E-03 0.  1.
    9900012    2    1    2    0    0 -0.40359215732E+02 -0.25091060420E+01 -0.42430566652E+01  0.50528862804E+02  0.30000008980E+02 0.  0.
         12    1    1    2    0    0  0.40359215732E+02  0.25091060420E+01  0.42430566652E+01  0.40659137196E+02  0.00000000000E+00 0. -1.
         11    1    3    3    0    0 -0.10572724260E+02  0.41165873316E+01  0.39427184047E+01  0.12011403674E+02  0.51100000000E-03 0. -1.
        -11    1    3    3    0    0 -0.23869428835E+02  0.23191139214E+01  0.15512173759E+01  0.24031941201E+02  0.51100000000E-03 0.  1.
        -12    1    3    3    0    0 -0.59170626371E+01 -0.89448072949E+01 -0.97369924458E+01  0.14485517929E+02  0.00000000000E+00 0.  1.
</event>
<event>
 7    1  0.2661323E-011  0.5052886E+02  0.7816164E-02  0.1300439E+00
        -11   -1    0    0    0    0  0.00000000000E+00  0.00000000000E+00  0.45593999997E+02  0.45594000000E+02  0.51100000000E-03 0. -1.
         11   -1    0    0    0    0 -0.00000000000E+00 -0.00000000000E+00 -0.45593999997E+02  0.45594000000E+02  0.51100000000E-03 0.  1.
    9900012    2    1    2    0    0  0.33959380664E+02  0.20190566667E+02  0.96055795281E+01  0.50528859878E+02  0.30000000085E+02 0.  0.
         12    1    1    2    0    0 -0.33959380664E+02 -0.20190566667E+02 -0.96055795281E+01  0.40659140122E+02  0.00000000000E+00 0. -1.
         11    1    3    3    0    0  0.14529260016E+02  0.14105642031E+02  0.64271182742E+00  0.20260345813E+02  0.51100000000E-03 0. -1.
        -11    1    3    3    0    0  0.61624753428E+01  0.24681993792E+01 -0.66956296847E+01  0.94286567263E+01  0.51100000000E-03 0.  1.
         12    1    3    3    0    0  0.13267645305E+02  0.36167252564E+01  0.15658497385E+02  0.20839857338E+02  0.00000000000E+00 0. -1.
</event>
<event>
 7    1  0.2661323E-011  0.5052887E+02  0.7816164E-02  0.1300439E+00
        -11   -1    0    0    0    0  0.00000000000E+00  0.00000000000E+00  0.45593999997E+02  0.45594000000E+02  0.51100000000E-03 0.  1.
         11   -1    0    0    0    0 -0.00000000000E+00 -0.00000000000E+00 -0.45593999997E+02  0.45594000000E+02  0.51100000000E-03 0. -1.
    9900012    2    1    2    0    0 -0.14777195979E+02  0.15958306418E+02  0.34353048641E+02  0.50528867991E+02  0.30000024747E+02 0.  0.
         12    1    1    2    0    0  0.14777195979E+02 -0.15958306418E+02 -0.34353048641E+02  0.40659132009E+02  0.00000000000E+00 0. -1.
         11    1    3    3    0    0  0.19308276885E+01  0.11144292803E+02  0.19454071806E+02  0.22502983530E+02  0.51100000000E-03 0. -1.
        -11    1    3    3    0    0 -0.19553517952E+01  0.36244680256E+01  0.12335727939E+02  0.13005012617E+02  0.51100000000E-03 0.  1.
         12    1    3    3    0    0 -0.14752671872E+02  0.11895455894E+01  0.25632488958E+01  0.15020871845E+02  0.00000000000E+00 0. -1.
</event>
<event>
 7    1  0.2661323E-011  0.5052873E+02  0.7816164E-02  0.1300439E+00
        -11   -1    0    0    0    0  0.00000000000E+00  0.00000000000E+00  0.45593999997E+02  0.45594000000E+02  0.51100000000E-03 0.  1.
         11   -1    0    0    0    0 -0.00000000000E+00 -0.00000000000E+00 -0.45593999997E+02  0.45594000000E+02  0.51100000000E-03 0. -1.
    9900012    2    1    2    0    0 -0.35943179177E+02  0.31659139178E+00  0.19004321453E+02  0.50528725617E+02  0.29999591981E+02 0.  0.
         12    1    1    2    0    0  0.35943179177E+02 -0.31659139178E+00 -0.19004321453E+02  0.40659274383E+02  0.00000000000E+00 0. -1.
         11    1    3    3    0    0 -0.15989525210E+02 -0.94929697990E+01  0.38905928268E+01  0.18997844742E+02  0.51100000000E-03 0. -1.
        -11    1    3    3    0    0 -0.46083405469E+01 -0.45775130269E+01  0.49653003710E+01  0.81758569057E+01  0.51100000000E-03 0.  1.
        -12    1    3    3    0    0 -0.15345313420E+02  0.14387074218E+02  0.10148428256E+02  0.23355023969E+02  0.00000000000E+00 0.  1.
</event>
<event>
 7    1  0.2661323E-011  0.5052888E+02  0.7816164E-02  0.1300439E+00
        -11   -1    0    0    0    0  0.00000000000E+00  0.00000000000E+00  0.45593999997E+02  0.45594000000E+02  0.51100000000E-03 0. -1.
         11   -1    0    0    0    0 -0.00000000000E+00 -0.00000000000E+00 -0.45593999997E+02  0.45594000000E+02  0.51100000000E-03 0.  1.
    9900012    2    1    2    0    0  0.15523158662E+02 -0.98559390537E+01 -0.36263703249E+02  0.50528878480E+02  0.30000056626E+02 0.  0.
         12    1    1    2    0    0 -0.15523158662E+02  0.98559390537E+01  0.36263703249E+02  0.40659121520E+02  0.00000000000E+00 0. -1.
         11    1    3    3    0    0  0.15741932588E+02 -0.44329341705E+01 -0.11647667868E+02  0.20078035611E+02  0.51100000000E-03 0. -1.
        -11    1    3    3    0    0 -0.26390524685E+00  0.61658511900E+01 -0.10584242429E+02  0.12252083698E+02  0.51100000000E-03 0.  1.
         12    1    3    3    0    0  0.45131320744E-01 -0.11588856073E+02 -0.14031792952E+02  0.18198759171E+02  0.00000000000E+00 0. -1.
</event>
<event>
 7    1  0.2661323E-011  0.5052886E+02  0.7816164E-02  0.1300439E+00
        -11   -1    0    0    0    0  0.00000000000E+00  0.00000000000E+00  0.45593999997E+02  0.45594000000E+02  0.51100000000E-03 0.  1.
         11   -1    0    0    0    0 -0.00000000000E+00 -0.00000000000E+00 -0.45593999997E+02  0.45594000000E+02  0.51100000000E-03 0. -1.
    9900012    2    1    2    0    0  0.15837007929E+02 -0.19628271983E+02  0.31891780749E+02  0.50528861291E+02  0.30000004381E+02 0.  0.
         12    1    1    2    0    0 -0.15837007929E+02  0.19628271983E+02 -0.31891780749E+02  0.40659138709E+02  0.00000000000E+00 0. -1.
         11    1    3    3    0    0 -0.56659087649E+01 -0.76353640627E+00  0.55519501471E+01  0.79692948667E+01  0.51100000000E-03 0. -1.
        -11    1    3    3    0    0 -0.14442566378E+00 -0.73223509618E+01  0.12240614096E+02  0.14264302159E+02  0.51100000000E-03 0.  1.
         12    1    3    3    0    0  0.21647342357E+02 -0.11542384615E+02  0.14099216506E+02  0.28295264265E+02  0.00000000000E+00 0. -1.
</event>
<event>
 7    1  0.2661323E-011  0.5052884E+02  0.7816164E-02  0.1300439E+00
        -11   -1    0    0    0    0  0.00000000000E+00  0.00000000000E+00  0.45593999997E+02  0.45594000000E+02  0.51100000000E-03 0.  1.
         11   -1    0    0    0    0 -0.00000000000E+00 -0.00000000000E+00 -0.45593999997E+02  0.45594000000E+02  0.51100000000E-03 0. -1.
    9900012    2    1    2    0    0 -0.29832761497E+02 -0.95803937167E+01  0.25911186165E+02  0.50528841490E+02  0.29999944192E+02 0.  0.
         12    1    1    2    0    0  0.29832761497E+02  0.95803937167E+01 -0.25911186165E+02  0.40659158510E+02  0.00000000000E+00 0. -1.
         11    1    3    3    0    0 -0.75328980932E+01 -0.11559168807E+01  0.41002753000E+01  0.86540716033E+01  0.51100000000E-03 0.  1.
        -11    1    3    3    0    0 -0.16171083089E+02 -0.17567566554E+02  0.10474382573E+02  0.26073665133E+02  0.51100000000E-03 0. -1.
         12    1    3    3    0    0 -0.61287803144E+01  0.91430897179E+01  0.11336528291E+02  0.15801104754E+02  0.00000000000E+00 0. -1.
</event>
<event>
 7    1  0.2661323E-011  0.5052886E+02  0.7816164E-02  0.1300439E+00
        -11   -1    0    0    0    0  0.00000000000E+00  0.00000000000E+00  0.45593999997E+02  0.45594000000E+02  0.51100000000E-03 0. -1.
         11   -1    0    0    0    0 -0.00000000000E+00 -0.00000000000E+00 -0.45593999997E+02  0.45594000000E+02  0.51100000000E-03 0.  1.
    9900012    2    1    2    0    0 -0.31958104645E+02 -0.24154616625E+02 -0.69569700273E+01  0.50528863404E+02  0.30000010802E+02 0.  0.
         12    1    1    2    0    0  0.31958104645E+02  0.24154616625E+02  0.69569700273E+01  0.40659136596E+02  0.00000000000E+00 0. -1.
         11    1    3    3    0    0  0.27551746451E+00 -0.98870730127E+01 -0.72663048390E+01  0.12273113252E+02  0.51100000000E-03 0. -1.
        -11    1    3    3    0    0 -0.15349900990E+02 -0.13629773454E+02  0.41162354566E+01  0.20936417540E+02  0.51100000000E-03 0.  1.
        -12    1    3    3    0    0 -0.16883721119E+02 -0.63777015891E+00 -0.38069006449E+01  0.17319332612E+02  0.00000000000E+00 0.  1.
</event>
<event>
 7    1  0.2661323E-011  0.5052887E+02  0.7816164E-02  0.1300439E+00
        -11   -1    0    0    0    0  0.00000000000E+00  0.00000000000E+00  0.45593999997E+02  0.45594000000E+02  0.51100000000E-03 0.  1.
         11   -1    0    0    0    0 -0.00000000000E+00 -0.00000000000E+00 -0.45593999997E+02  0.45594000000E+02  0.51100000000E-03 0. -1.
    9900012    2    1    2    0    0 -0.29517375413E+02  0.25808282632E+02  0.10762078769E+02  0.50528865195E+02  0.30000016246E+02 0.  0.
         12    1    1    2    0    0  0.29517375413E+02 -0.25808282632E+02 -0.10762078769E+02  0.40659134805E+02  0.00000000000E+00 0. -1.
         11    1    3    3    0    0 -0.11502228682E+02  0.20104273535E+02  0.59287237096E+01  0.23908844475E+02  0.51100000000E-03 0. -1.
        -11    1    3    3    0    0 -0.26772582036E+01 -0.37644518576E+01  0.70818572296E+01  0.84552653038E+01  0.51100000000E-03 0.  1.
         12    1    3    3    0    0 -0.15337888528E+02  0.94684609540E+01 -0.22485021699E+01  0.18164755416E+02  0.00000000000E+00 0. -1.
</event>
<event>
 7    1  0.2661323E-011  0.5052887E+02  0.7816164E-02  0.1300439E+00
        -11   -1    0    0    0    0  0.00000000000E+00  0.00000000000E+00  0.45593999997E+02  0.45594000000E+02  0.51100000000E-03 0.  1.
         11   -1    0    0    0    0 -0.00000000000E+00 -0.00000000000E+00 -0.45593999997E+02  0.45594000000E+02  0.51100000000E-03 0. -1.
    9900012    2    1    2    0    0  0.29699730923E+02  0.76549036584E+01  0.26692577453E+02  0.50528865012E+02  0.30000015691E+02 0.  0.
         12    1    1    2    0    0 -0.29699730923E+02 -0.76549036584E+01 -0.26692577453E+02  0.40659134988E+02  0.00000000000E+00 0. -1.
         11    1    3    3    0    0  0.84912984006E+00  0.98270646390E+00  0.22028151600E+01  0.25571719476E+01  0.51100000000E-03 0. -1.
        -11    1    3    3    0    0 -0.20300248549E+01  0.47411360811E+01 -0.35131726624E+01  0.62403328972E+01  0.51100000000E-03 0.  1.
         12    1    3    3    0    0  0.30880625938E+02  0.19310611134E+01  0.28002934955E+02  0.41731360167E+02  0.00000000000E+00 0. -1.
</event>
<event>
 7    1  0.2661323E-011  0.5052886E+02  0.7816164E-02  0.1300439E+00
        -11   -1    0    0    0    0  0.00000000000E+00  0.00000000000E+00  0.45593999997E+02  0.45594000000E+02  0.51100000000E-03 0. -1.
         11   -1    0    0    0    0 -0.00000000000E+00 -0.00000000000E+00 -0.45593999997E+02  0.45594000000E+02  0.51100000000E-03 0.  1.
    9900012    2    1    2    0    0 -0.16941663860E+02  0.32633803184E+02 -0.17354557168E+02  0.50528859096E+02  0.29999997708E+02 0.  0.
         12    1    1    2    0    0  0.16941663860E+02 -0.32633803184E+02  0.17354557168E+02  0.40659140904E+02  0.00000000000E+00 0. -1.
         11    1    3    3    0    0 -0.10282183959E+02  0.26932551855E+02 -0.15432344602E+02  0.32699280062E+02  0.51100000000E-03 0. -1.
        -11    1    3    3    0    0 -0.46046982514E+01  0.10917585721E+02 -0.27459396052E+01  0.12162939963E+02  0.51100000000E-03 0.  1.
         12    1    3    3    0    0 -0.20547816495E+01 -0.52163343926E+01  0.82372703979E+00  0.56666390708E+01  0.00000000000E+00 0. -1.
</event>
<event>
 7    1  0.2661323E-011  0.5052890E+02  0.7816164E-02  0.1300439E+00
        -11   -1    0    0    0    0  0.00000000000E+00  0.00000000000E+00  0.45593999997E+02  0.45594000000E+02  0.51100000000E-03 0.  1.
         11   -1    0    0    0    0 -0.00000000000E+00 -0.00000000000E+00 -0.45593999997E+02  0.45594000000E+02  0.51100000000E-03 0. -1.
    9900012    2    1    2    0    0  0.34707761183E+01 -0.21398007668E+02  0.34398271648E+02  0.50528903707E+02  0.30000133306E+02 0.  0.
         12    1    1    2    0    0 -0.34707761183E+01  0.21398007668E+02 -0.34398271648E+02  0.40659096293E+02  0.00000000000E+00 0. -1.
         11    1    3    3    0    0 -0.57224148411E+01  0.32824465688E+01 -0.52272470632E+00  0.66176830137E+01  0.51100000000E-03 0. -1.
        -11    1    3    3    0    0  0.77340184961E+00 -0.53788803912E+01  0.90142281893E+01  0.10525531568E+02  0.51100000000E-03 0.  1.
         12    1    3    3    0    0  0.84197891098E+01 -0.19301573846E+02  0.25906768165E+02  0.33385689125E+02  0.00000000000E+00 0. -1.
</event>
<event>
 7    1  0.2661323E-011  0.5052886E+02  0.7816164E-02  0.1300439E+00
        -11   -1    0    0    0    0  0.00000000000E+00  0.00000000000E+00  0.45593999997E+02  0.45594000000E+02  0.51100000000E-03 0.  1.
         11   -1    0    0    0    0 -0.00000000000E+00 -0.00000000000E+00 -0.45593999997E+02  0.45594000000E+02  0.51100000000E-03 0. -1.
    9900012    2    1    2    0    0  0.28098113687E+02  0.20847061686E+02  0.20713803799E+02  0.50528860295E+02  0.30000001353E+02 0.  0.
         12    1    1    2    0    0 -0.28098113687E+02 -0.20847061686E+02 -0.20713803799E+02  0.40659139705E+02  0.00000000000E+00 0. -1.
         11    1    3    3    0    0  0.12394531736E+02  0.11027821528E+02  0.57372989882E+01  0.17554311851E+02  0.51100000000E-03 0. -1.
        -11    1    3    3    0    0  0.78371116375E+01  0.13278935834E+02 -0.32769791150E+00  0.15422640561E+02  0.51100000000E-03 0.  1.
        -12    1    3    3    0    0  0.78664703137E+01 -0.34596956762E+01  0.15304202723E+02  0.17551907883E+02  0.00000000000E+00 0.  1.
</event>
<event>
 7    1  0.2661323E-011  0.5052885E+02  0.7816164E-02  0.1300439E+00
        -11   -1    0    0    0    0  0.00000000000E+00  0.00000000000E+00  0.45593999997E+02  0.45594000000E+02  0.51100000000E-03 0.  1.
         11   -1    0    0    0    0 -0.00000000000E+00 -0.00000000000E+00 -0.45593999997E+02  0.45594000000E+02  0.51100000000E-03 0. -1.
    9900012    2    1    2    0    0  0.76988416048E+01  0.38050567501E+02  0.12085046513E+02  0.50528853447E+02  0.29999980537E+02 0.  0.
         12    1    1    2    0    0 -0.76988416048E+01 -0.38050567501E+02 -0.12085046513E+02  0.40659146553E+02  0.00000000000E+00 0. -1.
         11    1    3    3    0    0 -0.74903970643E+01  0.65923614080E+01  0.32561416374E+00  0.99835515704E+01  0.51100000000E-03 0. -1.
        -11    1    3    3    0    0  0.17071197621E+01  0.46319905121E+01 -0.42554253581E+01  0.65175332163E+01  0.51100000000E-03 0.  1.
        -12    1    3    3    0    0  0.13482118907E+02  0.26826215581E+02  0.16014857707E+02  0.34027768660E+02  0.00000000000E+00 0.  1.
</event>
<event>
 7    1  0.2661323E-011  0.5052886E+02  0.7816164E-02  0.1300439E+00
        -11   -1    0    0    0    0  0.00000000000E+00  0.00000000000E+00  0.45593999997E+02  0.45594000000E+02  0.51100000000E-03 0.  1.
         11   -1    0    0    0    0 -0.00000000000E+00 -0.00000000000E+00 -0.45593999997E+02  0.45594000000E+02  0.51100000000E-03 0. -1.
    9900012    2    1    2    0    0 -0.23298988547E+02 -0.33228317498E+02  0.24902848107E+01  0.50528862411E+02  0.30000007784E+02 0.  0.
         12    1    1    2    0    0  0.23298988547E+02  0.33228317498E+02 -0.24902848107E+01  0.40659137589E+02  0.00000000000E+00 0. -1.
         11    1    3    3    0    0  0.44051905697E+01 -0.99207950198E+01  0.80096601311E+01  0.13490090195E+02  0.51100000000E-03 0. -1.
        -11    1    3    3    0    0 -0.23005607837E+01 -0.24308985278E+01  0.10498538378E+01  0.35077116349E+01  0.51100000000E-03 0.  1.
         12    1    3    3    0    0 -0.25403618333E+02 -0.20876623951E+02 -0.65692291582E+01  0.33531060581E+02  0.00000000000E+00 0. -1.
</event>
<event>
 7    1  0.2661323E-011  0.5052887E+02  0.7816164E-02  0.1300439E+00
        -11   -1    0    0    0    0  0.00000000000E+00  0.00000000000E+00  0.45593999997E+02  0.45594000000E+02  0.51100000000E-03 0.  1.
         11   -1    0    0    0    0 -0.00000000000E+00 -0.00000000000E+00 -0.45593999997E+02  0.45594000000E+02  0.51100000000E-03 0. -1.
    9900012    2    1    2    0    0 -0.13143259571E+02  0.38269048479E+02 -0.39874641044E+01  0.50528865557E+02  0.30000017347E+02 0.  0.
         12    1    1    2    0    0  0.13143259571E+02 -0.38269048479E+02  0.39874641044E+01  0.40659134443E+02  0.00000000000E+00 0. -1.
         11    1    3    3    0    0 -0.14031517875E+02  0.15270566216E+02 -0.32364236640E+01  0.20989238310E+02  0.51100000000E-03 0. -1.
        -11    1    3    3    0    0 -0.10173511432E+01  0.49255181627E+01  0.79371076059E+01  0.93964573074E+01  0.51100000000E-03 0.  1.
         12    1    3    3    0    0  0.19056094469E+01  0.18072964100E+02 -0.86881480463E+01  0.20143169940E+02  0.00000000000E+00 0. -1.
</event>
<event>
 7    1  0.2661323E-011  0.5052886E+02  0.7816164E-02  0.1300439E+00
        -11   -1    0    0    0    0  0.00000000000E+00  0.00000000000E+00  0.45593999997E+02  0.45594000000E+02  0.51100000000E-03 0.  1.
         11   -1    0    0    0    0 -0.00000000000E+00 -0.00000000000E+00 -0.45593999997E+02  0.45594000000E+02  0.51100000000E-03 0. -1.
    9900012    2    1    2    0    0  0.27367687445E+02 -0.30069502150E+02  0.14152458608E-01  0.50528862332E+02  0.30000007545E+02 0.  0.
         12    1    1    2    0    0 -0.27367687445E+02  0.30069502150E+02 -0.14152458608E-01  0.40659137668E+02  0.00000000000E+00 0. -1.
         11    1    3    3    0    0  0.19123275773E+01  0.45128272825E+01 -0.13592947996E+01  0.50862844452E+01  0.51100000000E-03 0. -1.
        -11    1    3    3    0    0  0.40327647607E+00  0.11590638496E+01  0.13107806713E+01  0.17956077392E+01  0.51100000000E-03 0.  1.
        -12    1    3    3    0    0  0.25052083391E+02 -0.35741393282E+02  0.62666586902E-01  0.43646970148E+02  0.00000000000E+00 0.  1.
</event>
<event>
 7    1  0.2661323E-011  0.5052884E+02  0.7816164E-02  0.1300439E+00
        -11   -1    0    0    0    0  0.00000000000E+00  0.00000000000E+00  0.45593999997E+02  0.45594000000E+02  0.51100000000E-03 0.  1.
         11   -1    0    0    0    0 -0.00000000000E+00 -0.00000000000E+00 -0.45593999997E+02  0.45594000000E+02  0.51100000000E-03 0. -1.
    9900012    2    1    2    0    0  0.79378870617E+01 -0.27482046482E+02  0.28894543688E+02  0.50528836398E+02  0.29999928715E+02 0.  0.
         12    1    1    2    0    0 -0.79378870617E+01  0.27482046482E+02 -0.28894543688E+02  0.40659163602E+02  0.00000000000E+00 0. -1.
         11    1    3    3    0    0 -0.11293813434E+01 -0.10181571607E+01  0.14051259633E+02  0.14133295573E+02  0.51100000000E-03 0. -1.
        -11    1    3    3    0    0 -0.27229489187E+00 -0.90131827815E+01 -0.32440807424E+01  0.95830928455E+01  0.51100000000E-03 0.  1.
        -12    1    3    3    0    0  0.93395632970E+01 -0.17450706540E+02  0.18087364797E+02  0.26812447979E+02  0.00000000000E+00 0.  1.
</event>
<event>
 7    1  0.2661323E-011  0.5052895E+02  0.7816164E-02  0.1300438E+00
        -11   -1    0    0    0    0  0.00000000000E+00  0.00000000000E+00  0.45593999997E+02  0.45594000000E+02  0.51100000000E-03 0. -1.
         11   -1    0    0    0    0 -0.00000000000E+00 -0.00000000000E+00 -0.45593999997E+02  0.45594000000E+02  0.51100000000E-03 0.  1.
    9900012    2    1    2    0    0  0.33660566567E+02  0.21587554538E+02  0.73554139865E+01  0.50528949747E+02  0.30000273249E+02 0.  0.
         12    1    1    2    0    0 -0.33660566567E+02 -0.21587554538E+02 -0.73554139865E+01  0.40659050253E+02  0.00000000000E+00 0. -1.
         11    1    3    3    0    0  0.18425389900E+02  0.20636726795E+02  0.74221986782E+01  0.28643647102E+02  0.51100000000E-03 0. -1.
        -11    1    3    3    0    0  0.35290427721E+01  0.45737962369E+01  0.58987016812E+01  0.82564179090E+01  0.51100000000E-03 0.  1.
        -12    1    3    3    0    0  0.11706133895E+02 -0.36229684942E+01 -0.59654863728E+01  0.13628884736E+02  0.00000000000E+00 0.  1.
</event>
<event>
 7    1  0.2661323E-011  0.5052886E+02  0.7816164E-02  0.1300439E+00
        -11   -1    0    0    0    0  0.00000000000E+00  0.00000000000E+00  0.45593999997E+02  0.45594000000E+02  0.51100000000E-03 0. -1.
         11   -1    0    0    0    0 -0.00000000000E+00 -0.00000000000E+00 -0.45593999997E+02  0.45594000000E+02  0.51100000000E-03 0.  1.
    9900012    2    1    2    0    0  0.20212469941E+02  0.34897637305E+02  0.51745923864E+01  0.50528862811E+02  0.30000009001E+02 0.  0.
         12    1    1    2    0    0 -0.20212469941E+02 -0.34897637305E+02 -0.51745923864E+01  0.40659137189E+02  0.00000000000E+00 0. -1.
         11    1    3    3    0    0  0.47181640344E+01  0.49297593068E+01  0.34612258443E+01  0.76513844031E+01  0.51100000000E-03 0. -1.
        -11    1    3    3    0    0  0.22872594331E+02  0.22681931265E+02 -0.74441831260E+00  0.32220796642E+02  0.51100000000E-03 0.  1.
         12    1    3    3    0    0 -0.73782884247E+01  0.72859467334E+01  0.24577848547E+01  0.10656681767E+02  0.00000000000E+00 0. -1.
</event>
<event>
 7    1  0.2661323E-011  0.5052887E+02  0.7816164E-02  0.1300439E+00
        -11   -1    0    0    0    0  0.00000000000E+00  0.00000000000E+00  0.45593999997E+02  0.45594000000E+02  0.51100000000E-03 0. -1.
         11   -1    0    0    0    0 -0.00000000000E+00 -0.00000000000E+00 -0.45593999997E+02  0.45594000000E+02  0.51100000000E-03 0.  1.
    9900012    2    1    2    0    0 -0.14108548785E+02  0.28351000219E+02 -0.25501662620E+02  0.50528866233E+02  0.30000019403E+02 0.  0.
         12    1    1    2    0    0  0.14108548785E+02 -0.28351000219E+02  0.25501662620E+02  0.40659133767E+02  0.00000000000E+00 0. -1.
         11    1    3    3    0    0  0.18776020195E+01  0.42088449331E+01  0.33820715125E+01  0.57164825716E+01  0.51100000000E-03 0. -1.
        -11    1    3    3    0    0 -0.97958308763E+01  0.48608237445E+00 -0.84548446958E+01  0.12949091772E+02  0.51100000000E-03 0.  1.
        -12    1    3    3    0    0 -0.61903199279E+01  0.23656072912E+02 -0.20428889437E+02  0.31863291890E+02  0.00000000000E+00 0.  1.
</event>
<event>
 7    1  0.2661323E-011  0.5052884E+02  0.7816164E-02  0.1300439E+00
        -11   -1    0    0    0    0  0.00000000000E+00  0.00000000000E+00  0.45593999997E+02  0.45594000000E+02  0.51100000000E-03 0.  1.
         11   -1    0    0    0    0 -0.00000000000E+00 -0.00000000000E+00 -0.45593999997E+02  0.45594000000E+02  0.51100000000E-03 0. -1.
    9900012    2    1    2    0    0 -0.91422228622E+01 -0.97555901116E+01  0.38398113684E+02  0.50528844675E+02  0.29999953874E+02 0.  0.
         12    1    1    2    0    0  0.91422228622E+01  0.97555901116E+01 -0.38398113684E+02  0.40659155325E+02  0.00000000000E+00 0. -1.
         11    1    3    3    0    0  0.29262048120E+01  0.43812770495E+00  0.29332490002E+02  0.29481343261E+02  0.51100000000E-03 0. -1.
        -11    1    3    3    0    0 -0.25682656874E+01 -0.89010437739E+00  0.71044191803E+01  0.76066448973E+01  0.51100000000E-03 0.  1.
         12    1    3    3    0    0 -0.95001619868E+01 -0.93036134391E+01  0.19612045008E+01  0.13440856516E+02  0.00000000000E+00 0. -1.
</event>
<event>
 7    1  0.2661323E-011  0.5052885E+02  0.7816164E-02  0.1300439E+00
        -11   -1    0    0    0    0  0.00000000000E+00  0.00000000000E+00  0.45593999997E+02  0.45594000000E+02  0.51100000000E-03 0. -1.
         11   -1    0    0    0    0 -0.00000000000E+00 -0.00000000000E+00 -0.45593999997E+02  0.45594000000E+02  0.51100000000E-03 0.  1.
    9900012    2    1    2    0    0  0.26003214031E+02  0.23412732170E+02 -0.20708536666E+02  0.50528847790E+02  0.29999963342E+02 0.  0.
         12    1    1    2    0    0 -0.26003214031E+02 -0.23412732170E+02  0.20708536666E+02  0.40659152210E+02  0.00000000000E+00 0. -1.
         11    1    3    3    0    0 -0.16249815610E+01 -0.20620097764E+01  0.42970711046E+00  0.26602815365E+01  0.51100000000E-03 0. -1.
        -11    1    3    3    0    0  0.57688608319E+01 -0.30201166583E+01 -0.61369595521E+01  0.89478004410E+01  0.51100000000E-03 0.  1.
        -12    1    3    3    0    0  0.21859334760E+02  0.28494858605E+02 -0.15001284224E+02  0.38920765812E+02  0.00000000000E+00 0.  1.
</event>
<event>
 7    1  0.2661323E-011  0.5052886E+02  0.7816164E-02  0.1300439E+00
        -11   -1    0    0    0    0  0.00000000000E+00  0.00000000000E+00  0.45593999997E+02  0.45594000000E+02  0.51100000000E-03 0.  1.
         11   -1    0    0    0    0 -0.00000000000E+00 -0.00000000000E+00 -0.45593999997E+02  0.45594000000E+02  0.51100000000E-03 0. -1.
    9900012    2    1    2    0    0  0.40653783827E+02 -0.25768497697E+00  0.60777895951E+00  0.50528856671E+02  0.29999990337E+02 0.  0.
         12    1    1    2    0    0 -0.40653783827E+02  0.25768497697E+00 -0.60777895951E+00  0.40659143329E+02  0.00000000000E+00 0. -1.
         11    1    3    3    0    0  0.21493690363E+02 -0.84097682256E+00 -0.11211316525E+02  0.24256536973E+02  0.51100000000E-03 0. -1.
        -11    1    3    3    0    0  0.59701782477E+00 -0.26102492991E-01 -0.26574860738E+01  0.27238473006E+01  0.51100000000E-03 0.  1.
        -12    1    3    3    0    0  0.18563075639E+02  0.60939433859E+00  0.14476581558E+02  0.23548472398E+02  0.00000000000E+00 0.  1.
</event>
<event>
 7    1  0.5181951E-011  0.5052886E+02  0.7816164E-02  0.1300439E+00
        -11   -1    0    0    0    0  0.00000000000E+00  0.00000000000E+00  0.45593999997E+02  0.45594000000E+02  0.51100000000E-03 0. -1.
         11   -1    0    0    0    0 -0.00000000000E+00 -0.00000000000E+00 -0.45593999997E+02  0.45594000000E+02  0.51100000000E-03 0.  1.
    9900012    2    1    2    0    0 -0.18328745279E+02 -0.56438551105E+01 -0.35852054256E+02  0.50528858366E+02  0.29999995490E+02 0.  0.
         12    1    1    2    0    0  0.18328745279E+02  0.56438551105E+01  0.35852054256E+02  0.40659141634E+02  0.00000000000E+00 0. -1.
         11    1    3    3    0    0 -0.23297372176E+01 -0.63163761231E+01 -0.21889255943E+02  0.22901174835E+02  0.51100000000E-03 0. -1.
        -11    1    3    3    0    0 -0.10201690778E+02 -0.17720964940E+01 -0.17556155900E+02  0.20382184156E+02  0.51100000000E-03 0.  1.
         12    1    3    3    0    0 -0.57973172834E+01  0.24446175066E+01  0.35933575874E+01  0.72454993747E+01  0.00000000000E+00 0. -1.
</event>
<event>
 7    1  0.2661323E-011  0.5052886E+02  0.7816164E-02  0.1300439E+00
        -11   -1    0    0    0    0  0.00000000000E+00  0.00000000000E+00  0.45593999997E+02  0.45594000000E+02  0.51100000000E-03 0.  1.
         11   -1    0    0    0    0 -0.00000000000E+00 -0.00000000000E+00 -0.45593999997E+02  0.45594000000E+02  0.51100000000E-03 0. -1.
    9900012    2    1    2    0    0 -0.17256129558E+02 -0.16248263990E+02  0.33036125301E+02  0.50528860007E+02  0.30000000479E+02 0.  0.
         12    1    1    2    0    0  0.17256129558E+02  0.16248263990E+02 -0.33036125301E+02  0.40659139993E+02  0.00000000000E+00 0. -1.
         11    1    3    3    0    0 -0.16894508054E+02 -0.81130146450E+01  0.15671350758E+02  0.24430240356E+02  0.51100000000E-03 0. -1.
        -11    1    3    3    0    0 -0.93165404920E+00  0.56224639781E+01  0.55506848440E+01  0.79555127396E+01  0.51100000000E-03 0.  1.
         12    1    3    3    0    0  0.57003254491E+00 -0.13757713323E+02  0.11814089699E+02  0.18143106911E+02  0.00000000000E+00 0. -1.
</event>
<event>
 7    1  0.2661323E-011  0.5052886E+02  0.7816164E-02  0.1300439E+00
        -11   -1    0    0    0    0  0.00000000000E+00  0.00000000000E+00  0.45593999997E+02  0.45594000000E+02  0.51100000000E-03 0.  1.
         11   -1    0    0    0    0 -0.00000000000E+00 -0.00000000000E+00 -0.45593999997E+02  0.45594000000E+02  0.51100000000E-03 0. -1.
    9900012    2    1    2    0    0  0.32833233524E+02 -0.21894708942E+02  0.97860103618E+01  0.50528862010E+02  0.30000006564E+02 0.  0.
         12    1    1    2    0    0 -0.32833233524E+02  0.21894708942E+02 -0.97860103618E+01  0.40659137990E+02  0.00000000000E+00 0. -1.
         11    1    3    3    0    0  0.33476034599E+01 -0.46324017245E+01 -0.14730784406E+01  0.59021652819E+01  0.51100000000E-03 0. -1.
        -11    1    3    3    0    0  0.33486977144E+00 -0.10185059438E+02 -0.40288748281E+01  0.10958074930E+02  0.51100000000E-03 0.  1.
         12    1    3    3    0    0  0.29150760293E+02 -0.70772477792E+01  0.15287963630E+02  0.33668621798E+02  0.00000000000E+00 0. -1.
</event>
<event>
 7    1  0.2661323E-011  0.5052886E+02  0.7816164E-02  0.1300439E+00
        -11   -1    0    0    0    0  0.00000000000E+00  0.00000000000E+00  0.45593999997E+02  0.45594000000E+02  0.51100000000E-03 0.  1.
         11   -1    0    0    0    0 -0.00000000000E+00 -0.00000000000E+00 -0.45593999997E+02  0.45594000000E+02  0.51100000000E-03 0. -1.
    9900012    2    1    2    0    0 -0.11503034067E+02 -0.12381903159E+02  0.36980187771E+02  0.50528860730E+02  0.30000002675E+02 0.  0.
         12    1    1    2    0    0  0.11503034067E+02  0.12381903159E+02 -0.36980187771E+02  0.40659139270E+02  0.00000000000E+00 0. -1.
         11    1    3    3    0    0  0.59220608571E+01  0.10127521373E+01  0.64717223883E+01  0.88306094138E+01  0.51100000000E-03 0. -1.
        -11    1    3    3    0    0 -0.50704680452E+00 -0.85945047505E+01  0.18495103620E+02  0.20400771224E+02  0.51100000000E-03 0.  1.
        -12    1    3    3    0    0 -0.16918048119E+02 -0.48001505458E+01  0.12013361763E+02  0.21297480092E+02  0.00000000000E+00 0.  1.
</event>
<event>
 7    1  0.2661323E-011  0.5052886E+02  0.7816164E-02  0.1300439E+00
        -11   -1    0    0    0    0  0.00000000000E+00  0.00000000000E+00  0.45593999997E+02  0.45594000000E+02  0.51100000000E-03 0.  1.
         11   -1    0    0    0    0 -0.00000000000E+00 -0.00000000000E+00 -0.45593999997E+02  0.45594000000E+02  0.51100000000E-03 0. -1.
    9900012    2    1    2    0    0 -0.14794794660E+02 -0.29456326873E+02  0.23803455468E+02  0.50528860387E+02  0.30000001631E+02 0.  0.
         12    1    1    2    0    0  0.14794794660E+02  0.29456326873E+02 -0.23803455468E+02  0.40659139613E+02  0.00000000000E+00 0. -1.
         11    1    3    3    0    0  0.63366288283E+01 -0.24377457183E+01 -0.22077818489E+01  0.71393115948E+01  0.51100000000E-03 0. -1.
        -11    1    3    3    0    0 -0.11139890368E+02 -0.15412236492E+02  0.11123076497E+02  0.22030819824E+02  0.51100000000E-03 0.  1.
        -12    1    3    3    0    0 -0.99915331205E+01 -0.11606344662E+02  0.14888160820E+02  0.21358728968E+02  0.00000000000E+00 0.  1.
</event>
<event>
 7    1  0.2661323E-011  0.5052886E+02  0.7816164E-02  0.1300439E+00
        -11   -1    0    0    0    0  0.00000000000E+00  0.00000000000E+00  0.45593999997E+02  0.45594000000E+02  0.51100000000E-03 0. -1.
         11   -1    0    0    0    0 -0.00000000000E+00 -0.00000000000E+00 -0.45593999997E+02  0.45594000000E+02  0.51100000000E-03 0.  1.
    9900012    2    1    2    0    0 -0.86783829814E+01 -0.37828684508E+02  0.12117846409E+02  0.50528857063E+02  0.29999991529E+02 0.  0.
         12    1    1    2    0    0  0.86783829814E+01  0.37828684508E+02 -0.12117846409E+02  0.40659142937E+02  0.00000000000E+00 0. -1.
         11    1    3    3    0    0  0.34526962120E+01 -0.20413255847E+01  0.32291942840E+01  0.51493511494E+01  0.51100000000E-03 0. -1.
        -11    1    3    3    0    0  0.14872342558E+01 -0.15384440433E+02  0.13378037769E+02  0.20441740826E+02  0.51100000000E-03 0.  1.
        -12    1    3    3    0    0 -0.13618313449E+02 -0.20402918490E+02 -0.44893856447E+01  0.24937765088E+02  0.00000000000E+00 0.  1.
</event>
<event>
 7    1  0.2661323E-011  0.5052885E+02  0.7816164E-02  0.1300439E+00
        -11   -1    0    0    0    0  0.00000000000E+00  0.00000000000E+00  0.45593999997E+02  0.45594000000E+02  0.51100000000E-03 0.  1.
         11   -1    0    0    0    0 -0.00000000000E+00 -0.00000000000E+00 -0.45593999997E+02  0.45594000000E+02  0.51100000000E-03 0. -1.
    9900012    2    1    2    0    0 -0.56064753316E+01  0.54404194184E+00  0.40267085295E+02  0.50528847212E+02  0.29999961587E+02 0.  0.
         12    1    1    2    0    0  0.56064753316E+01 -0.54404194184E+00 -0.40267085295E+02  0.40659152788E+02  0.00000000000E+00 0. -1.
         11    1    3    3    0    0  0.22044051991E+01 -0.54783406552E+01  0.13426523211E+00  0.59067458071E+01  0.51100000000E-03 0. -1.
        -11    1    3    3    0    0  0.34997425115E+01  0.68238275444E+01  0.21308101679E+02  0.22646147960E+02  0.51100000000E-03 0.  1.
        -12    1    3    3    0    0 -0.11310623042E+02 -0.80144494735E+00  0.18824718383E+02  0.21975953445E+02  0.00000000000E+00 0.  1.
</event>
<event>
 7    1  0.2661323E-011  0.5052886E+02  0.7816164E-02  0.1300439E+00
        -11   -1    0    0    0    0  0.00000000000E+00  0.00000000000E+00  0.45593999997E+02  0.45594000000E+02  0.51100000000E-03 0.  1.
         11   -1    0    0    0    0 -0.00000000000E+00 -0.00000000000E+00 -0.45593999997E+02  0.45594000000E+02  0.51100000000E-03 0. -1.
    9900012    2    1    2    0    0  0.89320203552E+01  0.23406034278E+02  0.32024089194E+02  0.50528859368E+02  0.29999998534E+02 0.  0.
         12    1    1    2    0    0 -0.89320203552E+01 -0.23406034278E+02 -0.32024089194E+02  0.40659140632E+02  0.00000000000E+00 0. -1.
         11    1    3    3    0    0  0.99326743026E+01 -0.29834192775E+00  0.14654657965E+02  0.17706101408E+02  0.51100000000E-03 0. -1.
        -11    1    3    3    0    0  0.40876692497E+01  0.53125559991E+01  0.10664889034E+02  0.12596513387E+02  0.51100000000E-03 0.  1.
        -12    1    3    3    0    0 -0.50883231972E+01  0.18391820207E+02  0.67045421940E+01  0.20226244573E+02  0.00000000000E+00 0.  1.
</event>
<event>
 7    1  0.2661323E-011  0.5052886E+02  0.7816164E-02  0.1300439E+00
        -11   -1    0    0    0    0  0.00000000000E+00  0.00000000000E+00  0.45593999997E+02  0.45594000000E+02  0.51100000000E-03 0.  1.
         11   -1    0    0    0    0 -0.00000000000E+00 -0.00000000000E+00 -0.45593999997E+02  0.45594000000E+02  0.51100000000E-03 0. -1.
    9900012    2    1    2    0    0 -0.34856625591E+02  0.15604288034E+02 -0.13953058068E+02  0.50528856107E+02  0.29999988622E+02 0.  0.
         12    1    1    2    0    0  0.34856625591E+02 -0.15604288034E+02  0.13953058068E+02  0.40659143893E+02  0.00000000000E+00 0. -1.
         11    1    3    3    0    0 -0.24449003343E+02  0.65358676773E+01 -0.18137036741E+02  0.31135565400E+02  0.51100000000E-03 0. -1.
        -11    1    3    3    0    0  0.21082275909E+01 -0.14388543305E+01  0.10170832841E+01  0.27476142428E+01  0.51100000000E-03 0.  1.
        -12    1    3    3    0    0 -0.12515849839E+02  0.10507274687E+02  0.31668953883E+01  0.16645676464E+02  0.00000000000E+00 0.  1.
</event>
<event>
 7    1  0.2661323E-011  0.5052885E+02  0.7816164E-02  0.1300439E+00
        -11   -1    0    0    0    0  0.00000000000E+00  0.00000000000E+00  0.45593999997E+02  0.45594000000E+02  0.51100000000E-03 0.  1.
         11   -1    0    0    0    0 -0.00000000000E+00 -0.00000000000E+00 -0.45593999997E+02  0.45594000000E+02  0.51100000000E-03 0. -1.
    9900012    2    1    2    0    0  0.36709604319E+02 -0.11310339236E+02 -0.13328441298E+02  0.50528853793E+02  0.29999981589E+02 0.  0.
         12    1    1    2    0    0 -0.36709604319E+02  0.11310339236E+02  0.13328441298E+02  0.40659146207E+02  0.00000000000E+00 0. -1.
         11    1    3    3    0    0  0.24497421722E+02 -0.73090710373E+01 -0.10842436091E+02  0.27768770428E+02  0.51100000000E-03 0. -1.
        -11    1    3    3    0    0  0.12125454582E+02 -0.73813673893E+01 -0.79980913389E+01  0.16293578449E+02  0.51100000000E-03 0.  1.
         12    1    3    3    0    0  0.86728014662E-01  0.33800991911E+01  0.55120861324E+01  0.64665049154E+01  0.00000000000E+00 0. -1.
</event>
<event>
 7    1  0.2661323E-011  0.5052888E+02  0.7816164E-02  0.1300439E+00
        -11   -1    0    0    0    0  0.00000000000E+00  0.00000000000E+00  0.45593999997E+02  0.45594000000E+02  0.51100000000E-03 0. -1.
         11   -1    0    0    0    0 -0.00000000000E+00 -0.00000000000E+00 -0.45593999997E+02  0.45594000000E+02  0.51100000000E-03 0.  1.
    9900012    2    1    2    0    0 -0.18818685853E+02  0.27858849984E+02 -0.22867132262E+02  0.50528878052E+02  0.30000055328E+02 0.  0.
         12    1    1    2    0    0  0.18818685853E+02 -0.27858849984E+02  0.22867132262E+02  0.40659121948E+02  0.00000000000E+00 0. -1.
         11    1    3    3    0    0 -0.27626869164E+01  0.15772820083E+02  0.10755810219E+01  0.16049023870E+02  0.51100000000E-03 0. -1.
        -11    1    3    3    0    0  0.45801630644E+00  0.72330436447E+01 -0.45830991198E+01  0.85750508516E+01  0.51100000000E-03 0.  1.
        -12    1    3    3    0    0 -0.16514015243E+02  0.48529862562E+01 -0.19359614164E+02  0.25904803331E+02  0.00000000000E+00 0.  1.
</event>
<event>
 7    1  0.2661323E-011  0.5052885E+02  0.7816164E-02  0.1300439E+00
        -11   -1    0    0    0    0  0.00000000000E+00  0.00000000000E+00  0.45593999997E+02  0.45594000000E+02  0.51100000000E-03 0.  1.
         11   -1    0    0    0    0 -0.00000000000E+00 -0.00000000000E+00 -0.45593999997E+02  0.45594000000E+02  0.51100000000E-03 0. -1.
    9900012    2    1    2    0    0  0.73242013248E+01  0.28963812729E+01  0.39889011675E+02  0.50528853404E+02  0.29999980408E+02 0.  0.
         12    1    1    2    0    0 -0.73242013248E+01 -0.28963812729E+01 -0.39889011675E+02  0.40659146596E+02  0.00000000000E+00 0. -1.
         11    1    3    3    0    0  0.32722693101E+01  0.44842574309E+01 -0.16113857169E+01  0.57803871267E+01  0.51100000000E-03 0. -1.
        -11    1    3    3    0    0 -0.43730654630E+01  0.45513595451E+01  0.15905041644E+02  0.17111660504E+02  0.51100000000E-03 0.  1.
         12    1    3    3    0    0  0.84249974777E+01 -0.61392357031E+01  0.25595355748E+02  0.27636805774E+02  0.00000000000E+00 0. -1.
</event>
<event>
 7    1  0.2661323E-011  0.5052885E+02  0.7816164E-02  0.1300439E+00
        -11   -1    0    0    0    0  0.00000000000E+00  0.00000000000E+00  0.45593999997E+02  0.45594000000E+02  0.51100000000E-03 0. -1.
         11   -1    0    0    0    0 -0.00000000000E+00 -0.00000000000E+00 -0.45593999997E+02  0.45594000000E+02  0.51100000000E-03 0.  1.
    9900012    2    1    2    0    0 -0.39359369109E+02  0.59615707769E+00  0.10180916743E+02  0.50528850899E+02  0.29999972792E+02 0.  0.
         12    1    1    2    0    0  0.39359369109E+02 -0.59615707769E+00 -0.10180916743E+02  0.40659149101E+02  0.00000000000E+00 0. -1.
         11    1    3    3    0    0 -0.63657295766E+01  0.46391561932E+01 -0.23126142422E+01  0.82092915724E+01  0.51100000000E-03 0. -1.
        -11    1    3    3    0    0 -0.13846626358E+02 -0.30771762198E+01 -0.62569267318E+01  0.15503135405E+02  0.51100000000E-03 0.  1.
         12    1    3    3    0    0 -0.19147013174E+02 -0.96582289564E+00  0.18750457717E+02  0.26816423922E+02  0.00000000000E+00 0. -1.
</event>
<event>
 7    1  0.2661323E-011  0.5052886E+02  0.7816164E-02  0.1300439E+00
        -11   -1    0    0    0    0  0.00000000000E+00  0.00000000000E+00  0.45593999997E+02  0.45594000000E+02  0.51100000000E-03 0.  1.
         11   -1    0    0    0    0 -0.00000000000E+00 -0.00000000000E+00 -0.45593999997E+02  0.45594000000E+02  0.51100000000E-03 0. -1.
    9900012    2    1    2    0    0  0.13503310071E+02  0.37515653839E+02  0.79625352529E+01  0.50528860395E+02  0.30000001655E+02 0.  0.
         12    1    1    2    0    0 -0.13503310071E+02 -0.37515653839E+02 -0.79625352529E+01  0.40659139605E+02  0.00000000000E+00 0. -1.
         11    1    3    3    0    0 -0.78471570242E+01  0.11274396024E+02  0.26402239383E+00  0.13738980572E+02  0.51100000000E-03 0. -1.
        -11    1    3    3    0    0 -0.68885967077E+00  0.17419680624E+01  0.29518682903E+01  0.34960702283E+01  0.51100000000E-03 0.  1.
         12    1    3    3    0    0  0.22039326766E+02  0.24499289752E+02  0.47466445688E+01  0.33293809594E+02  0.00000000000E+00 0. -1.
</event>
<event>
 7    1  0.2661323E-011  0.5052887E+02  0.7816164E-02  0.1300439E+00
        -11   -1    0    0    0    0  0.00000000000E+00  0.00000000000E+00  0.45593999997E+02  0.45594000000E+02  0.51100000000E-03 0. -1.
         11   -1    0    0    0    0 -0.00000000000E+00 -0.00000000000E+00 -0.45593999997E+02  0.45594000000E+02  0.51100000000E-03 0.  1.
    9900012    2    1    2    0    0  0.38942069302E+02  0.16226283685E+01 -0.11577859651E+02  0.50528874106E+02  0.30000043334E+02 0.  0.
         12    1    1    2    0    0 -0.38942069302E+02 -0.16226283685E+01  0.11577859651E+02  0.40659125894E+02  0.00000000000E+00 0. -1.
         11    1    3    3    0    0  0.86911132608E+01  0.44033733048E+01 -0.87278280266E+01  0.13080524779E+02  0.51100000000E-03 0. -1.
        -11    1    3    3    0    0  0.30672877348E+02  0.30436741020E+01  0.27569400723E+00  0.30824752461E+02  0.51100000000E-03 0.  1.
         12    1    3    3    0    0 -0.42192130666E+00 -0.58244190384E+01 -0.31257256318E+01  0.66235968664E+01  0.00000000000E+00 0. -1.
</event>
<event>
 7    1  0.2661323E-011  0.5052886E+02  0.7816164E-02  0.1300439E+00
        -11   -1    0    0    0    0  0.00000000000E+00  0.00000000000E+00  0.45593999997E+02  0.45594000000E+02  0.51100000000E-03 0.  1.
         11   -1    0    0    0    0 -0.00000000000E+00 -0.00000000000E+00 -0.45593999997E+02  0.45594000000E+02  0.51100000000E-03 0. -1.
    9900012    2    1    2    0    0 -0.38962550382E+01  0.22304317073E+02  0.33771320024E+02  0.50528863024E+02  0.30000009649E+02 0.  0.
         12    1    1    2    0    0  0.38962550382E+01 -0.22304317073E+02 -0.33771320024E+02  0.40659136976E+02  0.00000000000E+00 0. -1.
         11    1    3    3    0    0 -0.32759332791E+00  0.79648243471E+01 -0.44920854804E+00  0.79842052109E+01  0.51100000000E-03 0. -1.
        -11    1    3    3    0    0  0.20765756139E+01  0.99228332295E+01  0.30879919948E+01  0.10597663912E+02  0.51100000000E-03 0.  1.
        -12    1    3    3    0    0 -0.56452373243E+01  0.44166594962E+01  0.31132536578E+02  0.31946993901E+02  0.00000000000E+00 0.  1.
</event>
<event>
 7    1  0.2661323E-011  0.5052886E+02  0.7816164E-02  0.1300439E+00
        -11   -1    0    0    0    0  0.00000000000E+00  0.00000000000E+00  0.45593999997E+02  0.45594000000E+02  0.51100000000E-03 0.  1.
         11   -1    0    0    0    0 -0.00000000000E+00 -0.00000000000E+00 -0.45593999997E+02  0.45594000000E+02  0.51100000000E-03 0. -1.
    9900012    2    1    2    0    0  0.27516646835E+02 -0.55744969903E+01  0.29409608256E+02  0.50528856778E+02  0.29999990664E+02 0.  0.
         12    1    1    2    0    0 -0.27516646835E+02  0.55744969903E+01 -0.29409608256E+02  0.40659143222E+02  0.00000000000E+00 0. -1.
         11    1    3    3    0    0  0.68825001916E+01  0.44874335435E+01  0.51407742030E+01  0.96919259367E+01  0.51100000000E-03 0. -1.
        -11    1    3    3    0    0  0.10826578302E+00 -0.20889994947E+01  0.17749238738E+02  0.17872076444E+02  0.51100000000E-03 0.  1.
        -12    1    3    3    0    0  0.20525880861E+02 -0.79729310390E+01  0.65195953147E+01  0.22964854398E+02  0.00000000000E+00 0.  1.
</event>
<event>
 7    1  0.2661323E-011  0.5052886E+02  0.7816164E-02  0.1300439E+00
        -11   -1    0    0    0    0  0.00000000000E+00  0.00000000000E+00  0.45593999997E+02  0.45594000000E+02  0.51100000000E-03 0.  1.
         11   -1    0    0    0    0 -0.00000000000E+00 -0.00000000000E+00 -0.45593999997E+02  0.45594000000E+02  0.51100000000E-03 0. -1.
    9900012    2    1    2    0    0 -0.12701174593E+02 -0.14309895794E+02  0.35875793878E+02  0.50528861543E+02  0.30000005146E+02 0.  0.
         12    1    1    2    0    0  0.12701174593E+02  0.14309895794E+02 -0.35875793878E+02  0.40659138457E+02  0.00000000000E+00 0. -1.
         11    1    3    3    0    0  0.15922662481E+01 -0.61699431693E+01 -0.81744705750E+00  0.64243077815E+01  0.51100000000E-03 0. -1.
        -11    1    3    3    0    0 -0.84444779177E+01 -0.83084586148E+01  0.68319191289E+01  0.13675335868E+02  0.51100000000E-03 0.  1.
        -12    1    3    3    0    0 -0.58489629231E+01  0.16850599068E+00  0.29861321807E+02  0.30429217894E+02  0.00000000000E+00 0.  1.
</event>
<event>
 7    1  0.2661323E-011  0.5052885E+02  0.7816164E-02  0.1300439E+00
        -11   -1    0    0    0    0  0.00000000000E+00  0.00000000000E+00  0.45593999997E+02  0.45594000000E+02  0.51100000000E-03 0.  1.
         11   -1    0    0    0    0 -0.00000000000E+00 -0.00000000000E+00 -0.45593999997E+02  0.45594000000E+02  0.51100000000E-03 0. -1.
    9900012    2    1    2    0    0  0.22711259368E+02  0.84492699197E+01  0.32649274324E+02  0.50528848778E+02  0.29999966345E+02 0.  0.
         12    1    1    2    0    0 -0.22711259368E+02 -0.84492699197E+01 -0.32649274324E+02  0.40659151222E+02  0.00000000000E+00 0. -1.
         11    1    3    3    0    0  0.22144648023E+02  0.84888474810E+01  0.11055727086E+02  0.26166296438E+02  0.51100000000E-03 0. -1.
        -11    1    3    3    0    0 -0.73314296414E+00 -0.38987220025E+01  0.21801216703E+01  0.45266392188E+01  0.51100000000E-03 0.  1.
        -12    1    3    3    0    0  0.12997543087E+01  0.38591444412E+01  0.19413425567E+02  0.19835913121E+02  0.00000000000E+00 0.  1.
</event>
<event>
 7    1  0.2661323E-011  0.5052886E+02  0.7816164E-02  0.1300439E+00
        -11   -1    0    0    0    0  0.00000000000E+00  0.00000000000E+00  0.45593999997E+02  0.45594000000E+02  0.51100000000E-03 0.  1.
         11   -1    0    0    0    0 -0.00000000000E+00 -0.00000000000E+00 -0.45593999997E+02  0.45594000000E+02  0.51100000000E-03 0. -1.
    9900012    2    1    2    0    0  0.23453168695E+02  0.28088516246E+02  0.17724276537E+02  0.50528857786E+02  0.29999993727E+02 0.  0.
         12    1    1    2    0    0 -0.23453168695E+02 -0.28088516246E+02 -0.17724276537E+02  0.40659142214E+02  0.00000000000E+00 0. -1.
         11    1    3    3    0    0 -0.31488906337E+01  0.87195496931E+01  0.47685096840E+01  0.10425197549E+02  0.51100000000E-03 0.  1.
        -11    1    3    3    0    0  0.83634020616E+01  0.14384829077E+02 -0.89860925491E+00  0.16663652074E+02  0.51100000000E-03 0. -1.
        -12    1    3    3    0    0  0.18238657268E+02  0.49841374767E+01  0.13854376108E+02  0.23440008163E+02  0.00000000000E+00 0.  1.
</event>
<event>
 7    1  0.2661323E-011  0.5052886E+02  0.7816164E-02  0.1300439E+00
        -11   -1    0    0    0    0  0.00000000000E+00  0.00000000000E+00  0.45593999997E+02  0.45594000000E+02  0.51100000000E-03 0. -1.
         11   -1    0    0    0    0 -0.00000000000E+00 -0.00000000000E+00 -0.45593999997E+02  0.45594000000E+02  0.51100000000E-03 0.  1.
    9900012    2    1    2    0    0 -0.28908317042E+02 -0.26537558532E+02  0.10641111032E+02  0.50528855260E+02  0.29999986048E+02 0.  0.
         12    1    1    2    0    0  0.28908317042E+02  0.26537558532E+02 -0.10641111032E+02  0.40659144740E+02  0.00000000000E+00 0. -1.
         11    1    3    3    0    0 -0.21370239676E+01 -0.68969067971E+01  0.49280255534E+01  0.87418322406E+01  0.51100000000E-03 0. -1.
        -11    1    3    3    0    0 -0.20260798998E+02 -0.25157057075E+02  0.72787113679E+01  0.33111284121E+02  0.51100000000E-03 0.  1.
         12    1    3    3    0    0 -0.65104940760E+01  0.55164053410E+01 -0.15656258893E+01  0.86757388979E+01  0.00000000000E+00 0. -1.
</event>
<event>
 7    1  0.2661323E-011  0.5052887E+02  0.7816164E-02  0.1300439E+00
        -11   -1    0    0    0    0  0.00000000000E+00  0.00000000000E+00  0.45593999997E+02  0.45594000000E+02  0.51100000000E-03 0.  1.
         11   -1    0    0    0    0 -0.00000000000E+00 -0.00000000000E+00 -0.45593999997E+02  0.45594000000E+02  0.51100000000E-03 0. -1.
    9900012    2    1    2    0    0 -0.32692511685E+02 -0.23999996784E+02  0.28922195457E+01  0.50528866957E+02  0.30000021604E+02 0.  0.
         12    1    1    2    0    0  0.32692511685E+02  0.23999996784E+02 -0.28922195457E+01  0.40659133043E+02  0.00000000000E+00 0. -1.
         11    1    3    3    0    0 -0.15000923201E+02 -0.14290392512E+02  0.24501145004E+01  0.20862552009E+02  0.51100000000E-03 0. -1.
        -11    1    3    3    0    0 -0.11462188127E+02 -0.99259771252E+01  0.10066324554E+02  0.18199935957E+02  0.51100000000E-03 0.  1.
         12    1    3    3    0    0 -0.62294003568E+01  0.21637285293E+00 -0.96242195088E+01  0.11466378991E+02  0.00000000000E+00 0. -1.
</event>
<event>
 7    1  0.2661323E-011  0.5052889E+02  0.7816164E-02  0.1300439E+00
        -11   -1    0    0    0    0  0.00000000000E+00  0.00000000000E+00  0.45593999997E+02  0.45594000000E+02  0.51100000000E-03 0.  1.
         11   -1    0    0    0    0 -0.00000000000E+00 -0.00000000000E+00 -0.45593999997E+02  0.45594000000E+02  0.51100000000E-03 0. -1.
    9900012    2    1    2    0    0 -0.16953753779E+02 -0.33258003452E+02  0.16113308892E+02  0.50528889283E+02  0.30000089465E+02 0.  0.
         12    1    1    2    0    0  0.16953753779E+02  0.33258003452E+02 -0.16113308892E+02  0.40659110717E+02  0.00000000000E+00 0. -1.
         11    1    3    3    0    0 -0.30526059362E+01 -0.15366995580E+02 -0.43538999107E+01  0.16260977856E+02  0.51100000000E-03 0. -1.
        -11    1    3    3    0    0 -0.71399446268E-01 -0.53526492786E+01 -0.13834694075E+01  0.55290089567E+01  0.51100000000E-03 0.  1.
         12    1    3    3    0    0 -0.13829748397E+02 -0.12538358594E+02  0.21850678210E+02  0.28738902470E+02  0.00000000000E+00 0. -1.
</event>
<event>
 7    1  0.2661323E-011  0.5052886E+02  0.7816164E-02  0.1300439E+00
        -11   -1    0    0    0    0  0.00000000000E+00  0.00000000000E+00  0.45593999997E+02  0.45594000000E+02  0.51100000000E-03 0.  1.
         11   -1    0    0    0    0 -0.00000000000E+00 -0.00000000000E+00 -0.45593999997E+02  0.45594000000E+02  0.51100000000E-03 0. -1.
    9900012    2    1    2    0    0  0.80393377957E+01 -0.63014626218E+01  0.39355128194E+02  0.50528862054E+02  0.30000006700E+02 0.  0.
         12    1    1    2    0    0 -0.80393377957E+01  0.63014626218E+01 -0.39355128194E+02  0.40659137946E+02  0.00000000000E+00 0. -1.
         11    1    3    3    0    0 -0.27662254606E+01 -0.60209563429E+01  0.23127801929E+01  0.70180389757E+01  0.51100000000E-03 0. -1.
        -11    1    3    3    0    0 -0.51868267421E+01  0.36568132130E+01  0.97217362877E+01  0.11609806684E+02  0.51100000000E-03 0.  1.
        -12    1    3    3    0    0  0.15992389998E+02 -0.39373194919E+01  0.27320611713E+02  0.31901016395E+02  0.00000000000E+00 0.  1.
</event>
<event>
 7    1  0.2661323E-011  0.5052886E+02  0.7816164E-02  0.1300439E+00
        -11   -1    0    0    0    0  0.00000000000E+00  0.00000000000E+00  0.45593999997E+02  0.45594000000E+02  0.51100000000E-03 0.  1.
         11   -1    0    0    0    0 -0.00000000000E+00 -0.00000000000E+00 -0.45593999997E+02  0.45594000000E+02  0.51100000000E-03 0. -1.
    9900012    2    1    2    0    0  0.28415551321E+02 -0.99421230588E+01  0.27329042482E+02  0.50528856738E+02  0.29999990541E+02 0.  0.
         12    1    1    2    0    0 -0.28415551321E+02  0.99421230588E+01 -0.27329042482E+02  0.40659143262E+02  0.00000000000E+00 0. -1.
         11    1    3    3    0    0 -0.27655993342E+01 -0.15983100039E+01 -0.28345187584E+01  0.42705539921E+01  0.51100000000E-03 0. -1.
        -11    1    3    3    0    0  0.18138475370E+02 -0.53136614625E+01  0.83503433367E+01  0.20663192420E+02  0.51100000000E-03 0.  1.
        -12    1    3    3    0    0  0.13042675285E+02 -0.30301515925E+01  0.21813217904E+02  0.25595110326E+02  0.00000000000E+00 0.  1.
</event>
<event>
 7    1  0.2661323E-011  0.5052886E+02  0.7816164E-02  0.1300439E+00
        -11   -1    0    0    0    0  0.00000000000E+00  0.00000000000E+00  0.45593999997E+02  0.45594000000E+02  0.51100000000E-03 0. -1.
         11   -1    0    0    0    0 -0.00000000000E+00 -0.00000000000E+00 -0.45593999997E+02  0.45594000000E+02  0.51100000000E-03 0.  1.
    9900012    2    1    2    0    0  0.32178353500E+02 -0.18220481678E+02 -0.16903655592E+02  0.50528856392E+02  0.29999989489E+02 0.  0.
         12    1    1    2    0    0 -0.32178353500E+02  0.18220481678E+02  0.16903655592E+02  0.40659143608E+02  0.00000000000E+00 0. -1.
         11    1    3    3    0    0  0.78157241952E+01 -0.32384512994E+01 -0.10834496980E+02  0.13746251728E+02  0.51100000000E-03 0. -1.
        -11    1    3    3    0    0  0.27354539546E+02 -0.15216295116E+02 -0.15276660723E+01  0.31339116687E+02  0.51100000000E-03 0.  1.
         12    1    3    3    0    0 -0.29919102415E+01  0.23426473728E+00 -0.45414925400E+01  0.54434879766E+01  0.00000000000E+00 0. -1.
</event>
<event>
 7    1  0.2661323E-011  0.5052887E+02  0.7816164E-02  0.1300439E+00
        -11   -1    0    0    0    0  0.00000000000E+00  0.00000000000E+00  0.45593999997E+02  0.45594000000E+02  0.51100000000E-03 0.  1.
         11   -1    0    0    0    0 -0.00000000000E+00 -0.00000000000E+00 -0.45593999997E+02  0.45594000000E+02  0.51100000000E-03 0. -1.
    9900012    2    1    2    0    0 -0.16173839706E+02  0.64415361936E+01  0.36743416220E+02  0.50528866772E+02  0.30000021040E+02 0.  0.
         12    1    1    2    0    0  0.16173839706E+02 -0.64415361936E+01 -0.36743416220E+02  0.40659133228E+02  0.00000000000E+00 0. -1.
         11    1    3    3    0    0 -0.66045462870E+01  0.26965799954E+01 -0.25995502835E+00  0.71385679381E+01  0.51100000000E-03 0.  1.
        -11    1    3    3    0    0 -0.28930898243E+01 -0.21411902181E+01 -0.14795674619E+01  0.38915015633E+01  0.51100000000E-03 0. -1.
        -12    1    3    3    0    0 -0.66762035946E+01  0.58861464163E+01  0.38482938710E+02  0.39498797271E+02  0.00000000000E+00 0.  1.
</event>
<event>
 7    1  0.2661323E-011  0.5052885E+02  0.7816164E-02  0.1300439E+00
        -11   -1    0    0    0    0  0.00000000000E+00  0.00000000000E+00  0.45593999997E+02  0.45594000000E+02  0.51100000000E-03 0. -1.
         11   -1    0    0    0    0 -0.00000000000E+00 -0.00000000000E+00 -0.45593999997E+02  0.45594000000E+02  0.51100000000E-03 0.  1.
    9900012    2    1    2    0    0  0.34943113436E+02  0.17491673322E+02 -0.11233282295E+02  0.50528850435E+02  0.29999971383E+02 0.  0.
         12    1    1    2    0    0 -0.34943113436E+02 -0.17491673322E+02  0.11233282295E+02  0.40659149565E+02  0.00000000000E+00 0. -1.
         11    1    3    3    0    0  0.17225492116E+02 -0.27247492538E+01 -0.46925662772E+01  0.18059956136E+02  0.51100000000E-03 0. -1.
        -11    1    3    3    0    0  0.15884883289E+02  0.10199690678E+02  0.22566903858E+01  0.19011992500E+02  0.51100000000E-03 0.  1.
        -12    1    3    3    0    0  0.18327380313E+01  0.10016731897E+02 -0.87974064041E+01  0.13456901799E+02  0.00000000000E+00 0.  1.
</event>
<event>
 7    1  0.2661323E-011  0.5052888E+02  0.7816164E-02  0.1300439E+00
        -11   -1    0    0    0    0  0.00000000000E+00  0.00000000000E+00  0.45593999997E+02  0.45594000000E+02  0.51100000000E-03 0.  1.
         11   -1    0    0    0    0 -0.00000000000E+00 -0.00000000000E+00 -0.45593999997E+02  0.45594000000E+02  0.51100000000E-03 0. -1.
    9900012    2    1    2    0    0 -0.20587643712E+01 -0.11008002318E+02  0.39086435840E+02  0.50528879345E+02  0.30000059257E+02 0.  0.
         12    1    1    2    0    0  0.20587643712E+01  0.11008002318E+02 -0.39086435840E+02  0.40659120655E+02  0.00000000000E+00 0. -1.
         11    1    3    3    0    0  0.92081224663E+01  0.23059546413E+01  0.13738303861E+02  0.16698740653E+02  0.51100000000E-03 0.  1.
        -11    1    3    3    0    0 -0.60956389871E+01  0.17554680405E+01  0.89181728402E+01  0.10944052712E+02  0.51100000000E-03 0. -1.
        -12    1    3    3    0    0 -0.51712478505E+01 -0.15069424999E+02  0.16429959139E+02  0.22886085979E+02  0.00000000000E+00 0.  1.
</event>
<event>
 7    1  0.2661323E-011  0.5052885E+02  0.7816164E-02  0.1300439E+00
        -11   -1    0    0    0    0  0.00000000000E+00  0.00000000000E+00  0.45593999997E+02  0.45594000000E+02  0.51100000000E-03 0. -1.
         11   -1    0    0    0    0 -0.00000000000E+00 -0.00000000000E+00 -0.45593999997E+02  0.45594000000E+02  0.51100000000E-03 0.  1.
    9900012    2    1    2    0    0  0.29505789277E+00  0.32661417407E+01 -0.40526675928E+02  0.50528853394E+02  0.29999980375E+02 0.  0.
         12    1    1    2    0    0 -0.29505789277E+00 -0.32661417407E+01  0.40526675928E+02  0.40659146606E+02  0.00000000000E+00 0. -1.
         11    1    3    3    0    0 -0.12959241629E+01 -0.39897088621E+01 -0.25755724020E+01  0.49224759725E+01  0.51100000000E-03 0. -1.
        -11    1    3    3    0    0  0.11713609411E+02  0.11823564963E+01 -0.27203685589E+02  0.29641982427E+02  0.51100000000E-03 0.  1.
         12    1    3    3    0    0 -0.10122627355E+02  0.60734941065E+01 -0.10747417936E+02  0.15964394994E+02  0.00000000000E+00 0. -1.
</event>
<event>
 7    1  0.2661323E-011  0.5052885E+02  0.7816164E-02  0.1300439E+00
        -11   -1    0    0    0    0  0.00000000000E+00  0.00000000000E+00  0.45593999997E+02  0.45594000000E+02  0.51100000000E-03 0. -1.
         11   -1    0    0    0    0 -0.00000000000E+00 -0.00000000000E+00 -0.45593999997E+02  0.45594000000E+02  0.51100000000E-03 0.  1.
    9900012    2    1    2    0    0  0.35555985303E+01 -0.17135096963E+02 -0.36700310507E+02  0.50528848261E+02  0.29999964774E+02 0.  0.
         12    1    1    2    0    0 -0.35555985303E+01  0.17135096963E+02  0.36700310507E+02  0.40659151739E+02  0.00000000000E+00 0. -1.
         11    1    3    3    0    0  0.17877719621E+01  0.61521277644E+01 -0.33316804564E+01  0.72211425372E+01  0.51100000000E-03 0. -1.
        -11    1    3    3    0    0 -0.58498968314E+01 -0.14294783246E+02 -0.22393044690E+02  0.27203135329E+02  0.51100000000E-03 0.  1.
        -12    1    3    3    0    0  0.76177233996E+01 -0.89924414816E+01 -0.10975585360E+02  0.16104570395E+02  0.00000000000E+00 0.  1.
</event>
<event>
 7    1  0.2661323E-011  0.5052886E+02  0.7816164E-02  0.1300439E+00
        -11   -1    0    0    0    0  0.00000000000E+00  0.00000000000E+00  0.45593999997E+02  0.45594000000E+02  0.51100000000E-03 0. -1.
         11   -1    0    0    0    0 -0.00000000000E+00 -0.00000000000E+00 -0.45593999997E+02  0.45594000000E+02  0.51100000000E-03 0.  1.
    9900012    2    1    2    0    0  0.18523975479E+02  0.30869705506E+02 -0.18896801228E+02  0.50528862255E+02  0.30000007309E+02 0.  0.
         12    1    1    2    0    0 -0.18523975479E+02 -0.30869705506E+02  0.18896801228E+02  0.40659137745E+02  0.00000000000E+00 0. -1.
         11    1    3    3    0    0  0.11512283285E+01  0.64546192054E+01  0.39343104849E+01  0.76463216650E+01  0.51100000000E-03 0. -1.
        -11    1    3    3    0    0  0.40161531585E+01  0.18103889797E+02 -0.40383861249E+01  0.18978642594E+02  0.51100000000E-03 0.  1.
        -12    1    3    3    0    0  0.13356593992E+02  0.63111965038E+01 -0.18792725588E+02  0.23903897996E+02  0.00000000000E+00 0.  1.
</event>
<event>
 7    1  0.2661323E-011  0.5052886E+02  0.7816164E-02  0.1300439E+00
        -11   -1    0    0    0    0  0.00000000000E+00  0.00000000000E+00  0.45593999997E+02  0.45594000000E+02  0.51100000000E-03 0.  1.
         11   -1    0    0    0    0 -0.00000000000E+00 -0.00000000000E+00 -0.45593999997E+02  0.45594000000E+02  0.51100000000E-03 0. -1.
    9900012    2    1    2    0    0 -0.20009266416E+02  0.17962106477E+02  0.30498482114E+02  0.50528862985E+02  0.30000009528E+02 0.  0.
         12    1    1    2    0    0  0.20009266416E+02 -0.17962106477E+02 -0.30498482114E+02  0.40659137015E+02  0.00000000000E+00 0. -1.
         11    1    3    3    0    0 -0.73573489752E+01  0.72424397317E+01  0.20530341799E+01  0.10526085066E+02  0.51100000000E-03 0. -1.
        -11    1    3    3    0    0 -0.87260322884E+01  0.16126073014E+02  0.27783809638E+02  0.33288645941E+02  0.51100000000E-03 0.  1.
         12    1    3    3    0    0 -0.39258851528E+01 -0.54064062686E+01  0.66163829557E+00  0.67141319773E+01  0.00000000000E+00 0. -1.
</event>
<event>
 7    1  0.2779792E-011  0.5052886E+02  0.7816164E-02  0.1300439E+00
        -11   -1    0    0    0    0  0.00000000000E+00  0.00000000000E+00  0.45593999997E+02  0.45594000000E+02  0.51100000000E-03 0. -1.
         11   -1    0    0    0    0 -0.00000000000E+00 -0.00000000000E+00 -0.45593999997E+02  0.45594000000E+02  0.51100000000E-03 0.  1.
    9900012    2    1    2    0    0  0.25645018313E+02 -0.28412700609E+02  0.13719225943E+02  0.50528859814E+02  0.29999999892E+02 0.  0.
         12    1    1    2    0    0 -0.25645018313E+02  0.28412700609E+02 -0.13719225943E+02  0.40659140186E+02  0.00000000000E+00 0. -1.
         11    1    3    3    0    0  0.15960984718E+02 -0.15440006756E+02  0.10914002131E+02  0.24743934298E+02  0.51100000000E-03 0. -1.
        -11    1    3    3    0    0  0.52799435635E+01 -0.16728020785E+02  0.67339999165E+01  0.18789657755E+02  0.51100000000E-03 0.  1.
         12    1    3    3    0    0  0.44040900318E+01  0.37553269317E+01 -0.39287761044E+01  0.69952677612E+01  0.00000000000E+00 0. -1.
</event>
<event>
 7    1  0.2661323E-011  0.5052885E+02  0.7816164E-02  0.1300439E+00
        -11   -1    0    0    0    0  0.00000000000E+00  0.00000000000E+00  0.45593999997E+02  0.45594000000E+02  0.51100000000E-03 0.  1.
         11   -1    0    0    0    0 -0.00000000000E+00 -0.00000000000E+00 -0.45593999997E+02  0.45594000000E+02  0.51100000000E-03 0. -1.
    9900012    2    1    2    0    0  0.19060227862E+02 -0.21558795518E+02  0.28724422540E+02  0.50528850961E+02  0.29999972980E+02 0.  0.
         12    1    1    2    0    0 -0.19060227862E+02  0.21558795518E+02 -0.28724422540E+02  0.40659149039E+02  0.00000000000E+00 0. -1.
         11    1    3    3    0    0  0.86486654100E+01 -0.47153093198E+01  0.20049157613E+02  0.22338358861E+02  0.51100000000E-03 0. -1.
        -11    1    3    3    0    0  0.12506843222E+02 -0.91963447319E+01  0.11971288475E+02  0.19603714745E+02  0.51100000000E-03 0.  1.
         12    1    3    3    0    0 -0.20952807706E+01 -0.76471414661E+01 -0.32960235470E+01  0.85867773543E+01  0.00000000000E+00 0. -1.
</event>
<event>
 7    1  0.2661323E-011  0.5052891E+02  0.7816164E-02  0.1300439E+00
        -11   -1    0    0    0    0  0.00000000000E+00  0.00000000000E+00  0.45593999997E+02  0.45594000000E+02  0.51100000000E-03 0.  1.
         11   -1    0    0    0    0 -0.00000000000E+00 -0.00000000000E+00 -0.45593999997E+02  0.45594000000E+02  0.51100000000E-03 0. -1.
    9900012    2    1    2    0    0  0.12820587084E+01 -0.25215400912E+01  0.40560565538E+02  0.50528913491E+02  0.30000163048E+02 0.  0.
         12    1    1    2    0    0 -0.12820587084E+01  0.25215400912E+01 -0.40560565538E+02  0.40659086509E+02  0.00000000000E+00 0. -1.
         11    1    3    3    0    0  0.30159862318E+01  0.83148384021E+01  0.61939722623E+01  0.10798055531E+02  0.51100000000E-03 0.  1.
        -11    1    3    3    0    0  0.70143740628E+01 -0.25966848676E+01  0.17397759174E+02  0.18937429613E+02  0.51100000000E-03 0. -1.
        -12    1    3    3    0    0 -0.87483015861E+01 -0.82396936258E+01  0.16968834101E+02  0.20793428348E+02  0.00000000000E+00 0.  1.
</event>
<event>
 7    1  0.2661323E-011  0.5052887E+02  0.7816164E-02  0.1300439E+00
        -11   -1    0    0    0    0  0.00000000000E+00  0.00000000000E+00  0.45593999997E+02  0.45594000000E+02  0.51100000000E-03 0.  1.
         11   -1    0    0    0    0 -0.00000000000E+00 -0.00000000000E+00 -0.45593999997E+02  0.45594000000E+02  0.51100000000E-03 0. -1.
    9900012    2    1    2    0    0  0.81513613519E+01  0.25138124451E+02  0.30899754570E+02  0.50528870333E+02  0.30000031863E+02 0.  0.
         12    1    1    2    0    0 -0.81513613519E+01 -0.25138124451E+02 -0.30899754570E+02  0.40659129667E+02  0.00000000000E+00 0. -1.
         11    1    3    3    0    0 -0.41543112008E+01  0.27507900893E+01  0.10438610967E+02  0.11566751785E+02  0.51100000000E-03 0. -1.
        -11    1    3    3    0    0 -0.49216814025E+01  0.16174062323E+01  0.14153282143E+00  0.51825652479E+01  0.51100000000E-03 0.  1.
        -12    1    3    3    0    0  0.17227353955E+02  0.20769928130E+02  0.20319610781E+02  0.33779553299E+02  0.00000000000E+00 0.  1.
</event>
<event>
 7    1  0.2661323E-011  0.5052886E+02  0.7816164E-02  0.1300439E+00
        -11   -1    0    0    0    0  0.00000000000E+00  0.00000000000E+00  0.45593999997E+02  0.45594000000E+02  0.51100000000E-03 0. -1.
         11   -1    0    0    0    0 -0.00000000000E+00 -0.00000000000E+00 -0.45593999997E+02  0.45594000000E+02  0.51100000000E-03 0.  1.
    9900012    2    1    2    0    0 -0.34122187990E+02 -0.12468055088E+02 -0.18258954723E+02  0.50528861562E+02  0.30000005205E+02 0.  0.
         12    1    1    2    0    0  0.34122187990E+02  0.12468055088E+02  0.18258954723E+02  0.40659138438E+02  0.00000000000E+00 0. -1.
         11    1    3    3    0    0 -0.95524561033E+00 -0.75506510852E+01 -0.34476990726E+01  0.83553249574E+01  0.51100000000E-03 0. -1.
        -11    1    3    3    0    0 -0.22394645721E+02 -0.11926857654E+02 -0.14695224493E+02  0.29320977365E+02  0.51100000000E-03 0.  1.
        -12    1    3    3    0    0 -0.10772296659E+02  0.70094536508E+01 -0.11603115720E+00  0.12852559240E+02  0.00000000000E+00 0.  1.
</event>
<event>
 7    1  0.2661323E-011  0.5052886E+02  0.7816164E-02  0.1300439E+00
        -11   -1    0    0    0    0  0.00000000000E+00  0.00000000000E+00  0.45593999997E+02  0.45594000000E+02  0.51100000000E-03 0.  1.
         11   -1    0    0    0    0 -0.00000000000E+00 -0.00000000000E+00 -0.45593999997E+02  0.45594000000E+02  0.51100000000E-03 0. -1.
    9900012    2    1    2    0    0 -0.35046170192E+01  0.39569108617E+02  0.86699894212E+01  0.50528863097E+02  0.30000009869E+02 0.  0.
         12    1    1    2    0    0  0.35046170192E+01 -0.39569108617E+02 -0.86699894212E+01  0.40659136903E+02  0.00000000000E+00 0. -1.
         11    1    3    3    0    0  0.29794041583E+01  0.32695586989E+02  0.94639866967E+01  0.34167898708E+02  0.51100000000E-03 0. -1.
        -11    1    3    3    0    0  0.35075547436E+01  0.50095844911E+01 -0.99027489521E+00  0.61951207964E+01  0.51100000000E-03 0.  1.
        -12    1    3    3    0    0 -0.99915759210E+01  0.18639371368E+01  0.19627761968E+00  0.10165843592E+02  0.00000000000E+00 0.  1.
</event>
<event>
 7    1  0.2661323E-011  0.5052885E+02  0.7816164E-02  0.1300439E+00
        -11   -1    0    0    0    0  0.00000000000E+00  0.00000000000E+00  0.45593999997E+02  0.45594000000E+02  0.51100000000E-03 0. -1.
         11   -1    0    0    0    0 -0.00000000000E+00 -0.00000000000E+00 -0.45593999997E+02  0.45594000000E+02  0.51100000000E-03 0.  1.
    9900012    2    1    2    0    0 -0.16247825522E+02 -0.28564034469E+02 -0.23943070710E+02  0.50528849316E+02  0.29999967981E+02 0.  0.
         12    1    1    2    0    0  0.16247825522E+02  0.28564034469E+02  0.23943070710E+02  0.40659150684E+02  0.00000000000E+00 0. -1.
         11    1    3    3    0    0 -0.72748914908E+01 -0.85941743828E+01 -0.85705504825E+01  0.14150555302E+02  0.51100000000E-03 0. -1.
        -11    1    3    3    0    0 -0.96893359048E+01 -0.12762886026E+02 -0.21553007948E+02  0.26857152527E+02  0.51100000000E-03 0.  1.
         12    1    3    3    0    0  0.71640187334E+00 -0.72069740594E+01  0.61804877212E+01  0.95211414866E+01  0.00000000000E+00 0. -1.
</event>
<event>
 7    1  0.2661323E-011  0.5052885E+02  0.7816164E-02  0.1300439E+00
        -11   -1    0    0    0    0  0.00000000000E+00  0.00000000000E+00  0.45593999997E+02  0.45594000000E+02  0.51100000000E-03 0. -1.
         11   -1    0    0    0    0 -0.00000000000E+00 -0.00000000000E+00 -0.45593999997E+02  0.45594000000E+02  0.51100000000E-03 0.  1.
    9900012    2    1    2    0    0  0.31514473787E+02  0.24990601778E+02  0.59559951636E+01  0.50528854490E+02  0.29999983707E+02 0.  0.
         12    1    1    2    0    0 -0.31514473787E+02 -0.24990601778E+02 -0.59559951636E+01  0.40659145510E+02  0.00000000000E+00 0. -1.
         11    1    3    3    0    0  0.95226557739E+01  0.10710702339E+02 -0.37301850657E+01  0.14809267317E+02  0.51100000000E-03 0. -1.
        -11    1    3    3    0    0  0.22425226011E+02  0.16545673878E+02  0.22789665787E+01  0.27961469465E+02  0.51100000000E-03 0.  1.
         12    1    3    3    0    0 -0.43340799838E+00 -0.22657744389E+01  0.74072136506E+01  0.77581177077E+01  0.00000000000E+00 0. -1.
</event>
<event>
 7    1  0.2661323E-011  0.5052886E+02  0.7816164E-02  0.1300439E+00
        -11   -1    0    0    0    0  0.00000000000E+00  0.00000000000E+00  0.45593999997E+02  0.45594000000E+02  0.51100000000E-03 0. -1.
         11   -1    0    0    0    0 -0.00000000000E+00 -0.00000000000E+00 -0.45593999997E+02  0.45594000000E+02  0.51100000000E-03 0.  1.
    9900012    2    1    2    0    0 -0.31784977168E+01  0.27887043965E+02 -0.29417267340E+02  0.50528859742E+02  0.29999999670E+02 0.  0.
         12    1    1    2    0    0  0.31784977168E+01 -0.27887043965E+02  0.29417267340E+02  0.40659140258E+02  0.00000000000E+00 0. -1.
         11    1    3    3    0    0  0.18761650231E+01  0.48243112185E+01 -0.11069659154E+02  0.12220119802E+02  0.51100000000E-03 0. -1.
        -11    1    3    3    0    0  0.18227156855E+01  0.21461018487E+02 -0.21627389805E+02  0.30522804540E+02  0.51100000000E-03 0.  1.
         12    1    3    3    0    0 -0.68773784254E+01  0.16017142597E+01  0.32797816193E+01  0.77859353996E+01  0.00000000000E+00 0. -1.
</event>
<event>
 7    1  0.2661323E-011  0.5052886E+02  0.7816164E-02  0.1300439E+00
        -11   -1    0    0    0    0  0.00000000000E+00  0.00000000000E+00  0.45593999997E+02  0.45594000000E+02  0.51100000000E-03 0. -1.
         11   -1    0    0    0    0 -0.00000000000E+00 -0.00000000000E+00 -0.45593999997E+02  0.45594000000E+02  0.51100000000E-03 0.  1.
    9900012    2    1    2    0    0 -0.15784994187E+02 -0.33687132973E+02  0.16406610286E+02  0.50528857972E+02  0.29999994291E+02 0.  0.
         12    1    1    2    0    0  0.15784994187E+02  0.33687132973E+02 -0.16406610286E+02  0.40659142028E+02  0.00000000000E+00 0. -1.
         11    1    3    3    0    0 -0.69019891301E+01 -0.12063647668E+02  0.20346144606E+01  0.14046661712E+02  0.51100000000E-03 0. -1.
        -11    1    3    3    0    0 -0.14273902463E+02 -0.72926107170E+01  0.84456111271E+00  0.16051160279E+02  0.51100000000E-03 0.  1.
         12    1    3    3    0    0  0.53908974059E+01 -0.14330874588E+02  0.13527434713E+02  0.20431035980E+02  0.00000000000E+00 0. -1.
</event>
<event>
 7    1  0.2661323E-011  0.5052885E+02  0.7816164E-02  0.1300439E+00
        -11   -1    0    0    0    0  0.00000000000E+00  0.00000000000E+00  0.45593999997E+02  0.45594000000E+02  0.51100000000E-03 0. -1.
         11   -1    0    0    0    0 -0.00000000000E+00 -0.00000000000E+00 -0.45593999997E+02  0.45594000000E+02  0.51100000000E-03 0.  1.
    9900012    2    1    2    0    0 -0.85925056833E+01  0.30504268241E+02  0.25472037440E+02  0.50528853106E+02  0.29999979500E+02 0.  0.
         12    1    1    2    0    0  0.85925056833E+01 -0.30504268241E+02 -0.25472037440E+02  0.40659146894E+02  0.00000000000E+00 0. -1.
         11    1    3    3    0    0  0.57126070766E+01 -0.11947921397E+01  0.20518705086E+01  0.61864028897E+01  0.51100000000E-03 0. -1.
        -11    1    3    3    0    0 -0.22885566980E+00  0.66403163899E+00 -0.18097330939E+01  0.19412488422E+01  0.51100000000E-03 0.  1.
        -12    1    3    3    0    0 -0.14076257090E+02  0.31035028742E+02  0.25229900025E+02  0.42401201374E+02  0.00000000000E+00 0.  1.
</event>
<event>
 7    1  0.2661323E-011  0.5052889E+02  0.7816164E-02  0.1300439E+00
        -11   -1    0    0    0    0  0.00000000000E+00  0.00000000000E+00  0.45593999997E+02  0.45594000000E+02  0.51100000000E-03 0.  1.
         11   -1    0    0    0    0 -0.00000000000E+00 -0.00000000000E+00 -0.45593999997E+02  0.45594000000E+02  0.51100000000E-03 0. -1.
    9900012    2    1    2    0    0 -0.12204168282E+02 -0.21640435786E+02  0.32185608442E+02  0.50528885705E+02  0.30000078589E+02 0.  0.
         12    1    1    2    0    0  0.12204168282E+02  0.21640435786E+02 -0.32185608442E+02  0.40659114295E+02  0.00000000000E+00 0. -1.
         11    1    3    3    0    0 -0.71200182569E+01 -0.15361259411E+02  0.10634974666E+01  0.16964491675E+02  0.51100000000E-03 0. -1.
        -11    1    3    3    0    0 -0.12947154189E+01 -0.58981344872E+01  0.74598176373E+01  0.95975599966E+01  0.51100000000E-03 0.  1.
        -12    1    3    3    0    0 -0.37894346059E+01 -0.38104188748E+00  0.23662293338E+02  0.23966834033E+02  0.00000000000E+00 0.  1.
</event>
<event>
 7    1  0.2661323E-011  0.5052886E+02  0.7816164E-02  0.1300439E+00
        -11   -1    0    0    0    0  0.00000000000E+00  0.00000000000E+00  0.45593999997E+02  0.45594000000E+02  0.51100000000E-03 0.  1.
         11   -1    0    0    0    0 -0.00000000000E+00 -0.00000000000E+00 -0.45593999997E+02  0.45594000000E+02  0.51100000000E-03 0. -1.
    9900012    2    1    2    0    0 -0.44736698556E+00 -0.40318483086E+02 -0.52330835516E+01  0.50528863523E+02  0.30000011165E+02 0.  0.
         12    1    1    2    0    0  0.44736698556E+00  0.40318483086E+02  0.52330835516E+01  0.40659136477E+02  0.00000000000E+00 0. -1.
         11    1    3    3    0    0 -0.59459195865E+00 -0.42938078541E+01 -0.68608713724E+01  0.81155333611E+01  0.51100000000E-03 0. -1.
        -11    1    3    3    0    0 -0.10879815799E+02 -0.21146201519E+02 -0.39245576697E+00  0.23784159693E+02  0.51100000000E-03 0.  1.
        -12    1    3    3    0    0  0.11027040772E+02 -0.14878473713E+02  0.20202435878E+01  0.18629170469E+02  0.00000000000E+00 0.  1.
</event>
<event>
 7    1  0.2661323E-011  0.5052887E+02  0.7816164E-02  0.1300439E+00
        -11   -1    0    0    0    0  0.00000000000E+00  0.00000000000E+00  0.45593999997E+02  0.45594000000E+02  0.51100000000E-03 0.  1.
         11   -1    0    0    0    0 -0.00000000000E+00 -0.00000000000E+00 -0.45593999997E+02  0.45594000000E+02  0.51100000000E-03 0. -1.
    9900012    2    1    2    0    0 -0.29095283476E+02 -0.23771722822E+02  0.15541386932E+02  0.50528867763E+02  0.30000024052E+02 0.  0.
         12    1    1    2    0    0  0.29095283476E+02  0.23771722822E+02 -0.15541386932E+02  0.40659132237E+02  0.00000000000E+00 0. -1.
         11    1    3    3    0    0 -0.18226316997E+02 -0.11372811066E+02  0.72322976362E+01  0.22668162523E+02  0.51100000000E-03 0.  1.
        -11    1    3    3    0    0 -0.61178925013E+01  0.39548936791E+01 -0.24861505440E+01  0.76974500621E+01  0.51100000000E-03 0. -1.
        -12    1    3    3    0    0 -0.47510739779E+01 -0.16353805435E+02  0.10795239840E+02  0.20163255178E+02  0.00000000000E+00 0.  1.
</event>
<event>
 7    1  0.2661323E-011  0.5052886E+02  0.7816164E-02  0.1300439E+00
        -11   -1    0    0    0    0  0.00000000000E+00  0.00000000000E+00  0.45593999997E+02  0.45594000000E+02  0.51100000000E-03 0.  1.
         11   -1    0    0    0    0 -0.00000000000E+00 -0.00000000000E+00 -0.45593999997E+02  0.45594000000E+02  0.51100000000E-03 0. -1.
    9900012    2    1    2    0    0  0.19376453554E+01  0.29260909947E+01  0.40507396614E+02  0.50528860087E+02  0.30000000720E+02 0.  0.
         12    1    1    2    0    0 -0.19376453554E+01 -0.29260909947E+01 -0.40507396614E+02  0.40659139913E+02  0.00000000000E+00 0. -1.
         11    1    3    3    0    0  0.66195071789E+01  0.31223898139E+01  0.18018732381E+01  0.75375022965E+01  0.51100000000E-03 0. -1.
        -11    1    3    3    0    0  0.59768904306E+01  0.38510092706E+01  0.11906691810E+02  0.13868049673E+02  0.51100000000E-03 0.  1.
        -12    1    3    3    0    0 -0.10658752254E+02 -0.40473080898E+01  0.26798831566E+02  0.29123308117E+02  0.00000000000E+00 0.  1.
</event>
<event>
 7    1  0.2661323E-011  0.5052888E+02  0.7816164E-02  0.1300439E+00
        -11   -1    0    0    0    0  0.00000000000E+00  0.00000000000E+00  0.45593999997E+02  0.45594000000E+02  0.51100000000E-03 0.  1.
         11   -1    0    0    0    0 -0.00000000000E+00 -0.00000000000E+00 -0.45593999997E+02  0.45594000000E+02  0.51100000000E-03 0. -1.
    9900012    2    1    2    0    0  0.17241134403E+01  0.15940676663E+02  0.37364234451E+02  0.50528883486E+02  0.30000071842E+02 0.  0.
         12    1    1    2    0    0 -0.17241134403E+01 -0.15940676663E+02 -0.37364234451E+02  0.40659116514E+02  0.00000000000E+00 0. -1.
         11    1    3    3    0    0 -0.48057962645E+01  0.13672618660E+02  0.82557305590E+01  0.16679126658E+02  0.51100000000E-03 0. -1.
        -11    1    3    3    0    0 -0.43703255252E-01  0.78143810929E+01  0.86515440006E+01  0.11658287854E+02  0.51100000000E-03 0.  1.
        -12    1    3    3    0    0  0.65736129600E+01 -0.55463230903E+01  0.20456959892E+02  0.22191468973E+02  0.00000000000E+00 0.  1.
</event>
<event>
 7    1  0.2661323E-011  0.5052886E+02  0.7816164E-02  0.1300439E+00
        -11   -1    0    0    0    0  0.00000000000E+00  0.00000000000E+00  0.45593999997E+02  0.45594000000E+02  0.51100000000E-03 0.  1.
         11   -1    0    0    0    0 -0.00000000000E+00 -0.00000000000E+00 -0.45593999997E+02  0.45594000000E+02  0.51100000000E-03 0. -1.
    9900012    2    1    2    0    0 -0.15570939874E+02 -0.37085651226E+02  0.59469234084E+01  0.50528860886E+02  0.30000003150E+02 0.  0.
         12    1    1    2    0    0  0.15570939874E+02  0.37085651226E+02 -0.59469234084E+01  0.40659139114E+02  0.00000000000E+00 0. -1.
         11    1    3    3    0    0 -0.49822961113E+01 -0.11636348439E+02 -0.12222082130E+01  0.12716983633E+02  0.51100000000E-03 0. -1.
        -11    1    3    3    0    0 -0.10540812666E+02 -0.28756767683E+02  0.80372734668E+00  0.30638315834E+02  0.51100000000E-03 0.  1.
         12    1    3    3    0    0 -0.47831096761E-01  0.33074648963E+01  0.63654042747E+01  0.71735614191E+01  0.00000000000E+00 0. -1.
</event>
<event>
 7    1  0.2661323E-011  0.5052886E+02  0.7816164E-02  0.1300439E+00
        -11   -1    0    0    0    0  0.00000000000E+00  0.00000000000E+00  0.45593999997E+02  0.45594000000E+02  0.51100000000E-03 0.  1.
         11   -1    0    0    0    0 -0.00000000000E+00 -0.00000000000E+00 -0.45593999997E+02  0.45594000000E+02  0.51100000000E-03 0. -1.
    9900012    2    1    2    0    0  0.24470324933E+02 -0.25412571430E+02  0.20213111625E+02  0.50528862398E+02  0.30000007744E+02 0.  0.
         12    1    1    2    0    0 -0.24470324933E+02  0.25412571430E+02 -0.20213111625E+02  0.40659137602E+02  0.00000000000E+00 0. -1.
         11    1    3    3    0    0  0.59689647376E+01 -0.16304807132E+02 -0.52656829169E+00  0.17371026166E+02  0.51100000000E-03 0. -1.
        -11    1    3    3    0    0  0.12301811050E+02 -0.13497591621E+02  0.14181505180E+02  0.23122167375E+02  0.51100000000E-03 0.  1.
        -12    1    3    3    0    0  0.61995491446E+01  0.43898273225E+01  0.65581747364E+01  0.10035668856E+02  0.00000000000E+00 0.  1.
</event>
<event>
 7    1  0.2661323E-011  0.5052885E+02  0.7816164E-02  0.1300439E+00
        -11   -1    0    0    0    0  0.00000000000E+00  0.00000000000E+00  0.45593999997E+02  0.45594000000E+02  0.51100000000E-03 0. -1.
         11   -1    0    0    0    0 -0.00000000000E+00 -0.00000000000E+00 -0.45593999997E+02  0.45594000000E+02  0.51100000000E-03 0.  1.
    9900012    2    1    2    0    0 -0.11071843755E+02  0.20747789801E+02 -0.33167903537E+02  0.50528851819E+02  0.29999975589E+02 0.  0.
         12    1    1    2    0    0  0.11071843755E+02 -0.20747789801E+02  0.33167903537E+02  0.40659148181E+02  0.00000000000E+00 0. -1.
         11    1    3    3    0    0  0.27836641723E+01 -0.25956692160E+01 -0.13767464962E+01  0.40474332705E+01  0.51100000000E-03 0. -1.
        -11    1    3    3    0    0  0.49791606267E+01  0.87639596303E+01 -0.10011550664E+02  0.14206694756E+02  0.51100000000E-03 0.  1.
        -12    1    3    3    0    0 -0.18834668554E+02  0.14579499387E+02 -0.21779606377E+02  0.32274723792E+02  0.00000000000E+00 0.  1.
</event>
<event>
 7    1  0.2661323E-011  0.5052886E+02  0.7816164E-02  0.1300439E+00
        -11   -1    0    0    0    0  0.00000000000E+00  0.00000000000E+00  0.45593999997E+02  0.45594000000E+02  0.51100000000E-03 0.  1.
         11   -1    0    0    0    0 -0.00000000000E+00 -0.00000000000E+00 -0.45593999997E+02  0.45594000000E+02  0.51100000000E-03 0. -1.
    9900012    2    1    2    0    0 -0.27824324930E+02  0.29476556413E+02  0.31788901712E+01  0.50528858611E+02  0.29999996233E+02 0.  0.
         12    1    1    2    0    0  0.27824324930E+02 -0.29476556413E+02 -0.31788901712E+01  0.40659141389E+02  0.00000000000E+00 0. -1.
         11    1    3    3    0    0  0.14856151357E+01  0.35843899007E+01 -0.58707499241E+01  0.70370880500E+01  0.51100000000E-03 0. -1.
        -11    1    3    3    0    0 -0.19148142856E+01 -0.23733926047E+01  0.15500827497E+01  0.34208570558E+01  0.51100000000E-03 0.  1.
        -12    1    3    3    0    0 -0.27395125780E+02  0.28265559117E+02  0.74995573456E+01  0.40070913505E+02  0.00000000000E+00 0.  1.
</event>
<event>
 7    1  0.2661323E-011  0.5052881E+02  0.7816164E-02  0.1300439E+00
        -11   -1    0    0    0    0  0.00000000000E+00  0.00000000000E+00  0.45593999997E+02  0.45594000000E+02  0.51100000000E-03 0. -1.
         11   -1    0    0    0    0 -0.00000000000E+00 -0.00000000000E+00 -0.45593999997E+02  0.45594000000E+02  0.51100000000E-03 0.  1.
    9900012    2    1    2    0    0 -0.20001381343E+02  0.28965620865E+02 -0.20349617728E+02  0.50528814206E+02  0.29999861261E+02 0.  0.
         12    1    1    2    0    0  0.20001381343E+02 -0.28965620865E+02  0.20349617728E+02  0.40659185794E+02  0.00000000000E+00 0. -1.
         11    1    3    3    0    0 -0.68582266277E+01  0.16625192421E+01  0.17680844988E+01  0.72749821830E+01  0.51100000000E-03 0. -1.
        -11    1    3    3    0    0 -0.81622108224E+01  0.11995675669E+02  0.15915577357E+01  0.14596265843E+02  0.51100000000E-03 0.  1.
        -12    1    3    3    0    0 -0.49809438930E+01  0.15307425954E+02 -0.23709259963E+02  0.28657566180E+02  0.00000000000E+00 0.  1.
</event>
<event>
 7    1  0.2661323E-011  0.5052886E+02  0.7816164E-02  0.1300439E+00
        -11   -1    0    0    0    0  0.00000000000E+00  0.00000000000E+00  0.45593999997E+02  0.45594000000E+02  0.51100000000E-03 0.  1.
         11   -1    0    0    0    0 -0.00000000000E+00 -0.00000000000E+00 -0.45593999997E+02  0.45594000000E+02  0.51100000000E-03 0. -1.
    9900012    2    1    2    0    0 -0.15587784418E+02 -0.19798118986E+02  0.31909581264E+02  0.50528856934E+02  0.29999991136E+02 0.  0.
         12    1    1    2    0    0  0.15587784418E+02  0.19798118986E+02 -0.31909581264E+02  0.40659143066E+02  0.00000000000E+00 0. -1.
         11    1    3    3    0    0 -0.69498219821E+01 -0.68860793727E+00 -0.20096412211E+01  0.72672460102E+01  0.51100000000E-03 0. -1.
        -11    1    3    3    0    0 -0.28263437803E+01 -0.90412098430E+01  0.25534621388E+01  0.98108034200E+01  0.51100000000E-03 0.  1.
        -12    1    3    3    0    0 -0.58116186552E+01 -0.10068301206E+02  0.31365760346E+02  0.33450807504E+02  0.00000000000E+00 0.  1.
</event>
<event>
 7    1  0.2661323E-011  0.5052886E+02  0.7816164E-02  0.1300439E+00
        -11   -1    0    0    0    0  0.00000000000E+00  0.00000000000E+00  0.45593999997E+02  0.45594000000E+02  0.51100000000E-03 0. -1.
         11   -1    0    0    0    0 -0.00000000000E+00 -0.00000000000E+00 -0.45593999997E+02  0.45594000000E+02  0.51100000000E-03 0.  1.
    9900012    2    1    2    0    0 -0.34623089351E+02  0.15930134738E+02 -0.14164673138E+02  0.50528862355E+02  0.30000007613E+02 0.  0.
         12    1    1    2    0    0  0.34623089351E+02 -0.15930134738E+02  0.14164673138E+02  0.40659137645E+02  0.00000000000E+00 0. -1.
         11    1    3    3    0    0 -0.22157725398E+02  0.46318424925E+01  0.71398950577E-01  0.22636781083E+02  0.51100000000E-03 0. -1.
        -11    1    3    3    0    0 -0.10589482423E+02  0.15380545306E+02 -0.14097370329E+02  0.23397311006E+02  0.51100000000E-03 0.  1.
         12    1    3    3    0    0 -0.18758815297E+01 -0.40822530605E+01 -0.13870175955E+00  0.44947702657E+01  0.00000000000E+00 0. -1.
</event>
<event>
 7    1  0.2661323E-011  0.5052886E+02  0.7816164E-02  0.1300439E+00
        -11   -1    0    0    0    0  0.00000000000E+00  0.00000000000E+00  0.45593999997E+02  0.45594000000E+02  0.51100000000E-03 0.  1.
         11   -1    0    0    0    0 -0.00000000000E+00 -0.00000000000E+00 -0.45593999997E+02  0.45594000000E+02  0.51100000000E-03 0. -1.
    9900012    2    1    2    0    0 -0.32711084959E+02  0.14322621871E+02  0.19442554792E+02  0.50528861872E+02  0.30000006148E+02 0.  0.
         12    1    1    2    0    0  0.32711084959E+02 -0.14322621871E+02 -0.19442554792E+02  0.40659138128E+02  0.00000000000E+00 0. -1.
         11    1    3    3    0    0 -0.19861210193E+02  0.99728660469E+00  0.19864128726E+02  0.28107754467E+02  0.51100000000E-03 0. -1.
        -11    1    3    3    0    0 -0.83431495171E+01  0.17143991219E+01  0.37217894657E+01  0.92951076003E+01  0.51100000000E-03 0.  1.
         12    1    3    3    0    0 -0.45067252486E+01  0.11610936145E+02 -0.41433633992E+01  0.13125999805E+02  0.00000000000E+00 0. -1.
</event>
<event>
 7    1  0.2661323E-011  0.5052886E+02  0.7816164E-02  0.1300439E+00
        -11   -1    0    0    0    0  0.00000000000E+00  0.00000000000E+00  0.45593999997E+02  0.45594000000E+02  0.51100000000E-03 0. -1.
         11   -1    0    0    0    0 -0.00000000000E+00 -0.00000000000E+00 -0.45593999997E+02  0.45594000000E+02  0.51100000000E-03 0.  1.
    9900012    2    1    2    0    0  0.25069062025E+02  0.29815289296E+02 -0.11651447778E+02  0.50528861028E+02  0.30000003581E+02 0.  0.
         12    1    1    2    0    0 -0.25069062025E+02 -0.29815289296E+02  0.11651447778E+02  0.40659138972E+02  0.00000000000E+00 0. -1.
         11    1    3    3    0    0  0.50766014211E+01  0.74325441521E+01  0.57779249919E+01  0.10695747381E+02  0.51100000000E-03 0. -1.
        -11    1    3    3    0    0  0.20776650623E+02  0.14074077186E+02 -0.62128441741E+01  0.25852433014E+02  0.51100000000E-03 0.  1.
        -12    1    3    3    0    0 -0.78419001960E+00  0.83086679581E+01 -0.11216528596E+02  0.13980680633E+02  0.00000000000E+00 0.  1.
</event>
<event>
 7    1  0.2661323E-011  0.5052886E+02  0.7816164E-02  0.1300439E+00
        -11   -1    0    0    0    0  0.00000000000E+00  0.00000000000E+00  0.45593999997E+02  0.45594000000E+02  0.51100000000E-03 0.  1.
         11   -1    0    0    0    0 -0.00000000000E+00 -0.00000000000E+00 -0.45593999997E+02  0.45594000000E+02  0.51100000000E-03 0. -1.
    9900012    2    1    2    0    0  0.27798391569E+02 -0.72839786208E+01  0.28763849734E+02  0.50528856258E+02  0.29999989081E+02 0.  0.
         12    1    1    2    0    0 -0.27798391569E+02  0.72839786208E+01 -0.28763849734E+02  0.40659143742E+02  0.00000000000E+00 0. -1.
         11    1    3    3    0    0  0.15654557170E+02 -0.93338474020E+01  0.81662102405E+00  0.18244252182E+02  0.51100000000E-03 0. -1.
        -11    1    3    3    0    0  0.40716946753E+01 -0.73920291499E+00  0.13547457694E+01  0.43543604398E+01  0.51100000000E-03 0.  1.
         12    1    3    3    0    0  0.80721397235E+01  0.27890716962E+01  0.26592482940E+02  0.27930243636E+02  0.00000000000E+00 0. -1.
</event>
<event>
 7    1  0.2661323E-011  0.5052886E+02  0.7816164E-02  0.1300439E+00
        -11   -1    0    0    0    0  0.00000000000E+00  0.00000000000E+00  0.45593999997E+02  0.45594000000E+02  0.51100000000E-03 0.  1.
         11   -1    0    0    0    0 -0.00000000000E+00 -0.00000000000E+00 -0.45593999997E+02  0.45594000000E+02  0.51100000000E-03 0. -1.
    9900012    2    1    2    0    0 -0.16795198303E+02 -0.18130407675E+02  0.32285833791E+02  0.50528862870E+02  0.30000009181E+02 0.  0.
         12    1    1    2    0    0  0.16795198303E+02  0.18130407675E+02 -0.32285833791E+02  0.40659137130E+02  0.00000000000E+00 0. -1.
         11    1    3    3    0    0 -0.33485925513E+01  0.18803101038E+01 -0.29496308681E+01  0.48424126921E+01  0.51100000000E-03 0. -1.
        -11    1    3    3    0    0 -0.19108301924E+00 -0.10421305690E+02  0.23016721933E+02  0.25266768963E+02  0.51100000000E-03 0.  1.
        -12    1    3    3    0    0 -0.13255522733E+02 -0.95894120887E+01  0.12218742726E+02  0.20419681216E+02  0.00000000000E+00 0.  1.
</event>
<event>
 7    1  0.2661323E-011  0.5052886E+02  0.7816164E-02  0.1300439E+00
        -11   -1    0    0    0    0  0.00000000000E+00  0.00000000000E+00  0.45593999997E+02  0.45594000000E+02  0.51100000000E-03 0. -1.
         11   -1    0    0    0    0 -0.00000000000E+00 -0.00000000000E+00 -0.45593999997E+02  0.45594000000E+02  0.51100000000E-03 0.  1.
    9900012    2    1    2    0    0 -0.32360060982E+02  0.14558168541E+02 -0.19850737365E+02  0.50528860905E+02  0.30000003206E+02 0.  0.
         12    1    1    2    0    0  0.32360060982E+02 -0.14558168541E+02  0.19850737365E+02  0.40659139095E+02  0.00000000000E+00 0. -1.
         11    1    3    3    0    0 -0.91407662448E+01 -0.85808768083E+01 -0.74298702762E+01  0.14573538586E+02  0.51100000000E-03 0. -1.
        -11    1    3    3    0    0 -0.41510972293E+01  0.70061736262E+01 -0.19391811079E+00  0.81458996791E+01  0.51100000000E-03 0.  1.
        -12    1    3    3    0    0 -0.19068197508E+02  0.16132871723E+02 -0.12226948978E+02  0.27809422639E+02  0.00000000000E+00 0.  1.
</event>
<event>
 7    1  0.2661323E-011  0.5052890E+02  0.7816164E-02  0.1300439E+00
        -11   -1    0    0    0    0  0.00000000000E+00  0.00000000000E+00  0.45593999997E+02  0.45594000000E+02  0.51100000000E-03 0.  1.
         11   -1    0    0    0    0 -0.00000000000E+00 -0.00000000000E+00 -0.45593999997E+02  0.45594000000E+02  0.51100000000E-03 0. -1.
    9900012    2    1    2    0    0 -0.26657158663E+02 -0.27141158192E+02  0.14349778081E+02  0.50528896383E+02  0.30000111044E+02 0.  0.
         12    1    1    2    0    0  0.26657158663E+02  0.27141158192E+02 -0.14349778081E+02  0.40659103617E+02  0.00000000000E+00 0. -1.
         11    1    3    3    0    0 -0.10284227250E+02  0.25166058172E+01  0.69813314177E+01  0.12682177399E+02  0.51100000000E-03 0. -1.
        -11    1    3    3    0    0 -0.26652007832E+01 -0.20959265681E+01  0.61708830512E+01  0.70410227443E+01  0.51100000000E-03 0.  1.
        -12    1    3    3    0    0 -0.13707730630E+02 -0.27561837441E+02  0.11975636121E+01  0.30805696239E+02  0.00000000000E+00 0.  1.
</event>
<event>
 7    1  0.2661323E-011  0.5052885E+02  0.7816164E-02  0.1300439E+00
        -11   -1    0    0    0    0  0.00000000000E+00  0.00000000000E+00  0.45593999997E+02  0.45594000000E+02  0.51100000000E-03 0. -1.
         11   -1    0    0    0    0 -0.00000000000E+00 -0.00000000000E+00 -0.45593999997E+02  0.45594000000E+02  0.51100000000E-03 0.  1.
    9900012    2    1    2    0    0 -0.22036651535E+02 -0.20163701682E+02  0.27585825446E+02  0.50528847993E+02  0.29999963959E+02 0.  0.
         12    1    1    2    0    0  0.22036651535E+02  0.20163701682E+02 -0.27585825446E+02  0.40659152007E+02  0.00000000000E+00 0. -1.
         11    1    3    3    0    0  0.68520478274E+01 -0.68540980204E+01  0.62242957716E+01  0.11518293155E+02  0.51100000000E-03 0. -1.
        -11    1    3    3    0    0 -0.11380950824E+02 -0.40415565130E+01  0.12262255879E+02  0.17211134193E+02  0.51100000000E-03 0.  1.
        -12    1    3    3    0    0 -0.17507748538E+02 -0.92680471491E+01  0.90992737956E+01  0.21799420644E+02  0.00000000000E+00 0.  1.
</event>
<event>
 7    1  0.2661323E-011  0.5052887E+02  0.7816164E-02  0.1300439E+00
        -11   -1    0    0    0    0  0.00000000000E+00  0.00000000000E+00  0.45593999997E+02  0.45594000000E+02  0.51100000000E-03 0.  1.
         11   -1    0    0    0    0 -0.00000000000E+00 -0.00000000000E+00 -0.45593999997E+02  0.45594000000E+02  0.51100000000E-03 0. -1.
    9900012    2    1    2    0    0 -0.89099317732E+01 -0.25991877728E+02  0.29969994836E+02  0.50528865940E+02  0.30000018512E+02 0.  0.
         12    1    1    2    0    0  0.89099317732E+01  0.25991877728E+02 -0.29969994836E+02  0.40659134060E+02  0.00000000000E+00 0. -1.
         11    1    3    3    0    0 -0.49317851142E+01 -0.12070889318E+02  0.33161259429E+01  0.13454574124E+02  0.51100000000E-03 0. -1.
        -11    1    3    3    0    0  0.92468641299E+00 -0.16457063540E+02  0.94351295810E+01  0.18992410479E+02  0.51100000000E-03 0.  1.
         12    1    3    3    0    0 -0.49028330720E+01  0.25360751298E+01  0.17218739312E+02  0.18081881337E+02  0.00000000000E+00 0. -1.
</event>
<event>
 7    1  0.2661323E-011  0.5052888E+02  0.7816164E-02  0.1300439E+00
        -11   -1    0    0    0    0  0.00000000000E+00  0.00000000000E+00  0.45593999997E+02  0.45594000000E+02  0.51100000000E-03 0.  1.
         11   -1    0    0    0    0 -0.00000000000E+00 -0.00000000000E+00 -0.45593999997E+02  0.45594000000E+02  0.51100000000E-03 0. -1.
    9900012    2    1    2    0    0  0.23654107626E+02  0.97076891862E+01  0.31613413720E+02  0.50528880925E+02  0.30000064061E+02 0.  0.
         12    1    1    2    0    0 -0.23654107626E+02 -0.97076891862E+01 -0.31613413720E+02  0.40659119075E+02  0.00000000000E+00 0. -1.
         11    1    3    3    0    0  0.20072395786E+02  0.17632413592E+02  0.26540251286E+02  0.37658837213E+02  0.51100000000E-03 0. -1.
        -11    1    3    3    0    0 -0.49361237754E+00 -0.10779223977E+01 -0.19279596723E+01  0.22633158493E+01  0.51100000000E-03 0.  1.
        -12    1    3    3    0    0  0.40753242175E+01 -0.68468020082E+01  0.70011221058E+01  0.10606727863E+02  0.00000000000E+00 0.  1.
</event>
<event>
 7    1  0.2661323E-011  0.5052886E+02  0.7816164E-02  0.1300439E+00
        -11   -1    0    0    0    0  0.00000000000E+00  0.00000000000E+00  0.45593999997E+02  0.45594000000E+02  0.51100000000E-03 0. -1.
         11   -1    0    0    0    0 -0.00000000000E+00 -0.00000000000E+00 -0.45593999997E+02  0.45594000000E+02  0.51100000000E-03 0.  1.
    9900012    2    1    2    0    0 -0.14131527485E+02  0.21654907033E+02 -0.31377233489E+02  0.50528857743E+02  0.29999993596E+02 0.  0.
         12    1    1    2    0    0  0.14131527485E+02 -0.21654907033E+02  0.31377233489E+02  0.40659142257E+02  0.00000000000E+00 0. -1.
         11    1    3    3    0    0 -0.11057349137E+02  0.10105132066E+01 -0.34537735570E+01  0.11628183819E+02  0.51100000000E-03 0. -1.
        -11    1    3    3    0    0 -0.40532071115E+01 -0.19181837202E+01 -0.51342465415E+01  0.68167737591E+01  0.51100000000E-03 0.  1.
        -12    1    3    3    0    0  0.97902876367E+00  0.22562577546E+02 -0.22789213390E+02  0.32083900165E+02  0.00000000000E+00 0.  1.
</event>
<event>
 7    1  0.2661323E-011  0.5052886E+02  0.7816164E-02  0.1300439E+00
        -11   -1    0    0    0    0  0.00000000000E+00  0.00000000000E+00  0.45593999997E+02  0.45594000000E+02  0.51100000000E-03 0. -1.
         11   -1    0    0    0    0 -0.00000000000E+00 -0.00000000000E+00 -0.45593999997E+02  0.45594000000E+02  0.51100000000E-03 0.  1.
    9900012    2    1    2    0    0  0.90099166175E+01 -0.31356104077E+02  0.24264820195E+02  0.50528863764E+02  0.30000011897E+02 0.  0.
         12    1    1    2    0    0 -0.90099166175E+01  0.31356104077E+02 -0.24264820195E+02  0.40659136236E+02  0.00000000000E+00 0. -1.
         11    1    3    3    0    0  0.44925861355E+01 -0.37560354212E+01  0.88182772108E+01  0.10585515835E+02  0.51100000000E-03 0. -1.
        -11    1    3    3    0    0  0.43718856258E+00 -0.20340152301E+01 -0.59836142881E+01  0.63349816105E+01  0.51100000000E-03 0.  1.
         12    1    3    3    0    0  0.40801419194E+01 -0.25566053426E+02  0.21430157272E+02  0.33608366318E+02  0.00000000000E+00 0. -1.
</event>
<event>
 7    1  0.2661323E-011  0.5052894E+02  0.7816164E-02  0.1300439E+00
        -11   -1    0    0    0    0  0.00000000000E+00  0.00000000000E+00  0.45593999997E+02  0.45594000000E+02  0.51100000000E-03 0.  1.
         11   -1    0    0    0    0 -0.00000000000E+00 -0.00000000000E+00 -0.45593999997E+02  0.45594000000E+02  0.51100000000E-03 0. -1.
    9900012    2    1    2    0    0 -0.17887491993E+02 -0.18232228073E+01  0.36467415925E+02  0.50528942763E+02  0.30000252020E+02 0.  0.
         12    1    1    2    0    0  0.17887491993E+02  0.18232228073E+01 -0.36467415925E+02  0.40659057237E+02  0.00000000000E+00 0. -1.
         11    1    3    3    0    0 -0.59720481812E+01  0.63422995661E+01 -0.25529482221E+00  0.87152337302E+01  0.51100000000E-03 0. -1.
        -11    1    3    3    0    0 -0.84047579495E+01  0.31875302114E+00  0.78087553192E+01  0.11476855823E+02  0.51100000000E-03 0.  1.
         12    1    3    3    0    0 -0.35106858626E+01 -0.84842753945E+01  0.28913955428E+02  0.30336853210E+02  0.00000000000E+00 0. -1.
</event>
<event>
 7    1  0.2661323E-011  0.5052886E+02  0.7816164E-02  0.1300439E+00
        -11   -1    0    0    0    0  0.00000000000E+00  0.00000000000E+00  0.45593999997E+02  0.45594000000E+02  0.51100000000E-03 0.  1.
         11   -1    0    0    0    0 -0.00000000000E+00 -0.00000000000E+00 -0.45593999997E+02  0.45594000000E+02  0.51100000000E-03 0. -1.
    9900012    2    1    2    0    0  0.37484076848E+02 -0.52505821090E+00  0.15742733470E+02  0.50528863753E+02  0.30000011863E+02 0.  0.
         12    1    1    2    0    0 -0.37484076848E+02  0.52505821090E+00 -0.15742733470E+02  0.40659136247E+02  0.00000000000E+00 0. -1.
         11    1    3    3    0    0  0.14233793541E+02 -0.16581957841E+00  0.13145183568E+02  0.19375867103E+02  0.51100000000E-03 0. -1.
        -11    1    3    3    0    0  0.63690101131E+01  0.61107754973E+01  0.83812103675E+01  0.12171711239E+02  0.51100000000E-03 0.  1.
         12    1    3    3    0    0  0.16881273194E+02 -0.64700141298E+01 -0.57836604653E+01  0.18981285411E+02  0.00000000000E+00 0. -1.
</event>
<event>
 7    1  0.2661323E-011  0.5052887E+02  0.7816164E-02  0.1300439E+00
        -11   -1    0    0    0    0  0.00000000000E+00  0.00000000000E+00  0.45593999997E+02  0.45594000000E+02  0.51100000000E-03 0.  1.
         11   -1    0    0    0    0 -0.00000000000E+00 -0.00000000000E+00 -0.45593999997E+02  0.45594000000E+02  0.51100000000E-03 0. -1.
    9900012    2    1    2    0    0 -0.32085394240E+02 -0.78663160830E+01  0.23702606482E+02  0.50528868107E+02  0.30000025098E+02 0.  0.
         12    1    1    2    0    0  0.32085394240E+02  0.78663160830E+01 -0.23702606482E+02  0.40659131893E+02  0.00000000000E+00 0. -1.
         11    1    3    3    0    0 -0.17452040569E+02  0.26021692407E-01  0.19350287238E+02  0.26057782208E+02  0.51100000000E-03 0. -1.
        -11    1    3    3    0    0 -0.67948600813E+01  0.31873880977E+01  0.74228613743E+01  0.10555966922E+02  0.51100000000E-03 0.  1.
         12    1    3    3    0    0 -0.78384935900E+01 -0.11079725873E+02 -0.30705421300E+01  0.13915118977E+02  0.00000000000E+00 0. -1.
</event>
<event>
 7    1  0.2661323E-011  0.5052886E+02  0.7816164E-02  0.1300439E+00
        -11   -1    0    0    0    0  0.00000000000E+00  0.00000000000E+00  0.45593999997E+02  0.45594000000E+02  0.51100000000E-03 0. -1.
         11   -1    0    0    0    0 -0.00000000000E+00 -0.00000000000E+00 -0.45593999997E+02  0.45594000000E+02  0.51100000000E-03 0.  1.
    9900012    2    1    2    0    0 -0.24818660300E-01 -0.10517420943E+02 -0.39275296016E+02  0.50528860358E+02  0.30000001544E+02 0.  0.
         12    1    1    2    0    0  0.24818660300E-01  0.10517420943E+02  0.39275296016E+02  0.40659139642E+02  0.00000000000E+00 0. -1.
         11    1    3    3    0    0 -0.11856986193E+01  0.74526019300E+01 -0.16995674428E+02  0.18595701284E+02  0.51100000000E-03 0. -1.
        -11    1    3    3    0    0 -0.50789923643E+00  0.96324991494E+00 -0.82192802256E+01  0.82911024430E+01  0.51100000000E-03 0.  1.
         12    1    3    3    0    0  0.16687791954E+01 -0.18933272788E+02 -0.14060341363E+02  0.23642056631E+02  0.00000000000E+00 0. -1.
</event>
<event>
 7    1  0.2661323E-011  0.5052888E+02  0.7816164E-02  0.1300439E+00
        -11   -1    0    0    0    0  0.00000000000E+00  0.00000000000E+00  0.45593999997E+02  0.45594000000E+02  0.51100000000E-03 0. -1.
         11   -1    0    0    0    0 -0.00000000000E+00 -0.00000000000E+00 -0.45593999997E+02  0.45594000000E+02  0.51100000000E-03 0.  1.
    9900012    2    1    2    0    0  0.40355711204E+02 -0.22322359409E+00 -0.49528697515E+01  0.50528878338E+02  0.30000056195E+02 0.  0.
         12    1    1    2    0    0 -0.40355711204E+02  0.22322359409E+00  0.49528697515E+01  0.40659121662E+02  0.00000000000E+00 0. -1.
         11    1    3    3    0    0 -0.22678398170E+01 -0.26885889100E+01  0.11006796938E+01  0.36855262598E+01  0.51100000000E-03 0. -1.
        -11    1    3    3    0    0  0.30848298276E+01  0.53641886871E+01  0.17653253907E+01  0.64348325022E+01  0.51100000000E-03 0.  1.
        -12    1    3    3    0    0  0.39538721194E+02 -0.28988233712E+01 -0.78188748360E+01  0.40408519575E+02  0.00000000000E+00 0.  1.
</event>
<event>
 7    1  0.2661323E-011  0.5052887E+02  0.7816164E-02  0.1300439E+00
        -11   -1    0    0    0    0  0.00000000000E+00  0.00000000000E+00  0.45593999997E+02  0.45594000000E+02  0.51100000000E-03 0.  1.
         11   -1    0    0    0    0 -0.00000000000E+00 -0.00000000000E+00 -0.45593999997E+02  0.45594000000E+02  0.51100000000E-03 0. -1.
    9900012    2    1    2    0    0  0.27041676147E+02  0.26357129917E+02  0.15073635580E+02  0.50528867743E+02  0.30000023992E+02 0.  0.
         12    1    1    2    0    0 -0.27041676147E+02 -0.26357129917E+02 -0.15073635580E+02  0.40659132257E+02  0.00000000000E+00 0. -1.
         11    1    3    3    0    0  0.87612764319E+01  0.12930923600E+02 -0.10877276507E+01  0.15657327408E+02  0.51100000000E-03 0. -1.
        -11    1    3    3    0    0  0.84200545427E+01  0.23590621187E+01 -0.41884904618E+01  0.96956663099E+01  0.51100000000E-03 0.  1.
        -12    1    3    3    0    0  0.98603451721E+01  0.11067144198E+02  0.20349853693E+02  0.25175874025E+02  0.00000000000E+00 0.  1.
</event>
<event>
 7    1  0.2661323E-011  0.5052886E+02  0.7816164E-02  0.1300439E+00
        -11   -1    0    0    0    0  0.00000000000E+00  0.00000000000E+00  0.45593999997E+02  0.45594000000E+02  0.51100000000E-03 0. -1.
         11   -1    0    0    0    0 -0.00000000000E+00 -0.00000000000E+00 -0.45593999997E+02  0.45594000000E+02  0.51100000000E-03 0.  1.
    9900012    2    1    2    0    0  0.32257382175E+02  0.24749682560E+02  0.28287129810E+00  0.50528861940E+02  0.30000006353E+02 0.  0.
         12    1    1    2    0    0 -0.32257382175E+02 -0.24749682560E+02 -0.28287129810E+00  0.40659138060E+02  0.00000000000E+00 0. -1.
         11    1    3    3    0    0  0.17731731504E+02  0.21359459876E+01 -0.78043224496E+01  0.19490613550E+02  0.51100000000E-03 0. -1.
        -11    1    3    3    0    0  0.26965047659E+01  0.14058236579E+01  0.59231764553E+01  0.66581902715E+01  0.51100000000E-03 0.  1.
        -12    1    3    3    0    0  0.11829145905E+02  0.21207912914E+02  0.21640172924E+01  0.24380058119E+02  0.00000000000E+00 0.  1.
</event>
<event>
 7    1  0.2661323E-011  0.5052886E+02  0.7816164E-02  0.1300439E+00
        -11   -1    0    0    0    0  0.00000000000E+00  0.00000000000E+00  0.45593999997E+02  0.45594000000E+02  0.51100000000E-03 0.  1.
         11   -1    0    0    0    0 -0.00000000000E+00 -0.00000000000E+00 -0.45593999997E+02  0.45594000000E+02  0.51100000000E-03 0. -1.
    9900012    2    1    2    0    0 -0.21119486335E+02 -0.31969836188E+02  0.13603781961E+02  0.50528855732E+02  0.29999987484E+02 0.  0.
         12    1    1    2    0    0  0.21119486335E+02  0.31969836188E+02 -0.13603781961E+02  0.40659144268E+02  0.00000000000E+00 0. -1.
         11    1    3    3    0    0 -0.49669601375E+01  0.22762412079E+01  0.19123240629E+01  0.57886916161E+01  0.51100000000E-03 0. -1.
        -11    1    3    3    0    0  0.19959122224E+01 -0.92995011933E+01 -0.37720403612E+01  0.10231943940E+02  0.51100000000E-03 0.  1.
        -12    1    3    3    0    0 -0.18148438420E+02 -0.24946576203E+02  0.15463498260E+02  0.34508220176E+02  0.00000000000E+00 0.  1.
</event>
<event>
 7    1  0.2661323E-011  0.5052887E+02  0.7816164E-02  0.1300439E+00
        -11   -1    0    0    0    0  0.00000000000E+00  0.00000000000E+00  0.45593999997E+02  0.45594000000E+02  0.51100000000E-03 0.  1.
         11   -1    0    0    0    0 -0.00000000000E+00 -0.00000000000E+00 -0.45593999997E+02  0.45594000000E+02  0.51100000000E-03 0. -1.
    9900012    2    1    2    0    0 -0.20655969030E+02 -0.35011837823E+02  0.81681819004E+00  0.50528867738E+02  0.30000023977E+02 0.  0.
         12    1    1    2    0    0  0.20655969030E+02  0.35011837823E+02 -0.81681819004E+00  0.40659132262E+02  0.00000000000E+00 0. -1.
         11    1    3    3    0    0 -0.15848452866E+02 -0.96341815165E+01 -0.10554316773E+01  0.18576997821E+02  0.51100000000E-03 0. -1.
        -11    1    3    3    0    0 -0.93721648449E+01 -0.10829602065E+02  0.68993914614E+01  0.15897149353E+02  0.51100000000E-03 0.  1.
         12    1    3    3    0    0  0.45646486806E+01 -0.14548054241E+02 -0.50271415941E+01  0.16054720564E+02  0.00000000000E+00 0. -1.
</event>
<event>
 7    1  0.2661323E-011  0.5052884E+02  0.7816164E-02  0.1300439E+00
        -11   -1    0    0    0    0  0.00000000000E+00  0.00000000000E+00  0.45593999997E+02  0.45594000000E+02  0.51100000000E-03 0. -1.
         11   -1    0    0    0    0 -0.00000000000E+00 -0.00000000000E+00 -0.45593999997E+02  0.45594000000E+02  0.51100000000E-03 0.  1.
    9900012    2    1    2    0    0  0.32596005207E+02 -0.17978125690E+02  0.16354039420E+02  0.50528841571E+02  0.29999944440E+02 0.  0.
         12    1    1    2    0    0 -0.32596005207E+02  0.17978125690E+02 -0.16354039420E+02  0.40659158429E+02  0.00000000000E+00 0. -1.
         11    1    3    3    0    0  0.34431693601E+02 -0.65723193981E+01  0.10468065911E+02  0.36583019431E+02  0.51100000000E-03 0. -1.
        -11    1    3    3    0    0  0.16874102720E+01 -0.52368438533E+01  0.20442147625E+01  0.58694719716E+01  0.51100000000E-03 0.  1.
         12    1    3    3    0    0 -0.35230986659E+01 -0.61689624384E+01  0.38417587469E+01  0.80763501685E+01  0.00000000000E+00 0. -1.
</event>
<event>
 7    1  0.2661323E-011  0.5052886E+02  0.7816164E-02  0.1300439E+00
        -11   -1    0    0    0    0  0.00000000000E+00  0.00000000000E+00  0.45593999997E+02  0.45594000000E+02  0.51100000000E-03 0.  1.
         11   -1    0    0    0    0 -0.00000000000E+00 -0.00000000000E+00 -0.45593999997E+02  0.45594000000E+02  0.51100000000E-03 0. -1.
    9900012    2    1    2    0    0  0.18785217163E+02  0.87563660850E+01  0.34980099197E+02  0.50528859937E+02  0.30000000264E+02 0.  0.
         12    1    1    2    0    0 -0.18785217163E+02 -0.87563660850E+01 -0.34980099197E+02  0.40659140063E+02  0.00000000000E+00 0. -1.
         11    1    3    3    0    0  0.12722848061E+01  0.43416202964E+01  0.15633396242E+02  0.16274871851E+02  0.51100000000E-03 0. -1.
        -11    1    3    3    0    0 -0.33169970961E+01  0.56231602027E+01  0.85606250108E+01  0.10765997457E+02  0.51100000000E-03 0.  1.
         12    1    3    3    0    0  0.20829929453E+02 -0.12084144141E+01  0.10786077944E+02  0.23487990630E+02  0.00000000000E+00 0. -1.
</event>
<event>
 7    1  0.2661323E-011  0.5052886E+02  0.7816164E-02  0.1300439E+00
        -11   -1    0    0    0    0  0.00000000000E+00  0.00000000000E+00  0.45593999997E+02  0.45594000000E+02  0.51100000000E-03 0.  1.
         11   -1    0    0    0    0 -0.00000000000E+00 -0.00000000000E+00 -0.45593999997E+02  0.45594000000E+02  0.51100000000E-03 0. -1.
    9900012    2    1    2    0    0 -0.16222116238E+02  0.29974875255E+02  0.22170147173E+02  0.50528860468E+02  0.30000001879E+02 0.  0.
         12    1    1    2    0    0  0.16222116238E+02 -0.29974875255E+02 -0.22170147173E+02  0.40659139532E+02  0.00000000000E+00 0. -1.
         11    1    3    3    0    0  0.17931778661E+01  0.35300084780E+00  0.34977662674E+00  0.18607633938E+01  0.51100000000E-03 0. -1.
        -11    1    3    3    0    0  0.52620645525E+01  0.20959937587E+00  0.59335417410E+01  0.79334842980E+01  0.51100000000E-03 0.  1.
        -12    1    3    3    0    0 -0.23277358657E+02  0.29412275031E+02  0.15886828805E+02  0.40734612776E+02  0.00000000000E+00 0.  1.
</event>
<event>
 7    1  0.2661323E-011  0.5052885E+02  0.7816164E-02  0.1300439E+00
        -11   -1    0    0    0    0  0.00000000000E+00  0.00000000000E+00  0.45593999997E+02  0.45594000000E+02  0.51100000000E-03 0. -1.
         11   -1    0    0    0    0 -0.00000000000E+00 -0.00000000000E+00 -0.45593999997E+02  0.45594000000E+02  0.51100000000E-03 0.  1.
    9900012    2    1    2    0    0 -0.20288667297E+02 -0.12122578085E+02 -0.33084431645E+02  0.50528849278E+02  0.29999967867E+02 0.  0.
         12    1    1    2    0    0  0.20288667297E+02  0.12122578085E+02  0.33084431645E+02  0.40659150722E+02  0.00000000000E+00 0. -1.
         11    1    3    3    0    0 -0.10392805138E+02 -0.11230079451E+02 -0.19266065706E+02  0.24602974844E+02  0.51100000000E-03 0. -1.
        -11    1    3    3    0    0 -0.97749540550E+01 -0.37408131532E+01 -0.18025526838E+02  0.20843776718E+02  0.51100000000E-03 0.  1.
         12    1    3    3    0    0 -0.12090810416E+00  0.28483145198E+01  0.42071608987E+01  0.50820977166E+01  0.00000000000E+00 0. -1.
</event>
<event>
 7    1  0.2661323E-011  0.5052887E+02  0.7816164E-02  0.1300439E+00
        -11   -1    0    0    0    0  0.00000000000E+00  0.00000000000E+00  0.45593999997E+02  0.45594000000E+02  0.51100000000E-03 0.  1.
         11   -1    0    0    0    0 -0.00000000000E+00 -0.00000000000E+00 -0.45593999997E+02  0.45594000000E+02  0.51100000000E-03 0. -1.
    9900012    2    1    2    0    0 -0.25156422044E+01 -0.20402895712E+02  0.35079319122E+02  0.50528865243E+02  0.30000016393E+02 0.  0.
         12    1    1    2    0    0  0.25156422044E+01  0.20402895712E+02 -0.35079319122E+02  0.40659134757E+02  0.00000000000E+00 0. -1.
         11    1    3    3    0    0  0.12697230432E+01  0.94248323795E-01  0.47763575550E+01  0.49431438485E+01  0.51100000000E-03 0. -1.
        -11    1    3    3    0    0 -0.10495065761E+00 -0.17454120506E+01  0.25921439828E+02  0.25980348744E+02  0.51100000000E-03 0.  1.
         12    1    3    3    0    0 -0.36804145899E+01 -0.18751731985E+02  0.43815217389E+01  0.19605372650E+02  0.00000000000E+00 0. -1.
</event>
<event>
 7    1  0.2661323E-011  0.5052887E+02  0.7816164E-02  0.1300439E+00
        -11   -1    0    0    0    0  0.00000000000E+00  0.00000000000E+00  0.45593999997E+02  0.45594000000E+02  0.51100000000E-03 0.  1.
         11   -1    0    0    0    0 -0.00000000000E+00 -0.00000000000E+00 -0.45593999997E+02  0.45594000000E+02  0.51100000000E-03 0. -1.
    9900012    2    1    2    0    0  0.19682444603E+01  0.32159843298E+02  0.24799912899E+02  0.50528865885E+02  0.30000018344E+02 0.  0.
         12    1    1    2    0    0 -0.19682444603E+01 -0.32159843298E+02 -0.24799912899E+02  0.40659134115E+02  0.00000000000E+00 0. -1.
         11    1    3    3    0    0 -0.10460183784E+01  0.79208403933E+01  0.10353811518E+01  0.80564186445E+01  0.51100000000E-03 0. -1.
        -11    1    3    3    0    0  0.91321072296E+01  0.26921768214E+02  0.20416830694E+02  0.35000342314E+02  0.51100000000E-03 0.  1.
        -12    1    3    3    0    0 -0.61178443909E+01 -0.26827653093E+01  0.33477010523E+01  0.74721049264E+01  0.00000000000E+00 0.  1.
</event>
<event>
 7    1  0.2661323E-011  0.5052886E+02  0.7816164E-02  0.1300439E+00
        -11   -1    0    0    0    0  0.00000000000E+00  0.00000000000E+00  0.45593999997E+02  0.45594000000E+02  0.51100000000E-03 0.  1.
         11   -1    0    0    0    0 -0.00000000000E+00 -0.00000000000E+00 -0.45593999997E+02  0.45594000000E+02  0.51100000000E-03 0. -1.
    9900012    2    1    2    0    0  0.33045413686E+02 -0.18865996824E+02  0.14326224274E+02  0.50528857070E+02  0.29999991550E+02 0.  0.
         12    1    1    2    0    0 -0.33045413686E+02  0.18865996824E+02 -0.14326224274E+02  0.40659142930E+02  0.00000000000E+00 0. -1.
         11    1    3    3    0    0  0.71416410368E+01 -0.59706317454E+01  0.10252604723E+02  0.13848010110E+02  0.51100000000E-03 0. -1.
        -11    1    3    3    0    0  0.21740676869E+02 -0.19006472702E+02  0.47106341339E+01  0.29259068842E+02  0.51100000000E-03 0.  1.
         12    1    3    3    0    0  0.41630957801E+01  0.61111076231E+01 -0.63701458275E+00  0.74217781181E+01  0.00000000000E+00 0. -1.
</event>
<event>
 7    1  0.2661323E-011  0.5052886E+02  0.7816164E-02  0.1300439E+00
        -11   -1    0    0    0    0  0.00000000000E+00  0.00000000000E+00  0.45593999997E+02  0.45594000000E+02  0.51100000000E-03 0.  1.
         11   -1    0    0    0    0 -0.00000000000E+00 -0.00000000000E+00 -0.45593999997E+02  0.45594000000E+02  0.51100000000E-03 0. -1.
    9900012    2    1    2    0    0  0.62905682910E+01 -0.39605715776E+02 -0.67068420062E+01  0.50528859560E+02  0.29999999120E+02 0.  0.
         12    1    1    2    0    0 -0.62905682910E+01  0.39605715776E+02  0.67068420062E+01  0.40659140440E+02  0.00000000000E+00 0. -1.
         11    1    3    3    0    0  0.11511859543E+02 -0.19343442216E+02 -0.55186052788E+01  0.23176424905E+02  0.51100000000E-03 0. -1.
        -11    1    3    3    0    0 -0.96770306051E+01 -0.12170021491E+02 -0.63212281407E+01  0.16784286398E+02  0.51100000000E-03 0.  1.
         12    1    3    3    0    0  0.44557393528E+01 -0.80922520696E+01  0.51329914133E+01  0.10568148257E+02  0.00000000000E+00 0. -1.
</event>
<event>
 7    1  0.2661323E-011  0.5052886E+02  0.7816164E-02  0.1300439E+00
        -11   -1    0    0    0    0  0.00000000000E+00  0.00000000000E+00  0.45593999997E+02  0.45594000000E+02  0.51100000000E-03 0.  1.
         11   -1    0    0    0    0 -0.00000000000E+00 -0.00000000000E+00 -0.45593999997E+02  0.45594000000E+02  0.51100000000E-03 0. -1.
    9900012    2    1    2    0    0  0.35727529520E+02  0.12965457181E+02  0.14443209002E+02  0.50528859185E+02  0.29999997980E+02 0.  0.
         12    1    1    2    0    0 -0.35727529520E+02 -0.12965457181E+02 -0.14443209002E+02  0.40659140815E+02  0.00000000000E+00 0. -1.
         11    1    3    3    0    0  0.13335260297E+02  0.22626993056E+01 -0.28454562355E+01  0.13821924496E+02  0.51100000000E-03 0. -1.
        -11    1    3    3    0    0  0.23765511584E+02  0.14838102086E+02  0.15198222406E+02  0.31874045537E+02  0.51100000000E-03 0.  1.
         12    1    3    3    0    0 -0.13732423608E+01 -0.41353442104E+01  0.20904428318E+01  0.48328891518E+01  0.00000000000E+00 0. -1.
</event>
<event>
 7    1  0.2661323E-011  0.5052886E+02  0.7816164E-02  0.1300439E+00
        -11   -1    0    0    0    0  0.00000000000E+00  0.00000000000E+00  0.45593999997E+02  0.45594000000E+02  0.51100000000E-03 0.  1.
         11   -1    0    0    0    0 -0.00000000000E+00 -0.00000000000E+00 -0.45593999997E+02  0.45594000000E+02  0.51100000000E-03 0. -1.
    9900012    2    1    2    0    0 -0.33922698288E+02  0.48506347804E+01  0.21883506330E+02  0.50528856303E+02  0.29999989219E+02 0.  0.
         12    1    1    2    0    0  0.33922698288E+02 -0.48506347804E+01 -0.21883506330E+02  0.40659143697E+02  0.00000000000E+00 0. -1.
         11    1    3    3    0    0 -0.11844156475E+02  0.97657604468E+01  0.33736943441E+01  0.15717376801E+02  0.51100000000E-03 0. -1.
        -11    1    3    3    0    0 -0.12609174000E+02  0.28030231482E+01  0.34589446052E+00  0.12921604040E+02  0.51100000000E-03 0.  1.
        -12    1    3    3    0    0 -0.94693678132E+01 -0.77181488146E+01  0.18163917525E+02  0.21889875462E+02  0.00000000000E+00 0.  1.
</event>
<event>
 7    1  0.2661323E-011  0.5052886E+02  0.7816164E-02  0.1300439E+00
        -11   -1    0    0    0    0  0.00000000000E+00  0.00000000000E+00  0.45593999997E+02  0.45594000000E+02  0.51100000000E-03 0.  1.
         11   -1    0    0    0    0 -0.00000000000E+00 -0.00000000000E+00 -0.45593999997E+02  0.45594000000E+02  0.51100000000E-03 0. -1.
    9900012    2    1    2    0    0 -0.87542067225E+01 -0.36413380705E+02  0.15830193230E+02  0.50528862683E+02  0.30000008611E+02 0.  0.
         12    1    1    2    0    0  0.87542067225E+01  0.36413380705E+02 -0.15830193230E+02  0.40659137317E+02  0.00000000000E+00 0. -1.
         11    1    3    3    0    0 -0.15301635920E+02 -0.18669511469E+02  0.79734840089E+01  0.25421785300E+02  0.51100000000E-03 0. -1.
        -11    1    3    3    0    0 -0.46431305299E+01 -0.41180585635E+01  0.17649418481E+01  0.64522931923E+01  0.51100000000E-03 0.  1.
         12    1    3    3    0    0  0.11190559728E+02 -0.13625810672E+02  0.60917673728E+01  0.18654784191E+02  0.00000000000E+00 0. -1.
</event>
<event>
 7    1  0.2661323E-011  0.5052886E+02  0.7816164E-02  0.1300439E+00
        -11   -1    0    0    0    0  0.00000000000E+00  0.00000000000E+00  0.45593999997E+02  0.45594000000E+02  0.51100000000E-03 0. -1.
         11   -1    0    0    0    0 -0.00000000000E+00 -0.00000000000E+00 -0.45593999997E+02  0.45594000000E+02  0.51100000000E-03 0.  1.
    9900012    2    1    2    0    0  0.29306391100E+02  0.77268219787E+01 -0.27103458085E+02  0.50528858624E+02  0.29999996275E+02 0.  0.
         12    1    1    2    0    0 -0.29306391100E+02 -0.77268219787E+01  0.27103458085E+02  0.40659141376E+02  0.00000000000E+00 0. -1.
         11    1    3    3    0    0  0.23760739079E+01  0.10772514641E+02 -0.62508910269E+01  0.12679370560E+02  0.51100000000E-03 0. -1.
        -11    1    3    3    0    0  0.15064213261E+02  0.53054468152E+01 -0.15850043780E+02  0.22501159418E+02  0.51100000000E-03 0.  1.
         12    1    3    3    0    0  0.11866103931E+02 -0.83511394774E+01 -0.50025232787E+01  0.15348328646E+02  0.00000000000E+00 0. -1.
</event>
<event>
 7    1  0.2661323E-011  0.5052881E+02  0.7816164E-02  0.1300439E+00
        -11   -1    0    0    0    0  0.00000000000E+00  0.00000000000E+00  0.45593999997E+02  0.45594000000E+02  0.51100000000E-03 0.  1.
         11   -1    0    0    0    0 -0.00000000000E+00 -0.00000000000E+00 -0.45593999997E+02  0.45594000000E+02  0.51100000000E-03 0. -1.
    9900012    2    1    2    0    0  0.12202297265E+02 -0.10148313203E+02  0.37433746514E+02  0.50528810417E+02  0.29999849744E+02 0.  0.
         12    1    1    2    0    0 -0.12202297265E+02  0.10148313203E+02 -0.37433746514E+02  0.40659189583E+02  0.00000000000E+00 0. -1.
         11    1    3    3    0    0  0.19175817050E+00 -0.14169831250E+02  0.73695117867E+01  0.15972807927E+02  0.51100000000E-03 0. -1.
        -11    1    3    3    0    0  0.80139410055E+00 -0.34485515025E+01  0.70646088676E+01  0.79021160889E+01  0.51100000000E-03 0.  1.
        -12    1    3    3    0    0  0.11209144994E+02  0.74700695495E+01  0.22999625860E+02  0.26653886401E+02  0.00000000000E+00 0.  1.
</event>
<event>
 7    1  0.2661323E-011  0.5052887E+02  0.7816164E-02  0.1300439E+00
        -11   -1    0    0    0    0  0.00000000000E+00  0.00000000000E+00  0.45593999997E+02  0.45594000000E+02  0.51100000000E-03 0.  1.
         11   -1    0    0    0    0 -0.00000000000E+00 -0.00000000000E+00 -0.45593999997E+02  0.45594000000E+02  0.51100000000E-03 0. -1.
    9900012    2    1    2    0    0 -0.44401883543E+01 -0.17367144204E+02  0.36494274421E+02  0.50528867742E+02  0.30000023989E+02 0.  0.
         12    1    1    2    0    0  0.44401883543E+01  0.17367144204E+02 -0.36494274421E+02  0.40659132258E+02  0.00000000000E+00 0. -1.
         11    1    3    3    0    0  0.50788109390E+01 -0.82847649960E+01  0.85342121457E+00  0.97549976742E+01  0.51100000000E-03 0. -1.
        -11    1    3    3    0    0 -0.21244967517E+01  0.41289876090E+01  0.75800840564E+01  0.88893025422E+01  0.51100000000E-03 0.  1.
        -12    1    3    3    0    0 -0.73945025415E+01 -0.13211366817E+02  0.28060769150E+02  0.31884567526E+02  0.00000000000E+00 0.  1.
</event>
<event>
 7    1  0.2661323E-011  0.5052886E+02  0.7816164E-02  0.1300439E+00
        -11   -1    0    0    0    0  0.00000000000E+00  0.00000000000E+00  0.45593999997E+02  0.45594000000E+02  0.51100000000E-03 0. -1.
         11   -1    0    0    0    0 -0.00000000000E+00 -0.00000000000E+00 -0.45593999997E+02  0.45594000000E+02  0.51100000000E-03 0.  1.
    9900012    2    1    2    0    0  0.86359123344E+00  0.68402254089E+00 -0.40644211129E+02  0.50528861114E+02  0.30000003843E+02 0.  0.
         12    1    1    2    0    0 -0.86359123344E+00 -0.68402254089E+00  0.40644211129E+02  0.40659138886E+02  0.00000000000E+00 0. -1.
         11    1    3    3    0    0 -0.50004677764E+00 -0.54352157544E+01 -0.29320716697E+02  0.29824420279E+02  0.51100000000E-03 0.  1.
        -11    1    3    3    0    0  0.17851284786E+01  0.20625787082E+01 -0.14980301566E+02  0.15226632913E+02  0.51100000000E-03 0. -1.
         12    1    3    3    0    0 -0.42149046749E+00  0.40566595872E+01  0.36568071340E+01  0.54778079225E+01  0.00000000000E+00 0. -1.
</event>
<event>
 7    1  0.2661323E-011  0.5052889E+02  0.7816164E-02  0.1300439E+00
        -11   -1    0    0    0    0  0.00000000000E+00  0.00000000000E+00  0.45593999997E+02  0.45594000000E+02  0.51100000000E-03 0.  1.
         11   -1    0    0    0    0 -0.00000000000E+00 -0.00000000000E+00 -0.45593999997E+02  0.45594000000E+02  0.51100000000E-03 0. -1.
    9900012    2    1    2    0    0 -0.26780716668E+01  0.53122648118E+01  0.40221520821E+02  0.50528893241E+02  0.30000101495E+02 0.  0.
         12    1    1    2    0    0  0.26780716668E+01 -0.53122648118E+01 -0.40221520821E+02  0.40659106759E+02  0.00000000000E+00 0. -1.
         11    1    3    3    0    0  0.29574447411E+01  0.10136037990E+02  0.17648039340E+02  0.20565481720E+02  0.51100000000E-03 0. -1.
        -11    1    3    3    0    0  0.50876521588E+01 -0.56818536726E+00  0.15747136419E+02  0.16558361778E+02  0.51100000000E-03 0.  1.
        -12    1    3    3    0    0 -0.10723168567E+02 -0.42555878114E+01  0.68263450615E+01  0.13405049744E+02  0.00000000000E+00 0.  1.
</event>
<event>
 7    1  0.2661323E-011  0.5052887E+02  0.7816164E-02  0.1300439E+00
        -11   -1    0    0    0    0  0.00000000000E+00  0.00000000000E+00  0.45593999997E+02  0.45594000000E+02  0.51100000000E-03 0.  1.
         11   -1    0    0    0    0 -0.00000000000E+00 -0.00000000000E+00 -0.45593999997E+02  0.45594000000E+02  0.51100000000E-03 0. -1.
    9900012    2    1    2    0    0 -0.28976932530E+02  0.25437748314E+02  0.12900526020E+02  0.50528865359E+02  0.30000016745E+02 0.  0.
         12    1    1    2    0    0  0.28976932530E+02 -0.25437748314E+02 -0.12900526020E+02  0.40659134641E+02  0.00000000000E+00 0. -1.
         11    1    3    3    0    0 -0.14427346544E+02  0.10551434084E+02 -0.13535299599E+01  0.17925209431E+02  0.51100000000E-03 0. -1.
        -11    1    3    3    0    0 -0.10809641769E+02  0.12874071908E+02 -0.93072522326E+00  0.16836161449E+02  0.51100000000E-03 0.  1.
         12    1    3    3    0    0 -0.37399442172E+01  0.20122423221E+01  0.15184781204E+02  0.15767494478E+02  0.00000000000E+00 0. -1.
</event>
<event>
 7    1  0.2661323E-011  0.5052886E+02  0.7816164E-02  0.1300439E+00
        -11   -1    0    0    0    0  0.00000000000E+00  0.00000000000E+00  0.45593999997E+02  0.45594000000E+02  0.51100000000E-03 0. -1.
         11   -1    0    0    0    0 -0.00000000000E+00 -0.00000000000E+00 -0.45593999997E+02  0.45594000000E+02  0.51100000000E-03 0.  1.
    9900012    2    1    2    0    0  0.35793499039E+02 -0.11095020677E+02 -0.15776306954E+02  0.50528856891E+02  0.29999991004E+02 0.  0.
         12    1    1    2    0    0 -0.35793499039E+02  0.11095020677E+02  0.15776306954E+02  0.40659143109E+02  0.00000000000E+00 0. -1.
         11    1    3    3    0    0  0.12083854214E+00  0.86754584789E+00 -0.14825674466E+00  0.88837946561E+00  0.51100000000E-03 0. -1.
        -11    1    3    3    0    0  0.18503897595E+02  0.47109199490E+01 -0.17142002754E+02  0.25659993212E+02  0.51100000000E-03 0.  1.
         12    1    3    3    0    0  0.17168762902E+02 -0.16673486474E+02  0.15139525444E+01  0.23980484213E+02  0.00000000000E+00 0. -1.
</event>
<event>
 7    1  0.2661323E-011  0.5052886E+02  0.7816164E-02  0.1300439E+00
        -11   -1    0    0    0    0  0.00000000000E+00  0.00000000000E+00  0.45593999997E+02  0.45594000000E+02  0.51100000000E-03 0. -1.
         11   -1    0    0    0    0 -0.00000000000E+00 -0.00000000000E+00 -0.45593999997E+02  0.45594000000E+02  0.51100000000E-03 0.  1.
    9900012    2    1    2    0    0 -0.40534133897E+02  0.29910026590E+01  0.10971030333E+01  0.50528859050E+02  0.29999997569E+02 0.  0.
         12    1    1    2    0    0  0.40534133897E+02 -0.29910026590E+01 -0.10971030333E+01  0.40659140950E+02  0.00000000000E+00 0. -1.
         11    1    3    3    0    0 -0.83351796381E+00  0.27894613806E+01  0.62676111968E+00  0.29780323625E+01  0.51100000000E-03 0. -1.
        -11    1    3    3    0    0 -0.35267184423E+02  0.97516445127E+01  0.30280053169E+01  0.36715632696E+02  0.51100000000E-03 0.  1.
         12    1    3    3    0    0 -0.44334315108E+01 -0.95501032344E+01 -0.25576634032E+01  0.10835193991E+02  0.00000000000E+00 0. -1.
</event>
<event>
 7    1  0.2661323E-011  0.5052886E+02  0.7816164E-02  0.1300439E+00
        -11   -1    0    0    0    0  0.00000000000E+00  0.00000000000E+00  0.45593999997E+02  0.45594000000E+02  0.51100000000E-03 0.  1.
         11   -1    0    0    0    0 -0.00000000000E+00 -0.00000000000E+00 -0.45593999997E+02  0.45594000000E+02  0.51100000000E-03 0. -1.
    9900012    2    1    2    0    0  0.30414733979E+01 -0.39041446721E+02  0.10939859737E+02  0.50528860147E+02  0.30000000904E+02 0.  0.
         12    1    1    2    0    0 -0.30414733979E+01  0.39041446721E+02 -0.10939859737E+02  0.40659139853E+02  0.00000000000E+00 0. -1.
         11    1    3    3    0    0 -0.42280759316E+01  0.15640038400E+01  0.18405343703E+01  0.48693224503E+01  0.51100000000E-03 0. -1.
        -11    1    3    3    0    0  0.38006988824E+01  0.17868208830E+00  0.10066179800E+01  0.39357997030E+01  0.51100000000E-03 0.  1.
        -12    1    3    3    0    0  0.34688504472E+01 -0.40784132649E+02  0.80927073866E+01  0.41723737994E+02  0.00000000000E+00 0.  1.
</event>
<event>
 7    1  0.2661323E-011  0.5052886E+02  0.7816164E-02  0.1300439E+00
        -11   -1    0    0    0    0  0.00000000000E+00  0.00000000000E+00  0.45593999997E+02  0.45594000000E+02  0.51100000000E-03 0. -1.
         11   -1    0    0    0    0 -0.00000000000E+00 -0.00000000000E+00 -0.45593999997E+02  0.45594000000E+02  0.51100000000E-03 0.  1.
    9900012    2    1    2    0    0 -0.34295856844E+02  0.20214003185E+02 -0.82676258360E+01  0.50528863777E+02  0.30000011936E+02 0.  0.
         12    1    1    2    0    0  0.34295856844E+02 -0.20214003185E+02  0.82676258360E+01  0.40659136223E+02  0.00000000000E+00 0. -1.
         11    1    3    3    0    0 -0.49546470271E+01  0.22101524694E+01  0.29732909754E+01  0.61865790698E+01  0.51100000000E-03 0. -1.
        -11    1    3    3    0    0 -0.16415874354E+02 -0.27876561898E+00  0.44389771487E+01  0.17007738223E+02  0.51100000000E-03 0.  1.
        -12    1    3    3    0    0 -0.12925335463E+02  0.18282616335E+02 -0.15679893960E+02  0.27334546484E+02  0.00000000000E+00 0.  1.
</event>
<event>
 7    1  0.2661323E-011  0.5052886E+02  0.7816164E-02  0.1300439E+00
        -11   -1    0    0    0    0  0.00000000000E+00  0.00000000000E+00  0.45593999997E+02  0.45594000000E+02  0.51100000000E-03 0. -1.
         11   -1    0    0    0    0 -0.00000000000E+00 -0.00000000000E+00 -0.45593999997E+02  0.45594000000E+02  0.51100000000E-03 0.  1.
    9900012    2    1    2    0    0  0.36920220118E+02  0.16747913356E+02 -0.30936072609E+01  0.50528860053E+02  0.30000000617E+02 0.  0.
         12    1    1    2    0    0 -0.36920220118E+02 -0.16747913356E+02  0.30936072609E+01  0.40659139947E+02  0.00000000000E+00 0. -1.
         11    1    3    3    0    0  0.27503557491E+01  0.72248886960E+01 -0.22438899423E+01  0.80497525273E+01  0.51100000000E-03 0. -1.
        -11    1    3    3    0    0  0.69356002449E+01  0.13153418220E+02  0.12589861284E+01  0.14923136666E+02  0.51100000000E-03 0.  1.
         12    1    3    3    0    0  0.27234264124E+02 -0.36303935604E+01 -0.21087034470E+01  0.27555970860E+02  0.00000000000E+00 0. -1.
</event>
<event>
 7    1  0.2661323E-011  0.5052883E+02  0.7816164E-02  0.1300439E+00
        -11   -1    0    0    0    0  0.00000000000E+00  0.00000000000E+00  0.45593999997E+02  0.45594000000E+02  0.51100000000E-03 0.  1.
         11   -1    0    0    0    0 -0.00000000000E+00 -0.00000000000E+00 -0.45593999997E+02  0.45594000000E+02  0.51100000000E-03 0. -1.
    9900012    2    1    2    0    0  0.23520234737E+02 -0.24227168056E+02  0.22649744704E+02  0.50528830687E+02  0.29999911355E+02 0.  0.
         12    1    1    2    0    0 -0.23520234737E+02  0.24227168056E+02 -0.22649744704E+02  0.40659169313E+02  0.00000000000E+00 0. -1.
         11    1    3    3    0    0  0.11700251760E+02 -0.42885984150E+01  0.12123590753E+01  0.12520294821E+02  0.51100000000E-03 0. -1.
        -11    1    3    3    0    0  0.14321408769E+02 -0.13603149365E+02  0.52372320250E+01  0.20434701400E+02  0.51100000000E-03 0.  1.
         12    1    3    3    0    0 -0.25014257911E+01 -0.63354202760E+01  0.16200153603E+02  0.17573834466E+02  0.00000000000E+00 0. -1.
</event>
<event>
 7    1  0.2661323E-011  0.5052885E+02  0.7816164E-02  0.1300439E+00
        -11   -1    0    0    0    0  0.00000000000E+00  0.00000000000E+00  0.45593999997E+02  0.45594000000E+02  0.51100000000E-03 0. -1.
         11   -1    0    0    0    0 -0.00000000000E+00 -0.00000000000E+00 -0.45593999997E+02  0.45594000000E+02  0.51100000000E-03 0.  1.
    9900012    2    1    2    0    0 -0.13702062008E+02 -0.15773787337E+02 -0.34879900012E+02  0.50528852259E+02  0.29999976926E+02 0.  0.
         12    1    1    2    0    0  0.13702062008E+02  0.15773787337E+02  0.34879900012E+02  0.40659147741E+02  0.00000000000E+00 0. -1.
         11    1    3    3    0    0 -0.23121851072E+01 -0.16702432685E+00 -0.17517184597E+02  0.17669913796E+02  0.51100000000E-03 0. -1.
        -11    1    3    3    0    0 -0.79255965852E+01  0.24039565298E+01 -0.11159348637E+01  0.83569970151E+01  0.51100000000E-03 0.  1.
         12    1    3    3    0    0 -0.34642803153E+01 -0.18010719540E+02 -0.16246780551E+02  0.24501941448E+02  0.00000000000E+00 0. -1.
</event>
<event>
 7    1  0.2661323E-011  0.5052885E+02  0.7816164E-02  0.1300439E+00
        -11   -1    0    0    0    0  0.00000000000E+00  0.00000000000E+00  0.45593999997E+02  0.45594000000E+02  0.51100000000E-03 0.  1.
         11   -1    0    0    0    0 -0.00000000000E+00 -0.00000000000E+00 -0.45593999997E+02  0.45594000000E+02  0.51100000000E-03 0. -1.
    9900012    2    1    2    0    0  0.93037271567E+01 -0.17859683792E+02  0.35321937100E+02  0.50528845008E+02  0.29999954886E+02 0.  0.
         12    1    1    2    0    0 -0.93037271567E+01  0.17859683792E+02 -0.35321937100E+02  0.40659154992E+02  0.00000000000E+00 0. -1.
         11    1    3    3    0    0 -0.93331758948E+01 -0.49852334280E+01  0.10637598439E+02  0.15003973654E+02  0.51100000000E-03 0. -1.
        -11    1    3    3    0    0 -0.66608390539E-02 -0.39887618133E+01  0.81319898620E+01  0.90575672533E+01  0.51100000000E-03 0.  1.
         12    1    3    3    0    0  0.18643563891E+02 -0.88856885505E+01  0.16552348800E+02  0.26467304100E+02  0.00000000000E+00 0. -1.
</event>
<event>
 7    1  0.2661323E-011  0.5052886E+02  0.7816164E-02  0.1300439E+00
        -11   -1    0    0    0    0  0.00000000000E+00  0.00000000000E+00  0.45593999997E+02  0.45594000000E+02  0.51100000000E-03 0.  1.
         11   -1    0    0    0    0 -0.00000000000E+00 -0.00000000000E+00 -0.45593999997E+02  0.45594000000E+02  0.51100000000E-03 0. -1.
    9900012    2    1    2    0    0 -0.21683780403E+02  0.33665516435E+02 -0.70435917382E+01  0.50528861863E+02  0.30000006120E+02 0.  0.
         12    1    1    2    0    0  0.21683780403E+02 -0.33665516435E+02  0.70435917382E+01  0.40659138137E+02  0.00000000000E+00 0. -1.
         11    1    3    3    0    0 -0.11393622571E+02  0.87640293174E+01  0.26604243242E+01  0.14618505498E+02  0.51100000000E-03 0. -1.
        -11    1    3    3    0    0 -0.11003781643E+02  0.24163700772E+02 -0.40444228595E+00  0.26554306982E+02  0.51100000000E-03 0.  1.
         12    1    3    3    0    0  0.71362381085E+00  0.73778634584E+00 -0.92995737765E+01  0.93560493832E+01  0.00000000000E+00 0. -1.
</event>
<event>
 7    1  0.2661323E-011  0.5052886E+02  0.7816164E-02  0.1300439E+00
        -11   -1    0    0    0    0  0.00000000000E+00  0.00000000000E+00  0.45593999997E+02  0.45594000000E+02  0.51100000000E-03 0.  1.
         11   -1    0    0    0    0 -0.00000000000E+00 -0.00000000000E+00 -0.45593999997E+02  0.45594000000E+02  0.51100000000E-03 0. -1.
    9900012    2    1    2    0    0 -0.20234260924E+02  0.19498823842E+02  0.29385980877E+02  0.50528864268E+02  0.30000013428E+02 0.  0.
         12    1    1    2    0    0  0.20234260924E+02 -0.19498823842E+02 -0.29385980877E+02  0.40659135732E+02  0.00000000000E+00 0. -1.
         11    1    3    3    0    0 -0.19763368970E+00  0.81285877939E+01  0.13904250747E+02  0.16107178142E+02  0.51100000000E-03 0. -1.
        -11    1    3    3    0    0  0.29259127279E+01  0.49839485829E+01  0.71043803426E+01  0.91582164793E+01  0.51100000000E-03 0.  1.
         12    1    3    3    0    0 -0.22962539962E+02  0.63862874657E+01  0.83773497880E+01  0.25263469647E+02  0.00000000000E+00 0. -1.
</event>
<event>
 7    1  0.2661323E-011  0.5052888E+02  0.7816164E-02  0.1300439E+00
        -11   -1    0    0    0    0  0.00000000000E+00  0.00000000000E+00  0.45593999997E+02  0.45594000000E+02  0.51100000000E-03 0.  1.
         11   -1    0    0    0    0 -0.00000000000E+00 -0.00000000000E+00 -0.45593999997E+02  0.45594000000E+02  0.51100000000E-03 0. -1.
    9900012    2    1    2    0    0  0.29214446571E+02  0.39332558901E+01  0.28003748347E+02  0.50528876647E+02  0.30000051056E+02 0.  0.
         12    1    1    2    0    0 -0.29214446571E+02 -0.39332558901E+01 -0.28003748347E+02  0.40659123353E+02  0.00000000000E+00 0. -1.
         11    1    3    3    0    0  0.53419694270E+01 -0.31879264039E+01  0.21517352110E+02  0.22398570361E+02  0.51100000000E-03 0. -1.
        -11    1    3    3    0    0  0.43458613708E+01  0.24709722005E+01  0.63183472342E+01  0.80569055289E+01  0.51100000000E-03 0.  1.
        -12    1    3    3    0    0  0.19526615774E+02  0.46502100935E+01  0.16804900266E+00  0.20073400757E+02  0.00000000000E+00 0.  1.
</event>
<event>
 7    1  0.2661323E-011  0.5052887E+02  0.7816164E-02  0.1300439E+00
        -11   -1    0    0    0    0  0.00000000000E+00  0.00000000000E+00  0.45593999997E+02  0.45594000000E+02  0.51100000000E-03 0.  1.
         11   -1    0    0    0    0 -0.00000000000E+00 -0.00000000000E+00 -0.45593999997E+02  0.45594000000E+02  0.51100000000E-03 0. -1.
    9900012    2    1    2    0    0  0.11934890063E+02 -0.38101897046E+02  0.76791269470E+01  0.50528866340E+02  0.30000019728E+02 0.  0.
         12    1    1    2    0    0 -0.11934890063E+02  0.38101897046E+02 -0.76791269470E+01  0.40659133660E+02  0.00000000000E+00 0. -1.
         11    1    3    3    0    0  0.35913707155E+01  0.60037171911E+00 -0.18960207735E+01  0.41052752468E+01  0.51100000000E-03 0. -1.
        -11    1    3    3    0    0  0.53267422597E+01 -0.64779448967E+00 -0.31040954053E+01  0.61991313382E+01  0.51100000000E-03 0.  1.
        -12    1    3    3    0    0  0.30167770875E+01 -0.38054474275E+02  0.12679243126E+02  0.40224459755E+02  0.00000000000E+00 0.  1.
</event>
<event>
 7    1  0.2661323E-011  0.5052886E+02  0.7816164E-02  0.1300439E+00
        -11   -1    0    0    0    0  0.00000000000E+00  0.00000000000E+00  0.45593999997E+02  0.45594000000E+02  0.51100000000E-03 0.  1.
         11   -1    0    0    0    0 -0.00000000000E+00 -0.00000000000E+00 -0.45593999997E+02  0.45594000000E+02  0.51100000000E-03 0. -1.
    9900012    2    1    2    0    0 -0.17991872926E+02  0.11580565808E+02  0.34573811904E+02  0.50528862461E+02  0.30000007937E+02 0.  0.
         12    1    1    2    0    0  0.17991872926E+02 -0.11580565808E+02 -0.34573811904E+02  0.40659137539E+02  0.00000000000E+00 0. -1.
         11    1    3    3    0    0 -0.40866821068E+01  0.91597935144E+01  0.16549132634E+02  0.19351397341E+02  0.51100000000E-03 0. -1.
        -11    1    3    3    0    0 -0.13939793126E+02  0.10063532214E+02  0.15443644859E+02  0.23110575065E+02  0.51100000000E-03 0.  1.
         12    1    3    3    0    0  0.34602306734E-01 -0.76427599210E+01  0.25810344118E+01  0.80668900553E+01  0.00000000000E+00 0. -1.
</event>
<event>
 7    1  0.2661323E-011  0.5052886E+02  0.7816164E-02  0.1300439E+00
        -11   -1    0    0    0    0  0.00000000000E+00  0.00000000000E+00  0.45593999997E+02  0.45594000000E+02  0.51100000000E-03 0.  1.
         11   -1    0    0    0    0 -0.00000000000E+00 -0.00000000000E+00 -0.45593999997E+02  0.45594000000E+02  0.51100000000E-03 0. -1.
    9900012    2    1    2    0    0 -0.11041877659E+02 -0.17815060564E+02  0.34840577347E+02  0.50528864802E+02  0.30000015053E+02 0.  0.
         12    1    1    2    0    0  0.11041877659E+02  0.17815060564E+02 -0.34840577347E+02  0.40659135198E+02  0.00000000000E+00 0. -1.
         11    1    3    3    0    0 -0.14242065944E+01 -0.54237962659E+01  0.12615869855E+02  0.13806016906E+02  0.51100000000E-03 0.  1.
        -11    1    3    3    0    0  0.59317402464E+00 -0.10185470962E+02 -0.19502096471E+01  0.10387443962E+02  0.51100000000E-03 0. -1.
         12    1    3    3    0    0 -0.10210845089E+02 -0.22057933366E+01  0.24174917139E+02  0.26335403934E+02  0.00000000000E+00 0. -1.
</event>
<event>
 7    1  0.2661323E-011  0.5052886E+02  0.7816164E-02  0.1300439E+00
        -11   -1    0    0    0    0  0.00000000000E+00  0.00000000000E+00  0.45593999997E+02  0.45594000000E+02  0.51100000000E-03 0. -1.
         11   -1    0    0    0    0 -0.00000000000E+00 -0.00000000000E+00 -0.45593999997E+02  0.45594000000E+02  0.51100000000E-03 0.  1.
    9900012    2    1    2    0    0  0.16479640463E+02 -0.26132045607E+02 -0.26433001112E+02  0.50528857053E+02  0.29999991499E+02 0.  0.
         12    1    1    2    0    0 -0.16479640463E+02  0.26132045607E+02  0.26433001112E+02  0.40659142947E+02  0.00000000000E+00 0. -1.
         11    1    3    3    0    0  0.99926130415E+01 -0.15927899645E+02 -0.79188152931E+01  0.20402400310E+02  0.51100000000E-03 0.  1.
        -11    1    3    3    0    0  0.28834319573E+01  0.60115443989E+01 -0.82202547986E+01  0.10584206873E+02  0.51100000000E-03 0. -1.
         12    1    3    3    0    0  0.36035954645E+01 -0.16215690361E+02 -0.10293931020E+02  0.19542249871E+02  0.00000000000E+00 0. -1.
</event>
<event>
 7    1  0.2661323E-011  0.5052885E+02  0.7816164E-02  0.1300439E+00
        -11   -1    0    0    0    0  0.00000000000E+00  0.00000000000E+00  0.45593999997E+02  0.45594000000E+02  0.51100000000E-03 0. -1.
         11   -1    0    0    0    0 -0.00000000000E+00 -0.00000000000E+00 -0.45593999997E+02  0.45594000000E+02  0.51100000000E-03 0.  1.
    9900012    2    1    2    0    0 -0.15849066219E+02  0.17719290699E+02 -0.32984847934E+02  0.50528851508E+02  0.29999974644E+02 0.  0.
         12    1    1    2    0    0  0.15849066219E+02 -0.17719290699E+02  0.32984847934E+02  0.40659148492E+02  0.00000000000E+00 0. -1.
         11    1    3    3    0    0  0.15167872243E+01  0.62228758503E+01 -0.26719259232E+01  0.69400299518E+01  0.51100000000E-03 0.  1.
        -11    1    3    3    0    0 -0.65391740628E+00  0.13418722377E+02 -0.79688978227E+01  0.15620276917E+02  0.51100000000E-03 0. -1.
        -12    1    3    3    0    0 -0.16711936037E+02 -0.19223075283E+01 -0.22344024188E+02  0.27968544639E+02  0.00000000000E+00 0.  1.
</event>
<event>
 7    1  0.2661323E-011  0.5052886E+02  0.7816164E-02  0.1300439E+00
        -11   -1    0    0    0    0  0.00000000000E+00  0.00000000000E+00  0.45593999997E+02  0.45594000000E+02  0.51100000000E-03 0.  1.
         11   -1    0    0    0    0 -0.00000000000E+00 -0.00000000000E+00 -0.45593999997E+02  0.45594000000E+02  0.51100000000E-03 0. -1.
    9900012    2    1    2    0    0  0.34736624716E+02 -0.92746114946E+01  0.18987213086E+02  0.50528858643E+02  0.29999996333E+02 0.  0.
         12    1    1    2    0    0 -0.34736624716E+02  0.92746114946E+01 -0.18987213086E+02  0.40659141357E+02  0.00000000000E+00 0. -1.
         11    1    3    3    0    0  0.68106268597E+01 -0.60113439295E+01  0.15573034584E+02  0.18028874077E+02  0.51100000000E-03 0. -1.
        -11    1    3    3    0    0  0.36885349360E+01 -0.20307147259E+01  0.67980659881E+01  0.79964238077E+01  0.51100000000E-03 0.  1.
         12    1    3    3    0    0  0.24237462921E+02 -0.12325528391E+01 -0.33838874861E+01  0.24503560759E+02  0.00000000000E+00 0. -1.
</event>
<event>
 7    1  0.2661323E-011  0.5052887E+02  0.7816164E-02  0.1300439E+00
        -11   -1    0    0    0    0  0.00000000000E+00  0.00000000000E+00  0.45593999997E+02  0.45594000000E+02  0.51100000000E-03 0. -1.
         11   -1    0    0    0    0 -0.00000000000E+00 -0.00000000000E+00 -0.45593999997E+02  0.45594000000E+02  0.51100000000E-03 0.  1.
    9900012    2    1    2    0    0 -0.22558275466E+02 -0.11046818917E+01 -0.33809294157E+02  0.50528874512E+02  0.30000044567E+02 0.  0.
         12    1    1    2    0    0  0.22558275466E+02  0.11046818917E+01  0.33809294157E+02  0.40659125488E+02  0.00000000000E+00 0. -1.
         11    1    3    3    0    0 -0.12625098637E+02  0.33831458807E+01 -0.25889604574E+01  0.13324470276E+02  0.51100000000E-03 0. -1.
        -11    1    3    3    0    0 -0.28372008781E+01  0.64457076858E+01 -0.13241340357E+02  0.14997664855E+02  0.51100000000E-03 0.  1.
         12    1    3    3    0    0 -0.70959759510E+01 -0.10933535458E+02 -0.17978993343E+02  0.22206739381E+02  0.00000000000E+00 0. -1.
</event>
<event>
 7    1  0.2661323E-011  0.5052886E+02  0.7816164E-02  0.1300439E+00
        -11   -1    0    0    0    0  0.00000000000E+00  0.00000000000E+00  0.45593999997E+02  0.45594000000E+02  0.51100000000E-03 0.  1.
         11   -1    0    0    0    0 -0.00000000000E+00 -0.00000000000E+00 -0.45593999997E+02  0.45594000000E+02  0.51100000000E-03 0. -1.
    9900012    2    1    2    0    0 -0.31266313384E+02 -0.36541443752E+01  0.25733837293E+02  0.50528861967E+02  0.30000006435E+02 0.  0.
         12    1    1    2    0    0  0.31266313384E+02  0.36541443752E+01 -0.25733837293E+02  0.40659138033E+02  0.00000000000E+00 0. -1.
         11    1    3    3    0    0 -0.93570966281E+01 -0.80383578714E+01  0.79466315891E+01  0.14673765994E+02  0.51100000000E-03 0. -1.
        -11    1    3    3    0    0  0.59918164718E+00 -0.44757466035E+01 -0.16667496146E+01  0.48134583040E+01  0.51100000000E-03 0.  1.
        -12    1    3    3    0    0 -0.22508398403E+02  0.88599600997E+01  0.19453955318E+02  0.31041637669E+02  0.00000000000E+00 0.  1.
</event>
<event>
 7    1  0.2661323E-011  0.5052884E+02  0.7816164E-02  0.1300439E+00
        -11   -1    0    0    0    0  0.00000000000E+00  0.00000000000E+00  0.45593999997E+02  0.45594000000E+02  0.51100000000E-03 0.  1.
         11   -1    0    0    0    0 -0.00000000000E+00 -0.00000000000E+00 -0.45593999997E+02  0.45594000000E+02  0.51100000000E-03 0. -1.
    9900012    2    1    2    0    0 -0.44676044443E+01 -0.20262575719E+02  0.34966206755E+02  0.50528842617E+02  0.29999947620E+02 0.  0.
         12    1    1    2    0    0  0.44676044443E+01  0.20262575719E+02 -0.34966206755E+02  0.40659157383E+02  0.00000000000E+00 0. -1.
         11    1    3    3    0    0  0.73813556268E+01 -0.10796496931E+02  0.27472801787E+02  0.30427020807E+02  0.51100000000E-03 0. -1.
        -11    1    3    3    0    0  0.33828840078E+00 -0.54195953197E+01  0.41439676410E+01  0.68307335289E+01  0.51100000000E-03 0.  1.
        -12    1    3    3    0    0 -0.12187248472E+02 -0.40464834680E+01  0.33494373264E+01  0.13271088282E+02  0.00000000000E+00 0.  1.
</event>
<event>
 7    1  0.2661323E-011  0.5052884E+02  0.7816164E-02  0.1300439E+00
        -11   -1    0    0    0    0  0.00000000000E+00  0.00000000000E+00  0.45593999997E+02  0.45594000000E+02  0.51100000000E-03 0.  1.
         11   -1    0    0    0    0 -0.00000000000E+00 -0.00000000000E+00 -0.45593999997E+02  0.45594000000E+02  0.51100000000E-03 0. -1.
    9900012    2    1    2    0    0 -0.37868626312E+01  0.83077723272E+01  0.39620798167E+02  0.50528842889E+02  0.29999948444E+02 0.  0.
         12    1    1    2    0    0  0.37868626312E+01 -0.83077723272E+01 -0.39620798167E+02  0.40659157111E+02  0.00000000000E+00 0. -1.
         11    1    3    3    0    0  0.30815982992E+01 -0.26410729260E+01  0.18835669138E+02  0.19267951277E+02  0.51100000000E-03 0. -1.
        -11    1    3    3    0    0  0.34178863175E+01  0.41952326838E+01  0.17792150601E+02  0.18596842404E+02  0.51100000000E-03 0.  1.
         12    1    3    3    0    0 -0.10286347248E+02  0.67536125694E+01  0.29929784279E+01  0.12664049207E+02  0.00000000000E+00 0. -1.
</event>
<event>
 7    1  0.2661323E-011  0.5052887E+02  0.7816164E-02  0.1300439E+00
        -11   -1    0    0    0    0  0.00000000000E+00  0.00000000000E+00  0.45593999997E+02  0.45594000000E+02  0.51100000000E-03 0.  1.
         11   -1    0    0    0    0 -0.00000000000E+00 -0.00000000000E+00 -0.45593999997E+02  0.45594000000E+02  0.51100000000E-03 0. -1.
    9900012    2    1    2    0    0 -0.36913659428E+02  0.15181781606E+02 -0.77498390023E+01  0.50528871263E+02  0.30000034690E+02 0.  0.
         12    1    1    2    0    0  0.36913659428E+02 -0.15181781606E+02  0.77498390023E+01  0.40659128737E+02  0.00000000000E+00 0. -1.
         11    1    3    3    0    0 -0.27847803529E+01  0.11778833481E+02 -0.22021567060E+01  0.12302252404E+02  0.51100000000E-03 0. -1.
        -11    1    3    3    0    0 -0.63988085183E+01  0.26775536630E+01  0.49986563356E+01  0.85498894434E+01  0.51100000000E-03 0.  1.
        -12    1    3    3    0    0 -0.27730070557E+02  0.72539446115E+00 -0.10546338632E+02  0.29676729415E+02  0.00000000000E+00 0.  1.
</event>
<event>
 7    1  0.2661323E-011  0.5052886E+02  0.7816164E-02  0.1300439E+00
        -11   -1    0    0    0    0  0.00000000000E+00  0.00000000000E+00  0.45593999997E+02  0.45594000000E+02  0.51100000000E-03 0.  1.
         11   -1    0    0    0    0 -0.00000000000E+00 -0.00000000000E+00 -0.45593999997E+02  0.45594000000E+02  0.51100000000E-03 0. -1.
    9900012    2    1    2    0    0 -0.20370296664E+02  0.64639172047E+01  0.34589513038E+02  0.50528860511E+02  0.30000002009E+02 0.  0.
         12    1    1    2    0    0  0.20370296664E+02 -0.64639172047E+01 -0.34589513038E+02  0.40659139489E+02  0.00000000000E+00 0. -1.
         11    1    3    3    0    0  0.10526204017E+01  0.50015484618E+01 -0.16376602178E+01  0.53670688440E+01  0.51100000000E-03 0. -1.
        -11    1    3    3    0    0  0.14663089137E+01  0.10723467493E+01 -0.50000990597E+00  0.18841442483E+01  0.51100000000E-03 0.  1.
        -12    1    3    3    0    0 -0.22889225980E+02  0.39002199358E+00  0.36727183161E+02  0.43277647418E+02  0.00000000000E+00 0.  1.
</event>
<event>
 7    1  0.2661323E-011  0.5052885E+02  0.7816164E-02  0.1300439E+00
        -11   -1    0    0    0    0  0.00000000000E+00  0.00000000000E+00  0.45593999997E+02  0.45594000000E+02  0.51100000000E-03 0.  1.
         11   -1    0    0    0    0 -0.00000000000E+00 -0.00000000000E+00 -0.45593999997E+02  0.45594000000E+02  0.51100000000E-03 0. -1.
    9900012    2    1    2    0    0  0.32786343752E+02  0.18939708048E+02  0.14815843947E+02  0.50528854541E+02  0.29999983864E+02 0.  0.
         12    1    1    2    0    0 -0.32786343752E+02 -0.18939708048E+02 -0.14815843947E+02  0.40659145459E+02  0.00000000000E+00 0. -1.
         11    1    3    3    0    0  0.75322140789E+01  0.36890658936E+01 -0.60849297946E+01  0.10361941274E+02  0.51100000000E-03 0. -1.
        -11    1    3    3    0    0  0.22027600295E+02  0.46623155826E+01  0.10016713078E+02  0.24643191808E+02  0.51100000000E-03 0.  1.
        -12    1    3    3    0    0  0.32265293784E+01  0.10588326572E+02  0.10884060663E+02  0.15523721459E+02  0.00000000000E+00 0.  1.
</event>
<event>
 7    1  0.2661323E-011  0.5052886E+02  0.7816164E-02  0.1300439E+00
        -11   -1    0    0    0    0  0.00000000000E+00  0.00000000000E+00  0.45593999997E+02  0.45594000000E+02  0.51100000000E-03 0. -1.
         11   -1    0    0    0    0 -0.00000000000E+00 -0.00000000000E+00 -0.45593999997E+02  0.45594000000E+02  0.51100000000E-03 0.  1.
    9900012    2    1    2    0    0  0.33516021956E+00  0.36454106300E+02  0.18004212229E+02  0.50528857651E+02  0.29999993317E+02 0.  0.
         12    1    1    2    0    0 -0.33516021956E+00 -0.36454106300E+02 -0.18004212229E+02  0.40659142349E+02  0.00000000000E+00 0. -1.
         11    1    3    3    0    0  0.72388896854E+01  0.27730731806E+01  0.10368322904E+02  0.12945793867E+02  0.51100000000E-03 0.  1.
        -11    1    3    3    0    0  0.74924040927E+00  0.32313651108E+01  0.51004247091E+01  0.60841937957E+01  0.51100000000E-03 0. -1.
        -12    1    3    3    0    0 -0.76529698751E+01  0.30449668009E+02  0.25354646163E+01  0.31498869989E+02  0.00000000000E+00 0.  1.
</event>
<event>
 7    1  0.2661323E-011  0.5052887E+02  0.7816164E-02  0.1300439E+00
        -11   -1    0    0    0    0  0.00000000000E+00  0.00000000000E+00  0.45593999997E+02  0.45594000000E+02  0.51100000000E-03 0. -1.
         11   -1    0    0    0    0 -0.00000000000E+00 -0.00000000000E+00 -0.45593999997E+02  0.45594000000E+02  0.51100000000E-03 0.  1.
    9900012    2    1    2    0    0  0.25402977486E+02  0.13897232137E+02 -0.28543309977E+02  0.50528869775E+02  0.30000030168E+02 0.  0.
         12    1    1    2    0    0 -0.25402977486E+02 -0.13897232137E+02  0.28543309977E+02  0.40659130225E+02  0.00000000000E+00 0. -1.
         11    1    3    3    0    0  0.58559386761E+01 -0.19625596968E+01 -0.89404765410E+01  0.10866267960E+02  0.51100000000E-03 0. -1.
        -11    1    3    3    0    0  0.77081850125E+01 -0.58457988977E+01 -0.43090897211E+01  0.10590454921E+02  0.51100000000E-03 0.  1.
        -12    1    3    3    0    0  0.11838853797E+02  0.21705590732E+02 -0.15293743715E+02  0.29072146894E+02  0.00000000000E+00 0.  1.
</event>
<event>
 7    1  0.2661323E-011  0.5052880E+02  0.7816164E-02  0.1300439E+00
        -11   -1    0    0    0    0  0.00000000000E+00  0.00000000000E+00  0.45593999997E+02  0.45594000000E+02  0.51100000000E-03 0.  1.
         11   -1    0    0    0    0 -0.00000000000E+00 -0.00000000000E+00 -0.45593999997E+02  0.45594000000E+02  0.51100000000E-03 0. -1.
    9900012    2    1    2    0    0  0.26892704158E+01  0.16113332900E+02  0.37233034511E+02  0.50528800163E+02  0.29999818574E+02 0.  0.
         12    1    1    2    0    0 -0.26892704158E+01 -0.16113332900E+02 -0.37233034511E+02  0.40659199837E+02  0.00000000000E+00 0. -1.
         11    1    3    3    0    0 -0.80444114315E+01 -0.87650548363E+00  0.16479126726E+02  0.18358715506E+02  0.51100000000E-03 0. -1.
        -11    1    3    3    0    0  0.21773424945E+01  0.15043387426E+02  0.16446638743E+02  0.22395005063E+02  0.51100000000E-03 0.  1.
         12    1    3    3    0    0  0.85563393528E+01  0.19464509578E+01  0.43072690423E+01  0.97750795933E+01  0.00000000000E+00 0. -1.
</event>
<event>
 7    1  0.2661323E-011  0.5052885E+02  0.7816164E-02  0.1300439E+00
        -11   -1    0    0    0    0  0.00000000000E+00  0.00000000000E+00  0.45593999997E+02  0.45594000000E+02  0.51100000000E-03 0. -1.
         11   -1    0    0    0    0 -0.00000000000E+00 -0.00000000000E+00 -0.45593999997E+02  0.45594000000E+02  0.51100000000E-03 0.  1.
    9900012    2    1    2    0    0 -0.31520715171E+01  0.39525851271E+02  0.89965337214E+01  0.50528854749E+02  0.29999984496E+02 0.  0.
         12    1    1    2    0    0  0.31520715171E+01 -0.39525851271E+02 -0.89965337214E+01  0.40659145251E+02  0.00000000000E+00 0. -1.
         11    1    3    3    0    0  0.36518376660E+00  0.16368540527E+02 -0.70118553661E+01  0.17810912220E+02  0.51100000000E-03 0.  1.
        -11    1    3    3    0    0 -0.65683773799E+01  0.17728375391E+01  0.25403023320E+01  0.72622083793E+01  0.51100000000E-03 0. -1.
        -12    1    3    3    0    0  0.30511220962E+01  0.21384473205E+02  0.13468086755E+02  0.25455734151E+02  0.00000000000E+00 0.  1.
</event>
<event>
 7    1  0.2661323E-011  0.5052886E+02  0.7816164E-02  0.1300439E+00
        -11   -1    0    0    0    0  0.00000000000E+00  0.00000000000E+00  0.45593999997E+02  0.45594000000E+02  0.51100000000E-03 0.  1.
         11   -1    0    0    0    0 -0.00000000000E+00 -0.00000000000E+00 -0.45593999997E+02  0.45594000000E+02  0.51100000000E-03 0. -1.
    9900012    2    1    2    0    0 -0.71433060884E+01 -0.25624340796E+02  0.30749500810E+02  0.50528862488E+02  0.30000008020E+02 0.  0.
         12    1    1    2    0    0  0.71433060884E+01  0.25624340796E+02 -0.30749500810E+02  0.40659137512E+02  0.00000000000E+00 0. -1.
         11    1    3    3    0    0 -0.46369841687E+00 -0.14204598883E+02  0.15413365953E+02  0.20965626533E+02  0.51100000000E-03 0. -1.
        -11    1    3    3    0    0 -0.71983603901E+01 -0.11631111005E+02  0.20349098130E+02  0.24519072790E+02  0.51100000000E-03 0.  1.
         12    1    3    3    0    0  0.51875271857E+00  0.21136909199E+00 -0.50129632723E+01  0.50441631660E+01  0.00000000000E+00 0. -1.
</event>
<event>
 7    1  0.2661323E-011  0.5052887E+02  0.7816164E-02  0.1300439E+00
        -11   -1    0    0    0    0  0.00000000000E+00  0.00000000000E+00  0.45593999997E+02  0.45594000000E+02  0.51100000000E-03 0. -1.
         11   -1    0    0    0    0 -0.00000000000E+00 -0.00000000000E+00 -0.45593999997E+02  0.45594000000E+02  0.51100000000E-03 0.  1.
    9900012    2    1    2    0    0 -0.77575514599E+00  0.23498943137E+02 -0.33171711190E+02  0.50528873744E+02  0.30000042234E+02 0.  0.
         12    1    1    2    0    0  0.77575514599E+00 -0.23498943137E+02  0.33171711190E+02  0.40659126256E+02  0.00000000000E+00 0. -1.
         11    1    3    3    0    0 -0.62356018026E+01 -0.31857717212E+01 -0.36840996502E+01  0.79122981360E+01  0.51100000000E-03 0. -1.
        -11    1    3    3    0    0 -0.12746262731E+01  0.21473040439E+02 -0.16606776562E+02  0.27175377934E+02  0.51100000000E-03 0.  1.
        -12    1    3    3    0    0  0.67344729297E+01  0.52116744195E+01 -0.12880834977E+02  0.15441197674E+02  0.00000000000E+00 0.  1.
</event>
<event>
 7    1  0.2661323E-011  0.5052886E+02  0.7816164E-02  0.1300439E+00
        -11   -1    0    0    0    0  0.00000000000E+00  0.00000000000E+00  0.45593999997E+02  0.45594000000E+02  0.51100000000E-03 0.  1.
         11   -1    0    0    0    0 -0.00000000000E+00 -0.00000000000E+00 -0.45593999997E+02  0.45594000000E+02  0.51100000000E-03 0. -1.
    9900012    2    1    2    0    0 -0.13798279105E+02 -0.10516381652E+02  0.36771987844E+02  0.50528857371E+02  0.29999992466E+02 0.  0.
         12    1    1    2    0    0  0.13798279105E+02  0.10516381652E+02 -0.36771987844E+02  0.40659142629E+02  0.00000000000E+00 0. -1.
         11    1    3    3    0    0  0.37021531856E+01 -0.66822843838E+01  0.32834210149E+01  0.83150295621E+01  0.51100000000E-03 0. -1.
        -11    1    3    3    0    0  0.37240584619E+01 -0.23502443298E+01  0.63990284640E+01  0.77678713546E+01  0.51100000000E-03 0.  1.
        -12    1    3    3    0    0 -0.21224490753E+02 -0.14838529379E+01  0.27089538365E+02  0.34445956455E+02  0.00000000000E+00 0.  1.
</event>
<event>
 7    1  0.2661323E-011  0.5052877E+02  0.7816164E-02  0.1300439E+00
        -11   -1    0    0    0    0  0.00000000000E+00  0.00000000000E+00  0.45593999997E+02  0.45594000000E+02  0.51100000000E-03 0. -1.
         11   -1    0    0    0    0 -0.00000000000E+00 -0.00000000000E+00 -0.45593999997E+02  0.45594000000E+02  0.51100000000E-03 0.  1.
    9900012    2    1    2    0    0 -0.18423914697E+02  0.28445642881E+02 -0.22462800038E+02  0.50528774512E+02  0.29999740607E+02 0.  0.
         12    1    1    2    0    0  0.18423914697E+02 -0.28445642881E+02  0.22462800038E+02  0.40659225488E+02  0.00000000000E+00 0. -1.
         11    1    3    3    0    0 -0.68898607126E+01  0.13176035884E+02 -0.60481690771E+01  0.16051742949E+02  0.51100000000E-03 0. -1.
        -11    1    3    3    0    0 -0.98513919457E+01  0.11358830273E+02  0.23652460079E+01  0.15220622109E+02  0.51100000000E-03 0.  1.
        -12    1    3    3    0    0 -0.16826620384E+01  0.39107767248E+01 -0.18779876969E+02  0.19256409455E+02  0.00000000000E+00 0.  1.
</event>
<event>
 7    1  0.2661323E-011  0.5052886E+02  0.7816164E-02  0.1300439E+00
        -11   -1    0    0    0    0  0.00000000000E+00  0.00000000000E+00  0.45593999997E+02  0.45594000000E+02  0.51100000000E-03 0.  1.
         11   -1    0    0    0    0 -0.00000000000E+00 -0.00000000000E+00 -0.45593999997E+02  0.45594000000E+02  0.51100000000E-03 0. -1.
    9900012    2    1    2    0    0  0.31866687601E+02  0.15390347568E+02  0.20020424323E+02  0.50528856293E+02  0.29999989187E+02 0.  0.
         12    1    1    2    0    0 -0.31866687601E+02 -0.15390347568E+02 -0.20020424323E+02  0.40659143707E+02  0.00000000000E+00 0. -1.
         11    1    3    3    0    0  0.83236324337E+01  0.21307329458E+01 -0.44351546901E+01  0.96692025092E+01  0.51100000000E-03 0. -1.
        -11    1    3    3    0    0  0.70063915063E+01  0.23905142161E+01 -0.21432950359E+01  0.77069964336E+01  0.51100000000E-03 0.  1.
        -12    1    3    3    0    0  0.16536663661E+02  0.10869100406E+02  0.26598874049E+02  0.33152657350E+02  0.00000000000E+00 0.  1.
</event>
<event>
 7    1  0.2661323E-011  0.5052886E+02  0.7816164E-02  0.1300439E+00
        -11   -1    0    0    0    0  0.00000000000E+00  0.00000000000E+00  0.45593999997E+02  0.45594000000E+02  0.51100000000E-03 0.  1.
         11   -1    0    0    0    0 -0.00000000000E+00 -0.00000000000E+00 -0.45593999997E+02  0.45594000000E+02  0.51100000000E-03 0. -1.
    9900012    2    1    2    0    0 -0.33227010249E+01 -0.40491029889E+02 -0.16130064212E+01  0.50528860397E+02  0.30000001662E+02 0.  0.
         12    1    1    2    0    0  0.33227010249E+01  0.40491029889E+02  0.16130064212E+01  0.40659139603E+02  0.00000000000E+00 0. -1.
         11    1    3    3    0    0 -0.40837503691E+01 -0.97636081622E+01  0.33069814756E+01  0.11087884747E+02  0.51100000000E-03 0. -1.
        -11    1    3    3    0    0 -0.10036879558E+02 -0.20861675530E+02  0.20455611390E+01  0.23240756825E+02  0.51100000000E-03 0.  1.
         12    1    3    3    0    0  0.10797928902E+02 -0.98657461968E+01 -0.69655490358E+01  0.16200218825E+02  0.00000000000E+00 0. -1.
</event>
<event>
 7    1  0.2661323E-011  0.5052884E+02  0.7816164E-02  0.1300439E+00
        -11   -1    0    0    0    0  0.00000000000E+00  0.00000000000E+00  0.45593999997E+02  0.45594000000E+02  0.51100000000E-03 0. -1.
         11   -1    0    0    0    0 -0.00000000000E+00 -0.00000000000E+00 -0.45593999997E+02  0.45594000000E+02  0.51100000000E-03 0.  1.
    9900012    2    1    2    0    0 -0.25602304081E+02 -0.29386535794E+02  0.11581043175E+02  0.50528843329E+02  0.29999949782E+02 0.  0.
         12    1    1    2    0    0  0.25602304081E+02  0.29386535794E+02 -0.11581043175E+02  0.40659156671E+02  0.00000000000E+00 0. -1.
         11    1    3    3    0    0 -0.26699281799E+01 -0.14196539501E+02  0.43032003160E+01  0.15072749700E+02  0.51100000000E-03 0. -1.
        -11    1    3    3    0    0 -0.13793845101E+02 -0.19377773399E+02  0.14352700772E+01  0.23829147384E+02  0.51100000000E-03 0.  1.
        -12    1    3    3    0    0 -0.91385307998E+01  0.41877771069E+01  0.58425727818E+01  0.11626946245E+02  0.00000000000E+00 0.  1.
</event>
<event>
 7    1  0.2661323E-011  0.5052888E+02  0.7816164E-02  0.1300439E+00
        -11   -1    0    0    0    0  0.00000000000E+00  0.00000000000E+00  0.45593999997E+02  0.45594000000E+02  0.51100000000E-03 0. -1.
         11   -1    0    0    0    0 -0.00000000000E+00 -0.00000000000E+00 -0.45593999997E+02  0.45594000000E+02  0.51100000000E-03 0.  1.
    9900012    2    1    2    0    0  0.26012592970E+02  0.21498236817E+02  0.22678955832E+02  0.50528877815E+02  0.30000054605E+02 0.  0.
         12    1    1    2    0    0 -0.26012592970E+02 -0.21498236817E+02 -0.22678955832E+02  0.40659122185E+02  0.00000000000E+00 0. -1.
         11    1    3    3    0    0  0.13492730190E+02  0.92304612711E+01  0.12643600113E+02  0.20666780285E+02  0.51100000000E-03 0. -1.
        -11    1    3    3    0    0  0.18209082360E+02  0.60901630737E+01  0.42535461036E+01  0.19666047426E+02  0.51100000000E-03 0.  1.
        -12    1    3    3    0    0 -0.56892195800E+01  0.61776124720E+01  0.57818096157E+01  0.10196050104E+02  0.00000000000E+00 0.  1.
</event>
<event>
 7    1  0.2661323E-011  0.5052886E+02  0.7816164E-02  0.1300439E+00
        -11   -1    0    0    0    0  0.00000000000E+00  0.00000000000E+00  0.45593999997E+02  0.45594000000E+02  0.51100000000E-03 0.  1.
         11   -1    0    0    0    0 -0.00000000000E+00 -0.00000000000E+00 -0.45593999997E+02  0.45594000000E+02  0.51100000000E-03 0. -1.
    9900012    2    1    2    0    0  0.35121003361E+02 -0.20252069444E+02 -0.30877645087E+01  0.50528862239E+02  0.30000007260E+02 0.  0.
         12    1    1    2    0    0 -0.35121003361E+02  0.20252069444E+02  0.30877645087E+01  0.40659137761E+02  0.00000000000E+00 0. -1.
         11    1    3    3    0    0  0.51171293588E+01 -0.10575133920E+02 -0.59912672357E+01  0.13187636394E+02  0.51100000000E-03 0. -1.
        -11    1    3    3    0    0  0.30430439631E+02 -0.13407221197E+02  0.38331593250E+01  0.33473248229E+02  0.51100000000E-03 0.  1.
         12    1    3    3    0    0 -0.42656562833E+00  0.37302856738E+01 -0.92965659803E+00  0.38679776155E+01  0.00000000000E+00 0. -1.
</event>
<event>
 7    1  0.2661323E-011  0.5052886E+02  0.7816164E-02  0.1300439E+00
        -11   -1    0    0    0    0  0.00000000000E+00  0.00000000000E+00  0.45593999997E+02  0.45594000000E+02  0.51100000000E-03 0.  1.
         11   -1    0    0    0    0 -0.00000000000E+00 -0.00000000000E+00 -0.45593999997E+02  0.45594000000E+02  0.51100000000E-03 0. -1.
    9900012    2    1    2    0    0 -0.12472056823E+02 -0.35707130178E+02  0.14920269946E+02  0.50528858319E+02  0.29999995348E+02 0.  0.
         12    1    1    2    0    0  0.12472056823E+02  0.35707130178E+02 -0.14920269946E+02  0.40659141681E+02  0.00000000000E+00 0. -1.
         11    1    3    3    0    0  0.22949188744E+01 -0.14161221052E+02 -0.40829601857E+00  0.14351778295E+02  0.51100000000E-03 0. -1.
        -11    1    3    3    0    0 -0.14912731617E+02 -0.20098513832E+02  0.19520822399E+02  0.31739601918E+02  0.51100000000E-03 0.  1.
         12    1    3    3    0    0  0.14575592028E+00 -0.14473952944E+01 -0.41922564349E+01  0.44374781061E+01  0.00000000000E+00 0. -1.
</event>
<event>
 7    1  0.2661323E-011  0.5052886E+02  0.7816164E-02  0.1300439E+00
        -11   -1    0    0    0    0  0.00000000000E+00  0.00000000000E+00  0.45593999997E+02  0.45594000000E+02  0.51100000000E-03 0.  1.
         11   -1    0    0    0    0 -0.00000000000E+00 -0.00000000000E+00 -0.45593999997E+02  0.45594000000E+02  0.51100000000E-03 0. -1.
    9900012    2    1    2    0    0  0.32724855396E+02 -0.94886829732E+00  0.24111177216E+02  0.50528863530E+02  0.30000011185E+02 0.  0.
         12    1    1    2    0    0 -0.32724855396E+02  0.94886829732E+00 -0.24111177216E+02  0.40659136470E+02  0.00000000000E+00 0. -1.
         11    1    3    3    0    0  0.13691158151E+02  0.33575101093E+01  0.19904510244E+01  0.14236663275E+02  0.51100000000E-03 0. -1.
        -11    1    3    3    0    0  0.12783450148E+02 -0.10687605140E+01 -0.25995823313E+00  0.12830682962E+02  0.51100000000E-03 0.  1.
        -12    1    3    3    0    0  0.62502470973E+01 -0.32376178926E+01  0.22380684425E+02  0.23461517294E+02  0.00000000000E+00 0.  1.
</event>
<event>
 7    1  0.2661323E-011  0.5052887E+02  0.7816164E-02  0.1300439E+00
        -11   -1    0    0    0    0  0.00000000000E+00  0.00000000000E+00  0.45593999997E+02  0.45594000000E+02  0.51100000000E-03 0. -1.
         11   -1    0    0    0    0 -0.00000000000E+00 -0.00000000000E+00 -0.45593999997E+02  0.45594000000E+02  0.51100000000E-03 0.  1.
    9900012    2    1    2    0    0  0.40059147398E+02  0.68133819515E+01 -0.14168576411E+01  0.50528868806E+02  0.30000027223E+02 0.  0.
         12    1    1    2    0    0 -0.40059147398E+02 -0.68133819515E+01  0.14168576411E+01  0.40659131194E+02  0.00000000000E+00 0. -1.
         11    1    3    3    0    0 -0.13213639952E+01  0.23146237998E+01 -0.13993604035E+01  0.30102650950E+01  0.51100000000E-03 0. -1.
        -11    1    3    3    0    0  0.35075290523E+00  0.39544086045E+01 -0.47756862741E+01  0.62102781469E+01  0.51100000000E-03 0.  1.
        -12    1    3    3    0    0  0.41029758488E+02  0.54434954730E+00  0.47581890365E+01  0.41308325564E+02  0.00000000000E+00 0.  1.
</event>
<event>
 7    1  0.2661323E-011  0.5052886E+02  0.7816164E-02  0.1300439E+00
        -11   -1    0    0    0    0  0.00000000000E+00  0.00000000000E+00  0.45593999997E+02  0.45594000000E+02  0.51100000000E-03 0. -1.
         11   -1    0    0    0    0 -0.00000000000E+00 -0.00000000000E+00 -0.45593999997E+02  0.45594000000E+02  0.51100000000E-03 0.  1.
    9900012    2    1    2    0    0 -0.25680480495E+01  0.29226981391E+02  0.28148790515E+02  0.50528859337E+02  0.29999998440E+02 0.  0.
         12    1    1    2    0    0  0.25680480495E+01 -0.29226981391E+02 -0.28148790515E+02  0.40659140663E+02  0.00000000000E+00 0. -1.
         11    1    3    3    0    0  0.52000047753E+01  0.13932155121E+01  0.10175161981E+02  0.11511516873E+02  0.51100000000E-03 0. -1.
        -11    1    3    3    0    0  0.31186852913E+01  0.62977362105E+01  0.12396438770E+02  0.14249890307E+02  0.51100000000E-03 0.  1.
        -12    1    3    3    0    0 -0.10886738116E+02  0.21536029668E+02  0.55771897647E+01  0.24767452157E+02  0.00000000000E+00 0.  1.
</event>
<event>
 7    1  0.2661323E-011  0.5052887E+02  0.7816164E-02  0.1300439E+00
        -11   -1    0    0    0    0  0.00000000000E+00  0.00000000000E+00  0.45593999997E+02  0.45594000000E+02  0.51100000000E-03 0. -1.
         11   -1    0    0    0    0 -0.00000000000E+00 -0.00000000000E+00 -0.45593999997E+02  0.45594000000E+02  0.51100000000E-03 0.  1.
    9900012    2    1    2    0    0  0.49400602753E+01  0.91064120580E+00 -0.40347636275E+02  0.50528865529E+02  0.30000017263E+02 0.  0.
         12    1    1    2    0    0 -0.49400602753E+01 -0.91064120580E+00  0.40347636275E+02  0.40659134471E+02  0.00000000000E+00 0. -1.
         11    1    3    3    0    0 -0.69439482724E+01 -0.10774394770E+01 -0.87426446503E+01  0.11216645184E+02  0.51100000000E-03 0. -1.
        -11    1    3    3    0    0  0.24621848943E+01 -0.42577512180E+01 -0.26423277884E+02  0.26877135530E+02  0.51100000000E-03 0.  1.
         12    1    3    3    0    0  0.94218236534E+01  0.62458319008E+01 -0.51817137403E+01  0.12435084816E+02  0.00000000000E+00 0. -1.
</event>
<event>
 7    1  0.2661323E-011  0.5052888E+02  0.7816164E-02  0.1300439E+00
        -11   -1    0    0    0    0  0.00000000000E+00  0.00000000000E+00  0.45593999997E+02  0.45594000000E+02  0.51100000000E-03 0.  1.
         11   -1    0    0    0    0 -0.00000000000E+00 -0.00000000000E+00 -0.45593999997E+02  0.45594000000E+02  0.51100000000E-03 0. -1.
    9900012    2    1    2    0    0  0.31431333331E+02  0.23158425817E+02  0.11354394457E+02  0.50528884482E+02  0.30000074871E+02 0.  0.
         12    1    1    2    0    0 -0.31431333331E+02 -0.23158425817E+02 -0.11354394457E+02  0.40659115518E+02  0.00000000000E+00 0. -1.
         11    1    3    3    0    0  0.24410846263E+02  0.16741216072E+02  0.12325177192E+02  0.32063495192E+02  0.51100000000E-03 0. -1.
        -11    1    3    3    0    0 -0.69611181927E+00  0.35337466799E+01  0.64439277012E+01  0.73821502113E+01  0.51100000000E-03 0.  1.
         12    1    3    3    0    0  0.77165988867E+01  0.28834630649E+01 -0.74147104360E+01  0.11083239079E+02  0.00000000000E+00 0. -1.
</event>
<event>
 7    1  0.2661323E-011  0.5052886E+02  0.7816164E-02  0.1300439E+00
        -11   -1    0    0    0    0  0.00000000000E+00  0.00000000000E+00  0.45593999997E+02  0.45594000000E+02  0.51100000000E-03 0.  1.
         11   -1    0    0    0    0 -0.00000000000E+00 -0.00000000000E+00 -0.45593999997E+02  0.45594000000E+02  0.51100000000E-03 0. -1.
    9900012    2    1    2    0    0 -0.27412711593E+02  0.30012734861E+02  0.97189066882E+00  0.50528861025E+02  0.30000003572E+02 0.  0.
         12    1    1    2    0    0  0.27412711593E+02 -0.30012734861E+02 -0.97189066882E+00  0.40659138975E+02  0.00000000000E+00 0. -1.
         11    1    3    3    0    0  0.36846114679E+00 -0.19830818300E+01 -0.12159668247E+00  0.20206838385E+01  0.51100000000E-03 0. -1.
        -11    1    3    3    0    0 -0.37024559983E+01 -0.35136771739E+01  0.22751674100E+01  0.55884250649E+01  0.51100000000E-03 0.  1.
        -12    1    3    3    0    0 -0.24078716741E+02  0.35509493865E+02 -0.11816800587E+01  0.42919752122E+02  0.00000000000E+00 0.  1.
</event>
<event>
 7    1  0.2661323E-011  0.5052887E+02  0.7816164E-02  0.1300439E+00
        -11   -1    0    0    0    0  0.00000000000E+00  0.00000000000E+00  0.45593999997E+02  0.45594000000E+02  0.51100000000E-03 0.  1.
         11   -1    0    0    0    0 -0.00000000000E+00 -0.00000000000E+00 -0.45593999997E+02  0.45594000000E+02  0.51100000000E-03 0. -1.
    9900012    2    1    2    0    0 -0.82782763473E+01 -0.32877652869E+02  0.22443140670E+02  0.50528874572E+02  0.30000044748E+02 0.  0.
         12    1    1    2    0    0  0.82782763473E+01  0.32877652869E+02 -0.22443140670E+02  0.40659125428E+02  0.00000000000E+00 0. -1.
         11    1    3    3    0    0 -0.41464385475E+00 -0.17123870741E+02  0.11871653190E+02  0.20840706043E+02  0.51100000000E-03 0.  1.
        -11    1    3    3    0    0 -0.10710465736E+02 -0.19631905842E+02  0.62476563127E+01  0.23219797866E+02  0.51100000000E-03 0. -1.
        -12    1    3    3    0    0  0.28468332436E+01  0.38781237136E+01  0.43238311681E+01  0.64683706623E+01  0.00000000000E+00 0.  1.
</event>
<event>
 7    1  0.2661323E-011  0.5052886E+02  0.7816164E-02  0.1300439E+00
        -11   -1    0    0    0    0  0.00000000000E+00  0.00000000000E+00  0.45593999997E+02  0.45594000000E+02  0.51100000000E-03 0. -1.
         11   -1    0    0    0    0 -0.00000000000E+00 -0.00000000000E+00 -0.45593999997E+02  0.45594000000E+02  0.51100000000E-03 0.  1.
    9900012    2    1    2    0    0 -0.17297063559E+02 -0.29491568845E+02  0.22005108666E+02  0.50528857755E+02  0.29999993631E+02 0.  0.
         12    1    1    2    0    0  0.17297063559E+02  0.29491568845E+02 -0.22005108666E+02  0.40659142245E+02  0.00000000000E+00 0. -1.
         11    1    3    3    0    0 -0.76862141970E+01 -0.81476917675E+01  0.11829961235E+02  0.16291431886E+02  0.51100000000E-03 0. -1.
        -11    1    3    3    0    0 -0.30381487188E+01 -0.24578509600E+02  0.49920220531E+01  0.25263684732E+02  0.51100000000E-03 0.  1.
         12    1    3    3    0    0 -0.65727006429E+01  0.32346325223E+01  0.51831253787E+01  0.89737411366E+01  0.00000000000E+00 0. -1.
</event>
<event>
 7    1  0.2661323E-011  0.5052885E+02  0.7816164E-02  0.1300439E+00
        -11   -1    0    0    0    0  0.00000000000E+00  0.00000000000E+00  0.45593999997E+02  0.45594000000E+02  0.51100000000E-03 0.  1.
         11   -1    0    0    0    0 -0.00000000000E+00 -0.00000000000E+00 -0.45593999997E+02  0.45594000000E+02  0.51100000000E-03 0. -1.
    9900012    2    1    2    0    0 -0.92099672284E+01 -0.61269108708E+01  0.39125489560E+02  0.50528850150E+02  0.29999970517E+02 0.  0.
         12    1    1    2    0    0  0.92099672284E+01  0.61269108708E+01 -0.39125489560E+02  0.40659149850E+02  0.00000000000E+00 0. -1.
         11    1    3    3    0    0 -0.10511815353E+02 -0.63989212532E+01  0.31912420870E+02  0.34203027077E+02  0.51100000000E-03 0.  1.
        -11    1    3    3    0    0  0.48769732091E+01 -0.53621365024E+01  0.62757088757E+01  0.95875908187E+01  0.51100000000E-03 0. -1.
         12    1    3    3    0    0 -0.35751250848E+01  0.56341468848E+01  0.93735981450E+00  0.67382322543E+01  0.00000000000E+00 0. -1.
</event>
<event>
 7    1  0.2661323E-011  0.5052886E+02  0.7816164E-02  0.1300439E+00
        -11   -1    0    0    0    0  0.00000000000E+00  0.00000000000E+00  0.45593999997E+02  0.45594000000E+02  0.51100000000E-03 0. -1.
         11   -1    0    0    0    0 -0.00000000000E+00 -0.00000000000E+00 -0.45593999997E+02  0.45594000000E+02  0.51100000000E-03 0.  1.
    9900012    2    1    2    0    0 -0.96500850636E+01  0.31231759203E+02 -0.24178895783E+02  0.50528856797E+02  0.29999990722E+02 0.  0.
         12    1    1    2    0    0  0.96500850636E+01 -0.31231759203E+02  0.24178895783E+02  0.40659143203E+02  0.00000000000E+00 0. -1.
         11    1    3    3    0    0 -0.78384629953E+01  0.77617784607E+01  0.24582934395E+01  0.11301765964E+02  0.51100000000E-03 0. -1.
        -11    1    3    3    0    0  0.30663515067E+01 -0.14045223695E+01 -0.40970273358E+01  0.53066776707E+01  0.51100000000E-03 0.  1.
        -12    1    3    3    0    0 -0.48779735750E+01  0.24874503112E+02 -0.22540161887E+02  0.33920413163E+02  0.00000000000E+00 0.  1.
</event>
<event>
 7    1  0.2661323E-011  0.5052886E+02  0.7816164E-02  0.1300439E+00
        -11   -1    0    0    0    0  0.00000000000E+00  0.00000000000E+00  0.45593999997E+02  0.45594000000E+02  0.51100000000E-03 0.  1.
         11   -1    0    0    0    0 -0.00000000000E+00 -0.00000000000E+00 -0.45593999997E+02  0.45594000000E+02  0.51100000000E-03 0. -1.
    9900012    2    1    2    0    0 -0.20998342722E+01 -0.29907357965E+02  0.27464635443E+02  0.50528861243E+02  0.30000004234E+02 0.  0.
         12    1    1    2    0    0  0.20998342722E+01  0.29907357965E+02 -0.27464635443E+02  0.40659138757E+02  0.00000000000E+00 0. -1.
         11    1    3    3    0    0 -0.17770076284E+01 -0.84591167942E+01  0.12761834420E+02  0.15413592413E+02  0.51100000000E-03 0. -1.
        -11    1    3    3    0    0  0.48903703241E+01 -0.17480239594E+02  0.19765478359E+02  0.26835585203E+02  0.51100000000E-03 0.  1.
         12    1    3    3    0    0 -0.52131969679E+01 -0.39680015776E+01 -0.50626773362E+01  0.82796836266E+01  0.00000000000E+00 0. -1.
</event>
<event>
 7    1  0.2661323E-011  0.5052886E+02  0.7816164E-02  0.1300439E+00
        -11   -1    0    0    0    0  0.00000000000E+00  0.00000000000E+00  0.45593999997E+02  0.45594000000E+02  0.51100000000E-03 0. -1.
         11   -1    0    0    0    0 -0.00000000000E+00 -0.00000000000E+00 -0.45593999997E+02  0.45594000000E+02  0.51100000000E-03 0.  1.
    9900012    2    1    2    0    0 -0.14916411464E+02  0.36465359529E+02  0.10047067396E+02  0.50528864006E+02  0.30000012632E+02 0.  0.
         12    1    1    2    0    0  0.14916411464E+02 -0.36465359529E+02 -0.10047067396E+02  0.40659135994E+02  0.00000000000E+00 0. -1.
         11    1    3    3    0    0 -0.14465047937E+02  0.14920715624E+02  0.73961296532E+01  0.22058288706E+02  0.51100000000E-03 0. -1.
        -11    1    3    3    0    0 -0.65575305376E+01  0.19450872107E+02 -0.18370723527E+01  0.20608553262E+02  0.51100000000E-03 0.  1.
         12    1    3    3    0    0  0.61061670100E+01  0.20937717978E+01  0.44880100954E+01  0.78620220371E+01  0.00000000000E+00 0. -1.
</event>
<event>
 7    1  0.2661323E-011  0.5052886E+02  0.7816164E-02  0.1300439E+00
        -11   -1    0    0    0    0  0.00000000000E+00  0.00000000000E+00  0.45593999997E+02  0.45594000000E+02  0.51100000000E-03 0.  1.
         11   -1    0    0    0    0 -0.00000000000E+00 -0.00000000000E+00 -0.45593999997E+02  0.45594000000E+02  0.51100000000E-03 0. -1.
    9900012    2    1    2    0    0 -0.42953706369E+01 -0.27742829754E+02  0.29411741675E+02  0.50528863757E+02  0.30000011877E+02 0.  0.
         12    1    1    2    0    0  0.42953706369E+01  0.27742829754E+02 -0.29411741675E+02  0.40659136243E+02  0.00000000000E+00 0. -1.
         11    1    3    3    0    0 -0.43438219322E+00  0.29624880391E+01  0.24696817446E+01  0.38812821918E+01  0.51100000000E-03 0. -1.
        -11    1    3    3    0    0  0.46096241981E+01  0.25283008352E+00  0.83880659203E+01  0.95745604830E+01  0.51100000000E-03 0.  1.
         12    1    3    3    0    0 -0.84706126418E+01 -0.30958147876E+02  0.18553994010E+02  0.37073021082E+02  0.00000000000E+00 0. -1.
</event>
<event>
 7    1  0.2661323E-011  0.5052885E+02  0.7816164E-02  0.1300439E+00
        -11   -1    0    0    0    0  0.00000000000E+00  0.00000000000E+00  0.45593999997E+02  0.45594000000E+02  0.51100000000E-03 0. -1.
         11   -1    0    0    0    0 -0.00000000000E+00 -0.00000000000E+00 -0.45593999997E+02  0.45594000000E+02  0.51100000000E-03 0.  1.
    9900012    2    1    2    0    0 -0.33155312018E+02  0.23027912481E+02 -0.48587077521E+01  0.50528849625E+02  0.29999968919E+02 0.  0.
         12    1    1    2    0    0  0.33155312018E+02 -0.23027912481E+02  0.48587077521E+01  0.40659150375E+02  0.00000000000E+00 0. -1.
         11    1    3    3    0    0 -0.49560331738E+01  0.35592824205E+01 -0.76086793142E+01  0.97530896303E+01  0.51100000000E-03 0.  1.
        -11    1    3    3    0    0 -0.52817282468E+01 -0.16999157726E+01 -0.61990558362E+01  0.83195348685E+01  0.51100000000E-03 0. -1.
         12    1    3    3    0    0 -0.22917550597E+02  0.21168545833E+02  0.89490273983E+01  0.32456225126E+02  0.00000000000E+00 0. -1.
</event>
<event>
 7    1  0.2661323E-011  0.5052886E+02  0.7816164E-02  0.1300439E+00
        -11   -1    0    0    0    0  0.00000000000E+00  0.00000000000E+00  0.45593999997E+02  0.45594000000E+02  0.51100000000E-03 0.  1.
         11   -1    0    0    0    0 -0.00000000000E+00 -0.00000000000E+00 -0.45593999997E+02  0.45594000000E+02  0.51100000000E-03 0. -1.
    9900012    2    1    2    0    0  0.90147637341E+01  0.25667087499E+02  0.30217545900E+02  0.50528862945E+02  0.30000009407E+02 0.  0.
         12    1    1    2    0    0 -0.90147637341E+01 -0.25667087499E+02 -0.30217545900E+02  0.40659137055E+02  0.00000000000E+00 0. -1.
         11    1    3    3    0    0  0.11337612846E+02  0.12422109713E+02  0.18817854781E+02  0.25238104794E+02  0.51100000000E-03 0. -1.
        -11    1    3    3    0    0  0.23585386070E+01  0.54078141166E+01  0.14496376728E+02  0.15650945543E+02  0.51100000000E-03 0.  1.
        -12    1    3    3    0    0 -0.46813877194E+01  0.78371636691E+01 -0.30966856093E+01  0.96398126080E+01  0.00000000000E+00 0.  1.
</event>
<event>
 7    1  0.2661323E-011  0.5052886E+02  0.7816164E-02  0.1300439E+00
        -11   -1    0    0    0    0  0.00000000000E+00  0.00000000000E+00  0.45593999997E+02  0.45594000000E+02  0.51100000000E-03 0. -1.
         11   -1    0    0    0    0 -0.00000000000E+00 -0.00000000000E+00 -0.45593999997E+02  0.45594000000E+02  0.51100000000E-03 0.  1.
    9900012    2    1    2    0    0 -0.12149790498E+02 -0.31040336801E+02 -0.23281868935E+02  0.50528864016E+02  0.30000012664E+02 0.  0.
         12    1    1    2    0    0  0.12149790498E+02  0.31040336801E+02  0.23281868935E+02  0.40659135984E+02  0.00000000000E+00 0. -1.
         11    1    3    3    0    0 -0.12911449547E+02 -0.24326694004E+02 -0.20387038782E+02  0.34265506288E+02  0.51100000000E-03 0.  1.
        -11    1    3    3    0    0  0.12084186516E+00 -0.43189173639E+01 -0.88304903491E+01  0.98308295692E+01  0.51100000000E-03 0. -1.
        -12    1    3    3    0    0  0.64081718419E+00 -0.23947254324E+01  0.59356601961E+01  0.64325281596E+01  0.00000000000E+00 0.  1.
</event>
<event>
 7    1  0.2661323E-011  0.5052887E+02  0.7816164E-02  0.1300439E+00
        -11   -1    0    0    0    0  0.00000000000E+00  0.00000000000E+00  0.45593999997E+02  0.45594000000E+02  0.51100000000E-03 0. -1.
         11   -1    0    0    0    0 -0.00000000000E+00 -0.00000000000E+00 -0.45593999997E+02  0.45594000000E+02  0.51100000000E-03 0.  1.
    9900012    2    1    2    0    0 -0.28851667987E+02 -0.24664405909E+02  0.14574389696E+02  0.50528874339E+02  0.30000044042E+02 0.  0.
         12    1    1    2    0    0  0.28851667987E+02  0.24664405909E+02 -0.14574389696E+02  0.40659125661E+02  0.00000000000E+00 0. -1.
         11    1    3    3    0    0 -0.23468839959E+02 -0.10763842535E+02  0.16968540782E+02  0.30896247857E+02  0.51100000000E-03 0. -1.
        -11    1    3    3    0    0 -0.42017622452E+01 -0.81388848740E+01  0.47994213025E+01  0.10340730054E+02  0.51100000000E-03 0.  1.
         12    1    3    3    0    0 -0.11810657835E+01 -0.57616784998E+01 -0.71935723884E+01  0.92918964279E+01  0.00000000000E+00 0. -1.
</event>
<event>
 7    1  0.2661323E-011  0.5052885E+02  0.7816164E-02  0.1300439E+00
        -11   -1    0    0    0    0  0.00000000000E+00  0.00000000000E+00  0.45593999997E+02  0.45594000000E+02  0.51100000000E-03 0.  1.
         11   -1    0    0    0    0 -0.00000000000E+00 -0.00000000000E+00 -0.45593999997E+02  0.45594000000E+02  0.51100000000E-03 0. -1.
    9900012    2    1    2    0    0  0.15090462676E+02 -0.32299323280E+02  0.19549882491E+02  0.50528852769E+02  0.29999978478E+02 0.  0.
         12    1    1    2    0    0 -0.15090462676E+02  0.32299323280E+02 -0.19549882491E+02  0.40659147231E+02  0.00000000000E+00 0. -1.
         11    1    3    3    0    0  0.88890521669E+01 -0.36817708253E+01 -0.19864180773E+01  0.98242832754E+01  0.51100000000E-03 0. -1.
        -11    1    3    3    0    0  0.11377182310E+02 -0.98130280640E+01  0.88351891158E+01  0.17429755135E+02  0.51100000000E-03 0.  1.
        -12    1    3    3    0    0 -0.51757718013E+01 -0.18804524391E+02  0.12701111453E+02  0.23274814359E+02  0.00000000000E+00 0.  1.
</event>
<event>
 7    1  0.2661323E-011  0.5052884E+02  0.7816164E-02  0.1300439E+00
        -11   -1    0    0    0    0  0.00000000000E+00  0.00000000000E+00  0.45593999997E+02  0.45594000000E+02  0.51100000000E-03 0.  1.
         11   -1    0    0    0    0 -0.00000000000E+00 -0.00000000000E+00 -0.45593999997E+02  0.45594000000E+02  0.51100000000E-03 0. -1.
    9900012    2    1    2    0    0 -0.24321514780E+02  0.12357140811E+02  0.30148501535E+02  0.50528841683E+02  0.29999944781E+02 0.  0.
         12    1    1    2    0    0  0.24321514780E+02 -0.12357140811E+02 -0.30148501535E+02  0.40659158317E+02  0.00000000000E+00 0. -1.
         11    1    3    3    0    0  0.22208448645E+01  0.11356633838E+01  0.10238034238E+01  0.26963043124E+01  0.51100000000E-03 0. -1.
        -11    1    3    3    0    0 -0.99699355048E+01  0.51053541667E+01 -0.26203342942E+01  0.11503495435E+02  0.51100000000E-03 0.  1.
        -12    1    3    3    0    0 -0.16572424139E+02  0.61161232605E+01  0.31745032406E+02  0.36329041936E+02  0.00000000000E+00 0.  1.
</event>
<event>
 7    1  0.2661323E-011  0.5052886E+02  0.7816164E-02  0.1300439E+00
        -11   -1    0    0    0    0  0.00000000000E+00  0.00000000000E+00  0.45593999997E+02  0.45594000000E+02  0.51100000000E-03 0.  1.
         11   -1    0    0    0    0 -0.00000000000E+00 -0.00000000000E+00 -0.45593999997E+02  0.45594000000E+02  0.51100000000E-03 0. -1.
    9900012    2    1    2    0    0 -0.16232371277E+02 -0.17227174616E+02  0.33059040424E+02  0.50528861097E+02  0.30000003791E+02 0.  0.
         12    1    1    2    0    0  0.16232371277E+02  0.17227174616E+02 -0.33059040424E+02  0.40659138903E+02  0.00000000000E+00 0. -1.
         11    1    3    3    0    0  0.35092258528E+01 -0.11331998527E+02  0.68644763451E+01  0.13705834249E+02  0.51100000000E-03 0. -1.
        -11    1    3    3    0    0 -0.18482283754E+02 -0.44873290726E+01  0.11967538679E+02  0.22471157453E+02  0.51100000000E-03 0.  1.
        -12    1    3    3    0    0 -0.12593133761E+01 -0.14078470156E+01  0.14227025400E+02  0.14351869395E+02  0.00000000000E+00 0.  1.
</event>
<event>
 7    1  0.2661323E-011  0.5052884E+02  0.7816164E-02  0.1300439E+00
        -11   -1    0    0    0    0  0.00000000000E+00  0.00000000000E+00  0.45593999997E+02  0.45594000000E+02  0.51100000000E-03 0.  1.
         11   -1    0    0    0    0 -0.00000000000E+00 -0.00000000000E+00 -0.45593999997E+02  0.45594000000E+02  0.51100000000E-03 0. -1.
    9900012    2    1    2    0    0 -0.15355880966E+02  0.36335797511E+02  0.98526278593E+01  0.50528836989E+02  0.29999930512E+02 0.  0.
         12    1    1    2    0    0  0.15355880966E+02 -0.36335797511E+02 -0.98526278593E+01  0.40659163011E+02  0.00000000000E+00 0. -1.
         11    1    3    3    0    0 -0.56891444287E+01  0.18938301063E+01 -0.61539104500E+01  0.85920644137E+01  0.51100000000E-03 0. -1.
        -11    1    3    3    0    0 -0.22033060941E+01 -0.10374060504E+01  0.16514041415E+01  0.29424318101E+01  0.51100000000E-03 0.  1.
         12    1    3    3    0    0 -0.74634304428E+01  0.35479373455E+02  0.14355134168E+02  0.38994340765E+02  0.00000000000E+00 0. -1.
</event>
<event>
 7    1  0.2661323E-011  0.5052886E+02  0.7816164E-02  0.1300439E+00
        -11   -1    0    0    0    0  0.00000000000E+00  0.00000000000E+00  0.45593999997E+02  0.45594000000E+02  0.51100000000E-03 0.  1.
         11   -1    0    0    0    0 -0.00000000000E+00 -0.00000000000E+00 -0.45593999997E+02  0.45594000000E+02  0.51100000000E-03 0. -1.
    9900012    2    1    2    0    0  0.16881940221E+01  0.90931222863E+01  0.39593313366E+02  0.50528864062E+02  0.30000012802E+02 0.  0.
         12    1    1    2    0    0 -0.16881940221E+01 -0.90931222863E+01 -0.39593313366E+02  0.40659135938E+02  0.00000000000E+00 0. -1.
         11    1    3    3    0    0  0.53860926092E+01 -0.23282427966E+01  0.19086212388E+01  0.61703762778E+01  0.51100000000E-03 0. -1.
        -11    1    3    3    0    0  0.62722499844E+01  0.96270358593E+01  0.28322741811E+02  0.30564663310E+02  0.51100000000E-03 0.  1.
         12    1    3    3    0    0 -0.99701485714E+01  0.17943292235E+01  0.93619503159E+01  0.13793824474E+02  0.00000000000E+00 0. -1.
</event>
<event>
 7    1  0.2661323E-011  0.5052884E+02  0.7816164E-02  0.1300439E+00
        -11   -1    0    0    0    0  0.00000000000E+00  0.00000000000E+00  0.45593999997E+02  0.45594000000E+02  0.51100000000E-03 0.  1.
         11   -1    0    0    0    0 -0.00000000000E+00 -0.00000000000E+00 -0.45593999997E+02  0.45594000000E+02  0.51100000000E-03 0. -1.
    9900012    2    1    2    0    0 -0.30512766274E+02  0.26866341471E+02 -0.58169199926E+00  0.50528836515E+02  0.29999929070E+02 0.  0.
         12    1    1    2    0    0  0.30512766274E+02 -0.26866341471E+02  0.58169199926E+00  0.40659163485E+02  0.00000000000E+00 0. -1.
         11    1    3    3    0    0 -0.18190317672E+02  0.12601904907E+02 -0.42286320412E+00  0.22133108183E+02  0.51100000000E-03 0. -1.
        -11    1    3    3    0    0 -0.13571676034E+02  0.16288020797E+02  0.57997164937E+01  0.21980143846E+02  0.51100000000E-03 0.  1.
        -12    1    3    3    0    0  0.12492274315E+01 -0.20235842335E+01 -0.59585452888E+01  0.64155844850E+01  0.00000000000E+00 0.  1.
</event>
<event>
 7    1  0.2661323E-011  0.5052887E+02  0.7816164E-02  0.1300439E+00
        -11   -1    0    0    0    0  0.00000000000E+00  0.00000000000E+00  0.45593999997E+02  0.45594000000E+02  0.51100000000E-03 0.  1.
         11   -1    0    0    0    0 -0.00000000000E+00 -0.00000000000E+00 -0.45593999997E+02  0.45594000000E+02  0.51100000000E-03 0. -1.
    9900012    2    1    2    0    0 -0.24796947736E+02 -0.16751408381E+02 -0.27525747886E+02  0.50528866998E+02  0.30000021726E+02 0.  0.
         12    1    1    2    0    0  0.24796947736E+02  0.16751408381E+02  0.27525747886E+02  0.40659133002E+02  0.00000000000E+00 0. -1.
         11    1    3    3    0    0 -0.45179409944E+01 -0.59897048001E+01 -0.18545288796E+01  0.77283654189E+01  0.51100000000E-03 0. -1.
        -11    1    3    3    0    0 -0.18436926548E+02 -0.17376500279E+02 -0.13208680257E+02  0.28571528781E+02  0.51100000000E-03 0.  1.
         12    1    3    3    0    0 -0.18420801940E+01  0.66147966980E+01 -0.12462538750E+02  0.14228972798E+02  0.00000000000E+00 0. -1.
</event>
<event>
 7    1  0.2661323E-011  0.5052887E+02  0.7816164E-02  0.1300439E+00
        -11   -1    0    0    0    0  0.00000000000E+00  0.00000000000E+00  0.45593999997E+02  0.45594000000E+02  0.51100000000E-03 0.  1.
         11   -1    0    0    0    0 -0.00000000000E+00 -0.00000000000E+00 -0.45593999997E+02  0.45594000000E+02  0.51100000000E-03 0. -1.
    9900012    2    1    2    0    0  0.20496875239E+02 -0.13219078783E+02  0.32531502156E+02  0.50528873460E+02  0.30000041370E+02 0.  0.
         12    1    1    2    0    0 -0.20496875239E+02  0.13219078783E+02 -0.32531502156E+02  0.40659126540E+02  0.00000000000E+00 0. -1.
         11    1    3    3    0    0  0.64123745690E+00 -0.10013799717E+02  0.49977395094E+01  0.11210029915E+02  0.51100000000E-03 0. -1.
        -11    1    3    3    0    0  0.79324732474E+01 -0.80668910430E+01  0.31497822582E+01  0.11743934241E+02  0.51100000000E-03 0.  1.
         12    1    3    3    0    0  0.11923164535E+02  0.48616119769E+01  0.24383980388E+02  0.27574909304E+02  0.00000000000E+00 0. -1.
</event>
<event>
 7    1  0.2661323E-011  0.5052885E+02  0.7816164E-02  0.1300439E+00
        -11   -1    0    0    0    0  0.00000000000E+00  0.00000000000E+00  0.45593999997E+02  0.45594000000E+02  0.51100000000E-03 0.  1.
         11   -1    0    0    0    0 -0.00000000000E+00 -0.00000000000E+00 -0.45593999997E+02  0.45594000000E+02  0.51100000000E-03 0. -1.
    9900012    2    1    2    0    0  0.35207694991E+02  0.12854294331E+02 -0.15759187593E+02  0.50528847734E+02  0.29999963174E+02 0.  0.
         12    1    1    2    0    0 -0.35207694991E+02 -0.12854294331E+02  0.15759187593E+02  0.40659152266E+02  0.00000000000E+00 0. -1.
         11    1    3    3    0    0  0.49525609238E+01  0.14659490042E+01  0.12628751407E+00  0.51665089746E+01  0.51100000000E-03 0. -1.
        -11    1    3    3    0    0  0.28622506467E+02  0.15943442754E+02 -0.46019502859E+01  0.33085029696E+02  0.51100000000E-03 0.  1.
         12    1    3    3    0    0  0.16326276007E+01 -0.45550974272E+01 -0.11283524821E+02  0.12277309064E+02  0.00000000000E+00 0. -1.
</event>
<event>
 7    1  0.2661323E-011  0.5052886E+02  0.7816164E-02  0.1300439E+00
        -11   -1    0    0    0    0  0.00000000000E+00  0.00000000000E+00  0.45593999997E+02  0.45594000000E+02  0.51100000000E-03 0.  1.
         11   -1    0    0    0    0 -0.00000000000E+00 -0.00000000000E+00 -0.45593999997E+02  0.45594000000E+02  0.51100000000E-03 0. -1.
    9900012    2    1    2    0    0 -0.33409321259E+02  0.22456337743E+02 -0.57179973257E+01  0.50528863939E+02  0.30000012429E+02 0.  0.
         12    1    1    2    0    0  0.33409321259E+02 -0.22456337743E+02  0.57179973257E+01  0.40659136061E+02  0.00000000000E+00 0. -1.
         11    1    3    3    0    0 -0.11067530924E+02 -0.54934310840E+01 -0.67004953059E+00  0.12374045114E+02  0.51100000000E-03 0. -1.
        -11    1    3    3    0    0 -0.36861866586E+01  0.66406538287E+00  0.21609864538E+01  0.43242129491E+01  0.51100000000E-03 0.  1.
        -12    1    3    3    0    0 -0.18655603676E+02  0.27285703444E+02 -0.72089342489E+01  0.33830605876E+02  0.00000000000E+00 0.  1.
</event>
<event>
 7    1  0.2661323E-011  0.5052885E+02  0.7816164E-02  0.1300439E+00
        -11   -1    0    0    0    0  0.00000000000E+00  0.00000000000E+00  0.45593999997E+02  0.45594000000E+02  0.51100000000E-03 0. -1.
         11   -1    0    0    0    0 -0.00000000000E+00 -0.00000000000E+00 -0.45593999997E+02  0.45594000000E+02  0.51100000000E-03 0.  1.
    9900012    2    1    2    0    0  0.93792293802E+01 -0.10682323520E+02 -0.38093100530E+02  0.50528852351E+02  0.29999977206E+02 0.  0.
         12    1    1    2    0    0 -0.93792293802E+01  0.10682323520E+02  0.38093100530E+02  0.40659147649E+02  0.00000000000E+00 0. -1.
         11    1    3    3    0    0  0.36922285772E+01 -0.49916598902E+01 -0.69238328084E+01  0.92999291044E+01  0.51100000000E-03 0. -1.
        -11    1    3    3    0    0  0.71855576384E+01 -0.13185071517E+02 -0.83882028998E+01  0.17200008652E+02  0.51100000000E-03 0.  1.
         12    1    3    3    0    0 -0.14985568353E+01  0.74944078874E+01 -0.22781064822E+02  0.24028914594E+02  0.00000000000E+00 0. -1.
</event>
<event>
 7    1  0.2661323E-011  0.5052886E+02  0.7816164E-02  0.1300439E+00
        -11   -1    0    0    0    0  0.00000000000E+00  0.00000000000E+00  0.45593999997E+02  0.45594000000E+02  0.51100000000E-03 0. -1.
         11   -1    0    0    0    0 -0.00000000000E+00 -0.00000000000E+00 -0.45593999997E+02  0.45594000000E+02  0.51100000000E-03 0.  1.
    9900012    2    1    2    0    0 -0.10912860556E+02 -0.37542260291E+02 -0.11164853791E+02  0.50528858427E+02  0.29999995675E+02 0.  0.
         12    1    1    2    0    0  0.10912860556E+02  0.37542260291E+02  0.11164853791E+02  0.40659141573E+02  0.00000000000E+00 0. -1.
         11    1    3    3    0    0  0.80400080045E+00 -0.12968753384E+01 -0.76550011067E+01  0.78055970390E+01  0.51100000000E-03 0. -1.
        -11    1    3    3    0    0 -0.69711142472E+01 -0.19900326642E+01  0.24059210945E+01  0.76383977657E+01  0.51100000000E-03 0.  1.
        -12    1    3    3    0    0 -0.47457471089E+01 -0.34255352288E+02 -0.59157737792E+01  0.35084863623E+02  0.00000000000E+00 0.  1.
</event>
<event>
 7    1  0.2661323E-011  0.5052886E+02  0.7816164E-02  0.1300439E+00
        -11   -1    0    0    0    0  0.00000000000E+00  0.00000000000E+00  0.45593999997E+02  0.45594000000E+02  0.51100000000E-03 0.  1.
         11   -1    0    0    0    0 -0.00000000000E+00 -0.00000000000E+00 -0.45593999997E+02  0.45594000000E+02  0.51100000000E-03 0. -1.
    9900012    2    1    2    0    0 -0.37957619999E+01  0.39978729037E+02 -0.63607432937E+01  0.50528860316E+02  0.30000001416E+02 0.  0.
         12    1    1    2    0    0  0.37957619999E+01 -0.39978729037E+02  0.63607432937E+01  0.40659139684E+02  0.00000000000E+00 0. -1.
         11    1    3    3    0    0 -0.14430250412E+01 -0.26485807279E+01 -0.56699183312E+01  0.64222484603E+01  0.51100000000E-03 0. -1.
        -11    1    3    3    0    0  0.11537509518E+00  0.20576809937E+02 -0.57163909888E+01  0.21356393535E+02  0.51100000000E-03 0.  1.
        -12    1    3    3    0    0 -0.24681120538E+01  0.22050499828E+02  0.50255660264E+01  0.22750218321E+02  0.00000000000E+00 0.  1.
</event>
<event>
 7    1  0.2661323E-011  0.5052885E+02  0.7816164E-02  0.1300439E+00
        -11   -1    0    0    0    0  0.00000000000E+00  0.00000000000E+00  0.45593999997E+02  0.45594000000E+02  0.51100000000E-03 0.  1.
         11   -1    0    0    0    0 -0.00000000000E+00 -0.00000000000E+00 -0.45593999997E+02  0.45594000000E+02  0.51100000000E-03 0. -1.
    9900012    2    1    2    0    0  0.25946939066E+02  0.20146176154E+01  0.31238822793E+02  0.50528851208E+02  0.29999973732E+02 0.  0.
         12    1    1    2    0    0 -0.25946939066E+02 -0.20146176154E+01 -0.31238822793E+02  0.40659148792E+02  0.00000000000E+00 0. -1.
         11    1    3    3    0    0  0.18298743608E+01  0.74422095013E+01  0.70463856300E+01  0.10410882438E+02  0.51100000000E-03 0. -1.
        -11    1    3    3    0    0  0.57734156671E+00  0.35737273632E+01  0.11186866433E+02  0.11758011371E+02  0.51100000000E-03 0.  1.
         12    1    3    3    0    0  0.23539723138E+02 -0.90013192491E+01  0.13005570730E+02  0.28359957399E+02  0.00000000000E+00 0. -1.
</event>
<event>
 7    1  0.2661323E-011  0.5052887E+02  0.7816164E-02  0.1300439E+00
        -11   -1    0    0    0    0  0.00000000000E+00  0.00000000000E+00  0.45593999997E+02  0.45594000000E+02  0.51100000000E-03 0.  1.
         11   -1    0    0    0    0 -0.00000000000E+00 -0.00000000000E+00 -0.45593999997E+02  0.45594000000E+02  0.51100000000E-03 0. -1.
    9900012    2    1    2    0    0 -0.17144446855E+02  0.41930286232E+01  0.36628558236E+02  0.50528870330E+02  0.30000031857E+02 0.  0.
         12    1    1    2    0    0  0.17144446855E+02 -0.41930286232E+01 -0.36628558236E+02  0.40659129670E+02  0.00000000000E+00 0. -1.
         11    1    3    3    0    0 -0.59223807864E+00 -0.61054346547E+01  0.14100669886E+02  0.15377124886E+02  0.51100000000E-03 0. -1.
        -11    1    3    3    0    0 -0.37223531342E+01 -0.54489373589E+01  0.66666251411E+01  0.93803369999E+01  0.51100000000E-03 0.  1.
         12    1    3    3    0    0 -0.12829855643E+02  0.15747400637E+02  0.15861263209E+02  0.25771408444E+02  0.00000000000E+00 0. -1.
</event>
<event>
 7    1  0.2661323E-011  0.5052886E+02  0.7816164E-02  0.1300439E+00
        -11   -1    0    0    0    0  0.00000000000E+00  0.00000000000E+00  0.45593999997E+02  0.45594000000E+02  0.51100000000E-03 0.  1.
         11   -1    0    0    0    0 -0.00000000000E+00 -0.00000000000E+00 -0.45593999997E+02  0.45594000000E+02  0.51100000000E-03 0. -1.
    9900012    2    1    2    0    0 -0.34771032692E+02  0.11099979090E+02  0.17914565282E+02  0.50528857122E+02  0.29999991709E+02 0.  0.
         12    1    1    2    0    0  0.34771032692E+02 -0.11099979090E+02 -0.17914565282E+02  0.40659142878E+02  0.00000000000E+00 0. -1.
         11    1    3    3    0    0 -0.61321887696E+01  0.23134715291E+01 -0.79414715430E+01  0.10296740268E+02  0.51100000000E-03 0. -1.
        -11    1    3    3    0    0 -0.12374949032E+02  0.69469537860E+01  0.94006762166E+01  0.17022697907E+02  0.51100000000E-03 0.  1.
        -12    1    3    3    0    0 -0.16263894891E+02  0.18395537752E+01  0.16455360608E+02  0.23209418947E+02  0.00000000000E+00 0.  1.
</event>
<event>
 7    1  0.2661323E-011  0.5052885E+02  0.7816164E-02  0.1300439E+00
        -11   -1    0    0    0    0  0.00000000000E+00  0.00000000000E+00  0.45593999997E+02  0.45594000000E+02  0.51100000000E-03 0. -1.
         11   -1    0    0    0    0 -0.00000000000E+00 -0.00000000000E+00 -0.45593999997E+02  0.45594000000E+02  0.51100000000E-03 0.  1.
    9900012    2    1    2    0    0  0.31122844430E+02  0.70460995305E+01 -0.25196973208E+02  0.50528850688E+02  0.29999972150E+02 0.  0.
         12    1    1    2    0    0 -0.31122844430E+02 -0.70460995305E+01  0.25196973208E+02  0.40659149312E+02  0.00000000000E+00 0. -1.
         11    1    3    3    0    0  0.99093749646E+01  0.65588704091E+01 -0.70930246634E+01  0.13839273549E+02  0.51100000000E-03 0. -1.
        -11    1    3    3    0    0  0.11931914237E+02  0.42051547291E+01 -0.22464219601E+02  0.25781680826E+02  0.51100000000E-03 0.  1.
         12    1    3    3    0    0  0.92815552282E+01 -0.37179256077E+01  0.43602710571E+01  0.10907896313E+02  0.00000000000E+00 0. -1.
</event>
<event>
 7    1  0.2661323E-011  0.5052887E+02  0.7816164E-02  0.1300439E+00
        -11   -1    0    0    0    0  0.00000000000E+00  0.00000000000E+00  0.45593999997E+02  0.45594000000E+02  0.51100000000E-03 0.  1.
         11   -1    0    0    0    0 -0.00000000000E+00 -0.00000000000E+00 -0.45593999997E+02  0.45594000000E+02  0.51100000000E-03 0. -1.
    9900012    2    1    2    0    0  0.29227805119E+02  0.51432273361E+01  0.27792936428E+02  0.50528871937E+02  0.30000036741E+02 0.  0.
         12    1    1    2    0    0 -0.29227805119E+02 -0.51432273361E+01 -0.27792936428E+02  0.40659128063E+02  0.00000000000E+00 0. -1.
         11    1    3    3    0    0 -0.14395305387E+01  0.13834078074E+01 -0.13465268505E+01  0.24081528510E+01  0.51100000000E-03 0. -1.
        -11    1    3    3    0    0  0.14192081050E+02 -0.76593013364E+01  0.21018252322E+02  0.26492394992E+02  0.51100000000E-03 0.  1.
         12    1    3    3    0    0  0.16475254608E+02  0.11419120865E+02  0.81212109566E+01  0.21628324095E+02  0.00000000000E+00 0. -1.
</event>
<event>
 7    1  0.2661323E-011  0.5052885E+02  0.7816164E-02  0.1300439E+00
        -11   -1    0    0    0    0  0.00000000000E+00  0.00000000000E+00  0.45593999997E+02  0.45594000000E+02  0.51100000000E-03 0. -1.
         11   -1    0    0    0    0 -0.00000000000E+00 -0.00000000000E+00 -0.45593999997E+02  0.45594000000E+02  0.51100000000E-03 0.  1.
    9900012    2    1    2    0    0 -0.25000346789E+02  0.11437573103E+02 -0.29955487391E+02  0.50528847981E+02  0.29999963924E+02 0.  0.
         12    1    1    2    0    0  0.25000346789E+02 -0.11437573103E+02  0.29955487391E+02  0.40659152019E+02  0.00000000000E+00 0. -1.
         11    1    3    3    0    0 -0.13870118295E+02  0.12529965241E+02 -0.15888192269E+02  0.24531915219E+02  0.51100000000E-03 0.  1.
        -11    1    3    3    0    0 -0.41439211934E+01  0.88030730974E+01 -0.57248259841E+01  0.11288924290E+02  0.51100000000E-03 0. -1.
         12    1    3    3    0    0 -0.69863073005E+01 -0.98954652353E+01 -0.83424691376E+01  0.14708008473E+02  0.00000000000E+00 0. -1.
</event>
<event>
 7    1  0.2661323E-011  0.5052888E+02  0.7816164E-02  0.1300439E+00
        -11   -1    0    0    0    0  0.00000000000E+00  0.00000000000E+00  0.45593999997E+02  0.45594000000E+02  0.51100000000E-03 0.  1.
         11   -1    0    0    0    0 -0.00000000000E+00 -0.00000000000E+00 -0.45593999997E+02  0.45594000000E+02  0.51100000000E-03 0. -1.
    9900012    2    1    2    0    0 -0.21167861196E+01 -0.32873028366E+02  0.23833739333E+02  0.50528881613E+02  0.30000066151E+02 0.  0.
         12    1    1    2    0    0  0.21167861196E+01  0.32873028366E+02 -0.23833739333E+02  0.40659118387E+02  0.00000000000E+00 0. -1.
         11    1    3    3    0    0  0.30879254909E+01 -0.82953729661E+00  0.30787910487E+01  0.44387352418E+01  0.51100000000E-03 0. -1.
        -11    1    3    3    0    0 -0.14893505997E+02 -0.13095792045E+02  0.11017391554E+02  0.22686983208E+02  0.51100000000E-03 0.  1.
         12    1    3    3    0    0  0.96887943862E+01 -0.18947699024E+02  0.97375567297E+01  0.23403163163E+02  0.00000000000E+00 0. -1.
</event>
<event>
 7    1  0.2661323E-011  0.5052887E+02  0.7816164E-02  0.1300439E+00
        -11   -1    0    0    0    0  0.00000000000E+00  0.00000000000E+00  0.45593999997E+02  0.45594000000E+02  0.51100000000E-03 0.  1.
         11   -1    0    0    0    0 -0.00000000000E+00 -0.00000000000E+00 -0.45593999997E+02  0.45594000000E+02  0.51100000000E-03 0. -1.
    9900012    2    1    2    0    0 -0.32115542716E+02  0.31121448356E+01  0.24740079413E+02  0.50528867462E+02  0.30000023137E+02 0.  0.
         12    1    1    2    0    0  0.32115542716E+02 -0.31121448356E+01 -0.24740079413E+02  0.40659132538E+02  0.00000000000E+00 0. -1.
         11    1    3    3    0    0 -0.23024008026E+02  0.52434903490E+01  0.51948565273E-01  0.23613594295E+02  0.51100000000E-03 0. -1.
        -11    1    3    3    0    0 -0.18056277651E+01 -0.20307962993E+01  0.11810214083E+02  0.12118811088E+02  0.51100000000E-03 0.  1.
        -12    1    3    3    0    0 -0.72859069253E+01 -0.10054921409E+00  0.12877916765E+02  0.14796462079E+02  0.00000000000E+00 0.  1.
</event>
<event>
 7    1  0.2661323E-011  0.5052885E+02  0.7816164E-02  0.1300439E+00
        -11   -1    0    0    0    0  0.00000000000E+00  0.00000000000E+00  0.45593999997E+02  0.45594000000E+02  0.51100000000E-03 0.  1.
         11   -1    0    0    0    0 -0.00000000000E+00 -0.00000000000E+00 -0.45593999997E+02  0.45594000000E+02  0.51100000000E-03 0. -1.
    9900012    2    1    2    0    0  0.22048877201E+01 -0.36235577173E+02  0.18310861213E+02  0.50528853166E+02  0.29999979684E+02 0.  0.
         12    1    1    2    0    0 -0.22048877201E+01  0.36235577173E+02 -0.18310861213E+02  0.40659146834E+02  0.00000000000E+00 0. -1.
         11    1    3    3    0    0  0.69786149508E+00 -0.52975048600E+01 -0.51204240895E+01  0.74006291304E+01  0.51100000000E-03 0. -1.
        -11    1    3    3    0    0  0.23958537812E+01 -0.65348977259E+01 -0.26055782273E+01  0.74319608307E+01  0.51100000000E-03 0.  1.
        -12    1    3    3    0    0 -0.88882755615E+00 -0.24403174587E+02  0.26036863529E+02  0.35696263205E+02  0.00000000000E+00 0.  1.
</event>
<event>
 7    1  0.2661323E-011  0.5052886E+02  0.7816164E-02  0.1300439E+00
        -11   -1    0    0    0    0  0.00000000000E+00  0.00000000000E+00  0.45593999997E+02  0.45594000000E+02  0.51100000000E-03 0.  1.
         11   -1    0    0    0    0 -0.00000000000E+00 -0.00000000000E+00 -0.45593999997E+02  0.45594000000E+02  0.51100000000E-03 0. -1.
    9900012    2    1    2    0    0 -0.10865479347E+02 -0.48037398366E+01  0.38884848334E+02  0.50528856037E+02  0.29999988409E+02 0.  0.
         12    1    1    2    0    0  0.10865479347E+02  0.48037398366E+01 -0.38884848334E+02  0.40659143963E+02  0.00000000000E+00 0. -1.
         11    1    3    3    0    0  0.41143422242E+01 -0.37001487412E+01  0.11045576920E+02  0.12354095775E+02  0.51100000000E-03 0. -1.
        -11    1    3    3    0    0 -0.30642700900E+01  0.96138878603E+01  0.11075264657E+02  0.14982592514E+02  0.51100000000E-03 0.  1.
         12    1    3    3    0    0 -0.11915551481E+02 -0.10717478956E+02  0.16764006757E+02  0.23192167747E+02  0.00000000000E+00 0. -1.
</event>
<event>
 7    1  0.2661323E-011  0.5052885E+02  0.7816164E-02  0.1300439E+00
        -11   -1    0    0    0    0  0.00000000000E+00  0.00000000000E+00  0.45593999997E+02  0.45594000000E+02  0.51100000000E-03 0.  1.
         11   -1    0    0    0    0 -0.00000000000E+00 -0.00000000000E+00 -0.45593999997E+02  0.45594000000E+02  0.51100000000E-03 0. -1.
    9900012    2    1    2    0    0 -0.30558740061E+02  0.59013981197E+00  0.26813839138E+02  0.50528845699E+02  0.29999956987E+02 0.  0.
         12    1    1    2    0    0  0.30558740061E+02 -0.59013981197E+00 -0.26813839138E+02  0.40659154301E+02  0.00000000000E+00 0. -1.
         11    1    3    3    0    0  0.41578926510E+00 -0.12917653463E+00 -0.14865680558E+00  0.46007216503E+00  0.51100000000E-03 0. -1.
        -11    1    3    3    0    0 -0.17896797682E+02  0.52467876198E+01  0.30531207484E+02  0.35776791056E+02  0.51100000000E-03 0.  1.
        -12    1    3    3    0    0 -0.13077731644E+02 -0.45274712732E+01 -0.35687115402E+01  0.14291982478E+02  0.00000000000E+00 0.  1.
</event>
<event>
 7    1  0.2661323E-011  0.5052886E+02  0.7816164E-02  0.1300439E+00
        -11   -1    0    0    0    0  0.00000000000E+00  0.00000000000E+00  0.45593999997E+02  0.45594000000E+02  0.51100000000E-03 0. -1.
         11   -1    0    0    0    0 -0.00000000000E+00 -0.00000000000E+00 -0.45593999997E+02  0.45594000000E+02  0.51100000000E-03 0.  1.
    9900012    2    1    2    0    0  0.17175629713E+02 -0.19100754010E+02 -0.31517053321E+02  0.50528859456E+02  0.29999998801E+02 0.  0.
         12    1    1    2    0    0 -0.17175629713E+02  0.19100754010E+02  0.31517053321E+02  0.40659140544E+02  0.00000000000E+00 0. -1.
         11    1    3    3    0    0  0.55001629357E+01 -0.89157355997E+01 -0.12290961926E+02  0.16149609250E+02  0.51100000000E-03 0. -1.
        -11    1    3    3    0    0  0.12290127118E+02 -0.91754337176E+01 -0.24538240780E+02  0.28937191801E+02  0.51100000000E-03 0.  1.
         12    1    3    3    0    0 -0.61466034007E+00 -0.10095846927E+01  0.53121493855E+01  0.54420584046E+01  0.00000000000E+00 0. -1.
</event>
<event>
 7    1  0.2661323E-011  0.5052887E+02  0.7816164E-02  0.1300439E+00
        -11   -1    0    0    0    0  0.00000000000E+00  0.00000000000E+00  0.45593999997E+02  0.45594000000E+02  0.51100000000E-03 0. -1.
         11   -1    0    0    0    0 -0.00000000000E+00 -0.00000000000E+00 -0.45593999997E+02  0.45594000000E+02  0.51100000000E-03 0.  1.
    9900012    2    1    2    0    0  0.82277646322E+01 -0.76705713890E+01 -0.39072130698E+02  0.50528866050E+02  0.30000018845E+02 0.  0.
         12    1    1    2    0    0 -0.82277646322E+01  0.76705713890E+01  0.39072130698E+02  0.40659133950E+02  0.00000000000E+00 0. -1.
         11    1    3    3    0    0  0.37044935596E+01  0.15792124251E+01 -0.46588673244E+01  0.61581027456E+01  0.51100000000E-03 0. -1.
        -11    1    3    3    0    0  0.27868778825E+01  0.78047707106E+01 -0.21088627405E+02  0.22658582045E+02  0.51100000000E-03 0.  1.
         12    1    3    3    0    0  0.17363931900E+01 -0.17054554525E+02 -0.13324635969E+02  0.21712181259E+02  0.00000000000E+00 0. -1.
</event>
<event>
 7    1  0.2661323E-011  0.5052885E+02  0.7816164E-02  0.1300439E+00
        -11   -1    0    0    0    0  0.00000000000E+00  0.00000000000E+00  0.45593999997E+02  0.45594000000E+02  0.51100000000E-03 0. -1.
         11   -1    0    0    0    0 -0.00000000000E+00 -0.00000000000E+00 -0.45593999997E+02  0.45594000000E+02  0.51100000000E-03 0.  1.
    9900012    2    1    2    0    0 -0.40305835602E+02 -0.41560606139E+01  0.33664495893E+01  0.50528853351E+02  0.29999980246E+02 0.  0.
         12    1    1    2    0    0  0.40305835602E+02  0.41560606139E+01 -0.33664495893E+01  0.40659146649E+02  0.00000000000E+00 0. -1.
         11    1    3    3    0    0 -0.34088826318E+01 -0.35801467336E+00  0.32822324313E-01  0.34277883350E+01  0.51100000000E-03 0. -1.
        -11    1    3    3    0    0 -0.29828998294E+02  0.57330918354E+01  0.11734056584E+02  0.32562640639E+02  0.51100000000E-03 0.  1.
         12    1    3    3    0    0 -0.70679546759E+01 -0.95311377759E+01 -0.84004293194E+01  0.14538424377E+02  0.00000000000E+00 0. -1.
</event>
<event>
 7    1  0.2661323E-011  0.5052886E+02  0.7816164E-02  0.1300439E+00
        -11   -1    0    0    0    0  0.00000000000E+00  0.00000000000E+00  0.45593999997E+02  0.45594000000E+02  0.51100000000E-03 0. -1.
         11   -1    0    0    0    0 -0.00000000000E+00 -0.00000000000E+00 -0.45593999997E+02  0.45594000000E+02  0.51100000000E-03 0.  1.
    9900012    2    1    2    0    0 -0.17826896617E+02  0.24112284999E+02 -0.27458425181E+02  0.50528860261E+02  0.30000001250E+02 0.  0.
         12    1    1    2    0    0  0.17826896617E+02 -0.24112284999E+02  0.27458425181E+02  0.40659139739E+02  0.00000000000E+00 0. -1.
         11    1    3    3    0    0 -0.11477617887E+02  0.23739387234E+01 -0.28151161051E+01  0.12053886360E+02  0.51100000000E-03 0. -1.
        -11    1    3    3    0    0 -0.12564100825E+02  0.17712060390E+02 -0.15354749555E+02  0.26595902823E+02  0.51100000000E-03 0.  1.
         12    1    3    3    0    0  0.62148220954E+01  0.40262858856E+01 -0.92885595208E+01  0.11879071078E+02  0.00000000000E+00 0. -1.
</event>
<event>
 7    1  0.2661323E-011  0.5052887E+02  0.7816164E-02  0.1300439E+00
        -11   -1    0    0    0    0  0.00000000000E+00  0.00000000000E+00  0.45593999997E+02  0.45594000000E+02  0.51100000000E-03 0.  1.
         11   -1    0    0    0    0 -0.00000000000E+00 -0.00000000000E+00 -0.45593999997E+02  0.45594000000E+02  0.51100000000E-03 0. -1.
    9900012    2    1    2    0    0 -0.12197731986E+02 -0.14596161180E+02  0.35935112425E+02  0.50528869515E+02  0.30000029377E+02 0.  0.
         12    1    1    2    0    0  0.12197731986E+02  0.14596161180E+02 -0.35935112425E+02  0.40659130485E+02  0.00000000000E+00 0. -1.
         11    1    3    3    0    0 -0.16432869196E+01 -0.10800938973E+02  0.12284447990E+02  0.16439839941E+02  0.51100000000E-03 0. -1.
        -11    1    3    3    0    0 -0.10055357851E+02 -0.86820870129E+01  0.25569943834E+02  0.28815115553E+02  0.51100000000E-03 0.  1.
         12    1    3    3    0    0 -0.49908721506E+00  0.48868648060E+01 -0.19192793990E+01  0.52739140202E+01  0.00000000000E+00 0. -1.
</event>
<event>
 7    1  0.2661323E-011  0.5052887E+02  0.7816164E-02  0.1300439E+00
        -11   -1    0    0    0    0  0.00000000000E+00  0.00000000000E+00  0.45593999997E+02  0.45594000000E+02  0.51100000000E-03 0. -1.
         11   -1    0    0    0    0 -0.00000000000E+00 -0.00000000000E+00 -0.45593999997E+02  0.45594000000E+02  0.51100000000E-03 0.  1.
    9900012    2    1    2    0    0  0.39940419689E+02 -0.70382285025E+01 -0.28967727867E+01  0.50528867225E+02  0.30000022418E+02 0.  0.
         12    1    1    2    0    0 -0.39940419689E+02  0.70382285025E+01  0.28967727867E+01  0.40659132775E+02  0.00000000000E+00 0. -1.
         11    1    3    3    0    0 -0.25548832395E+01  0.21935624157E+00  0.12249166585E+00  0.25672066526E+01  0.51100000000E-03 0. -1.
        -11    1    3    3    0    0  0.73396620081E+01  0.58264025661E+01  0.32727669016E+01  0.99261578019E+01  0.51100000000E-03 0.  1.
        -12    1    3    3    0    0  0.35155640921E+02 -0.13083987310E+02 -0.62920313542E+01  0.38035502771E+02  0.00000000000E+00 0.  1.
</event>
<event>
 7    1  0.2661323E-011  0.5052886E+02  0.7816164E-02  0.1300439E+00
        -11   -1    0    0    0    0  0.00000000000E+00  0.00000000000E+00  0.45593999997E+02  0.45594000000E+02  0.51100000000E-03 0. -1.
         11   -1    0    0    0    0 -0.00000000000E+00 -0.00000000000E+00 -0.45593999997E+02  0.45594000000E+02  0.51100000000E-03 0.  1.
    9900012    2    1    2    0    0 -0.20416896520E+02  0.87467876492E+01  0.34055977074E+02  0.50528861641E+02  0.30000005443E+02 0.  0.
         12    1    1    2    0    0  0.20416896520E+02 -0.87467876492E+01 -0.34055977074E+02  0.40659138359E+02  0.00000000000E+00 0. -1.
         11    1    3    3    0    0 -0.46977305699E+01  0.17803533541E+01  0.46979388088E+01  0.68781509060E+01  0.51100000000E-03 0.  1.
        -11    1    3    3    0    0 -0.19975151232E+02  0.13780330387E+02  0.22260512043E+02  0.32930754152E+02  0.51100000000E-03 0. -1.
         12    1    3    3    0    0  0.42559852818E+01 -0.68138960922E+01  0.70975262215E+01  0.10719956583E+02  0.00000000000E+00 0. -1.
</event>
<event>
 7    1  0.2661323E-011  0.5052886E+02  0.7816164E-02  0.1300439E+00
        -11   -1    0    0    0    0  0.00000000000E+00  0.00000000000E+00  0.45593999997E+02  0.45594000000E+02  0.51100000000E-03 0.  1.
         11   -1    0    0    0    0 -0.00000000000E+00 -0.00000000000E+00 -0.45593999997E+02  0.45594000000E+02  0.51100000000E-03 0. -1.
    9900012    2    1    2    0    0 -0.31088620332E+01 -0.66689036496E+01  0.39987831737E+02  0.50528856059E+02  0.29999988476E+02 0.  0.
         12    1    1    2    0    0  0.31088620332E+01  0.66689036496E+01 -0.39987831737E+02  0.40659143941E+02  0.00000000000E+00 0. -1.
         11    1    3    3    0    0 -0.57849249860E+01 -0.39117985207E+01  0.95212041997E+01  0.11807660837E+02  0.51100000000E-03 0. -1.
        -11    1    3    3    0    0  0.16910571294E+01 -0.13099326272E+02  0.13965998631E+02  0.19222412467E+02  0.51100000000E-03 0.  1.
        -12    1    3    3    0    0  0.98500582339E+00  0.10342221143E+02  0.16500628906E+02  0.19498782755E+02  0.00000000000E+00 0.  1.
</event>
<event>
 7    1  0.2661323E-011  0.5052886E+02  0.7816164E-02  0.1300439E+00
        -11   -1    0    0    0    0  0.00000000000E+00  0.00000000000E+00  0.45593999997E+02  0.45594000000E+02  0.51100000000E-03 0. -1.
         11   -1    0    0    0    0 -0.00000000000E+00 -0.00000000000E+00 -0.45593999997E+02  0.45594000000E+02  0.51100000000E-03 0.  1.
    9900012    2    1    2    0    0 -0.18753659533E+02 -0.21266393033E+02 -0.29141147987E+02  0.50528859275E+02  0.29999998254E+02 0.  0.
         12    1    1    2    0    0  0.18753659533E+02  0.21266393033E+02  0.29141147987E+02  0.40659140725E+02  0.00000000000E+00 0. -1.
         11    1    3    3    0    0 -0.25299582995E+00 -0.41988929074E+01 -0.98103368976E+01  0.10674147219E+02  0.51100000000E-03 0. -1.
        -11    1    3    3    0    0 -0.54723283390E+00 -0.16219294712E+02 -0.13018738970E+02  0.20805108732E+02  0.51100000000E-03 0.  1.
         12    1    3    3    0    0 -0.17953430869E+02 -0.84820541306E+00 -0.63120721189E+01  0.19049603324E+02  0.00000000000E+00 0. -1.
</event>
<event>
 7    1  0.2661323E-011  0.5052886E+02  0.7816164E-02  0.1300439E+00
        -11   -1    0    0    0    0  0.00000000000E+00  0.00000000000E+00  0.45593999997E+02  0.45594000000E+02  0.51100000000E-03 0. -1.
         11   -1    0    0    0    0 -0.00000000000E+00 -0.00000000000E+00 -0.45593999997E+02  0.45594000000E+02  0.51100000000E-03 0.  1.
    9900012    2    1    2    0    0 -0.33572512390E+02  0.18380720260E+01 -0.22862049709E+02  0.50528863095E+02  0.30000009863E+02 0.  0.
         12    1    1    2    0    0  0.33572512390E+02 -0.18380720260E+01  0.22862049709E+02  0.40659136905E+02  0.00000000000E+00 0. -1.
         11    1    3    3    0    0  0.25000820056E-01  0.75922598942E+01 -0.45058888868E+00  0.76056601258E+01  0.51100000000E-03 0. -1.
        -11    1    3    3    0    0 -0.87340094549E+01 -0.77160533296E+01 -0.66119153137E+01  0.13399172531E+02  0.51100000000E-03 0.  1.
        -12    1    3    3    0    0 -0.24863503756E+02  0.19618654614E+01 -0.15799545506E+02  0.29524030438E+02  0.00000000000E+00 0.  1.
</event>
<event>
 7    1  0.2661323E-011  0.5052886E+02  0.7816164E-02  0.1300439E+00
        -11   -1    0    0    0    0  0.00000000000E+00  0.00000000000E+00  0.45593999997E+02  0.45594000000E+02  0.51100000000E-03 0.  1.
         11   -1    0    0    0    0 -0.00000000000E+00 -0.00000000000E+00 -0.45593999997E+02  0.45594000000E+02  0.51100000000E-03 0. -1.
    9900012    2    1    2    0    0 -0.16255954919E+02  0.34093395193E+02  0.15051577162E+02  0.50528860300E+02  0.30000001366E+02 0.  0.
         12    1    1    2    0    0  0.16255954919E+02 -0.34093395193E+02 -0.15051577162E+02  0.40659139700E+02  0.00000000000E+00 0. -1.
         11    1    3    3    0    0 -0.13756189043E+01 -0.27154881692E+01 -0.28728063950E+01  0.41855967569E+01  0.51100000000E-03 0. -1.
        -11    1    3    3    0    0 -0.65242762764E+01  0.17838857383E+02  0.84569282883E-01  0.18994687833E+02  0.51100000000E-03 0.  1.
         12    1    3    3    0    0 -0.83560597384E+01  0.18970025979E+02  0.17839814274E+02  0.27348575709E+02  0.00000000000E+00 0. -1.
</event>
<event>
 7    1  0.2661323E-011  0.5052886E+02  0.7816164E-02  0.1300439E+00
        -11   -1    0    0    0    0  0.00000000000E+00  0.00000000000E+00  0.45593999997E+02  0.45594000000E+02  0.51100000000E-03 0. -1.
         11   -1    0    0    0    0 -0.00000000000E+00 -0.00000000000E+00 -0.45593999997E+02  0.45594000000E+02  0.51100000000E-03 0.  1.
    9900012    2    1    2    0    0  0.14030728746E+02 -0.36633812813E+02  0.10689616407E+02  0.50528862167E+02  0.30000007044E+02 0.  0.
         12    1    1    2    0    0 -0.14030728746E+02  0.36633812813E+02 -0.10689616407E+02  0.40659137833E+02  0.00000000000E+00 0. -1.
         11    1    3    3    0    0  0.26211071240E+01 -0.23023226978E+02 -0.19538840982E+01  0.23254179116E+02  0.51100000000E-03 0. -1.
        -11    1    3    3    0    0  0.73418200757E+01 -0.91188434879E+01 -0.15808069691E+01  0.11813322120E+02  0.51100000000E-03 0.  1.
         12    1    3    3    0    0  0.40678015463E+01 -0.44917423474E+01  0.14224307474E+02  0.15461360931E+02  0.00000000000E+00 0. -1.
</event>
<event>
 7    1  0.2661323E-011  0.5052886E+02  0.7816164E-02  0.1300439E+00
        -11   -1    0    0    0    0  0.00000000000E+00  0.00000000000E+00  0.45593999997E+02  0.45594000000E+02  0.51100000000E-03 0. -1.
         11   -1    0    0    0    0 -0.00000000000E+00 -0.00000000000E+00 -0.45593999997E+02  0.45594000000E+02  0.51100000000E-03 0.  1.
    9900012    2    1    2    0    0 -0.13767560602E+01  0.31561998488E+02 -0.25595117771E+02  0.50528864993E+02  0.30000015633E+02 0.  0.
         12    1    1    2    0    0  0.13767560602E+01 -0.31561998488E+02  0.25595117771E+02  0.40659135007E+02  0.00000000000E+00 0. -1.
         11    1    3    3    0    0 -0.76389820872E+01  0.25985373033E+02 -0.17033255011E+02  0.31995709642E+02  0.51100000000E-03 0. -1.
        -11    1    3    3    0    0 -0.29400503603E+01  0.57552181032E+01 -0.83630402270E+00  0.65165816358E+01  0.51100000000E-03 0.  1.
         12    1    3    3    0    0  0.92022763873E+01 -0.17859264816E+00 -0.77255587377E+01  0.12016573715E+02  0.00000000000E+00 0. -1.
</event>
<event>
 7    1  0.2661323E-011  0.5052884E+02  0.7816164E-02  0.1300439E+00
        -11   -1    0    0    0    0  0.00000000000E+00  0.00000000000E+00  0.45593999997E+02  0.45594000000E+02  0.51100000000E-03 0.  1.
         11   -1    0    0    0    0 -0.00000000000E+00 -0.00000000000E+00 -0.45593999997E+02  0.45594000000E+02  0.51100000000E-03 0. -1.
    9900012    2    1    2    0    0  0.13143511996E+02  0.18027042398E+02  0.33991776519E+02  0.50528843145E+02  0.29999949224E+02 0.  0.
         12    1    1    2    0    0 -0.13143511996E+02 -0.18027042398E+02 -0.33991776519E+02  0.40659156855E+02  0.00000000000E+00 0. -1.
         11    1    3    3    0    0 -0.32016018713E+01  0.11685854898E+02  0.10049622130E+01  0.12158100532E+02  0.51100000000E-03 0. -1.
        -11    1    3    3    0    0  0.85743946124E+00  0.48411409346E-01  0.95178719238E+01  0.95565387203E+01  0.51100000000E-03 0.  1.
        -12    1    3    3    0    0  0.15487674406E+02  0.62927760911E+01  0.23468942382E+02  0.28814203893E+02  0.00000000000E+00 0.  1.
</event>
<event>
 7    1  0.2661323E-011  0.5052886E+02  0.7816164E-02  0.1300439E+00
        -11   -1    0    0    0    0  0.00000000000E+00  0.00000000000E+00  0.45593999997E+02  0.45594000000E+02  0.51100000000E-03 0. -1.
         11   -1    0    0    0    0 -0.00000000000E+00 -0.00000000000E+00 -0.45593999997E+02  0.45594000000E+02  0.51100000000E-03 0.  1.
    9900012    2    1    2    0    0  0.94414555120E+01  0.34566372291E+02 -0.19214333728E+02  0.50528858394E+02  0.29999995574E+02 0.  0.
         12    1    1    2    0    0 -0.94414555120E+01 -0.34566372291E+02  0.19214333728E+02  0.40659141606E+02  0.00000000000E+00 0. -1.
         11    1    3    3    0    0  0.20076596537E+01  0.44720812669E+01  0.38811242962E+01  0.62524662499E+01  0.51100000000E-03 0. -1.
        -11    1    3    3    0    0  0.80651001838E+01  0.12938330598E+02 -0.22398090978E+02  0.27094662194E+02  0.51100000000E-03 0.  1.
         12    1    3    3    0    0 -0.63130432557E+00  0.17155960426E+02 -0.69736704566E+00  0.17181729950E+02  0.00000000000E+00 0. -1.
</event>
<event>
 7    1  0.2661323E-011  0.5052886E+02  0.7816164E-02  0.1300439E+00
        -11   -1    0    0    0    0  0.00000000000E+00  0.00000000000E+00  0.45593999997E+02  0.45594000000E+02  0.51100000000E-03 0.  1.
         11   -1    0    0    0    0 -0.00000000000E+00 -0.00000000000E+00 -0.45593999997E+02  0.45594000000E+02  0.51100000000E-03 0. -1.
    9900012    2    1    2    0    0 -0.37089776007E+02  0.65905343072E+01  0.15299628640E+02  0.50528864948E+02  0.30000015495E+02 0.  0.
         12    1    1    2    0    0  0.37089776007E+02 -0.65905343072E+01 -0.15299628640E+02  0.40659135052E+02  0.00000000000E+00 0. -1.
         11    1    3    3    0    0 -0.15064944405E+02  0.75604249626E+01  0.87248918850E+01  0.18979892365E+02  0.51100000000E-03 0. -1.
        -11    1    3    3    0    0  0.43890212761E+01  0.36638181295E+00  0.11249875501E+01  0.45456947372E+01  0.51100000000E-03 0.  1.
         12    1    3    3    0    0 -0.26413852878E+02 -0.13362724683E+01  0.54497492050E+01  0.27003277845E+02  0.00000000000E+00 0. -1.
</event>
<event>
 7    1  0.2661323E-011  0.5052886E+02  0.7816164E-02  0.1300439E+00
        -11   -1    0    0    0    0  0.00000000000E+00  0.00000000000E+00  0.45593999997E+02  0.45594000000E+02  0.51100000000E-03 0.  1.
         11   -1    0    0    0    0 -0.00000000000E+00 -0.00000000000E+00 -0.45593999997E+02  0.45594000000E+02  0.51100000000E-03 0. -1.
    9900012    2    1    2    0    0  0.32047489365E+02  0.21213900389E+01  0.24932388868E+02  0.50528857302E+02  0.29999992254E+02 0.  0.
         12    1    1    2    0    0 -0.32047489365E+02 -0.21213900389E+01 -0.24932388868E+02  0.40659142698E+02  0.00000000000E+00 0. -1.
         11    1    3    3    0    0  0.17782904365E+02  0.37754388507E+01  0.12728460301E+02  0.22192325882E+02  0.51100000000E-03 0. -1.
        -11    1    3    3    0    0  0.15054967568E+02  0.64311454437E+01  0.41321176367E+01  0.16884492193E+02  0.51100000000E-03 0.  1.
         12    1    3    3    0    0 -0.79038256788E+00 -0.80851942554E+01  0.80718109297E+01  0.11452039226E+02  0.00000000000E+00 0. -1.
</event>
<event>
 7    1  0.2933090E-011  0.5052886E+02  0.7816164E-02  0.1300439E+00
        -11   -1    0    0    0    0  0.00000000000E+00  0.00000000000E+00  0.45593999997E+02  0.45594000000E+02  0.51100000000E-03 0. -1.
         11   -1    0    0    0    0 -0.00000000000E+00 -0.00000000000E+00 -0.45593999997E+02  0.45594000000E+02  0.51100000000E-03 0.  1.
    9900012    2    1    2    0    0  0.21462139528E+02  0.30284614749E+02 -0.16594708672E+02  0.50528859828E+02  0.29999999933E+02 0.  0.
         12    1    1    2    0    0 -0.21462139528E+02 -0.30284614749E+02  0.16594708672E+02  0.40659140172E+02  0.00000000000E+00 0. -1.
         11    1    3    3    0    0  0.73636754025E+01  0.98811021721E+01  0.17350652288E+01  0.12444691526E+02  0.51100000000E-03 0. -1.
        -11    1    3    3    0    0  0.42150896880E+01  0.21010280320E+02 -0.59659214015E+01  0.22243899807E+02  0.51100000000E-03 0.  1.
         12    1    3    3    0    0  0.98833744373E+01 -0.60676774304E+00 -0.12363852499E+02  0.15840268495E+02  0.00000000000E+00 0. -1.
</event>
<event>
 7    1  0.2661323E-011  0.5052886E+02  0.7816164E-02  0.1300439E+00
        -11   -1    0    0    0    0  0.00000000000E+00  0.00000000000E+00  0.45593999997E+02  0.45594000000E+02  0.51100000000E-03 0.  1.
         11   -1    0    0    0    0 -0.00000000000E+00 -0.00000000000E+00 -0.45593999997E+02  0.45594000000E+02  0.51100000000E-03 0. -1.
    9900012    2    1    2    0    0  0.67886247899E+01 -0.58489323762E+01  0.39659427713E+02  0.50528860277E+02  0.30000001298E+02 0.  0.
         12    1    1    2    0    0 -0.67886247899E+01  0.58489323762E+01 -0.39659427713E+02  0.40659139723E+02  0.00000000000E+00 0. -1.
         11    1    3    3    0    0  0.79247626197E+01 -0.10298652201E+01  0.13537728768E+02  0.15720451183E+02  0.51100000000E-03 0. -1.
        -11    1    3    3    0    0  0.10548430003E+02 -0.38915579786E+01  0.13833813785E+02  0.17826609412E+02  0.51100000000E-03 0.  1.
         12    1    3    3    0    0 -0.11684567833E+02 -0.92750917751E+00  0.12287885160E+02  0.16981799682E+02  0.00000000000E+00 0. -1.
</event>
<event>
 7    1  0.2661323E-011  0.5052884E+02  0.7816164E-02  0.1300439E+00
        -11   -1    0    0    0    0  0.00000000000E+00  0.00000000000E+00  0.45593999997E+02  0.45594000000E+02  0.51100000000E-03 0. -1.
         11   -1    0    0    0    0 -0.00000000000E+00 -0.00000000000E+00 -0.45593999997E+02  0.45594000000E+02  0.51100000000E-03 0.  1.
    9900012    2    1    2    0    0  0.13770601065E+02 -0.30889065870E+02 -0.22569963880E+02  0.50528842193E+02  0.29999946330E+02 0.  0.
         12    1    1    2    0    0 -0.13770601065E+02  0.30889065870E+02  0.22569963880E+02  0.40659157807E+02  0.00000000000E+00 0. -1.
         11    1    3    3    0    0  0.16734474748E+02 -0.30282939945E+02 -0.27671946801E+02  0.44303902049E+02  0.51100000000E-03 0.  1.
        -11    1    3    3    0    0 -0.81062148672E+00  0.55055971480E+00  0.75173160383E+00  0.12350400235E+01  0.51100000000E-03 0. -1.
        -12    1    3    3    0    0 -0.21532521967E+01 -0.11566856405E+01  0.43502513167E+01  0.49899001204E+01  0.00000000000E+00 0.  1.
</event>
<event>
 7    1  0.2661323E-011  0.5052885E+02  0.7816164E-02  0.1300439E+00
        -11   -1    0    0    0    0  0.00000000000E+00  0.00000000000E+00  0.45593999997E+02  0.45594000000E+02  0.51100000000E-03 0.  1.
         11   -1    0    0    0    0 -0.00000000000E+00 -0.00000000000E+00 -0.45593999997E+02  0.45594000000E+02  0.51100000000E-03 0. -1.
    9900012    2    1    2    0    0  0.39498750379E+02 -0.84338611005E+01  0.46781750835E+01  0.50528848303E+02  0.29999964903E+02 0.  0.
         12    1    1    2    0    0 -0.39498750379E+02  0.84338611005E+01 -0.46781750835E+01  0.40659151697E+02  0.00000000000E+00 0. -1.
         11    1    3    3    0    0  0.43861674749E+01 -0.55587017184E+01 -0.63508826391E+01  0.95116423644E+01  0.51100000000E-03 0.  1.
        -11    1    3    3    0    0 -0.37577880517E+00 -0.35827962044E+01 -0.62772449220E+00  0.36567303226E+01  0.51100000000E-03 0. -1.
        -12    1    3    3    0    0  0.35488361709E+02  0.70763682229E+00  0.11656782215E+02  0.37360475616E+02  0.00000000000E+00 0.  1.
</event>
<event>
 7    1  0.2661323E-011  0.5052884E+02  0.7816164E-02  0.1300439E+00
        -11   -1    0    0    0    0  0.00000000000E+00  0.00000000000E+00  0.45593999997E+02  0.45594000000E+02  0.51100000000E-03 0.  1.
         11   -1    0    0    0    0 -0.00000000000E+00 -0.00000000000E+00 -0.45593999997E+02  0.45594000000E+02  0.51100000000E-03 0. -1.
    9900012    2    1    2    0    0 -0.19581337874E+02  0.40630761285E+01  0.35400983951E+02  0.50528843033E+02  0.29999948882E+02 0.  0.
         12    1    1    2    0    0  0.19581337874E+02 -0.40630761285E+01 -0.35400983951E+02  0.40659156967E+02  0.00000000000E+00 0. -1.
         11    1    3    3    0    0 -0.65297017154E+01 -0.82979109433E+01  0.11363627894E+02  0.15512071741E+02  0.51100000000E-03 0. -1.
        -11    1    3    3    0    0 -0.40015687240E+01 -0.35503530412E+01  0.11917415964E+02  0.13063015061E+02  0.51100000000E-03 0.  1.
        -12    1    3    3    0    0 -0.90500674348E+01  0.15911340113E+02  0.12119940094E+02  0.21953756231E+02  0.00000000000E+00 0.  1.
</event>
<event>
 7    1  0.2661323E-011  0.5052887E+02  0.7816164E-02  0.1300439E+00
        -11   -1    0    0    0    0  0.00000000000E+00  0.00000000000E+00  0.45593999997E+02  0.45594000000E+02  0.51100000000E-03 0.  1.
         11   -1    0    0    0    0 -0.00000000000E+00 -0.00000000000E+00 -0.45593999997E+02  0.45594000000E+02  0.51100000000E-03 0. -1.
    9900012    2    1    2    0    0 -0.28796557559E+02  0.18270712438E+02  0.22138303396E+02  0.50528866494E+02  0.30000020194E+02 0.  0.
         12    1    1    2    0    0  0.28796557559E+02 -0.18270712438E+02 -0.22138303396E+02  0.40659133506E+02  0.00000000000E+00 0. -1.
         11    1    3    3    0    0 -0.18881984180E+02  0.38304849086E+01  0.19992154890E+02  0.27764873466E+02  0.51100000000E-03 0.  1.
        -11    1    3    3    0    0 -0.12166787705E+02  0.77304670071E+01 -0.20128603909E+01  0.14554808498E+02  0.51100000000E-03 0. -1.
        -12    1    3    3    0    0  0.22522143254E+01  0.67097605220E+01  0.41590088969E+01  0.82091845292E+01  0.00000000000E+00 0.  1.
</event>
<event>
 7    1  0.2661323E-011  0.5052886E+02  0.7816164E-02  0.1300439E+00
        -11   -1    0    0    0    0  0.00000000000E+00  0.00000000000E+00  0.45593999997E+02  0.45594000000E+02  0.51100000000E-03 0. -1.
         11   -1    0    0    0    0 -0.00000000000E+00 -0.00000000000E+00 -0.45593999997E+02  0.45594000000E+02  0.51100000000E-03 0.  1.
    9900012    2    1    2    0    0 -0.26048435795E+02  0.50870178781E+01 -0.30802063262E+02  0.50528857615E+02  0.29999993208E+02 0.  0.
         12    1    1    2    0    0  0.26048435795E+02 -0.50870178781E+01  0.30802063262E+02  0.40659142385E+02  0.00000000000E+00 0. -1.
         11    1    3    3    0    0 -0.56320346757E+01  0.12243364624E+02 -0.88868757126E+01  0.16142996999E+02  0.51100000000E-03 0. -1.
        -11    1    3    3    0    0  0.23604236911E+01  0.49461700163E-01 -0.77245430442E+00  0.24840958868E+01  0.51100000000E-03 0.  1.
        -12    1    3    3    0    0 -0.22776824811E+02 -0.72058084463E+01 -0.21142733245E+02  0.31901764730E+02  0.00000000000E+00 0.  1.
</event>
<event>
 7    1  0.2661323E-011  0.5052886E+02  0.7816164E-02  0.1300439E+00
        -11   -1    0    0    0    0  0.00000000000E+00  0.00000000000E+00  0.45593999997E+02  0.45594000000E+02  0.51100000000E-03 0.  1.
         11   -1    0    0    0    0 -0.00000000000E+00 -0.00000000000E+00 -0.45593999997E+02  0.45594000000E+02  0.51100000000E-03 0. -1.
    9900012    2    1    2    0    0  0.30071084505E+02  0.87571056195E+01  0.25926986284E+02  0.50528860315E+02  0.30000001413E+02 0.  0.
         12    1    1    2    0    0 -0.30071084505E+02 -0.87571056195E+01 -0.25926986284E+02  0.40659139685E+02  0.00000000000E+00 0. -1.
         11    1    3    3    0    0  0.17453318319E+01 -0.43402853848E+01 -0.28207450730E+00  0.46865580881E+01  0.51100000000E-03 0. -1.
        -11    1    3    3    0    0 -0.14638204226E+01  0.66039468476E+01  0.24692216905E+01  0.72008291338E+01  0.51100000000E-03 0.  1.
        -12    1    3    3    0    0  0.29789573096E+02  0.64934441566E+01  0.23739839101E+02  0.38641473093E+02  0.00000000000E+00 0.  1.
</event>
<event>
 7    1  0.2661323E-011  0.5052886E+02  0.7816164E-02  0.1300439E+00
        -11   -1    0    0    0    0  0.00000000000E+00  0.00000000000E+00  0.45593999997E+02  0.45594000000E+02  0.51100000000E-03 0. -1.
         11   -1    0    0    0    0 -0.00000000000E+00 -0.00000000000E+00 -0.45593999997E+02  0.45594000000E+02  0.51100000000E-03 0.  1.
    9900012    2    1    2    0    0 -0.34711661693E+01 -0.27012578512E+02 -0.30190013809E+02  0.50528864173E+02  0.30000013140E+02 0.  0.
         12    1    1    2    0    0  0.34711661693E+01  0.27012578512E+02  0.30190013809E+02  0.40659135827E+02  0.00000000000E+00 0. -1.
         11    1    3    3    0    0  0.78340459945E+00 -0.17127961819E+02 -0.34889770933E+01  0.17497250077E+02  0.51100000000E-03 0. -1.
        -11    1    3    3    0    0  0.11625928047E+01  0.39072114928E+01 -0.29290149998E+01  0.50196666034E+01  0.51100000000E-03 0.  1.
         12    1    3    3    0    0 -0.54171635735E+01 -0.13791828186E+02 -0.23772021715E+02  0.28011947493E+02  0.00000000000E+00 0. -1.
</event>
<event>
 7    1  0.2661323E-011  0.5052885E+02  0.7816164E-02  0.1300439E+00
        -11   -1    0    0    0    0  0.00000000000E+00  0.00000000000E+00  0.45593999997E+02  0.45594000000E+02  0.51100000000E-03 0.  1.
         11   -1    0    0    0    0 -0.00000000000E+00 -0.00000000000E+00 -0.45593999997E+02  0.45594000000E+02  0.51100000000E-03 0. -1.
    9900012    2    1    2    0    0 -0.25609180772E+01 -0.40574007987E+02 -0.59832960677E+00  0.50528850675E+02  0.29999972110E+02 0.  0.
         12    1    1    2    0    0  0.25609180772E+01  0.40574007987E+02  0.59832960677E+00  0.40659149325E+02  0.00000000000E+00 0. -1.
         11    1    3    3    0    0  0.49706156059E+00 -0.13446656629E+02  0.51089667988E+01  0.14393095105E+02  0.51100000000E-03 0. -1.
        -11    1    3    3    0    0 -0.41644693975E+01 -0.20990369005E+02  0.65532872255E+01  0.22380437217E+02  0.51100000000E-03 0.  1.
         12    1    3    3    0    0  0.11064897596E+01 -0.61369823536E+01 -0.12260583631E+02  0.13755318352E+02  0.00000000000E+00 0. -1.
</event>
<event>
 7    1  0.2661323E-011  0.5052885E+02  0.7816164E-02  0.1300439E+00
        -11   -1    0    0    0    0  0.00000000000E+00  0.00000000000E+00  0.45593999997E+02  0.45594000000E+02  0.51100000000E-03 0.  1.
         11   -1    0    0    0    0 -0.00000000000E+00 -0.00000000000E+00 -0.45593999997E+02  0.45594000000E+02  0.51100000000E-03 0. -1.
    9900012    2    1    2    0    0 -0.34836631241E+02  0.20046053312E+02  0.61425933176E+01  0.50528848727E+02  0.29999966190E+02 0.  0.
         12    1    1    2    0    0  0.34836631241E+02 -0.20046053312E+02 -0.61425933176E+01  0.40659151273E+02  0.00000000000E+00 0. -1.
         11    1    3    3    0    0 -0.11025483291E+01  0.75008677207E+01  0.65528964721E+01  0.10020932183E+02  0.51100000000E-03 0. -1.
        -11    1    3    3    0    0 -0.12860069011E+02  0.11574978318E+02 -0.68994896447E+01  0.18626981925E+02  0.51100000000E-03 0.  1.
         12    1    3    3    0    0 -0.20874013901E+02  0.97020727349E+00  0.64891864902E+01  0.21880934619E+02  0.00000000000E+00 0. -1.
</event>
<event>
 7    1  0.2661323E-011  0.5052886E+02  0.7816164E-02  0.1300439E+00
        -11   -1    0    0    0    0  0.00000000000E+00  0.00000000000E+00  0.45593999997E+02  0.45594000000E+02  0.51100000000E-03 0. -1.
         11   -1    0    0    0    0 -0.00000000000E+00 -0.00000000000E+00 -0.45593999997E+02  0.45594000000E+02  0.51100000000E-03 0.  1.
    9900012    2    1    2    0    0  0.33454959366E+02 -0.88038401593E+01 -0.21364072872E+02  0.50528861821E+02  0.30000005992E+02 0.  0.
         12    1    1    2    0    0 -0.33454959366E+02  0.88038401593E+01  0.21364072872E+02  0.40659138179E+02  0.00000000000E+00 0. -1.
         11    1    3    3    0    0  0.10454300180E+02 -0.33712151367E+01  0.42032804125E+01  0.11761167044E+02  0.51100000000E-03 0. -1.
        -11    1    3    3    0    0  0.93080157452E+01  0.61899149785E+01 -0.10089288433E+02  0.15058152141E+02  0.51100000000E-03 0.  1.
        -12    1    3    3    0    0  0.13692643441E+02 -0.11622540001E+02 -0.15478064851E+02  0.23709542636E+02  0.00000000000E+00 0.  1.
</event>
<event>
 7    1  0.2661323E-011  0.5052885E+02  0.7816164E-02  0.1300439E+00
        -11   -1    0    0    0    0  0.00000000000E+00  0.00000000000E+00  0.45593999997E+02  0.45594000000E+02  0.51100000000E-03 0. -1.
         11   -1    0    0    0    0 -0.00000000000E+00 -0.00000000000E+00 -0.45593999997E+02  0.45594000000E+02  0.51100000000E-03 0.  1.
    9900012    2    1    2    0    0  0.40564265566E+02 -0.26897500489E+01  0.68695802901E+00  0.50528852105E+02  0.29999976457E+02 0.  0.
         12    1    1    2    0    0 -0.40564265566E+02  0.26897500489E+01 -0.68695802901E+00  0.40659147895E+02  0.00000000000E+00 0. -1.
         11    1    3    3    0    0  0.21393561689E+02  0.73953498831E+01 -0.32519303651E+01  0.22868116079E+02  0.51100000000E-03 0. -1.
        -11    1    3    3    0    0  0.78817996636E+01 -0.11019490833E+01 -0.61485840207E+01  0.10056945035E+02  0.51100000000E-03 0.  1.
         12    1    3    3    0    0  0.11288904214E+02 -0.89831508487E+01  0.10087472415E+02  0.17603790990E+02  0.00000000000E+00 0. -1.
</event>
<event>
 7    1  0.2661323E-011  0.5052886E+02  0.7816164E-02  0.1300439E+00
        -11   -1    0    0    0    0  0.00000000000E+00  0.00000000000E+00  0.45593999997E+02  0.45594000000E+02  0.51100000000E-03 0. -1.
         11   -1    0    0    0    0 -0.00000000000E+00 -0.00000000000E+00 -0.45593999997E+02  0.45594000000E+02  0.51100000000E-03 0.  1.
    9900012    2    1    2    0    0 -0.37063864878E+02  0.98463720379E+01 -0.13508670718E+02  0.50528864415E+02  0.30000013874E+02 0.  0.
         12    1    1    2    0    0  0.37063864878E+02 -0.98463720379E+01  0.13508670718E+02  0.40659135585E+02  0.00000000000E+00 0. -1.
         11    1    3    3    0    0 -0.36214739319E+01  0.79438818627E+00 -0.74853293080E+00  0.37823838831E+01  0.51100000000E-03 0. -1.
        -11    1    3    3    0    0 -0.17427773196E+02 -0.51265258111E+01 -0.17069567199E+02  0.24927468185E+02  0.51100000000E-03 0.  1.
         12    1    3    3    0    0 -0.16014617750E+02  0.14178509663E+02  0.43094294121E+01  0.21819012347E+02  0.00000000000E+00 0. -1.
</event>
<event>
 7    1  0.2661323E-011  0.5052886E+02  0.7816164E-02  0.1300439E+00
        -11   -1    0    0    0    0  0.00000000000E+00  0.00000000000E+00  0.45593999997E+02  0.45594000000E+02  0.51100000000E-03 0.  1.
         11   -1    0    0    0    0 -0.00000000000E+00 -0.00000000000E+00 -0.45593999997E+02  0.45594000000E+02  0.51100000000E-03 0. -1.
    9900012    2    1    2    0    0 -0.12429853306E+02  0.14928060585E+02  0.35718588709E+02  0.50528858034E+02  0.29999994481E+02 0.  0.
         12    1    1    2    0    0  0.12429853306E+02 -0.14928060585E+02 -0.35718588709E+02  0.40659141966E+02  0.00000000000E+00 0. -1.
         11    1    3    3    0    0 -0.10877837406E+02  0.29269259162E+00  0.10195651934E+02  0.14911885668E+02  0.51100000000E-03 0. -1.
        -11    1    3    3    0    0 -0.80872909348E+01  0.16209645629E+02  0.18290310731E+02  0.25742811675E+02  0.51100000000E-03 0.  1.
         12    1    3    3    0    0  0.65352750340E+01 -0.15742776356E+01  0.72326260446E+01  0.98741606907E+01  0.00000000000E+00 0. -1.
</event>
<event>
 7    1  0.2661323E-011  0.5052886E+02  0.7816164E-02  0.1300439E+00
        -11   -1    0    0    0    0  0.00000000000E+00  0.00000000000E+00  0.45593999997E+02  0.45594000000E+02  0.51100000000E-03 0. -1.
         11   -1    0    0    0    0 -0.00000000000E+00 -0.00000000000E+00 -0.45593999997E+02  0.45594000000E+02  0.51100000000E-03 0.  1.
    9900012    2    1    2    0    0  0.22824734538E+02  0.15096202733E+02 -0.30071614445E+02  0.50528857867E+02  0.29999993971E+02 0.  0.
         12    1    1    2    0    0 -0.22824734538E+02 -0.15096202733E+02  0.30071614445E+02  0.40659142133E+02  0.00000000000E+00 0. -1.
         11    1    3    3    0    0  0.72886369844E+01 -0.50260822633E+01 -0.10583847621E+02  0.13798679746E+02  0.51100000000E-03 0. -1.
        -11    1    3    3    0    0  0.15902545849E+02  0.14631086214E+02 -0.21859412973E+02  0.30737494759E+02  0.51100000000E-03 0.  1.
        -12    1    3    3    0    0 -0.36644829485E+00  0.54911987822E+01  0.23716461489E+01  0.59926833618E+01  0.00000000000E+00 0.  1.
</event>
<event>
 7    1  0.2661323E-011  0.5052886E+02  0.7816164E-02  0.1300439E+00
        -11   -1    0    0    0    0  0.00000000000E+00  0.00000000000E+00  0.45593999997E+02  0.45594000000E+02  0.51100000000E-03 0.  1.
         11   -1    0    0    0    0 -0.00000000000E+00 -0.00000000000E+00 -0.45593999997E+02  0.45594000000E+02  0.51100000000E-03 0. -1.
    9900012    2    1    2    0    0 -0.68063056436E+01  0.13308391789E+00  0.40085181254E+02  0.50528864937E+02  0.30000015464E+02 0.  0.
         12    1    1    2    0    0  0.68063056436E+01 -0.13308391789E+00 -0.40085181254E+02  0.40659135063E+02  0.00000000000E+00 0. -1.
         11    1    3    3    0    0  0.16496826286E+01 -0.80342701177E+00  0.13457364736E+01  0.22755119546E+01  0.51100000000E-03 0. -1.
        -11    1    3    3    0    0 -0.52573851227E+01 -0.11043861760E+02  0.31737778223E+02  0.34013137869E+02  0.51100000000E-03 0.  1.
         12    1    3    3    0    0 -0.31986031495E+01  0.11980372690E+02  0.70016665580E+01  0.14240215114E+02  0.00000000000E+00 0. -1.
</event>
<event>
 7    1  0.2661323E-011  0.5052887E+02  0.7816164E-02  0.1300439E+00
        -11   -1    0    0    0    0  0.00000000000E+00  0.00000000000E+00  0.45593999997E+02  0.45594000000E+02  0.51100000000E-03 0. -1.
         11   -1    0    0    0    0 -0.00000000000E+00 -0.00000000000E+00 -0.45593999997E+02  0.45594000000E+02  0.51100000000E-03 0.  1.
    9900012    2    1    2    0    0  0.30987540929E+02 -0.15021413177E+02  0.21616997132E+02  0.50528866811E+02  0.30000021158E+02 0.  0.
         12    1    1    2    0    0 -0.30987540929E+02  0.15021413177E+02 -0.21616997132E+02  0.40659133189E+02  0.00000000000E+00 0. -1.
         11    1    3    3    0    0 -0.49508668702E+01 -0.17704472819E+01  0.66375184633E+01  0.84677162184E+01  0.51100000000E-03 0. -1.
        -11    1    3    3    0    0  0.16045829584E+02 -0.39437657151E+01  0.10701590957E+02  0.19686187653E+02  0.51100000000E-03 0.  1.
        -12    1    3    3    0    0  0.19892578215E+02 -0.93072001804E+01  0.42778877123E+01  0.22374962939E+02  0.00000000000E+00 0.  1.
</event>
<event>
 7    1  0.2661323E-011  0.5052884E+02  0.7816164E-02  0.1300439E+00
        -11   -1    0    0    0    0  0.00000000000E+00  0.00000000000E+00  0.45593999997E+02  0.45594000000E+02  0.51100000000E-03 0.  1.
         11   -1    0    0    0    0 -0.00000000000E+00 -0.00000000000E+00 -0.45593999997E+02  0.45594000000E+02  0.51100000000E-03 0. -1.
    9900012    2    1    2    0    0  0.12996349882E+02  0.22631833370E+02  0.31177907956E+02  0.50528844371E+02  0.29999952951E+02 0.  0.
         12    1    1    2    0    0 -0.12996349882E+02 -0.22631833370E+02 -0.31177907956E+02  0.40659155629E+02  0.00000000000E+00 0. -1.
         11    1    3    3    0    0  0.15318339565E+02  0.43735219008E+01  0.65160114843E+01  0.17211555037E+02  0.51100000000E-03 0. -1.
        -11    1    3    3    0    0  0.39587446933E+01  0.68046815251E+01  0.15428025615E+02  0.17320488586E+02  0.51100000000E-03 0.  1.
         12    1    3    3    0    0 -0.62807343770E+01  0.11453629944E+02  0.92338708567E+01  0.15996800749E+02  0.00000000000E+00 0. -1.
</event>
<event>
 7    1  0.2661323E-011  0.5052885E+02  0.7816164E-02  0.1300439E+00
        -11   -1    0    0    0    0  0.00000000000E+00  0.00000000000E+00  0.45593999997E+02  0.45594000000E+02  0.51100000000E-03 0.  1.
         11   -1    0    0    0    0 -0.00000000000E+00 -0.00000000000E+00 -0.45593999997E+02  0.45594000000E+02  0.51100000000E-03 0. -1.
    9900012    2    1    2    0    0  0.46954521394E+01 -0.21995578392E+02  0.33872017772E+02  0.50528851860E+02  0.29999975712E+02 0.  0.
         12    1    1    2    0    0 -0.46954521394E+01  0.21995578392E+02 -0.33872017772E+02  0.40659148140E+02  0.00000000000E+00 0. -1.
         11    1    3    3    0    0 -0.45031160438E+01  0.20764821230E+01  0.29120618963E+01  0.57506466472E+01  0.51100000000E-03 0. -1.
        -11    1    3    3    0    0 -0.34581335108E+01 -0.43948907107E+01  0.16144415199E+02  0.17085546351E+02  0.51100000000E-03 0.  1.
        -12    1    3    3    0    0  0.12656701694E+02 -0.19677169804E+02  0.14815540676E+02  0.27692658861E+02  0.00000000000E+00 0.  1.
</event>
<event>
 7    1  0.2661323E-011  0.5052887E+02  0.7816164E-02  0.1300439E+00
        -11   -1    0    0    0    0  0.00000000000E+00  0.00000000000E+00  0.45593999997E+02  0.45594000000E+02  0.51100000000E-03 0.  1.
         11   -1    0    0    0    0 -0.00000000000E+00 -0.00000000000E+00 -0.45593999997E+02  0.45594000000E+02  0.51100000000E-03 0. -1.
    9900012    2    1    2    0    0 -0.18411269520E+02 -0.15313367862E+02  0.32858654215E+02  0.50528865264E+02  0.30000016458E+02 0.  0.
         12    1    1    2    0    0  0.18411269520E+02  0.15313367862E+02 -0.32858654215E+02  0.40659134736E+02  0.00000000000E+00 0. -1.
         11    1    3    3    0    0 -0.35084987499E+00 -0.75911494718E+01  0.11753887355E+02  0.13996517930E+02  0.51100000000E-03 0. -1.
        -11    1    3    3    0    0 -0.59911906995E+01 -0.11593855607E+02  0.14303179977E+01  0.13128505767E+02  0.51100000000E-03 0.  1.
        -12    1    3    3    0    0 -0.12069228945E+02  0.38716372173E+01  0.19674448862E+02  0.23403841567E+02  0.00000000000E+00 0.  1.
</event>
<event>
 7    1  0.2661323E-011  0.5052885E+02  0.7816164E-02  0.1300439E+00
        -11   -1    0    0    0    0  0.00000000000E+00  0.00000000000E+00  0.45593999997E+02  0.45594000000E+02  0.51100000000E-03 0.  1.
         11   -1    0    0    0    0 -0.00000000000E+00 -0.00000000000E+00 -0.45593999997E+02  0.45594000000E+02  0.51100000000E-03 0. -1.
    9900012    2    1    2    0    0  0.21786556855E+02  0.15409172502E+01  0.34294866298E+02  0.50528851706E+02  0.29999975247E+02 0.  0.
         12    1    1    2    0    0 -0.21786556855E+02 -0.15409172502E+01 -0.34294866298E+02  0.40659148294E+02  0.00000000000E+00 0. -1.
         11    1    3    3    0    0 -0.25652946109E+01  0.52214910698E+01  0.37767405969E+01  0.69360273377E+01  0.51100000000E-03 0.  1.
        -11    1    3    3    0    0 -0.23245678649E+01 -0.23997170278E+01  0.79635079538E+01  0.86359548843E+01  0.51100000000E-03 0. -1.
        -12    1    3    3    0    0  0.26676419331E+02 -0.12808567918E+01  0.22554617747E+02  0.34956869484E+02  0.00000000000E+00 0.  1.
</event>
<event>
 7    1  0.2661323E-011  0.5052886E+02  0.7816164E-02  0.1300439E+00
        -11   -1    0    0    0    0  0.00000000000E+00  0.00000000000E+00  0.45593999997E+02  0.45594000000E+02  0.51100000000E-03 0. -1.
         11   -1    0    0    0    0 -0.00000000000E+00 -0.00000000000E+00 -0.45593999997E+02  0.45594000000E+02  0.51100000000E-03 0.  1.
    9900012    2    1    2    0    0 -0.16467701674E+02  0.33891619873E+02 -0.15275412080E+02  0.50528864369E+02  0.30000013735E+02 0.  0.
         12    1    1    2    0    0  0.16467701674E+02 -0.33891619873E+02  0.15275412080E+02  0.40659135631E+02  0.00000000000E+00 0. -1.
         11    1    3    3    0    0 -0.25090544619E+01  0.53664033001E+01  0.23384560167E+01  0.63688315628E+01  0.51100000000E-03 0. -1.
        -11    1    3    3    0    0 -0.70311752007E+00  0.22325674510E+02 -0.14910480286E+01  0.22386454410E+02  0.51100000000E-03 0.  1.
        -12    1    3    3    0    0 -0.13255529692E+02  0.61995420637E+01 -0.16122820068E+02  0.21773578396E+02  0.00000000000E+00 0.  1.
</event>
<event>
 7    1  0.2661323E-011  0.5052886E+02  0.7816164E-02  0.1300439E+00
        -11   -1    0    0    0    0  0.00000000000E+00  0.00000000000E+00  0.45593999997E+02  0.45594000000E+02  0.51100000000E-03 0.  1.
         11   -1    0    0    0    0 -0.00000000000E+00 -0.00000000000E+00 -0.45593999997E+02  0.45594000000E+02  0.51100000000E-03 0. -1.
    9900012    2    1    2    0    0  0.22017498989E+02 -0.11538730441E+01  0.34162314122E+02  0.50528863377E+02  0.30000010721E+02 0.  0.
         12    1    1    2    0    0 -0.22017498989E+02  0.11538730441E+01 -0.34162314122E+02  0.40659136623E+02  0.00000000000E+00 0. -1.
         11    1    3    3    0    0  0.27228248115E+01  0.22624155122E+01  0.31211216390E+01  0.47195020341E+01  0.51100000000E-03 0. -1.
        -11    1    3    3    0    0  0.12139384166E+02  0.11669632381E+02  0.17768317109E+02  0.24479747976E+02  0.51100000000E-03 0.  1.
         12    1    3    3    0    0  0.71552900121E+01 -0.15085920937E+02  0.13272875374E+02  0.21329613367E+02  0.00000000000E+00 0. -1.
</event>
<event>
 7    1  0.2661323E-011  0.5052889E+02  0.7816164E-02  0.1300439E+00
        -11   -1    0    0    0    0  0.00000000000E+00  0.00000000000E+00  0.45593999997E+02  0.45594000000E+02  0.51100000000E-03 0.  1.
         11   -1    0    0    0    0 -0.00000000000E+00 -0.00000000000E+00 -0.45593999997E+02  0.45594000000E+02  0.51100000000E-03 0. -1.
    9900012    2    1    2    0    0 -0.26274910639E+02  0.49844998164E+01  0.30625924611E+02  0.50528887543E+02  0.30000084176E+02 0.  0.
         12    1    1    2    0    0  0.26274910639E+02 -0.49844998164E+01 -0.30625924611E+02  0.40659112457E+02  0.00000000000E+00 0. -1.
         11    1    3    3    0    0  0.49863363671E+01 -0.11372094794E+01  0.12018100116E+02  0.13061069115E+02  0.51100000000E-03 0.  1.
        -11    1    3    3    0    0 -0.37784811091E+01 -0.13634707411E+01  0.27381671292E+01  0.48614330647E+01  0.51100000000E-03 0. -1.
         12    1    3    3    0    0 -0.27482765897E+02  0.74851800369E+01  0.15869657365E+02  0.32606385363E+02  0.00000000000E+00 0. -1.
</event>
<event>
 7    1  0.2661323E-011  0.5052886E+02  0.7816164E-02  0.1300439E+00
        -11   -1    0    0    0    0  0.00000000000E+00  0.00000000000E+00  0.45593999997E+02  0.45594000000E+02  0.51100000000E-03 0.  1.
         11   -1    0    0    0    0 -0.00000000000E+00 -0.00000000000E+00 -0.45593999997E+02  0.45594000000E+02  0.51100000000E-03 0. -1.
    9900012    2    1    2    0    0  0.98653310122E+01  0.37368971910E+02  0.12625399904E+02  0.50528861540E+02  0.30000005137E+02 0.  0.
         12    1    1    2    0    0 -0.98653310122E+01 -0.37368971910E+02 -0.12625399904E+02  0.40659138460E+02  0.00000000000E+00 0. -1.
         11    1    3    3    0    0 -0.33687060325E+00  0.15145104088E+02  0.79087143609E+01  0.17089043939E+02  0.51100000000E-03 0.  1.
        -11    1    3    3    0    0 -0.26770097330E+01  0.17690041042E+02  0.76765177336E+01  0.19468766215E+02  0.51100000000E-03 0. -1.
        -12    1    3    3    0    0  0.12879211348E+02  0.45338267799E+01 -0.29598321910E+01  0.13971051386E+02  0.00000000000E+00 0.  1.
</event>
<event>
 7    1  0.2661323E-011  0.5052887E+02  0.7816164E-02  0.1300439E+00
        -11   -1    0    0    0    0  0.00000000000E+00  0.00000000000E+00  0.45593999997E+02  0.45594000000E+02  0.51100000000E-03 0. -1.
         11   -1    0    0    0    0 -0.00000000000E+00 -0.00000000000E+00 -0.45593999997E+02  0.45594000000E+02  0.51100000000E-03 0.  1.
    9900012    2    1    2    0    0  0.11124453590E+02  0.39031507161E+02 -0.24398125671E+01  0.50528871821E+02  0.30000036388E+02 0.  0.
         12    1    1    2    0    0 -0.11124453590E+02 -0.39031507161E+02  0.24398125671E+01  0.40659128179E+02  0.00000000000E+00 0. -1.
         11    1    3    3    0    0  0.59903044068E+01  0.16072002356E+02  0.45332972777E+01  0.17741020012E+02  0.51100000000E-03 0. -1.
        -11    1    3    3    0    0  0.65672363372E+01  0.22959027332E+02  0.17537321299E+01  0.23944124661E+02  0.51100000000E-03 0.  1.
         12    1    3    3    0    0 -0.14330871545E+01  0.47747322105E-03 -0.87268419747E+01  0.88437271482E+01  0.00000000000E+00 0. -1.
</event>
<event>
 7    1  0.2661323E-011  0.5052885E+02  0.7816164E-02  0.1300439E+00
        -11   -1    0    0    0    0  0.00000000000E+00  0.00000000000E+00  0.45593999997E+02  0.45594000000E+02  0.51100000000E-03 0.  1.
         11   -1    0    0    0    0 -0.00000000000E+00 -0.00000000000E+00 -0.45593999997E+02  0.45594000000E+02  0.51100000000E-03 0. -1.
    9900012    2    1    2    0    0 -0.11020469243E+02 -0.14521909638E+02  0.36343218070E+02  0.50528854639E+02  0.29999984160E+02 0.  0.
         12    1    1    2    0    0  0.11020469243E+02  0.14521909638E+02 -0.36343218070E+02  0.40659145361E+02  0.00000000000E+00 0. -1.
         11    1    3    3    0    0 -0.50755822854E+01 -0.35402621832E+01  0.15111064422E+01  0.63701204700E+01  0.51100000000E-03 0. -1.
        -11    1    3    3    0    0 -0.73423254595E+01 -0.64337697222E+01  0.37468489213E+02  0.38719385586E+02  0.51100000000E-03 0.  1.
         12    1    3    3    0    0  0.13974385020E+01 -0.45478777323E+01 -0.26363775852E+01  0.54393485829E+01  0.00000000000E+00 0. -1.
</event>
<event>
 7    1  0.2661323E-011  0.5052883E+02  0.7816164E-02  0.1300439E+00
        -11   -1    0    0    0    0  0.00000000000E+00  0.00000000000E+00  0.45593999997E+02  0.45594000000E+02  0.51100000000E-03 0.  1.
         11   -1    0    0    0    0 -0.00000000000E+00 -0.00000000000E+00 -0.45593999997E+02  0.45594000000E+02  0.51100000000E-03 0. -1.
    9900012    2    1    2    0    0  0.27454675382E+02  0.18419779900E+01  0.29933526343E+02  0.50528830277E+02  0.29999910109E+02 0.  0.
         12    1    1    2    0    0 -0.27454675382E+02 -0.18419779900E+01 -0.29933526343E+02  0.40659169723E+02  0.00000000000E+00 0. -1.
         11    1    3    3    0    0  0.11317043066E+00  0.46803362643E+01  0.88147242487E+01  0.99808676444E+01  0.51100000000E-03 0.  1.
        -11    1    3    3    0    0  0.12233232065E+01  0.36719712622E+01 -0.26072392785E+01  0.46666464977E+01  0.51100000000E-03 0. -1.
        -12    1    3    3    0    0  0.26118181745E+02 -0.65103295364E+01  0.23726041373E+02  0.35881316135E+02  0.00000000000E+00 0.  1.
</event>
<event>
 7    1  0.2661323E-011  0.5052886E+02  0.7816164E-02  0.1300439E+00
        -11   -1    0    0    0    0  0.00000000000E+00  0.00000000000E+00  0.45593999997E+02  0.45594000000E+02  0.51100000000E-03 0.  1.
         11   -1    0    0    0    0 -0.00000000000E+00 -0.00000000000E+00 -0.45593999997E+02  0.45594000000E+02  0.51100000000E-03 0. -1.
    9900012    2    1    2    0    0  0.27693258816E+02  0.88447466765E+00  0.29756792209E+02  0.50528861275E+02  0.30000004331E+02 0.  0.
         12    1    1    2    0    0 -0.27693258816E+02 -0.88447466765E+00 -0.29756792209E+02  0.40659138725E+02  0.00000000000E+00 0. -1.
         11    1    3    3    0    0  0.59779144267E+01  0.54167559336E+01  0.12087452654E+01  0.81570687820E+01  0.51100000000E-03 0. -1.
        -11    1    3    3    0    0  0.15519165474E+01 -0.87177729107E+01  0.25674901381E+01  0.92195452905E+01  0.51100000000E-03 0.  1.
        -12    1    3    3    0    0  0.20163427842E+02  0.41854916448E+01  0.25980556805E+02  0.33152247202E+02  0.00000000000E+00 0.  1.
</event>
<event>
 7    1  0.2661323E-011  0.5052885E+02  0.7816164E-02  0.1300439E+00
        -11   -1    0    0    0    0  0.00000000000E+00  0.00000000000E+00  0.45593999997E+02  0.45594000000E+02  0.51100000000E-03 0. -1.
         11   -1    0    0    0    0 -0.00000000000E+00 -0.00000000000E+00 -0.45593999997E+02  0.45594000000E+02  0.51100000000E-03 0.  1.
    9900012    2    1    2    0    0 -0.39586075376E+02  0.92773909692E+01  0.19726233456E+00  0.50528852698E+02  0.29999978261E+02 0.  0.
         12    1    1    2    0    0  0.39586075376E+02 -0.92773909692E+01 -0.19726233456E+00  0.40659147302E+02  0.00000000000E+00 0. -1.
         11    1    3    3    0    0 -0.17722738296E+02  0.16584690469E+01 -0.98839600751E+00  0.17827588149E+02  0.51100000000E-03 0. -1.
        -11    1    3    3    0    0 -0.24617082652E+02  0.17713996060E+01 -0.32043688427E+01  0.24887880480E+02  0.51100000000E-03 0.  1.
         12    1    3    3    0    0  0.27537455722E+01  0.58475223163E+01  0.43900271847E+01  0.78133840683E+01  0.00000000000E+00 0. -1.
</event>
<event>
 7    1  0.2661323E-011  0.5052887E+02  0.7816164E-02  0.1300439E+00
        -11   -1    0    0    0    0  0.00000000000E+00  0.00000000000E+00  0.45593999997E+02  0.45594000000E+02  0.51100000000E-03 0.  1.
         11   -1    0    0    0    0 -0.00000000000E+00 -0.00000000000E+00 -0.45593999997E+02  0.45594000000E+02  0.51100000000E-03 0. -1.
    9900012    2    1    2    0    0 -0.54214258638E-01  0.33752015405E+02 -0.22670767078E+02  0.50528866180E+02  0.30000019241E+02 0.  0.
         12    1    1    2    0    0  0.54214258638E-01 -0.33752015405E+02  0.22670767078E+02  0.40659133820E+02  0.00000000000E+00 0. -1.
         11    1    3    3    0    0 -0.83066724856E+01  0.48816852945E+01 -0.99570270997E+01  0.13855469968E+02  0.51100000000E-03 0. -1.
        -11    1    3    3    0    0  0.73985032802E+01  0.86580302994E+01 -0.11834139264E+02  0.16423951773E+02  0.51100000000E-03 0.  1.
        -12    1    3    3    0    0  0.85395494683E+00  0.20212299811E+02 -0.87960071417E+00  0.20249444440E+02  0.00000000000E+00 0.  1.
</event>
<event>
 7    1  0.2661323E-011  0.5052886E+02  0.7816164E-02  0.1300439E+00
        -11   -1    0    0    0    0  0.00000000000E+00  0.00000000000E+00  0.45593999997E+02  0.45594000000E+02  0.51100000000E-03 0.  1.
         11   -1    0    0    0    0 -0.00000000000E+00 -0.00000000000E+00 -0.45593999997E+02  0.45594000000E+02  0.51100000000E-03 0. -1.
    9900012    2    1    2    0    0  0.35421809955E+02 -0.68051437577E+01  0.18765696998E+02  0.50528856061E+02  0.29999988482E+02 0.  0.
         12    1    1    2    0    0 -0.35421809955E+02  0.68051437577E+01 -0.18765696998E+02  0.40659143939E+02  0.00000000000E+00 0. -1.
         11    1    3    3    0    0  0.95656142173E+01 -0.50058275746E+01  0.23251222385E+00  0.10798766006E+02  0.51100000000E-03 0. -1.
        -11    1    3    3    0    0  0.79022850080E+01 -0.12061257738E+02  0.66462592302E+01  0.15877430793E+02  0.51100000000E-03 0.  1.
        -12    1    3    3    0    0  0.17953910730E+02  0.10261941554E+02  0.11886925544E+02  0.23852659262E+02  0.00000000000E+00 0.  1.
</event>
<event>
 7    1  0.2661323E-011  0.5052886E+02  0.7816164E-02  0.1300439E+00
        -11   -1    0    0    0    0  0.00000000000E+00  0.00000000000E+00  0.45593999997E+02  0.45594000000E+02  0.51100000000E-03 0. -1.
         11   -1    0    0    0    0 -0.00000000000E+00 -0.00000000000E+00 -0.45593999997E+02  0.45594000000E+02  0.51100000000E-03 0.  1.
    9900012    2    1    2    0    0 -0.20998394115E+02  0.17645111605E+02 -0.30014713914E+02  0.50528861171E+02  0.30000004016E+02 0.  0.
         12    1    1    2    0    0  0.20998394115E+02 -0.17645111605E+02  0.30014713914E+02  0.40659138829E+02  0.00000000000E+00 0. -1.
         11    1    3    3    0    0  0.14136368372E+01  0.10095967818E+02 -0.81537366876E+01  0.13054131818E+02  0.51100000000E-03 0. -1.
        -11    1    3    3    0    0 -0.15430239253E+02  0.12805705914E+02 -0.91296178437E+01  0.22032437668E+02  0.51100000000E-03 0.  1.
        -12    1    3    3    0    0 -0.69817917000E+01 -0.52565621280E+01 -0.12731359383E+02  0.15442291685E+02  0.00000000000E+00 0.  1.
</event>
<event>
 7    1  0.2661323E-011  0.5052886E+02  0.7816164E-02  0.1300439E+00
        -11   -1    0    0    0    0  0.00000000000E+00  0.00000000000E+00  0.45593999997E+02  0.45594000000E+02  0.51100000000E-03 0.  1.
         11   -1    0    0    0    0 -0.00000000000E+00 -0.00000000000E+00 -0.45593999997E+02  0.45594000000E+02  0.51100000000E-03 0. -1.
    9900012    2    1    2    0    0  0.14160779139E+02 -0.57358393670E+01  0.37679410687E+02  0.50528861928E+02  0.30000006315E+02 0.  0.
         12    1    1    2    0    0 -0.14160779139E+02  0.57358393670E+01 -0.37679410687E+02  0.40659138072E+02  0.00000000000E+00 0. -1.
         11    1    3    3    0    0  0.41441620011E+01 -0.12365599475E+01 -0.25816687888E+01  0.50366827567E+01  0.51100000000E-03 0. -1.
        -11    1    3    3    0    0  0.60294575463E+01  0.26407267413E+01  0.35340142035E+02  0.35947926718E+02  0.51100000000E-03 0.  1.
         12    1    3    3    0    0  0.39871595915E+01 -0.71400061608E+01  0.49209374409E+01  0.95442524527E+01  0.00000000000E+00 0. -1.
</event>
<event>
 7    1  0.2661323E-011  0.5052886E+02  0.7816164E-02  0.1300439E+00
        -11   -1    0    0    0    0  0.00000000000E+00  0.00000000000E+00  0.45593999997E+02  0.45594000000E+02  0.51100000000E-03 0.  1.
         11   -1    0    0    0    0 -0.00000000000E+00 -0.00000000000E+00 -0.45593999997E+02  0.45594000000E+02  0.51100000000E-03 0. -1.
    9900012    2    1    2    0    0 -0.11665665538E+01 -0.12973545445E+02  0.38516128701E+02  0.50528856760E+02  0.29999990607E+02 0.  0.
         12    1    1    2    0    0  0.11665665538E+01  0.12973545445E+02 -0.38516128701E+02  0.40659143240E+02  0.00000000000E+00 0. -1.
         11    1    3    3    0    0 -0.65645785816E+01  0.41348304257E+01  0.73578982276E+01  0.10692482462E+02  0.51100000000E-03 0. -1.
        -11    1    3    3    0    0 -0.42058577186E+01 -0.10014094543E+01  0.13128818413E+02  0.13822370752E+02  0.51100000000E-03 0.  1.
        -12    1    3    3    0    0  0.96038697463E+01 -0.16106966416E+02  0.18029412061E+02  0.26014003546E+02  0.00000000000E+00 0.  1.
</event>
<event>
 7    1  0.2661323E-011  0.5052885E+02  0.7816164E-02  0.1300439E+00
        -11   -1    0    0    0    0  0.00000000000E+00  0.00000000000E+00  0.45593999997E+02  0.45594000000E+02  0.51100000000E-03 0.  1.
         11   -1    0    0    0    0 -0.00000000000E+00 -0.00000000000E+00 -0.45593999997E+02  0.45594000000E+02  0.51100000000E-03 0. -1.
    9900012    2    1    2    0    0 -0.39653756924E+02 -0.45322893675E-01  0.89857856026E+01  0.50528845616E+02  0.29999956735E+02 0.  0.
         12    1    1    2    0    0  0.39653756924E+02  0.45322893675E-01 -0.89857856026E+01  0.40659154384E+02  0.00000000000E+00 0. -1.
         11    1    3    3    0    0 -0.98727905534E+01 -0.80917751946E+01  0.25856010806E+01  0.13024367636E+02  0.51100000000E-03 0.  1.
        -11    1    3    3    0    0 -0.17149922822E+02 -0.31579222071E+01 -0.37045732942E+01  0.17827399951E+02  0.51100000000E-03 0. -1.
        -12    1    3    3    0    0 -0.12631043548E+02  0.11204374508E+02  0.10104757816E+02  0.19677078029E+02  0.00000000000E+00 0.  1.
</event>
<event>
 7    1  0.2661323E-011  0.5052885E+02  0.7816164E-02  0.1300439E+00
        -11   -1    0    0    0    0  0.00000000000E+00  0.00000000000E+00  0.45593999997E+02  0.45594000000E+02  0.51100000000E-03 0.  1.
         11   -1    0    0    0    0 -0.00000000000E+00 -0.00000000000E+00 -0.45593999997E+02  0.45594000000E+02  0.51100000000E-03 0. -1.
    9900012    2    1    2    0    0  0.44302514399E+01 -0.19696093967E+02  0.35293103518E+02  0.50528850952E+02  0.29999972953E+02 0.  0.
         12    1    1    2    0    0 -0.44302514399E+01  0.19696093967E+02 -0.35293103518E+02  0.40659149048E+02  0.00000000000E+00 0. -1.
         11    1    3    3    0    0  0.33968977479E+01  0.54506169794E+00  0.26658611986E+00  0.34506629776E+01  0.51100000000E-03 0. -1.
        -11    1    3    3    0    0  0.11435637171E+02 -0.53954841644E+01  0.97184990472E+01  0.15947861013E+02  0.51100000000E-03 0.  1.
         12    1    3    3    0    0 -0.10402283479E+02 -0.14845671501E+02  0.25308018351E+02  0.31130326962E+02  0.00000000000E+00 0. -1.
</event>
<event>
 7    1  0.2661323E-011  0.5052886E+02  0.7816164E-02  0.1300439E+00
        -11   -1    0    0    0    0  0.00000000000E+00  0.00000000000E+00  0.45593999997E+02  0.45594000000E+02  0.51100000000E-03 0. -1.
         11   -1    0    0    0    0 -0.00000000000E+00 -0.00000000000E+00 -0.45593999997E+02  0.45594000000E+02  0.51100000000E-03 0.  1.
    9900012    2    1    2    0    0  0.32608138231E+01  0.27950671840E+02 -0.29347793053E+02  0.50528856869E+02  0.29999990938E+02 0.  0.
         12    1    1    2    0    0 -0.32608138231E+01 -0.27950671840E+02  0.29347793053E+02  0.40659143131E+02  0.00000000000E+00 0. -1.
         11    1    3    3    0    0 -0.68342531136E+01  0.12304060047E+01  0.10995813508E+01  0.70306467672E+01  0.51100000000E-03 0.  1.
        -11    1    3    3    0    0 -0.20636182469E+00  0.69119432839E+01 -0.17399438226E+01  0.71305644889E+01  0.51100000000E-03 0. -1.
        -12    1    3    3    0    0  0.10301428761E+02  0.19808322552E+02 -0.28707430581E+02  0.36367645613E+02  0.00000000000E+00 0.  1.
</event>
<event>
 7    1  0.2661323E-011  0.5052885E+02  0.7816164E-02  0.1300439E+00
        -11   -1    0    0    0    0  0.00000000000E+00  0.00000000000E+00  0.45593999997E+02  0.45594000000E+02  0.51100000000E-03 0. -1.
         11   -1    0    0    0    0 -0.00000000000E+00 -0.00000000000E+00 -0.45593999997E+02  0.45594000000E+02  0.51100000000E-03 0.  1.
    9900012    2    1    2    0    0 -0.27531612561E+02  0.25580044571E+02 -0.15518967878E+02  0.50528846855E+02  0.29999960500E+02 0.  0.
         12    1    1    2    0    0  0.27531612561E+02 -0.25580044571E+02  0.15518967878E+02  0.40659153145E+02  0.00000000000E+00 0. -1.
         11    1    3    3    0    0 -0.12071801172E+01  0.91947287046E+01 -0.44468378329E+01  0.10284682142E+02  0.51100000000E-03 0. -1.
        -11    1    3    3    0    0 -0.16060191535E+02  0.21047847802E+02 -0.35995412599E+01  0.26718876227E+02  0.51100000000E-03 0.  1.
         12    1    3    3    0    0 -0.10264240909E+02 -0.46625319358E+01 -0.74725887854E+01  0.13525288486E+02  0.00000000000E+00 0. -1.
</event>
<event>
 7    1  0.2661323E-011  0.5052885E+02  0.7816164E-02  0.1300439E+00
        -11   -1    0    0    0    0  0.00000000000E+00  0.00000000000E+00  0.45593999997E+02  0.45594000000E+02  0.51100000000E-03 0. -1.
         11   -1    0    0    0    0 -0.00000000000E+00 -0.00000000000E+00 -0.45593999997E+02  0.45594000000E+02  0.51100000000E-03 0.  1.
    9900012    2    1    2    0    0  0.27229261455E+02 -0.30177197270E+02  0.10345945950E+01  0.50528852193E+02  0.29999976725E+02 0.  0.
         12    1    1    2    0    0 -0.27229261455E+02  0.30177197270E+02 -0.10345945950E+01  0.40659147807E+02  0.00000000000E+00 0. -1.
         11    1    3    3    0    0  0.20447655955E+02 -0.24620220517E+02  0.58967504254E+01  0.32542795796E+02  0.51100000000E-03 0. -1.
        -11    1    3    3    0    0  0.99385165932E+01 -0.83967594134E+01 -0.30153540520E+01  0.13355599614E+02  0.51100000000E-03 0.  1.
         12    1    3    3    0    0 -0.31569110934E+01  0.28397826608E+01 -0.18468017785E+01  0.46304567833E+01  0.00000000000E+00 0. -1.
</event>
<event>
 7    1  0.2661323E-011  0.5052885E+02  0.7816164E-02  0.1300439E+00
        -11   -1    0    0    0    0  0.00000000000E+00  0.00000000000E+00  0.45593999997E+02  0.45594000000E+02  0.51100000000E-03 0.  1.
         11   -1    0    0    0    0 -0.00000000000E+00 -0.00000000000E+00 -0.45593999997E+02  0.45594000000E+02  0.51100000000E-03 0. -1.
    9900012    2    1    2    0    0 -0.12754656486E+00  0.33717532085E+02  0.22721750591E+02  0.50528853575E+02  0.29999980928E+02 0.  0.
         12    1    1    2    0    0  0.12754656486E+00 -0.33717532085E+02 -0.22721750591E+02  0.40659146425E+02  0.00000000000E+00 0. -1.
         11    1    3    3    0    0  0.11993944244E+01  0.20256924670E+02  0.85640193796E+01  0.22025530011E+02  0.51100000000E-03 0. -1.
        -11    1    3    3    0    0  0.24176829300E+01  0.17733403871E+02  0.66606760825E+01  0.19096685831E+02  0.51100000000E-03 0.  1.
         12    1    3    3    0    0 -0.37446239193E+01 -0.42727964552E+01  0.74970551290E+01  0.94066377336E+01  0.00000000000E+00 0. -1.
</event>
<event>
 7    1  0.2661323E-011  0.5052885E+02  0.7816164E-02  0.1300439E+00
        -11   -1    0    0    0    0  0.00000000000E+00  0.00000000000E+00  0.45593999997E+02  0.45594000000E+02  0.51100000000E-03 0. -1.
         11   -1    0    0    0    0 -0.00000000000E+00 -0.00000000000E+00 -0.45593999997E+02  0.45594000000E+02  0.51100000000E-03 0.  1.
    9900012    2    1    2    0    0 -0.34522244617E+02  0.12022690785E+02 -0.17799890025E+02  0.50528849099E+02  0.29999967320E+02 0.  0.
         12    1    1    2    0    0  0.34522244617E+02 -0.12022690785E+02  0.17799890025E+02  0.40659150901E+02  0.00000000000E+00 0. -1.
         11    1    3    3    0    0 -0.91900045174E+01  0.11453346444E+02 -0.13568434786E+01  0.14747079449E+02  0.51100000000E-03 0.  1.
        -11    1    3    3    0    0 -0.10495497017E+01  0.60729323805E+01 -0.65393803203E+01  0.89858531876E+01  0.51100000000E-03 0. -1.
        -12    1    3    3    0    0 -0.24282690398E+02 -0.55035880401E+01 -0.99036662263E+01  0.26795916462E+02  0.00000000000E+00 0.  1.
</event>
<event>
 7    1  0.2661323E-011  0.5052884E+02  0.7816164E-02  0.1300439E+00
        -11   -1    0    0    0    0  0.00000000000E+00  0.00000000000E+00  0.45593999997E+02  0.45594000000E+02  0.51100000000E-03 0.  1.
         11   -1    0    0    0    0 -0.00000000000E+00 -0.00000000000E+00 -0.45593999997E+02  0.45594000000E+02  0.51100000000E-03 0. -1.
    9900012    2    1    2    0    0  0.37204085382E+02  0.86204148575E+01  0.13953930207E+02  0.50528835109E+02  0.29999924798E+02 0.  0.
         12    1    1    2    0    0 -0.37204085382E+02 -0.86204148575E+01 -0.13953930207E+02  0.40659164891E+02  0.00000000000E+00 0. -1.
         11    1    3    3    0    0  0.19319581275E+01  0.75631335003E+01  0.62590505744E+01  0.10005456756E+02  0.51100000000E-03 0. -1.
        -11    1    3    3    0    0  0.15781262770E+01 -0.31051821845E+01  0.54899617218E+01  0.65017166127E+01  0.51100000000E-03 0.  1.
        -12    1    3    3    0    0  0.33694000977E+02  0.41624635416E+01  0.22049179105E+01  0.34021661740E+02  0.00000000000E+00 0.  1.
</event>
<event>
 7    1  0.2661323E-011  0.5052886E+02  0.7816164E-02  0.1300439E+00
        -11   -1    0    0    0    0  0.00000000000E+00  0.00000000000E+00  0.45593999997E+02  0.45594000000E+02  0.51100000000E-03 0. -1.
         11   -1    0    0    0    0 -0.00000000000E+00 -0.00000000000E+00 -0.45593999997E+02  0.45594000000E+02  0.51100000000E-03 0.  1.
    9900012    2    1    2    0    0  0.24416501183E+02 -0.87731630146E+00 -0.32499698475E+02  0.50528860623E+02  0.30000002349E+02 0.  0.
         12    1    1    2    0    0 -0.24416501183E+02  0.87731630146E+00  0.32499698475E+02  0.40659139377E+02  0.00000000000E+00 0. -1.
         11    1    3    3    0    0  0.96592691400E+01 -0.11684023122E+02 -0.20672928776E+02  0.25635675554E+02  0.51100000000E-03 0.  1.
        -11    1    3    3    0    0 -0.13282174572E+01 -0.50526582212E+00 -0.30377334826E+01  0.33536964885E+01  0.51100000000E-03 0. -1.
        -12    1    3    3    0    0  0.16085449501E+02  0.11311972643E+02 -0.87890362159E+01  0.21539488581E+02  0.00000000000E+00 0.  1.
</event>
<event>
 7    1  0.2661323E-011  0.5052886E+02  0.7816164E-02  0.1300439E+00
        -11   -1    0    0    0    0  0.00000000000E+00  0.00000000000E+00  0.45593999997E+02  0.45594000000E+02  0.51100000000E-03 0.  1.
         11   -1    0    0    0    0 -0.00000000000E+00 -0.00000000000E+00 -0.45593999997E+02  0.45594000000E+02  0.51100000000E-03 0. -1.
    9900012    2    1    2    0    0  0.44223182356E+00  0.33521850315E+02  0.23005562567E+02  0.50528856790E+02  0.29999990698E+02 0.  0.
         12    1    1    2    0    0 -0.44223182356E+00 -0.33521850315E+02 -0.23005562567E+02  0.40659143210E+02  0.00000000000E+00 0. -1.
         11    1    3    3    0    0  0.35765010532E+01 -0.28729426506E+01 -0.21070598585E+01  0.50482532391E+01  0.51100000000E-03 0. -1.
        -11    1    3    3    0    0 -0.10421429170E+01  0.19066200682E+02  0.70285702493E+01  0.20347158777E+02  0.51100000000E-03 0.  1.
        -12    1    3    3    0    0 -0.20921263126E+01  0.17328592284E+02  0.18084052177E+02  0.25133444774E+02  0.00000000000E+00 0.  1.
</event>
<event>
 7    1  0.2661323E-011  0.5052885E+02  0.7816164E-02  0.1300439E+00
        -11   -1    0    0    0    0  0.00000000000E+00  0.00000000000E+00  0.45593999997E+02  0.45594000000E+02  0.51100000000E-03 0.  1.
         11   -1    0    0    0    0 -0.00000000000E+00 -0.00000000000E+00 -0.45593999997E+02  0.45594000000E+02  0.51100000000E-03 0. -1.
    9900012    2    1    2    0    0  0.57560530331E+01 -0.35422784989E+01  0.40093474755E+02  0.50528848491E+02  0.29999965474E+02 0.  0.
         12    1    1    2    0    0 -0.57560530331E+01  0.35422784989E+01 -0.40093474755E+02  0.40659151509E+02  0.00000000000E+00 0. -1.
         11    1    3    3    0    0  0.63579913234E+01 -0.80218150672E+01  0.25212806200E+02  0.27211379373E+02  0.51100000000E-03 0.  1.
        -11    1    3    3    0    0 -0.45299291384E+01 -0.55063204076E+01  0.48067904970E+01  0.85991312104E+01  0.51100000000E-03 0. -1.
         12    1    3    3    0    0  0.39279908481E+01  0.99858569758E+01  0.10073878058E+02  0.14718337908E+02  0.00000000000E+00 0. -1.
</event>
<event>
 7    1  0.2661323E-011  0.5052885E+02  0.7816164E-02  0.1300439E+00
        -11   -1    0    0    0    0  0.00000000000E+00  0.00000000000E+00  0.45593999997E+02  0.45594000000E+02  0.51100000000E-03 0.  1.
         11   -1    0    0    0    0 -0.00000000000E+00 -0.00000000000E+00 -0.45593999997E+02  0.45594000000E+02  0.51100000000E-03 0. -1.
    9900012    2    1    2    0    0  0.26311737690E+02  0.19196677414E+02  0.24338164396E+02  0.50528853302E+02  0.29999980098E+02 0.  0.
         12    1    1    2    0    0 -0.26311737690E+02 -0.19196677414E+02 -0.24338164396E+02  0.40659146698E+02  0.00000000000E+00 0. -1.
         11    1    3    3    0    0  0.49633118940E+01  0.77759151388E+00 -0.41498637353E+01  0.65161708697E+01  0.51100000000E-03 0. -1.
        -11    1    3    3    0    0  0.78964956649E+01 -0.30721974992E+00  0.74266940081E+00  0.79372908389E+01  0.51100000000E-03 0.  1.
        -12    1    3    3    0    0  0.13451930131E+02  0.18726305650E+02  0.27745358731E+02  0.36075391594E+02  0.00000000000E+00 0.  1.
</event>
<event>
 7    1  0.2661323E-011  0.5052885E+02  0.7816164E-02  0.1300439E+00
        -11   -1    0    0    0    0  0.00000000000E+00  0.00000000000E+00  0.45593999997E+02  0.45594000000E+02  0.51100000000E-03 0.  1.
         11   -1    0    0    0    0 -0.00000000000E+00 -0.00000000000E+00 -0.45593999997E+02  0.45594000000E+02  0.51100000000E-03 0. -1.
    9900012    2    1    2    0    0 -0.13940403824E+02  0.31669751920E+02  0.21350839473E+02  0.50528851071E+02  0.29999973316E+02 0.  0.
         12    1    1    2    0    0  0.13940403824E+02 -0.31669751920E+02 -0.21350839473E+02  0.40659148929E+02  0.00000000000E+00 0. -1.
         11    1    3    3    0    0  0.41474460983E+01  0.20184265591E+02  0.18081854270E+02  0.27414582628E+02  0.51100000000E-03 0. -1.
        -11    1    3    3    0    0 -0.97059782159E+01  0.29823756007E+01  0.45095428032E+01  0.11110200444E+02  0.51100000000E-03 0.  1.
        -12    1    3    3    0    0 -0.83818717069E+01  0.85031107278E+01 -0.12405576004E+01  0.12004067999E+02  0.00000000000E+00 0.  1.
</event>
<event>
 7    1  0.2661323E-011  0.5052885E+02  0.7816164E-02  0.1300439E+00
        -11   -1    0    0    0    0  0.00000000000E+00  0.00000000000E+00  0.45593999997E+02  0.45594000000E+02  0.51100000000E-03 0.  1.
         11   -1    0    0    0    0 -0.00000000000E+00 -0.00000000000E+00 -0.45593999997E+02  0.45594000000E+02  0.51100000000E-03 0. -1.
    9900012    2    1    2    0    0 -0.22837339557E+02  0.15852233892E+02  0.29670339059E+02  0.50528850755E+02  0.29999972355E+02 0.  0.
         12    1    1    2    0    0  0.22837339557E+02 -0.15852233892E+02 -0.29670339059E+02  0.40659149245E+02  0.00000000000E+00 0. -1.
         11    1    3    3    0    0 -0.54218125383E+00  0.12107279627E+02  0.13599285973E+02  0.18215947950E+02  0.51100000000E-03 0. -1.
        -11    1    3    3    0    0 -0.39523180281E+01  0.76481642735E+01  0.19230588769E+01  0.88211898435E+01  0.51100000000E-03 0.  1.
        -12    1    3    3    0    0 -0.18342840275E+02 -0.39032100080E+01  0.14147994209E+02  0.23491712962E+02  0.00000000000E+00 0.  1.
</event>
<event>
 7    1  0.2661323E-011  0.5052885E+02  0.7816164E-02  0.1300439E+00
        -11   -1    0    0    0    0  0.00000000000E+00  0.00000000000E+00  0.45593999997E+02  0.45594000000E+02  0.51100000000E-03 0.  1.
         11   -1    0    0    0    0 -0.00000000000E+00 -0.00000000000E+00 -0.45593999997E+02  0.45594000000E+02  0.51100000000E-03 0. -1.
    9900012    2    1    2    0    0 -0.26042055016E+01  0.93955197386E+01  0.39472887424E+02  0.50528849504E+02  0.29999968552E+02 0.  0.
         12    1    1    2    0    0  0.26042055016E+01 -0.93955197386E+01 -0.39472887424E+02  0.40659150496E+02  0.00000000000E+00 0. -1.
         11    1    3    3    0    0 -0.90552261706E+01  0.62764557461E+01  0.85763429075E+01  0.13962258974E+02  0.51100000000E-03 0.  1.
        -11    1    3    3    0    0  0.70083540634E+01  0.60110879421E+01  0.49940263791E+01  0.10497166506E+02  0.51100000000E-03 0. -1.
         12    1    3    3    0    0 -0.55733339447E+00 -0.28920239495E+01  0.25902518138E+02  0.26069424023E+02  0.00000000000E+00 0. -1.
</event>
<event>
 7    1  0.2661323E-011  0.5052887E+02  0.7816164E-02  0.1300439E+00
        -11   -1    0    0    0    0  0.00000000000E+00  0.00000000000E+00  0.45593999997E+02  0.45594000000E+02  0.51100000000E-03 0. -1.
         11   -1    0    0    0    0 -0.00000000000E+00 -0.00000000000E+00 -0.45593999997E+02  0.45594000000E+02  0.51100000000E-03 0.  1.
    9900012    2    1    2    0    0 -0.64794633466E+01  0.29632586541E+02 -0.27075660649E+02  0.50528867816E+02  0.30000024213E+02 0.  0.
         12    1    1    2    0    0  0.64794633466E+01 -0.29632586541E+02  0.27075660649E+02  0.40659132184E+02  0.00000000000E+00 0. -1.
         11    1    3    3    0    0 -0.12195086978E+02  0.11688694319E+02 -0.66829068035E+01  0.18166093826E+02  0.51100000000E-03 0. -1.
        -11    1    3    3    0    0 -0.20627383887E+01  0.13742675813E+02 -0.53029376997E+01  0.14874043723E+02  0.51100000000E-03 0.  1.
         12    1    3    3    0    0  0.77783620200E+01  0.42012164092E+01 -0.15089816146E+02  0.17488730267E+02  0.00000000000E+00 0. -1.
</event>
<event>
 7    1  0.2661323E-011  0.5052887E+02  0.7816164E-02  0.1300439E+00
        -11   -1    0    0    0    0  0.00000000000E+00  0.00000000000E+00  0.45593999997E+02  0.45594000000E+02  0.51100000000E-03 0.  1.
         11   -1    0    0    0    0 -0.00000000000E+00 -0.00000000000E+00 -0.45593999997E+02  0.45594000000E+02  0.51100000000E-03 0. -1.
    9900012    2    1    2    0    0  0.30363469535E+02 -0.91101810436E+01  0.25460350314E+02  0.50528866722E+02  0.30000020887E+02 0.  0.
         12    1    1    2    0    0 -0.30363469535E+02  0.91101810436E+01 -0.25460350314E+02  0.40659133278E+02  0.00000000000E+00 0. -1.
         11    1    3    3    0    0  0.57754390528E+01 -0.20311026672E+01  0.13573025605E+02  0.14889865635E+02  0.51100000000E-03 0. -1.
        -11    1    3    3    0    0  0.20576675247E+02  0.67194970354E+00  0.15919914324E+02  0.26024887185E+02  0.51100000000E-03 0.  1.
         12    1    3    3    0    0  0.40113552346E+01 -0.77510280800E+01 -0.40325896151E+01  0.96141139019E+01  0.00000000000E+00 0. -1.
</event>
<event>
 7    1  0.2661323E-011  0.5052886E+02  0.7816164E-02  0.1300439E+00
        -11   -1    0    0    0    0  0.00000000000E+00  0.00000000000E+00  0.45593999997E+02  0.45594000000E+02  0.51100000000E-03 0.  1.
         11   -1    0    0    0    0 -0.00000000000E+00 -0.00000000000E+00 -0.45593999997E+02  0.45594000000E+02  0.51100000000E-03 0. -1.
    9900012    2    1    2    0    0  0.30217807854E+02  0.23892493642E+02  0.13007627150E+02  0.50528861691E+02  0.30000005597E+02 0.  0.
         12    1    1    2    0    0 -0.30217807854E+02 -0.23892493642E+02 -0.13007627150E+02  0.40659138309E+02  0.00000000000E+00 0. -1.
         11    1    3    3    0    0  0.12250650441E+02  0.25491412784E+01  0.47987360073E+01  0.13401657547E+02  0.51100000000E-03 0.  1.
        -11    1    3    3    0    0  0.14041622341E+02  0.65417006809E-01  0.63489214352E+01  0.15410393928E+02  0.51100000000E-03 0. -1.
         12    1    3    3    0    0  0.39255350713E+01  0.21277935357E+02  0.18599697076E+01  0.21716810216E+02  0.00000000000E+00 0. -1.
</event>
<event>
 7    1  0.2661323E-011  0.5052886E+02  0.7816164E-02  0.1300439E+00
        -11   -1    0    0    0    0  0.00000000000E+00  0.00000000000E+00  0.45593999997E+02  0.45594000000E+02  0.51100000000E-03 0.  1.
         11   -1    0    0    0    0 -0.00000000000E+00 -0.00000000000E+00 -0.45593999997E+02  0.45594000000E+02  0.51100000000E-03 0. -1.
    9900012    2    1    2    0    0 -0.14832289367E+02 -0.28221201158E+02  0.25233558999E+02  0.50528862006E+02  0.30000006553E+02 0.  0.
         12    1    1    2    0    0  0.14832289367E+02  0.28221201158E+02 -0.25233558999E+02  0.40659137994E+02  0.00000000000E+00 0. -1.
         11    1    3    3    0    0 -0.21848186583E+01 -0.17830597692E+01 -0.49720188803E+01  0.57160919094E+01  0.51100000000E-03 0. -1.
        -11    1    3    3    0    0 -0.69718529476E+01 -0.14416412435E+01  0.40485018211E+01  0.81899591119E+01  0.51100000000E-03 0.  1.
        -12    1    3    3    0    0 -0.56756177611E+01 -0.24996500145E+02  0.26157076059E+02  0.36622810984E+02  0.00000000000E+00 0.  1.
</event>
<event>
 7    1  0.2661323E-011  0.5052886E+02  0.7816164E-02  0.1300439E+00
        -11   -1    0    0    0    0  0.00000000000E+00  0.00000000000E+00  0.45593999997E+02  0.45594000000E+02  0.51100000000E-03 0. -1.
         11   -1    0    0    0    0 -0.00000000000E+00 -0.00000000000E+00 -0.45593999997E+02  0.45594000000E+02  0.51100000000E-03 0.  1.
    9900012    2    1    2    0    0  0.28864887821E+02  0.27997655962E+02 -0.60095687388E+01  0.50528863207E+02  0.30000010204E+02 0.  0.
         12    1    1    2    0    0 -0.28864887821E+02 -0.27997655962E+02  0.60095687388E+01  0.40659136793E+02  0.00000000000E+00 0. -1.
         11    1    3    3    0    0  0.75613489964E+01 -0.32211339968E+01 -0.30025683066E+01  0.87501496883E+01  0.51100000000E-03 0.  1.
        -11    1    3    3    0    0  0.14346144451E+02  0.61228837609E+01 -0.18912045932E+01  0.15712358869E+02  0.51100000000E-03 0. -1.
         12    1    3    3    0    0  0.69573943744E+01  0.25095906198E+02 -0.11157958391E+01  0.26066354650E+02  0.00000000000E+00 0. -1.
</event>
<event>
 7    1  0.2661323E-011  0.5052886E+02  0.7816164E-02  0.1300439E+00
        -11   -1    0    0    0    0  0.00000000000E+00  0.00000000000E+00  0.45593999997E+02  0.45594000000E+02  0.51100000000E-03 0.  1.
         11   -1    0    0    0    0 -0.00000000000E+00 -0.00000000000E+00 -0.45593999997E+02  0.45594000000E+02  0.51100000000E-03 0. -1.
    9900012    2    1    2    0    0  0.31422573875E+02  0.25693800696E+02  0.23697795444E+01  0.50528863287E+02  0.30000010447E+02 0.  0.
         12    1    1    2    0    0 -0.31422573875E+02 -0.25693800696E+02 -0.23697795444E+01  0.40659136713E+02  0.00000000000E+00 0. -1.
         11    1    3    3    0    0  0.19877177858E+02  0.74733430032E+01 -0.61703267771E-01  0.21235744932E+02  0.51100000000E-03 0. -1.
        -11    1    3    3    0    0  0.14499226214E+02  0.45359605898E+01  0.13171077000E+01  0.15249172838E+02  0.51100000000E-03 0.  1.
        -12    1    3    3    0    0 -0.29538301971E+01  0.13684497103E+02  0.11143751121E+01  0.14043945517E+02  0.00000000000E+00 0.  1.
</event>
<event>
 7    1  0.2661323E-011  0.5052888E+02  0.7816164E-02  0.1300439E+00
        -11   -1    0    0    0    0  0.00000000000E+00  0.00000000000E+00  0.45593999997E+02  0.45594000000E+02  0.51100000000E-03 0. -1.
         11   -1    0    0    0    0 -0.00000000000E+00 -0.00000000000E+00 -0.45593999997E+02  0.45594000000E+02  0.51100000000E-03 0.  1.
    9900012    2    1    2    0    0 -0.26718309866E+02 -0.28524482520E+02  0.11209351867E+02  0.50528883501E+02  0.30000071890E+02 0.  0.
         12    1    1    2    0    0  0.26718309866E+02  0.28524482520E+02 -0.11209351867E+02  0.40659116499E+02  0.00000000000E+00 0. -1.
         11    1    3    3    0    0 -0.29701523856E+01 -0.97012500710E+01  0.28230541250E+00  0.10149667716E+02  0.51100000000E-03 0. -1.
        -11    1    3    3    0    0 -0.92583991495E+01 -0.22063000325E+02  0.53415657812E+01  0.24515836992E+02  0.51100000000E-03 0.  1.
        -12    1    3    3    0    0 -0.14489758331E+02  0.32397678757E+01  0.55854806736E+01  0.15863378793E+02  0.00000000000E+00 0.  1.
</event>
<event>
 7    1  0.2661323E-011  0.5052887E+02  0.7816164E-02  0.1300439E+00
        -11   -1    0    0    0    0  0.00000000000E+00  0.00000000000E+00  0.45593999997E+02  0.45594000000E+02  0.51100000000E-03 0.  1.
         11   -1    0    0    0    0 -0.00000000000E+00 -0.00000000000E+00 -0.45593999997E+02  0.45594000000E+02  0.51100000000E-03 0. -1.
    9900012    2    1    2    0    0  0.40378672496E+02  0.22274353400E+01  0.42150149030E+01  0.50528868044E+02  0.30000024908E+02 0.  0.
         12    1    1    2    0    0 -0.40378672496E+02 -0.22274353400E+01 -0.42150149030E+01  0.40659131956E+02  0.00000000000E+00 0. -1.
         11    1    3    3    0    0  0.51600068976E+00  0.21465843052E+01 -0.25874056553E+01  0.34012864004E+01  0.51100000000E-03 0.  1.
        -11    1    3    3    0    0 -0.18393261196E+01 -0.21154169868E+01 -0.31310818713E+01  0.42025924795E+01  0.51100000000E-03 0. -1.
        -12    1    3    3    0    0  0.41701997926E+02  0.21962680216E+01  0.99335024297E+01  0.42924989165E+02  0.00000000000E+00 0.  1.
</event>
<event>
 7    1  0.2661323E-011  0.5052886E+02  0.7816164E-02  0.1300439E+00
        -11   -1    0    0    0    0  0.00000000000E+00  0.00000000000E+00  0.45593999997E+02  0.45594000000E+02  0.51100000000E-03 0.  1.
         11   -1    0    0    0    0 -0.00000000000E+00 -0.00000000000E+00 -0.45593999997E+02  0.45594000000E+02  0.51100000000E-03 0. -1.
    9900012    2    1    2    0    0  0.29177224870E+02 -0.13338643631E+01  0.28285614589E+02  0.50528860339E+02  0.30000001487E+02 0.  0.
         12    1    1    2    0    0 -0.29177224870E+02  0.13338643631E+01 -0.28285614589E+02  0.40659139661E+02  0.00000000000E+00 0. -1.
         11    1    3    3    0    0  0.17692623975E+02  0.10558746476E+02  0.21193278787E+02  0.29557928484E+02  0.51100000000E-03 0. -1.
        -11    1    3    3    0    0  0.37231855835E+01 -0.11466790829E+01  0.66508541849E+01  0.77078431132E+01  0.51100000000E-03 0.  1.
         12    1    3    3    0    0  0.77614153115E+01 -0.10745931757E+02  0.44148161760E+00  0.13263088742E+02  0.00000000000E+00 0. -1.
</event>
<event>
 7    1  0.2661323E-011  0.5052886E+02  0.7816164E-02  0.1300439E+00
        -11   -1    0    0    0    0  0.00000000000E+00  0.00000000000E+00  0.45593999997E+02  0.45594000000E+02  0.51100000000E-03 0.  1.
         11   -1    0    0    0    0 -0.00000000000E+00 -0.00000000000E+00 -0.45593999997E+02  0.45594000000E+02  0.51100000000E-03 0. -1.
    9900012    2    1    2    0    0  0.64749566870E+01  0.32768780821E+01  0.40006280191E+02  0.50528862665E+02  0.30000008557E+02 0.  0.
         12    1    1    2    0    0 -0.64749566870E+01 -0.32768780821E+01 -0.40006280191E+02  0.40659137335E+02  0.00000000000E+00 0. -1.
         11    1    3    3    0    0 -0.58680206428E+01 -0.32351976910E+01  0.12808233416E+02  0.14455137974E+02  0.51100000000E-03 0. -1.
        -11    1    3    3    0    0  0.74223585020E+01 -0.64318561839E+01  0.12164261541E+02  0.15634239310E+02  0.51100000000E-03 0.  1.
        -12    1    3    3    0    0  0.49206188278E+01  0.12943931957E+02  0.15033785235E+02  0.20439485381E+02  0.00000000000E+00 0.  1.
</event>
<event>
 7    1  0.2661323E-011  0.5052886E+02  0.7816164E-02  0.1300439E+00
        -11   -1    0    0    0    0  0.00000000000E+00  0.00000000000E+00  0.45593999997E+02  0.45594000000E+02  0.51100000000E-03 0.  1.
         11   -1    0    0    0    0 -0.00000000000E+00 -0.00000000000E+00 -0.45593999997E+02  0.45594000000E+02  0.51100000000E-03 0. -1.
    9900012    2    1    2    0    0 -0.27188859867E+02  0.95983044288E+01  0.28667128316E+02  0.50528858412E+02  0.29999995630E+02 0.  0.
         12    1    1    2    0    0  0.27188859867E+02 -0.95983044288E+01 -0.28667128316E+02  0.40659141588E+02  0.00000000000E+00 0. -1.
         11    1    3    3    0    0 -0.41953526884E+01  0.31686378130E+01  0.11676251625E+02  0.12805315382E+02  0.51100000000E-03 0. -1.
        -11    1    3    3    0    0 -0.10596190847E+01  0.63418732058E+01  0.14231507462E+02  0.15616592243E+02  0.51100000000E-03 0.  1.
         12    1    3    3    0    0 -0.21933888094E+02  0.87793410003E-01  0.27593692289E+01  0.22106950788E+02  0.00000000000E+00 0. -1.
</event>
<event>
 7    1  0.2661323E-011  0.5052885E+02  0.7816164E-02  0.1300439E+00
        -11   -1    0    0    0    0  0.00000000000E+00  0.00000000000E+00  0.45593999997E+02  0.45594000000E+02  0.51100000000E-03 0.  1.
         11   -1    0    0    0    0 -0.00000000000E+00 -0.00000000000E+00 -0.45593999997E+02  0.45594000000E+02  0.51100000000E-03 0. -1.
    9900012    2    1    2    0    0 -0.22307953294E+02  0.83971425158E+01  0.32939485406E+02  0.50528849967E+02  0.29999969960E+02 0.  0.
         12    1    1    2    0    0  0.22307953294E+02 -0.83971425158E+01 -0.32939485406E+02  0.40659150033E+02  0.00000000000E+00 0. -1.
         11    1    3    3    0    0 -0.15122346736E+02 -0.14843753675E+01  0.10646086438E+02  0.18553379685E+02  0.51100000000E-03 0.  1.
        -11    1    3    3    0    0  0.27198567640E+01 -0.25431848336E+01 -0.92831941913E+00  0.38376017406E+01  0.51100000000E-03 0. -1.
        -12    1    3    3    0    0 -0.99054633222E+01  0.12424702717E+02  0.23221718387E+02  0.28137868542E+02  0.00000000000E+00 0.  1.
</event>
<event>
 7    1  0.2661323E-011  0.5052882E+02  0.7816164E-02  0.1300439E+00
        -11   -1    0    0    0    0  0.00000000000E+00  0.00000000000E+00  0.45593999997E+02  0.45594000000E+02  0.51100000000E-03 0.  1.
         11   -1    0    0    0    0 -0.00000000000E+00 -0.00000000000E+00 -0.45593999997E+02  0.45594000000E+02  0.51100000000E-03 0. -1.
    9900012    2    1    2    0    0  0.28864685901E+02  0.21989607715E+02  0.18342727277E+02  0.50528824116E+02  0.29999891383E+02 0.  0.
         12    1    1    2    0    0 -0.28864685901E+02 -0.21989607715E+02 -0.18342727277E+02  0.40659175884E+02  0.00000000000E+00 0. -1.
         11    1    3    3    0    0  0.77976266921E+00  0.40618240220E+01  0.97377606394E+01  0.10579717706E+02  0.51100000000E-03 0. -1.
        -11    1    3    3    0    0  0.19040490155E+02  0.20181770832E+02  0.11722128154E+02  0.30120631268E+02  0.51100000000E-03 0.  1.
         12    1    3    3    0    0  0.90444330764E+01 -0.22539871388E+01 -0.31171615171E+01  0.98284751421E+01  0.00000000000E+00 0. -1.
</event>
<event>
 7    1  0.2661323E-011  0.5052886E+02  0.7816164E-02  0.1300439E+00
        -11   -1    0    0    0    0  0.00000000000E+00  0.00000000000E+00  0.45593999997E+02  0.45594000000E+02  0.51100000000E-03 0.  1.
         11   -1    0    0    0    0 -0.00000000000E+00 -0.00000000000E+00 -0.45593999997E+02  0.45594000000E+02  0.51100000000E-03 0. -1.
    9900012    2    1    2    0    0  0.31295353560E+02  0.23140629697E+02 -0.11759154546E+02  0.50528860648E+02  0.30000002424E+02 0.  0.
         12    1    1    2    0    0 -0.31295353560E+02 -0.23140629697E+02  0.11759154546E+02  0.40659139352E+02  0.00000000000E+00 0. -1.
         11    1    3    3    0    0 -0.18616362627E+00  0.46224320185E+01 -0.77281143899E+00  0.46902849000E+01  0.51100000000E-03 0. -1.
        -11    1    3    3    0    0  0.26614532118E+02  0.24654610785E+02 -0.66420734266E+01  0.36882249016E+02  0.51100000000E-03 0.  1.
         12    1    3    3    0    0  0.48669850683E+01 -0.61364131061E+01 -0.43442696802E+01  0.89563267313E+01  0.00000000000E+00 0. -1.
</event>
<event>
 7    1  0.2661323E-011  0.5052887E+02  0.7816164E-02  0.1300439E+00
        -11   -1    0    0    0    0  0.00000000000E+00  0.00000000000E+00  0.45593999997E+02  0.45594000000E+02  0.51100000000E-03 0.  1.
         11   -1    0    0    0    0 -0.00000000000E+00 -0.00000000000E+00 -0.45593999997E+02  0.45594000000E+02  0.51100000000E-03 0. -1.
    9900012    2    1    2    0    0  0.28338849279E+01 -0.32897697451E+02  0.23724993938E+02  0.50528871397E+02  0.30000035099E+02 0.  0.
         12    1    1    2    0    0 -0.28338849279E+01  0.32897697451E+02 -0.23724993938E+02  0.40659128603E+02  0.00000000000E+00 0. -1.
         11    1    3    3    0    0 -0.14900679486E+01 -0.40366385183E+01 -0.12116981882E+01  0.44702310655E+01  0.51100000000E-03 0. -1.
        -11    1    3    3    0    0  0.10220251631E+02 -0.83807291015E+01 -0.50386760301E-01  0.13217136708E+02  0.51100000000E-03 0.  1.
        -12    1    3    3    0    0 -0.58962987543E+01 -0.20480329831E+02  0.24987078886E+02  0.32841503624E+02  0.00000000000E+00 0.  1.
</event>
<event>
 7    1  0.2661323E-011  0.5052886E+02  0.7816164E-02  0.1300439E+00
        -11   -1    0    0    0    0  0.00000000000E+00  0.00000000000E+00  0.45593999997E+02  0.45594000000E+02  0.51100000000E-03 0. -1.
         11   -1    0    0    0    0 -0.00000000000E+00 -0.00000000000E+00 -0.45593999997E+02  0.45594000000E+02  0.51100000000E-03 0.  1.
    9900012    2    1    2    0    0  0.19027692473E+02  0.19036956412E+02 -0.30474695772E+02  0.50528857453E+02  0.29999992714E+02 0.  0.
         12    1    1    2    0    0 -0.19027692473E+02 -0.19036956412E+02  0.30474695772E+02  0.40659142547E+02  0.00000000000E+00 0. -1.
         11    1    3    3    0    0 -0.15721386963E+01 -0.16960785911E+01  0.12208359624E+00  0.23158599555E+01  0.51100000000E-03 0. -1.
        -11    1    3    3    0    0 -0.35778742899E+01  0.70005096182E+01 -0.15696234268E+01  0.80169843028E+01  0.51100000000E-03 0.  1.
        -12    1    3    3    0    0  0.24177705459E+02  0.13732525385E+02 -0.29027155941E+02  0.40196013195E+02  0.00000000000E+00 0.  1.
</event>
<event>
 7    1  0.2661323E-011  0.5052888E+02  0.7816164E-02  0.1300439E+00
        -11   -1    0    0    0    0  0.00000000000E+00  0.00000000000E+00  0.45593999997E+02  0.45594000000E+02  0.51100000000E-03 0.  1.
         11   -1    0    0    0    0 -0.00000000000E+00 -0.00000000000E+00 -0.45593999997E+02  0.45594000000E+02  0.51100000000E-03 0. -1.
    9900012    2    1    2    0    0  0.32826916926E+02  0.19324594942E+02  0.14216805526E+02  0.50528880433E+02  0.30000062566E+02 0.  0.
         12    1    1    2    0    0 -0.32826916926E+02 -0.19324594942E+02 -0.14216805526E+02  0.40659119567E+02  0.00000000000E+00 0. -1.
         11    1    3    3    0    0  0.17889047754E+02 -0.47299286194E+01  0.10399658550E+02  0.21226001802E+02  0.51100000000E-03 0. -1.
        -11    1    3    3    0    0  0.60811332215E+01  0.62582469273E+01  0.35557425294E+01  0.94227990033E+01  0.51100000000E-03 0.  1.
         12    1    3    3    0    0  0.88567359510E+01  0.17796276634E+02  0.26140444677E+00  0.19880079628E+02  0.00000000000E+00 0. -1.
</event>
<event>
 7    1  0.2661323E-011  0.5052889E+02  0.7816164E-02  0.1300439E+00
        -11   -1    0    0    0    0  0.00000000000E+00  0.00000000000E+00  0.45593999997E+02  0.45594000000E+02  0.51100000000E-03 0. -1.
         11   -1    0    0    0    0 -0.00000000000E+00 -0.00000000000E+00 -0.45593999997E+02  0.45594000000E+02  0.51100000000E-03 0.  1.
    9900012    2    1    2    0    0  0.28664305935E+02 -0.24708068008E+02 -0.14867161979E+02  0.50528885834E+02  0.30000078982E+02 0.  0.
         12    1    1    2    0    0 -0.28664305935E+02  0.24708068008E+02  0.14867161979E+02  0.40659114166E+02  0.00000000000E+00 0. -1.
         11    1    3    3    0    0  0.14559022289E+02  0.30692334099E+01 -0.68717989612E+00  0.14894883020E+02  0.51100000000E-03 0. -1.
        -11    1    3    3    0    0  0.36026147835E+01 -0.57484765625E+01  0.10534622204E+01  0.68653913929E+01  0.51100000000E-03 0.  1.
         12    1    3    3    0    0  0.10502668863E+02 -0.22028824855E+02 -0.15233444303E+02  0.28768611421E+02  0.00000000000E+00 0. -1.
</event>
<event>
 7    1  0.2661323E-011  0.5052888E+02  0.7816164E-02  0.1300439E+00
        -11   -1    0    0    0    0  0.00000000000E+00  0.00000000000E+00  0.45593999997E+02  0.45594000000E+02  0.51100000000E-03 0.  1.
         11   -1    0    0    0    0 -0.00000000000E+00 -0.00000000000E+00 -0.45593999997E+02  0.45594000000E+02  0.51100000000E-03 0. -1.
    9900012    2    1    2    0    0 -0.22543192790E+02  0.33671982521E+02  0.33416226475E+01  0.50528875686E+02  0.30000048135E+02 0.  0.
         12    1    1    2    0    0  0.22543192790E+02 -0.33671982521E+02 -0.33416226475E+01  0.40659124314E+02  0.00000000000E+00 0. -1.
         11    1    3    3    0    0 -0.87479430374E+01  0.27822898677E+01 -0.32741366027E+01  0.97461589894E+01  0.51100000000E-03 0. -1.
        -11    1    3    3    0    0 -0.54163377551E+01  0.19113368875E+01 -0.57994680713E+01  0.81623375050E+01  0.51100000000E-03 0.  1.
        -12    1    3    3    0    0 -0.83789119977E+01  0.28978355766E+02  0.12415227322E+02  0.32620379191E+02  0.00000000000E+00 0.  1.
</event>
<event>
 7    1  0.2661323E-011  0.5052887E+02  0.7816164E-02  0.1300439E+00
        -11   -1    0    0    0    0  0.00000000000E+00  0.00000000000E+00  0.45593999997E+02  0.45594000000E+02  0.51100000000E-03 0.  1.
         11   -1    0    0    0    0 -0.00000000000E+00 -0.00000000000E+00 -0.45593999997E+02  0.45594000000E+02  0.51100000000E-03 0. -1.
    9900012    2    1    2    0    0  0.78426268661E+01 -0.66711559824E+01  0.39333876516E+02  0.50528868675E+02  0.30000026826E+02 0.  0.
         12    1    1    2    0    0 -0.78426268661E+01  0.66711559824E+01 -0.39333876516E+02  0.40659131325E+02  0.00000000000E+00 0. -1.
         11    1    3    3    0    0 -0.28692105266E+01 -0.51353077945E+01 -0.19355885593E+01  0.61927585551E+01  0.51100000000E-03 0. -1.
        -11    1    3    3    0    0  0.28617271502E+01 -0.60743658339E+01  0.12753416629E+02  0.14413085671E+02  0.51100000000E-03 0.  1.
        -12    1    3    3    0    0  0.78501102425E+01  0.45385176460E+01  0.28516048446E+02  0.29923024450E+02  0.00000000000E+00 0.  1.
</event>
<event>
 7    1  0.2661323E-011  0.5052884E+02  0.7816164E-02  0.1300439E+00
        -11   -1    0    0    0    0  0.00000000000E+00  0.00000000000E+00  0.45593999997E+02  0.45594000000E+02  0.51100000000E-03 0.  1.
         11   -1    0    0    0    0 -0.00000000000E+00 -0.00000000000E+00 -0.45593999997E+02  0.45594000000E+02  0.51100000000E-03 0. -1.
    9900012    2    1    2    0    0  0.11088035968E+02  0.89898221875E+01  0.38071059461E+02  0.50528843429E+02  0.29999950086E+02 0.  0.
         12    1    1    2    0    0 -0.11088035968E+02 -0.89898221875E+01 -0.38071059461E+02  0.40659156571E+02  0.00000000000E+00 0. -1.
         11    1    3    3    0    0  0.15623047089E+02 -0.92221533859E+00  0.13808216679E+02  0.20870959000E+02  0.51100000000E-03 0. -1.
        -11    1    3    3    0    0  0.11351096651E+01  0.16507140224E+01 -0.11716912546E+01  0.23208169667E+01  0.51100000000E-03 0.  1.
        -12    1    3    3    0    0 -0.56701207862E+01  0.82613235036E+01  0.25434534037E+02  0.27337067462E+02  0.00000000000E+00 0.  1.
</event>
<event>
 7    1  0.2661323E-011  0.5052886E+02  0.7816164E-02  0.1300439E+00
        -11   -1    0    0    0    0  0.00000000000E+00  0.00000000000E+00  0.45593999997E+02  0.45594000000E+02  0.51100000000E-03 0.  1.
         11   -1    0    0    0    0 -0.00000000000E+00 -0.00000000000E+00 -0.45593999997E+02  0.45594000000E+02  0.51100000000E-03 0. -1.
    9900012    2    1    2    0    0 -0.37259160365E+02 -0.15831843551E+02  0.37780206521E+01  0.50528859067E+02  0.29999997621E+02 0.  0.
         12    1    1    2    0    0  0.37259160365E+02  0.15831843551E+02 -0.37780206521E+01  0.40659140933E+02  0.00000000000E+00 0. -1.
         11    1    3    3    0    0  0.14845024133E+01  0.83653840248E+00  0.14141261581E+01  0.22143389456E+01  0.51100000000E-03 0. -1.
        -11    1    3    3    0    0 -0.85108216612E+01  0.55024102832E+00 -0.83241290067E+01  0.11917549015E+02  0.51100000000E-03 0.  1.
        -12    1    3    3    0    0 -0.30232841117E+02 -0.17218622982E+02  0.10688023501E+02  0.36396971107E+02  0.00000000000E+00 0.  1.
</event>
<event>
 7    1  0.2661323E-011  0.5052886E+02  0.7816164E-02  0.1300439E+00
        -11   -1    0    0    0    0  0.00000000000E+00  0.00000000000E+00  0.45593999997E+02  0.45594000000E+02  0.51100000000E-03 0. -1.
         11   -1    0    0    0    0 -0.00000000000E+00 -0.00000000000E+00 -0.45593999997E+02  0.45594000000E+02  0.51100000000E-03 0.  1.
    9900012    2    1    2    0    0  0.53708043529E+01  0.39512209948E+02 -0.79439096752E+01  0.50528856190E+02  0.29999988876E+02 0.  0.
         12    1    1    2    0    0 -0.53708043529E+01 -0.39512209948E+02  0.79439096752E+01  0.40659143810E+02  0.00000000000E+00 0. -1.
         11    1    3    3    0    0  0.44724007900E+01  0.16184065118E+02  0.90026802395E+01  0.19051891883E+02  0.51100000000E-03 0. -1.
        -11    1    3    3    0    0 -0.11424767304E+01  0.45036532466E+01 -0.10487758188E+02  0.11470885655E+02  0.51100000000E-03 0.  1.
        -12    1    3    3    0    0  0.20408802933E+01  0.18824491583E+02 -0.64588317269E+01  0.20006078652E+02  0.00000000000E+00 0.  1.
</event>
<event>
 7    1  0.2661323E-011  0.5052886E+02  0.7816164E-02  0.1300439E+00
        -11   -1    0    0    0    0  0.00000000000E+00  0.00000000000E+00  0.45593999997E+02  0.45594000000E+02  0.51100000000E-03 0.  1.
         11   -1    0    0    0    0 -0.00000000000E+00 -0.00000000000E+00 -0.45593999997E+02  0.45594000000E+02  0.51100000000E-03 0. -1.
    9900012    2    1    2    0    0  0.34075715380E+02  0.15767870006E+02  0.15600807395E+02  0.50528864562E+02  0.30000014324E+02 0.  0.
         12    1    1    2    0    0 -0.34075715380E+02 -0.15767870006E+02 -0.15600807395E+02  0.40659135438E+02  0.00000000000E+00 0. -1.
         11    1    3    3    0    0  0.44095039797E+00  0.65185475873E+01 -0.76378499666E+00  0.65779379507E+01  0.51100000000E-03 0. -1.
        -11    1    3    3    0    0  0.70607115443E+01  0.98121099635E+01 -0.11129298573E+01  0.12139594828E+02  0.51100000000E-03 0.  1.
        -12    1    3    3    0    0  0.26574053437E+02 -0.56278754514E+00  0.17477522249E+02  0.31811331784E+02  0.00000000000E+00 0.  1.
</event>
<event>
 7    1  0.2661323E-011  0.5052886E+02  0.7816164E-02  0.1300439E+00
        -11   -1    0    0    0    0  0.00000000000E+00  0.00000000000E+00  0.45593999997E+02  0.45594000000E+02  0.51100000000E-03 0. -1.
         11   -1    0    0    0    0 -0.00000000000E+00 -0.00000000000E+00 -0.45593999997E+02  0.45594000000E+02  0.51100000000E-03 0.  1.
    9900012    2    1    2    0    0  0.26193834187E+02  0.29256924334E+02  0.10539518272E+02  0.50528855687E+02  0.29999987345E+02 0.  0.
         12    1    1    2    0    0 -0.26193834187E+02 -0.29256924334E+02 -0.10539518272E+02  0.40659144313E+02  0.00000000000E+00 0. -1.
         11    1    3    3    0    0 -0.39318923270E+01  0.10514700941E+02 -0.18797700983E+01  0.11382102136E+02  0.51100000000E-03 0. -1.
        -11    1    3    3    0    0  0.64582986556E+01  0.88093465869E+01  0.74272590471E+00  0.10948326395E+02  0.51100000000E-03 0.  1.
         12    1    3    3    0    0  0.23667427858E+02  0.99328768059E+01  0.11676562465E+02  0.28198427156E+02  0.00000000000E+00 0. -1.
</event>
<event>
 7    1  0.2661323E-011  0.5052890E+02  0.7816164E-02  0.1300439E+00
        -11   -1    0    0    0    0  0.00000000000E+00  0.00000000000E+00  0.45593999997E+02  0.45594000000E+02  0.51100000000E-03 0.  1.
         11   -1    0    0    0    0 -0.00000000000E+00 -0.00000000000E+00 -0.45593999997E+02  0.45594000000E+02  0.51100000000E-03 0. -1.
    9900012    2    1    2    0    0  0.35278066721E+02 -0.11048317852E+02  0.16927950202E+02  0.50528895030E+02  0.30000106933E+02 0.  0.
         12    1    1    2    0    0 -0.35278066721E+02  0.11048317852E+02 -0.16927950202E+02  0.40659104970E+02  0.00000000000E+00 0. -1.
         11    1    3    3    0    0  0.12369891805E+02  0.41373394652E+01  0.92188035500E+01  0.15972418109E+02  0.51100000000E-03 0. -1.
        -11    1    3    3    0    0  0.18747348931E+02 -0.56139939662E+01  0.12342918478E+02  0.23137148852E+02  0.51100000000E-03 0.  1.
         12    1    3    3    0    0  0.41608259858E+01 -0.95716633511E+01 -0.46337718269E+01  0.11419328068E+02  0.00000000000E+00 0. -1.
</event>
<event>
 7    1  0.2661323E-011  0.5052884E+02  0.7816164E-02  0.1300439E+00
        -11   -1    0    0    0    0  0.00000000000E+00  0.00000000000E+00  0.45593999997E+02  0.45594000000E+02  0.51100000000E-03 0.  1.
         11   -1    0    0    0    0 -0.00000000000E+00 -0.00000000000E+00 -0.45593999997E+02  0.45594000000E+02  0.51100000000E-03 0. -1.
    9900012    2    1    2    0    0 -0.31508163748E+02  0.60086735565E+01  0.24985964523E+02  0.50528844034E+02  0.29999951926E+02 0.  0.
         12    1    1    2    0    0  0.31508163748E+02 -0.60086735565E+01 -0.24985964523E+02  0.40659155966E+02  0.00000000000E+00 0. -1.
         11    1    3    3    0    0 -0.89745367318E+01 -0.11288283941E+01  0.12482731143E+02  0.15415418909E+02  0.51100000000E-03 0. -1.
        -11    1    3    3    0    0 -0.65876028582E+01 -0.83124732469E+01  0.42455873856E+01  0.11424479656E+02  0.51100000000E-03 0.  1.
         12    1    3    3    0    0 -0.15946024158E+02  0.15449975197E+02  0.82576459945E+01  0.23688945469E+02  0.00000000000E+00 0. -1.
</event>
<event>
 7    1  0.2661323E-011  0.5052882E+02  0.7816164E-02  0.1300439E+00
        -11   -1    0    0    0    0  0.00000000000E+00  0.00000000000E+00  0.45593999997E+02  0.45594000000E+02  0.51100000000E-03 0.  1.
         11   -1    0    0    0    0 -0.00000000000E+00 -0.00000000000E+00 -0.45593999997E+02  0.45594000000E+02  0.51100000000E-03 0. -1.
    9900012    2    1    2    0    0  0.11622935606E+02 -0.14606304801E+02  0.36121074975E+02  0.50528821093E+02  0.29999882194E+02 0.  0.
         12    1    1    2    0    0 -0.11622935606E+02  0.14606304801E+02 -0.36121074975E+02  0.40659178907E+02  0.00000000000E+00 0. -1.
         11    1    3    3    0    0 -0.19657112357E+01 -0.19611932544E+01  0.37363361806E+00  0.28017676536E+01  0.51100000000E-03 0. -1.
        -11    1    3    3    0    0 -0.41449810486E+01 -0.98514930454E+01  0.43088077571E+01  0.11523827822E+02  0.51100000000E-03 0.  1.
         12    1    3    3    0    0  0.17733627891E+02 -0.27936185017E+01  0.31438633600E+02  0.36203225618E+02  0.00000000000E+00 0. -1.
</event>
<event>
 7    1  0.2661323E-011  0.5052886E+02  0.7816164E-02  0.1300439E+00
        -11   -1    0    0    0    0  0.00000000000E+00  0.00000000000E+00  0.45593999997E+02  0.45594000000E+02  0.51100000000E-03 0.  1.
         11   -1    0    0    0    0 -0.00000000000E+00 -0.00000000000E+00 -0.45593999997E+02  0.45594000000E+02  0.51100000000E-03 0. -1.
    9900012    2    1    2    0    0  0.10101464541E+02  0.65903258297E+01  0.38829031947E+02  0.50528859548E+02  0.29999999081E+02 0.  0.
         12    1    1    2    0    0 -0.10101464541E+02 -0.65903258297E+01 -0.38829031947E+02  0.40659140452E+02  0.00000000000E+00 0. -1.
         11    1    3    3    0    0  0.68808717956E+01  0.69768964484E+01  0.50376918465E+01  0.11018249413E+02  0.51100000000E-03 0.  1.
        -11    1    3    3    0    0  0.14281430944E+01 -0.66347063905E+00 -0.26185449930E+01  0.30555791805E+01  0.51100000000E-03 0. -1.
        -12    1    3    3    0    0  0.17924496507E+01  0.27690002033E+00  0.36409885093E+02  0.36455030954E+02  0.00000000000E+00 0.  1.
</event>
<event>
 7    1  0.2661323E-011  0.5052885E+02  0.7816164E-02  0.1300439E+00
        -11   -1    0    0    0    0  0.00000000000E+00  0.00000000000E+00  0.45593999997E+02  0.45594000000E+02  0.51100000000E-03 0.  1.
         11   -1    0    0    0    0 -0.00000000000E+00 -0.00000000000E+00 -0.45593999997E+02  0.45594000000E+02  0.51100000000E-03 0. -1.
    9900012    2    1    2    0    0 -0.28354581050E+02 -0.49440871421E+01  0.28718283977E+02  0.50528854673E+02  0.29999984263E+02 0.  0.
         12    1    1    2    0    0  0.28354581050E+02  0.49440871421E+01 -0.28718283977E+02  0.40659145327E+02  0.00000000000E+00 0. -1.
         11    1    3    3    0    0  0.52026966380E+01 -0.11496392651E+01  0.53471723977E+01  0.75486406497E+01  0.51100000000E-03 0. -1.
        -11    1    3    3    0    0 -0.85902167361E+01 -0.56308636426E+01  0.29877471437E+01  0.10696966027E+02  0.51100000000E-03 0.  1.
        -12    1    3    3    0    0 -0.24967060952E+02  0.18364157656E+01  0.20383364436E+02  0.32283247996E+02  0.00000000000E+00 0.  1.
</event>
<event>
 7    1  0.2661323E-011  0.5052886E+02  0.7816164E-02  0.1300439E+00
        -11   -1    0    0    0    0  0.00000000000E+00  0.00000000000E+00  0.45593999997E+02  0.45594000000E+02  0.51100000000E-03 0.  1.
         11   -1    0    0    0    0 -0.00000000000E+00 -0.00000000000E+00 -0.45593999997E+02  0.45594000000E+02  0.51100000000E-03 0. -1.
    9900012    2    1    2    0    0  0.30223688852E+02 -0.22824411008E+02 -0.14789880283E+02  0.50528860013E+02  0.30000000496E+02 0.  0.
         12    1    1    2    0    0 -0.30223688852E+02  0.22824411008E+02  0.14789880283E+02  0.40659139987E+02  0.00000000000E+00 0. -1.
         11    1    3    3    0    0  0.12934175258E+02 -0.16501357923E+02 -0.11791435389E+02  0.24054638881E+02  0.51100000000E-03 0. -1.
        -11    1    3    3    0    0  0.43227431614E+01 -0.11542805984E+02 -0.13482007251E+01  0.12399198518E+02  0.51100000000E-03 0.  1.
        -12    1    3    3    0    0  0.12966770432E+02  0.52197528988E+01 -0.16502441681E+01  0.14075022614E+02  0.00000000000E+00 0.  1.
</event>
<event>
 7    1  0.2661323E-011  0.5052886E+02  0.7816164E-02  0.1300439E+00
        -11   -1    0    0    0    0  0.00000000000E+00  0.00000000000E+00  0.45593999997E+02  0.45594000000E+02  0.51100000000E-03 0. -1.
         11   -1    0    0    0    0 -0.00000000000E+00 -0.00000000000E+00 -0.45593999997E+02  0.45594000000E+02  0.51100000000E-03 0.  1.
    9900012    2    1    2    0    0 -0.20981622939E+02 -0.33859133165E+02 -0.81545376632E+01  0.50528857309E+02  0.29999992277E+02 0.  0.
         12    1    1    2    0    0  0.20981622939E+02  0.33859133165E+02  0.81545376632E+01  0.40659142691E+02  0.00000000000E+00 0. -1.
         11    1    3    3    0    0 -0.70341238976E+01 -0.13640024147E+02 -0.36263422664E+01  0.15769575652E+02  0.51100000000E-03 0. -1.
        -11    1    3    3    0    0 -0.81863188738E+01 -0.20856429124E+02  0.55955263068E+01  0.23093643442E+02  0.51100000000E-03 0.  1.
         12    1    3    3    0    0 -0.57611801676E+01  0.63732010647E+00 -0.10123721704E+02  0.11665638215E+02  0.00000000000E+00 0. -1.
</event>
<event>
 7    1  0.2661323E-011  0.5052886E+02  0.7816164E-02  0.1300439E+00
        -11   -1    0    0    0    0  0.00000000000E+00  0.00000000000E+00  0.45593999997E+02  0.45594000000E+02  0.51100000000E-03 0. -1.
         11   -1    0    0    0    0 -0.00000000000E+00 -0.00000000000E+00 -0.45593999997E+02  0.45594000000E+02  0.51100000000E-03 0.  1.
    9900012    2    1    2    0    0 -0.18409203433E+02  0.23483083307E+02 -0.27619051261E+02  0.50528856315E+02  0.29999989255E+02 0.  0.
         12    1    1    2    0    0  0.18409203433E+02 -0.23483083307E+02  0.27619051261E+02  0.40659143685E+02  0.00000000000E+00 0. -1.
         11    1    3    3    0    0  0.10480366579E+01 -0.29811989526E+01  0.10416942725E+01  0.33273195293E+01  0.51100000000E-03 0. -1.
        -11    1    3    3    0    0  0.24349638668E+01  0.43174051056E+01 -0.92842263529E+01  0.10524537762E+02  0.51100000000E-03 0.  1.
        -12    1    3    3    0    0 -0.21892203958E+02  0.22146877154E+02 -0.19376519180E+02  0.36676999023E+02  0.00000000000E+00 0.  1.
</event>
<event>
 7    1  0.2661323E-011  0.5052886E+02  0.7816164E-02  0.1300439E+00
        -11   -1    0    0    0    0  0.00000000000E+00  0.00000000000E+00  0.45593999997E+02  0.45594000000E+02  0.51100000000E-03 0.  1.
         11   -1    0    0    0    0 -0.00000000000E+00 -0.00000000000E+00 -0.45593999997E+02  0.45594000000E+02  0.51100000000E-03 0. -1.
    9900012    2    1    2    0    0 -0.13986667627E+02  0.55829301206E-01  0.38177687607E+02  0.50528858110E+02  0.29999994711E+02 0.  0.
         12    1    1    2    0    0  0.13986667627E+02 -0.55829301206E-01 -0.38177687607E+02  0.40659141890E+02  0.00000000000E+00 0. -1.
         11    1    3    3    0    0 -0.51172687115E+01  0.37850300086E+01  0.10073885884E+02  0.11916210316E+02  0.51100000000E-03 0. -1.
        -11    1    3    3    0    0 -0.52027914009E+01 -0.11352047218E+01  0.32137555866E+02  0.32575761317E+02  0.51100000000E-03 0.  1.
         12    1    3    3    0    0 -0.36666075148E+01 -0.25939959856E+01 -0.40337541431E+01  0.60368864763E+01  0.00000000000E+00 0. -1.
</event>
<event>
 7    1  0.2661323E-011  0.5052886E+02  0.7816164E-02  0.1300439E+00
        -11   -1    0    0    0    0  0.00000000000E+00  0.00000000000E+00  0.45593999997E+02  0.45594000000E+02  0.51100000000E-03 0. -1.
         11   -1    0    0    0    0 -0.00000000000E+00 -0.00000000000E+00 -0.45593999997E+02  0.45594000000E+02  0.51100000000E-03 0.  1.
    9900012    2    1    2    0    0  0.36153982694E+02 -0.67463233324E+01 -0.17336158064E+02  0.50528859336E+02  0.29999998437E+02 0.  0.
         12    1    1    2    0    0 -0.36153982694E+02  0.67463233324E+01  0.17336158064E+02  0.40659140664E+02  0.00000000000E+00 0. -1.
         11    1    3    3    0    0  0.71142938496E+01  0.39612790022E+00  0.45934262243E+01  0.84775974799E+01  0.51100000000E-03 0. -1.
        -11    1    3    3    0    0  0.16653721242E+02 -0.37811362860E+01 -0.51493981849E+00  0.17085332484E+02  0.51100000000E-03 0.  1.
         12    1    3    3    0    0  0.12385967603E+02 -0.33613149466E+01 -0.21414644470E+02  0.24965929372E+02  0.00000000000E+00 0. -1.
</event>
<event>
 7    1  0.2661323E-011  0.5052880E+02  0.7816164E-02  0.1300439E+00
        -11   -1    0    0    0    0  0.00000000000E+00  0.00000000000E+00  0.45593999997E+02  0.45594000000E+02  0.51100000000E-03 0.  1.
         11   -1    0    0    0    0 -0.00000000000E+00 -0.00000000000E+00 -0.45593999997E+02  0.45594000000E+02  0.51100000000E-03 0. -1.
    9900012    2    1    2    0    0  0.18946134832E+02 -0.37260465225E+01  0.35781710322E+02  0.50528803730E+02  0.29999829416E+02 0.  0.
         12    1    1    2    0    0 -0.18946134832E+02  0.37260465225E+01 -0.35781710322E+02  0.40659196270E+02  0.00000000000E+00 0. -1.
         11    1    3    3    0    0  0.37777500027E+01 -0.51308650606E+00 -0.24166604450E+01  0.45138565344E+01  0.51100000000E-03 0. -1.
        -11    1    3    3    0    0  0.12667774920E+02 -0.10822597424E+02  0.31236882333E+02  0.35402598134E+02  0.51100000000E-03 0.  1.
         12    1    3    3    0    0  0.25006099094E+01  0.76096374075E+01  0.69614884338E+01  0.10612349062E+02  0.00000000000E+00 0. -1.
</event>
<event>
 7    1  0.2661323E-011  0.5052886E+02  0.7816164E-02  0.1300439E+00
        -11   -1    0    0    0    0  0.00000000000E+00  0.00000000000E+00  0.45593999997E+02  0.45594000000E+02  0.51100000000E-03 0. -1.
         11   -1    0    0    0    0 -0.00000000000E+00 -0.00000000000E+00 -0.45593999997E+02  0.45594000000E+02  0.51100000000E-03 0.  1.
    9900012    2    1    2    0    0  0.24602375670E+02 -0.16818605823E+02 -0.27659060489E+02  0.50528855670E+02  0.29999987296E+02 0.  0.
         12    1    1    2    0    0 -0.24602375670E+02  0.16818605823E+02  0.27659060489E+02  0.40659144330E+02  0.00000000000E+00 0. -1.
         11    1    3    3    0    0  0.19522035347E+00 -0.73407180065E+01 -0.72839711105E+00  0.73793505439E+01  0.51100000000E-03 0. -1.
        -11    1    3    3    0    0 -0.14788530910E+01 -0.73966768503E+01 -0.41788763827E+01  0.86232733330E+01  0.51100000000E-03 0.  1.
         12    1    3    3    0    0  0.25886008408E+02 -0.20812109667E+01 -0.22751786995E+02  0.34526231794E+02  0.00000000000E+00 0. -1.
</event>
<event>
 7    1  0.2661323E-011  0.5052885E+02  0.7816164E-02  0.1300439E+00
        -11   -1    0    0    0    0  0.00000000000E+00  0.00000000000E+00  0.45593999997E+02  0.45594000000E+02  0.51100000000E-03 0.  1.
         11   -1    0    0    0    0 -0.00000000000E+00 -0.00000000000E+00 -0.45593999997E+02  0.45594000000E+02  0.51100000000E-03 0. -1.
    9900012    2    1    2    0    0 -0.15372833858E+02 -0.14583579003E+02  0.34701028863E+02  0.50528853409E+02  0.29999980421E+02 0.  0.
         12    1    1    2    0    0  0.15372833858E+02  0.14583579003E+02 -0.34701028863E+02  0.40659146591E+02  0.00000000000E+00 0. -1.
         11    1    3    3    0    0  0.45190838693E+00 -0.29352536981E+01 -0.29682398216E+01  0.41988550061E+01  0.51100000000E-03 0. -1.
        -11    1    3    3    0    0 -0.13105866586E+02  0.15412790097E+00  0.11273260798E+02  0.17287969912E+02  0.51100000000E-03 0.  1.
        -12    1    3    3    0    0 -0.27188756591E+01 -0.11802453206E+02  0.26396007887E+02  0.29042028491E+02  0.00000000000E+00 0.  1.
</event>
<event>
 7    1  0.2661323E-011  0.5052886E+02  0.7816164E-02  0.1300439E+00
        -11   -1    0    0    0    0  0.00000000000E+00  0.00000000000E+00  0.45593999997E+02  0.45594000000E+02  0.51100000000E-03 0.  1.
         11   -1    0    0    0    0 -0.00000000000E+00 -0.00000000000E+00 -0.45593999997E+02  0.45594000000E+02  0.51100000000E-03 0. -1.
    9900012    2    1    2    0    0  0.20542175651E+02 -0.35063352537E+01  0.34912608921E+02  0.50528860448E+02  0.30000001819E+02 0.  0.
         12    1    1    2    0    0 -0.20542175651E+02  0.35063352537E+01 -0.34912608921E+02  0.40659139552E+02  0.00000000000E+00 0. -1.
         11    1    3    3    0    0  0.33862780274E+01 -0.85360019814E+01 -0.88033550605E+00  0.92252479408E+01  0.51100000000E-03 0. -1.
        -11    1    3    3    0    0  0.24941241437E+01 -0.19936777100E+01  0.19056374868E+01  0.37184486749E+01  0.51100000000E-03 0.  1.
        -12    1    3    3    0    0  0.14661773480E+02  0.70233444376E+01  0.33887306940E+02  0.37585163833E+02  0.00000000000E+00 0.  1.
</event>
<event>
 7    1  0.2661323E-011  0.5052886E+02  0.7816164E-02  0.1300439E+00
        -11   -1    0    0    0    0  0.00000000000E+00  0.00000000000E+00  0.45593999997E+02  0.45594000000E+02  0.51100000000E-03 0. -1.
         11   -1    0    0    0    0 -0.00000000000E+00 -0.00000000000E+00 -0.45593999997E+02  0.45594000000E+02  0.51100000000E-03 0.  1.
    9900012    2    1    2    0    0 -0.79483910763E+01 -0.36591044869E+02 -0.15845632960E+02  0.50528861184E+02  0.30000004055E+02 0.  0.
         12    1    1    2    0    0  0.79483910763E+01  0.36591044869E+02  0.15845632960E+02  0.40659138816E+02  0.00000000000E+00 0. -1.
         11    1    3    3    0    0  0.79733515141E+01 -0.15295383742E+02 -0.59418137324E+01  0.18243581032E+02  0.51100000000E-03 0.  1.
        -11    1    3    3    0    0 -0.52314642146E+01 -0.16977770934E+01 -0.82299930638E+01  0.98986590495E+01  0.51100000000E-03 0. -1.
        -12    1    3    3    0    0 -0.10690278376E+02 -0.19597884034E+02 -0.16738261640E+01  0.22386621103E+02  0.00000000000E+00 0.  1.
</event>
<event>
 7    1  0.2661323E-011  0.5052886E+02  0.7816164E-02  0.1300439E+00
        -11   -1    0    0    0    0  0.00000000000E+00  0.00000000000E+00  0.45593999997E+02  0.45594000000E+02  0.51100000000E-03 0.  1.
         11   -1    0    0    0    0 -0.00000000000E+00 -0.00000000000E+00 -0.45593999997E+02  0.45594000000E+02  0.51100000000E-03 0. -1.
    9900012    2    1    2    0    0 -0.36665383692E+02 -0.11100633418E+02  0.13623190553E+02  0.50528859030E+02  0.29999997507E+02 0.  0.
         12    1    1    2    0    0  0.36665383692E+02  0.11100633418E+02 -0.13623190553E+02  0.40659140970E+02  0.00000000000E+00 0. -1.
         11    1    3    3    0    0 -0.14256203133E+02 -0.82310802555E+01 -0.32977690981E+01  0.16788844250E+02  0.51100000000E-03 0. -1.
        -11    1    3    3    0    0 -0.14186121369E+02 -0.74150974542E+01  0.20338794746E+01  0.16135872326E+02  0.51100000000E-03 0.  1.
         12    1    3    3    0    0 -0.82230591898E+01  0.45455442914E+01  0.14887080177E+02  0.17604142454E+02  0.00000000000E+00 0. -1.
</event>
<event>
 7    1  0.2661323E-011  0.5052884E+02  0.7816164E-02  0.1300439E+00
        -11   -1    0    0    0    0  0.00000000000E+00  0.00000000000E+00  0.45593999997E+02  0.45594000000E+02  0.51100000000E-03 0.  1.
         11   -1    0    0    0    0 -0.00000000000E+00 -0.00000000000E+00 -0.45593999997E+02  0.45594000000E+02  0.51100000000E-03 0. -1.
    9900012    2    1    2    0    0 -0.22750101036E+02  0.28898011946E+02 -0.17335086719E+02  0.50528838387E+02  0.29999934760E+02 0.  0.
         12    1    1    2    0    0  0.22750101036E+02 -0.28898011946E+02  0.17335086719E+02  0.40659161613E+02  0.00000000000E+00 0. -1.
         11    1    3    3    0    0 -0.20859202310E+01  0.78665295678E+01 -0.12631121515E+01  0.82358243801E+01  0.51100000000E-03 0. -1.
        -11    1    3    3    0    0  0.22990880092E+01  0.95791629426E+00  0.47498414722E+01  0.53632456193E+01  0.51100000000E-03 0.  1.
         12    1    3    3    0    0 -0.22963268814E+02  0.20073566083E+02 -0.20821816040E+02  0.36929768387E+02  0.00000000000E+00 0. -1.
</event>
<event>
 7    1  0.2661323E-011  0.5052887E+02  0.7816164E-02  0.1300439E+00
        -11   -1    0    0    0    0  0.00000000000E+00  0.00000000000E+00  0.45593999997E+02  0.45594000000E+02  0.51100000000E-03 0.  1.
         11   -1    0    0    0    0 -0.00000000000E+00 -0.00000000000E+00 -0.45593999997E+02  0.45594000000E+02  0.51100000000E-03 0. -1.
    9900012    2    1    2    0    0 -0.21658766693E+01  0.36645723671E+02  0.17480421838E+02  0.50528865322E+02  0.30000016634E+02 0.  0.
         12    1    1    2    0    0  0.21658766693E+01 -0.36645723671E+02 -0.17480421838E+02  0.40659134678E+02  0.00000000000E+00 0. -1.
         11    1    3    3    0    0 -0.91783489537E+00 -0.90625370553E+00  0.14724042631E+00  0.12982282843E+01  0.51100000000E-03 0. -1.
        -11    1    3    3    0    0 -0.17016212194E+01  0.37270459325E+01  0.14745177608E+02  0.15303811587E+02  0.51100000000E-03 0.  1.
        -12    1    3    3    0    0  0.45357944546E+00  0.33824931444E+02  0.25880038044E+01  0.33926825451E+02  0.00000000000E+00 0.  1.
</event>
<event>
 7    1  0.2661323E-011  0.5052886E+02  0.7816164E-02  0.1300439E+00
        -11   -1    0    0    0    0  0.00000000000E+00  0.00000000000E+00  0.45593999997E+02  0.45594000000E+02  0.51100000000E-03 0.  1.
         11   -1    0    0    0    0 -0.00000000000E+00 -0.00000000000E+00 -0.45593999997E+02  0.45594000000E+02  0.51100000000E-03 0. -1.
    9900012    2    1    2    0    0  0.37979735492E+02 -0.87461348954E+01 -0.11584908140E+02  0.50528864737E+02  0.30000014856E+02 0.  0.
         12    1    1    2    0    0 -0.37979735492E+02  0.87461348954E+01  0.11584908140E+02  0.40659135263E+02  0.00000000000E+00 0. -1.
         11    1    3    3    0    0 -0.11475154811E+01 -0.63469111619E+00  0.59083640164E-01  0.13126750283E+01  0.51100000000E-03 0. -1.
        -11    1    3    3    0    0  0.15063817334E+02  0.95622449591E+01 -0.60491179488E+01  0.18840035816E+02  0.51100000000E-03 0.  1.
         12    1    3    3    0    0  0.24063433639E+02 -0.17673688738E+02 -0.55948738316E+01  0.30376153893E+02  0.00000000000E+00 0. -1.
</event>
<event>
 7    1  0.2661323E-011  0.5052887E+02  0.7816164E-02  0.1300439E+00
        -11   -1    0    0    0    0  0.00000000000E+00  0.00000000000E+00  0.45593999997E+02  0.45594000000E+02  0.51100000000E-03 0.  1.
         11   -1    0    0    0    0 -0.00000000000E+00 -0.00000000000E+00 -0.45593999997E+02  0.45594000000E+02  0.51100000000E-03 0. -1.
    9900012    2    1    2    0    0 -0.41231919543E+01 -0.39879924606E+02  0.67643270961E+01  0.50528865485E+02  0.30000017127E+02 0.  0.
         12    1    1    2    0    0  0.41231919543E+01  0.39879924606E+02 -0.67643270961E+01  0.40659134515E+02  0.00000000000E+00 0. -1.
         11    1    3    3    0    0 -0.54643146499E+01 -0.13499482594E+02 -0.26021065717E+01  0.14794111118E+02  0.51100000000E-03 0. -1.
        -11    1    3    3    0    0 -0.94272333574E+00 -0.19496465924E+02  0.16502106549E+02  0.25560133639E+02  0.51100000000E-03 0.  1.
         12    1    3    3    0    0  0.22838460314E+01 -0.68839760888E+01 -0.71356728816E+01  0.10174620728E+02  0.00000000000E+00 0. -1.
</event>
<event>
 7    1  0.2661323E-011  0.5052886E+02  0.7816164E-02  0.1300439E+00
        -11   -1    0    0    0    0  0.00000000000E+00  0.00000000000E+00  0.45593999997E+02  0.45594000000E+02  0.51100000000E-03 0.  1.
         11   -1    0    0    0    0 -0.00000000000E+00 -0.00000000000E+00 -0.45593999997E+02  0.45594000000E+02  0.51100000000E-03 0. -1.
    9900012    2    1    2    0    0 -0.24607611738E+02 -0.22823284299E+01  0.32286565878E+02  0.50528856936E+02  0.29999991143E+02 0.  0.
         12    1    1    2    0    0  0.24607611738E+02  0.22823284299E+01 -0.32286565878E+02  0.40659143064E+02  0.00000000000E+00 0. -1.
         11    1    3    3    0    0  0.31082190076E+01 -0.15287639134E+01  0.17160686108E+01  0.38656223613E+01  0.51100000000E-03 0. -1.
        -11    1    3    3    0    0 -0.60119697126E+01 -0.35521477520E+01 -0.21436415599E+01  0.73045693149E+01  0.51100000000E-03 0.  1.
        -12    1    3    3    0    0 -0.21703861033E+02  0.27985832355E+01  0.32714138827E+02  0.39358665260E+02  0.00000000000E+00 0.  1.
</event>
<event>
 7    1  0.2661323E-011  0.5052886E+02  0.7816164E-02  0.1300439E+00
        -11   -1    0    0    0    0  0.00000000000E+00  0.00000000000E+00  0.45593999997E+02  0.45594000000E+02  0.51100000000E-03 0. -1.
         11   -1    0    0    0    0 -0.00000000000E+00 -0.00000000000E+00 -0.45593999997E+02  0.45594000000E+02  0.51100000000E-03 0.  1.
    9900012    2    1    2    0    0 -0.68721164209E+01 -0.40064371446E+02  0.88637191430E+00  0.50528862053E+02  0.30000006695E+02 0.  0.
         12    1    1    2    0    0  0.68721164209E+01  0.40064371446E+02 -0.88637191430E+00  0.40659137947E+02  0.00000000000E+00 0. -1.
         11    1    3    3    0    0 -0.47135443379E+00 -0.47190426566E+00  0.23301413357E+01  0.24237218371E+01  0.51100000000E-03 0. -1.
        -11    1    3    3    0    0 -0.10985583120E+02 -0.64795041119E+01 -0.64686708335E+01  0.14300724200E+02  0.51100000000E-03 0.  1.
        -12    1    3    3    0    0  0.45848211327E+01 -0.33112963068E+02  0.50249014121E+01  0.33804416016E+02  0.00000000000E+00 0.  1.
</event>
<event>
 7    1  0.2661323E-011  0.5052886E+02  0.7816164E-02  0.1300439E+00
        -11   -1    0    0    0    0  0.00000000000E+00  0.00000000000E+00  0.45593999997E+02  0.45594000000E+02  0.51100000000E-03 0. -1.
         11   -1    0    0    0    0 -0.00000000000E+00 -0.00000000000E+00 -0.45593999997E+02  0.45594000000E+02  0.51100000000E-03 0.  1.
    9900012    2    1    2    0    0 -0.21936619398E+02 -0.31263515796E+02  0.13947875079E+02  0.50528856997E+02  0.29999991328E+02 0.  0.
         12    1    1    2    0    0  0.21936619398E+02  0.31263515796E+02 -0.13947875079E+02  0.40659143003E+02  0.00000000000E+00 0. -1.
         11    1    3    3    0    0 -0.74747537826E+01 -0.14934374877E+02  0.80453040393E+01  0.18537378844E+02  0.51100000000E-03 0. -1.
        -11    1    3    3    0    0 -0.13502349595E+02 -0.13845056414E+02  0.13734020500E+02  0.23719661697E+02  0.51100000000E-03 0.  1.
         12    1    3    3    0    0 -0.95951602023E+00 -0.24840845054E+01 -0.78314494602E+01  0.82718164553E+01  0.00000000000E+00 0. -1.
</event>
<event>
 7    1  0.2661323E-011  0.5052886E+02  0.7816164E-02  0.1300439E+00
        -11   -1    0    0    0    0  0.00000000000E+00  0.00000000000E+00  0.45593999997E+02  0.45594000000E+02  0.51100000000E-03 0. -1.
         11   -1    0    0    0    0 -0.00000000000E+00 -0.00000000000E+00 -0.45593999997E+02  0.45594000000E+02  0.51100000000E-03 0.  1.
    9900012    2    1    2    0    0  0.20078151176E+02 -0.13743193003E+02 -0.32575419593E+02  0.50528862401E+02  0.30000007755E+02 0.  0.
         12    1    1    2    0    0 -0.20078151176E+02  0.13743193003E+02  0.32575419593E+02  0.40659137599E+02  0.00000000000E+00 0. -1.
         11    1    3    3    0    0  0.20389142750E+01 -0.11465889897E+01 -0.67247810672E+01  0.71200083143E+01  0.51100000000E-03 0. -1.
        -11    1    3    3    0    0  0.23455916780E+02 -0.15924295709E+02 -0.19405538458E+02  0.34356049670E+02  0.51100000000E-03 0.  1.
        -12    1    3    3    0    0 -0.54166798786E+01  0.33276916959E+01 -0.64451000679E+01  0.90528044171E+01  0.00000000000E+00 0.  1.
</event>
<event>
 7    1  0.2661323E-011  0.5052886E+02  0.7816164E-02  0.1300439E+00
        -11   -1    0    0    0    0  0.00000000000E+00  0.00000000000E+00  0.45593999997E+02  0.45594000000E+02  0.51100000000E-03 0. -1.
         11   -1    0    0    0    0 -0.00000000000E+00 -0.00000000000E+00 -0.45593999997E+02  0.45594000000E+02  0.51100000000E-03 0.  1.
    9900012    2    1    2    0    0 -0.26834751040E+02  0.18034117599E+02 -0.24654252867E+02  0.50528862707E+02  0.30000008685E+02 0.  0.
         12    1    1    2    0    0  0.26834751040E+02 -0.18034117599E+02  0.24654252867E+02  0.40659137293E+02  0.00000000000E+00 0. -1.
         11    1    3    3    0    0 -0.34339797340E+01 -0.62155509256E+00  0.33047228931E+01  0.48062190137E+01  0.51100000000E-03 0. -1.
        -11    1    3    3    0    0 -0.19496899453E+02  0.27546277667E+01 -0.17065636914E+02  0.26056727077E+02  0.51100000000E-03 0.  1.
        -12    1    3    3    0    0 -0.39038718535E+01  0.15901044925E+02 -0.10893338846E+02  0.19665916616E+02  0.00000000000E+00 0.  1.
</event>
<event>
 7    1  0.2661323E-011  0.5052887E+02  0.7816164E-02  0.1300439E+00
        -11   -1    0    0    0    0  0.00000000000E+00  0.00000000000E+00  0.45593999997E+02  0.45594000000E+02  0.51100000000E-03 0.  1.
         11   -1    0    0    0    0 -0.00000000000E+00 -0.00000000000E+00 -0.45593999997E+02  0.45594000000E+02  0.51100000000E-03 0. -1.
    9900012    2    1    2    0    0 -0.44492710618E+01 -0.20524986526E+02  0.34815140403E+02  0.50528867125E+02  0.30000022112E+02 0.  0.
         12    1    1    2    0    0  0.44492710618E+01  0.20524986526E+02 -0.34815140403E+02  0.40659132875E+02  0.00000000000E+00 0. -1.
         11    1    3    3    0    0 -0.56383172118E+01 -0.22244781685E+01  0.57054667226E+01  0.83241380868E+01  0.51100000000E-03 0. -1.
        -11    1    3    3    0    0 -0.11564238341E+02 -0.91430052359E+01  0.15941767987E+02  0.21713270596E+02  0.51100000000E-03 0.  1.
         12    1    3    3    0    0  0.12753284491E+02 -0.91575031219E+01  0.13167905693E+02  0.20491458442E+02  0.00000000000E+00 0. -1.
</event>
<event>
 7    1  0.2661323E-011  0.5052886E+02  0.7816164E-02  0.1300439E+00
        -11   -1    0    0    0    0  0.00000000000E+00  0.00000000000E+00  0.45593999997E+02  0.45594000000E+02  0.51100000000E-03 0. -1.
         11   -1    0    0    0    0 -0.00000000000E+00 -0.00000000000E+00 -0.45593999997E+02  0.45594000000E+02  0.51100000000E-03 0.  1.
    9900012    2    1    2    0    0 -0.14718215306E+02 -0.30032831103E+01 -0.37782538879E+02  0.50528858158E+02  0.29999994856E+02 0.  0.
         12    1    1    2    0    0  0.14718215306E+02  0.30032831103E+01  0.37782538879E+02  0.40659141842E+02  0.00000000000E+00 0. -1.
         11    1    3    3    0    0 -0.20506204761E+01  0.38715650198E+01  0.31674751103E+00  0.43925379095E+01  0.51100000000E-03 0. -1.
        -11    1    3    3    0    0 -0.32246969084E+01 -0.16330961973E-01  0.23801740685E+01  0.40080126882E+01  0.51100000000E-03 0.  1.
        -12    1    3    3    0    0 -0.94428979216E+01 -0.68585171681E+01 -0.40479460458E+02  0.42128307560E+02  0.00000000000E+00 0.  1.
</event>
<event>
 7    1  0.2661323E-011  0.5052886E+02  0.7816164E-02  0.1300439E+00
        -11   -1    0    0    0    0  0.00000000000E+00  0.00000000000E+00  0.45593999997E+02  0.45594000000E+02  0.51100000000E-03 0.  1.
         11   -1    0    0    0    0 -0.00000000000E+00 -0.00000000000E+00 -0.45593999997E+02  0.45594000000E+02  0.51100000000E-03 0. -1.
    9900012    2    1    2    0    0  0.29979380436E+00  0.31669903742E+02  0.25496920102E+02  0.50528860634E+02  0.30000002383E+02 0.  0.
         12    1    1    2    0    0 -0.29979380436E+00 -0.31669903742E+02 -0.25496920102E+02  0.40659139366E+02  0.00000000000E+00 0. -1.
         11    1    3    3    0    0 -0.22632842553E+00  0.28578136294E+01  0.35369506568E+00  0.28884985299E+01  0.51100000000E-03 0. -1.
        -11    1    3    3    0    0  0.10301103158E+02  0.46529334231E+01  0.16851677693E+02  0.20291415846E+02  0.51100000000E-03 0.  1.
        -12    1    3    3    0    0 -0.97749809283E+01  0.24159156689E+02  0.82915473431E+01  0.27348946258E+02  0.00000000000E+00 0.  1.
</event>
<event>
 7    1  0.2697249E-011  0.5052886E+02  0.7816164E-02  0.1300439E+00
        -11   -1    0    0    0    0  0.00000000000E+00  0.00000000000E+00  0.45593999997E+02  0.45594000000E+02  0.51100000000E-03 0.  1.
         11   -1    0    0    0    0 -0.00000000000E+00 -0.00000000000E+00 -0.45593999997E+02  0.45594000000E+02  0.51100000000E-03 0. -1.
    9900012    2    1    2    0    0 -0.40658127215E+02  0.27581807612E+00  0.77356953885E-01  0.50528863654E+02  0.30000011564E+02 0.  0.
         12    1    1    2    0    0  0.40658127215E+02 -0.27581807612E+00 -0.77356953885E-01  0.40659136346E+02  0.00000000000E+00 0. -1.
         11    1    3    3    0    0 -0.64025405307E+01  0.37682535402E+01  0.45229301061E+01  0.86976523842E+01  0.51100000000E-03 0.  1.
        -11    1    3    3    0    0 -0.22292607578E+02 -0.44780807463E+01  0.84095132749E+01  0.24243215001E+02  0.51100000000E-03 0. -1.
         12    1    3    3    0    0 -0.11962979107E+02  0.98564528226E+00 -0.12855086427E+02  0.17587996270E+02  0.00000000000E+00 0. -1.
</event>
<event>
 7    1  0.2661323E-011  0.5052884E+02  0.7816164E-02  0.1300439E+00
        -11   -1    0    0    0    0  0.00000000000E+00  0.00000000000E+00  0.45593999997E+02  0.45594000000E+02  0.51100000000E-03 0.  1.
         11   -1    0    0    0    0 -0.00000000000E+00 -0.00000000000E+00 -0.45593999997E+02  0.45594000000E+02  0.51100000000E-03 0. -1.
    9900012    2    1    2    0    0  0.35484137147E+01  0.30108774528E+02  0.27093125956E+02  0.50528843374E+02  0.29999949920E+02 0.  0.
         12    1    1    2    0    0 -0.35484137147E+01 -0.30108774528E+02 -0.27093125956E+02  0.40659156626E+02  0.00000000000E+00 0. -1.
         11    1    3    3    0    0  0.10267249734E+02 -0.47821384134E+00  0.84007821530E+01  0.13274722092E+02  0.51100000000E-03 0. -1.
        -11    1    3    3    0    0 -0.15131039823E+01  0.27247478420E+01  0.47119571816E+01  0.56494491064E+01  0.51100000000E-03 0.  1.
         12    1    3    3    0    0 -0.52057320372E+01  0.27862240527E+02  0.13980386622E+02  0.31604672175E+02  0.00000000000E+00 0. -1.
</event>
<event>
 7    1  0.2661323E-011  0.5052887E+02  0.7816164E-02  0.1300439E+00
        -11   -1    0    0    0    0  0.00000000000E+00  0.00000000000E+00  0.45593999997E+02  0.45594000000E+02  0.51100000000E-03 0.  1.
         11   -1    0    0    0    0 -0.00000000000E+00 -0.00000000000E+00 -0.45593999997E+02  0.45594000000E+02  0.51100000000E-03 0. -1.
    9900012    2    1    2    0    0 -0.40110865103E+02  0.18862579459E+01  0.63816224755E+01  0.50528873426E+02  0.30000041265E+02 0.  0.
         12    1    1    2    0    0  0.40110865103E+02 -0.18862579459E+01 -0.63816224755E+01  0.40659126574E+02  0.00000000000E+00 0. -1.
         11    1    3    3    0    0 -0.28902333918E+01 -0.27407508621E+01  0.68102369575E+01  0.78895178576E+01  0.51100000000E-03 0. -1.
        -11    1    3    3    0    0 -0.16395688835E+02 -0.68683927482E+01  0.45226052600E+01  0.18342502281E+02  0.51100000000E-03 0.  1.
         12    1    3    3    0    0 -0.20824942876E+02  0.11495401556E+02 -0.49512197419E+01  0.24296853287E+02  0.00000000000E+00 0. -1.
</event>
<event>
 7    1  0.2661323E-011  0.5052886E+02  0.7816164E-02  0.1300439E+00
        -11   -1    0    0    0    0  0.00000000000E+00  0.00000000000E+00  0.45593999997E+02  0.45594000000E+02  0.51100000000E-03 0. -1.
         11   -1    0    0    0    0 -0.00000000000E+00 -0.00000000000E+00 -0.45593999997E+02  0.45594000000E+02  0.51100000000E-03 0.  1.
    9900012    2    1    2    0    0 -0.39503287293E+02 -0.88010828745E+01  0.38983416660E+01  0.50528857922E+02  0.29999994141E+02 0.  0.
         12    1    1    2    0    0  0.39503287293E+02  0.88010828745E+01 -0.38983416660E+01  0.40659142078E+02  0.00000000000E+00 0. -1.
         11    1    3    3    0    0 -0.77279484096E+01  0.96161015539E-01  0.17896034003E+01  0.79330394020E+01  0.51100000000E-03 0. -1.
        -11    1    3    3    0    0 -0.34430705647E+02 -0.18851885699E+01 -0.95633656059E+00  0.34495536047E+02  0.51100000000E-03 0.  1.
         12    1    3    3    0    0  0.26553667633E+01 -0.70120553202E+01  0.30650748263E+01  0.81002824736E+01  0.00000000000E+00 0. -1.
</event>
<event>
 7    1  0.2661323E-011  0.5052887E+02  0.7816164E-02  0.1300439E+00
        -11   -1    0    0    0    0  0.00000000000E+00  0.00000000000E+00  0.45593999997E+02  0.45594000000E+02  0.51100000000E-03 0.  1.
         11   -1    0    0    0    0 -0.00000000000E+00 -0.00000000000E+00 -0.45593999997E+02  0.45594000000E+02  0.51100000000E-03 0. -1.
    9900012    2    1    2    0    0  0.83823545910E+01  0.39292391894E+02 -0.62456973826E+01  0.50528872304E+02  0.30000037854E+02 0.  0.
         12    1    1    2    0    0 -0.83823545910E+01 -0.39292391894E+02  0.62456973826E+01  0.40659127696E+02  0.00000000000E+00 0. -1.
         11    1    3    3    0    0  0.13650811955E+01  0.10246145533E+02  0.41865170960E+01  0.11152303377E+02  0.51100000000E-03 0. -1.
        -11    1    3    3    0    0  0.93105763497E+01  0.32366491305E+02 -0.10685146250E+02  0.35333396978E+02  0.51100000000E-03 0.  1.
         12    1    3    3    0    0 -0.22933029542E+01 -0.33202449438E+01  0.25293177165E+00  0.40431719488E+01  0.00000000000E+00 0. -1.
</event>
<event>
 7    1  0.2661323E-011  0.5052886E+02  0.7816164E-02  0.1300439E+00
        -11   -1    0    0    0    0  0.00000000000E+00  0.00000000000E+00  0.45593999997E+02  0.45594000000E+02  0.51100000000E-03 0. -1.
         11   -1    0    0    0    0 -0.00000000000E+00 -0.00000000000E+00 -0.45593999997E+02  0.45594000000E+02  0.51100000000E-03 0.  1.
    9900012    2    1    2    0    0 -0.10672522411E+02 -0.38560500661E+02 -0.72353637408E+01  0.50528862843E+02  0.30000009098E+02 0.  0.
         12    1    1    2    0    0  0.10672522411E+02  0.38560500661E+02  0.72353637408E+01  0.40659137157E+02  0.00000000000E+00 0. -1.
         11    1    3    3    0    0 -0.24757639931E+01 -0.33110847635E+01  0.55752665576E+01  0.69409139967E+01  0.51100000000E-03 0. -1.
        -11    1    3    3    0    0 -0.23984559598E+01 -0.13832068370E+02  0.52401231516E+01  0.14984578649E+02  0.51100000000E-03 0.  1.
        -12    1    3    3    0    0 -0.57983024586E+01 -0.21417347528E+02 -0.18050753450E+02  0.28603370198E+02  0.00000000000E+00 0.  1.
</event>
<event>
 7    1  0.2661323E-011  0.5052886E+02  0.7816164E-02  0.1300439E+00
        -11   -1    0    0    0    0  0.00000000000E+00  0.00000000000E+00  0.45593999997E+02  0.45594000000E+02  0.51100000000E-03 0.  1.
         11   -1    0    0    0    0 -0.00000000000E+00 -0.00000000000E+00 -0.45593999997E+02  0.45594000000E+02  0.51100000000E-03 0. -1.
    9900012    2    1    2    0    0 -0.31509497162E+02 -0.68643338728E+00  0.25687466211E+02  0.50528861759E+02  0.30000005802E+02 0.  0.
         12    1    1    2    0    0  0.31509497162E+02  0.68643338728E+00 -0.25687466211E+02  0.40659138241E+02  0.00000000000E+00 0. -1.
         11    1    3    3    0    0 -0.25283786409E+01 -0.50539852349E+01 -0.39456604529E+01  0.68922929405E+01  0.51100000000E-03 0. -1.
        -11    1    3    3    0    0 -0.17138889552E+02  0.81861980361E+01  0.13691640312E+02  0.23414021185E+02  0.51100000000E-03 0.  1.
        -12    1    3    3    0    0 -0.11842228969E+02 -0.38186461884E+01  0.15941486352E+02  0.20222547633E+02  0.00000000000E+00 0.  1.
</event>
<event>
 7    1  0.2661323E-011  0.5052886E+02  0.7816164E-02  0.1300439E+00
        -11   -1    0    0    0    0  0.00000000000E+00  0.00000000000E+00  0.45593999997E+02  0.45594000000E+02  0.51100000000E-03 0. -1.
         11   -1    0    0    0    0 -0.00000000000E+00 -0.00000000000E+00 -0.45593999997E+02  0.45594000000E+02  0.51100000000E-03 0.  1.
    9900012    2    1    2    0    0 -0.88041393657E+01 -0.38849232902E+02  0.81480198767E+01  0.50528855949E+02  0.29999988143E+02 0.  0.
         12    1    1    2    0    0  0.88041393657E+01  0.38849232902E+02 -0.81480198767E+01  0.40659144051E+02  0.00000000000E+00 0. -1.
         11    1    3    3    0    0  0.66840187378E+01 -0.18789349399E+02  0.85283612328E+01  0.21689829481E+02  0.51100000000E-03 0. -1.
        -11    1    3    3    0    0 -0.12758002040E+02 -0.14336940443E+02  0.57346553132E+01  0.20029996234E+02  0.51100000000E-03 0.  1.
        -12    1    3    3    0    0 -0.27301560631E+01 -0.57229430602E+01 -0.61149966694E+01  0.88090302341E+01  0.00000000000E+00 0.  1.
</event>
<event>
 7    1  0.2661323E-011  0.5052885E+02  0.7816164E-02  0.1300439E+00
        -11   -1    0    0    0    0  0.00000000000E+00  0.00000000000E+00  0.45593999997E+02  0.45594000000E+02  0.51100000000E-03 0.  1.
         11   -1    0    0    0    0 -0.00000000000E+00 -0.00000000000E+00 -0.45593999997E+02  0.45594000000E+02  0.51100000000E-03 0. -1.
    9900012    2    1    2    0    0  0.69428303134E+01  0.39713303603E+01  0.39864673624E+02  0.50528848992E+02  0.29999966996E+02 0.  0.
         12    1    1    2    0    0 -0.69428303134E+01 -0.39713303603E+01 -0.39864673624E+02  0.40659151008E+02  0.00000000000E+00 0. -1.
         11    1    3    3    0    0  0.58615959914E+01  0.95084536146E+01  0.29978882194E+02  0.31992223673E+02  0.51100000000E-03 0. -1.
        -11    1    3    3    0    0  0.26783190867E+01  0.46504574011E+01  0.32471910676E+01  0.62725112403E+01  0.51100000000E-03 0.  1.
         12    1    3    3    0    0 -0.15970847646E+01 -0.10187580655E+02  0.66386003620E+01  0.12264114078E+02  0.00000000000E+00 0. -1.
</event>
<event>
 7    1  0.2661323E-011  0.5052884E+02  0.7816164E-02  0.1300439E+00
        -11   -1    0    0    0    0  0.00000000000E+00  0.00000000000E+00  0.45593999997E+02  0.45594000000E+02  0.51100000000E-03 0. -1.
         11   -1    0    0    0    0 -0.00000000000E+00 -0.00000000000E+00 -0.45593999997E+02  0.45594000000E+02  0.51100000000E-03 0.  1.
    9900012    2    1    2    0    0  0.25572102779E+02  0.27692605817E+02 -0.15243168929E+02  0.50528842895E+02  0.29999948465E+02 0.  0.
         12    1    1    2    0    0 -0.25572102779E+02 -0.27692605817E+02  0.15243168929E+02  0.40659157105E+02  0.00000000000E+00 0. -1.
         11    1    3    3    0    0  0.80362863663E+01  0.17242216852E+02 -0.82738810703E+01  0.20744470318E+02  0.51100000000E-03 0. -1.
        -11    1    3    3    0    0  0.13927262331E+02  0.15493648925E+02 -0.97335626361E+01  0.22994869751E+02  0.51100000000E-03 0.  1.
         12    1    3    3    0    0  0.36085540819E+01 -0.50432599598E+01  0.27642747774E+01  0.67895028264E+01  0.00000000000E+00 0. -1.
</event>
<event>
 7    1  0.2661323E-011  0.5052885E+02  0.7816164E-02  0.1300439E+00
        -11   -1    0    0    0    0  0.00000000000E+00  0.00000000000E+00  0.45593999997E+02  0.45594000000E+02  0.51100000000E-03 0.  1.
         11   -1    0    0    0    0 -0.00000000000E+00 -0.00000000000E+00 -0.45593999997E+02  0.45594000000E+02  0.51100000000E-03 0. -1.
    9900012    2    1    2    0    0  0.18583833551E+02 -0.31224357466E+02  0.18244093223E+02  0.50528852122E+02  0.29999976510E+02 0.  0.
         12    1    1    2    0    0 -0.18583833551E+02  0.31224357466E+02 -0.18244093223E+02  0.40659147878E+02  0.00000000000E+00 0. -1.
         11    1    3    3    0    0  0.15413196292E+02 -0.23215831966E+02  0.76913705475E+01  0.28908453001E+02  0.51100000000E-03 0. -1.
        -11    1    3    3    0    0  0.61728091208E+01  0.91448114238E+00  0.10489931316E+02  0.12205675216E+02  0.51100000000E-03 0.  1.
         12    1    3    3    0    0 -0.30021718609E+01 -0.89230066432E+01  0.62791358736E-01  0.94147239041E+01  0.00000000000E+00 0. -1.
</event>
<event>
 7    1  0.2661323E-011  0.5052886E+02  0.7816164E-02  0.1300439E+00
        -11   -1    0    0    0    0  0.00000000000E+00  0.00000000000E+00  0.45593999997E+02  0.45594000000E+02  0.51100000000E-03 0.  1.
         11   -1    0    0    0    0 -0.00000000000E+00 -0.00000000000E+00 -0.45593999997E+02  0.45594000000E+02  0.51100000000E-03 0. -1.
    9900012    2    1    2    0    0  0.21995770028E+01  0.20995609410E+02  0.34749273114E+02  0.50528859140E+02  0.29999997842E+02 0.  0.
         12    1    1    2    0    0 -0.21995770028E+01 -0.20995609410E+02 -0.34749273114E+02  0.40659140860E+02  0.00000000000E+00 0. -1.
         11    1    3    3    0    0 -0.25949774654E+01 -0.14183185754E+01  0.15535936253E+01  0.33405372384E+01  0.51100000000E-03 0.  1.
        -11    1    3    3    0    0 -0.11035921072E+01 -0.39799147661E+01  0.12408443873E+02  0.13077733622E+02  0.51100000000E-03 0. -1.
        -12    1    3    3    0    0  0.58981465755E+01  0.26393842751E+02  0.20787235616E+02  0.34110588279E+02  0.00000000000E+00 0.  1.
</event>
<event>
 7    1  0.2661323E-011  0.5052885E+02  0.7816164E-02  0.1300439E+00
        -11   -1    0    0    0    0  0.00000000000E+00  0.00000000000E+00  0.45593999997E+02  0.45594000000E+02  0.51100000000E-03 0. -1.
         11   -1    0    0    0    0 -0.00000000000E+00 -0.00000000000E+00 -0.45593999997E+02  0.45594000000E+02  0.51100000000E-03 0.  1.
    9900012    2    1    2    0    0 -0.74851572330E+01 -0.39227834697E+02 -0.76364583419E+01  0.50528854782E+02  0.29999984596E+02 0.  0.
         12    1    1    2    0    0  0.74851572330E+01  0.39227834697E+02  0.76364583419E+01  0.40659145218E+02  0.00000000000E+00 0. -1.
         11    1    3    3    0    0  0.69496448564E+01 -0.15856305429E+02 -0.10942072610E+01  0.17346967322E+02  0.51100000000E-03 0. -1.
        -11    1    3    3    0    0 -0.41546711282E+01 -0.21532497142E+02 -0.59464536495E+01  0.22721576455E+02  0.51100000000E-03 0.  1.
         12    1    3    3    0    0 -0.10280130961E+02 -0.18390321269E+01 -0.59579743138E+00  0.10460311005E+02  0.00000000000E+00 0. -1.
</event>
<event>
 7    1  0.2661323E-011  0.5052887E+02  0.7816164E-02  0.1300439E+00
        -11   -1    0    0    0    0  0.00000000000E+00  0.00000000000E+00  0.45593999997E+02  0.45594000000E+02  0.51100000000E-03 0. -1.
         11   -1    0    0    0    0 -0.00000000000E+00 -0.00000000000E+00 -0.45593999997E+02  0.45594000000E+02  0.51100000000E-03 0.  1.
    9900012    2    1    2    0    0 -0.16534348889E+02 -0.28340481813E+02 -0.24012442209E+02  0.50528868389E+02  0.30000025954E+02 0.  0.
         12    1    1    2    0    0  0.16534348889E+02  0.28340481813E+02  0.24012442209E+02  0.40659131611E+02  0.00000000000E+00 0. -1.
         11    1    3    3    0    0 -0.47013596892E+01 -0.53764125333E+01 -0.30417302630E+01  0.77627777187E+01  0.51100000000E-03 0. -1.
        -11    1    3    3    0    0 -0.12133186683E+02 -0.28216269820E+02 -0.13313116155E+02  0.33475530819E+02  0.51100000000E-03 0.  1.
         12    1    3    3    0    0  0.30019748347E+00  0.52522005403E+01 -0.76575957906E+01  0.92905598506E+01  0.00000000000E+00 0. -1.
</event>
<event>
 7    1  0.2661323E-011  0.5052891E+02  0.7816164E-02  0.1300439E+00
        -11   -1    0    0    0    0  0.00000000000E+00  0.00000000000E+00  0.45593999997E+02  0.45594000000E+02  0.51100000000E-03 0.  1.
         11   -1    0    0    0    0 -0.00000000000E+00 -0.00000000000E+00 -0.45593999997E+02  0.45594000000E+02  0.51100000000E-03 0. -1.
    9900012    2    1    2    0    0  0.91006732943E+01 -0.19825340202E+02  0.34311732666E+02  0.50528912859E+02  0.30000161127E+02 0.  0.
         12    1    1    2    0    0 -0.91006732943E+01  0.19825340202E+02 -0.34311732666E+02  0.40659087141E+02  0.00000000000E+00 0. -1.
         11    1    3    3    0    0  0.13507617777E+01  0.21385278435E+01  0.96122493486E+00  0.27058847637E+01  0.51100000000E-03 0. -1.
        -11    1    3    3    0    0  0.90445683941E+01 -0.64735682097E+01  0.10501829513E+00  0.11123054073E+02  0.51100000000E-03 0.  1.
        -12    1    3    3    0    0 -0.12946568775E+01 -0.15490299836E+02  0.33245489436E+02  0.36699974023E+02  0.00000000000E+00 0.  1.
</event>
<event>
 7    1  0.2661323E-011  0.5052886E+02  0.7816164E-02  0.1300439E+00
        -11   -1    0    0    0    0  0.00000000000E+00  0.00000000000E+00  0.45593999997E+02  0.45594000000E+02  0.51100000000E-03 0. -1.
         11   -1    0    0    0    0 -0.00000000000E+00 -0.00000000000E+00 -0.45593999997E+02  0.45594000000E+02  0.51100000000E-03 0.  1.
    9900012    2    1    2    0    0 -0.38683667628E+02  0.59084935685E+01  0.11037609673E+02  0.50528864930E+02  0.30000015440E+02 0.  0.
         12    1    1    2    0    0  0.38683667628E+02 -0.59084935685E+01 -0.11037609673E+02  0.40659135070E+02  0.00000000000E+00 0. -1.
         11    1    3    3    0    0 -0.25829514914E+01  0.55231701240E+01  0.50703139395E+01  0.79300145228E+01  0.51100000000E-03 0. -1.
        -11    1    3    3    0    0 -0.25971392770E+02  0.66664839881E+01 -0.39385324312E+01  0.27101056974E+02  0.51100000000E-03 0.  1.
         12    1    3    3    0    0 -0.10129323367E+02 -0.62811605436E+01  0.99058281651E+01  0.15497793433E+02  0.00000000000E+00 0. -1.
</event>
<event>
 7    1  0.2661323E-011  0.5052886E+02  0.7816164E-02  0.1300439E+00
        -11   -1    0    0    0    0  0.00000000000E+00  0.00000000000E+00  0.45593999997E+02  0.45594000000E+02  0.51100000000E-03 0.  1.
         11   -1    0    0    0    0 -0.00000000000E+00 -0.00000000000E+00 -0.45593999997E+02  0.45594000000E+02  0.51100000000E-03 0. -1.
    9900012    2    1    2    0    0 -0.91777894809E+01  0.36725630130E+02  0.14837853226E+02  0.50528860602E+02  0.30000002286E+02 0.  0.
         12    1    1    2    0    0  0.91777894809E+01 -0.36725630130E+02 -0.14837853226E+02  0.40659139398E+02  0.00000000000E+00 0. -1.
         11    1    3    3    0    0 -0.38810806582E+01  0.45702596795E+01  0.86103148104E+01  0.10492262959E+02  0.51100000000E-03 0. -1.
        -11    1    3    3    0    0  0.49275901793E+01  0.15621977593E+02  0.11356087592E+02  0.19932086056E+02  0.51100000000E-03 0.  1.
         12    1    3    3    0    0 -0.10224299002E+02  0.16533392858E+02 -0.51285491765E+01  0.20104511586E+02  0.00000000000E+00 0. -1.
</event>
<event>
 7    1  0.2661323E-011  0.5052888E+02  0.7816164E-02  0.1300439E+00
        -11   -1    0    0    0    0  0.00000000000E+00  0.00000000000E+00  0.45593999997E+02  0.45594000000E+02  0.51100000000E-03 0.  1.
         11   -1    0    0    0    0 -0.00000000000E+00 -0.00000000000E+00 -0.45593999997E+02  0.45594000000E+02  0.51100000000E-03 0. -1.
    9900012    2    1    2    0    0  0.90294460660E+01 -0.10644352841E+01  0.39629533698E+02  0.50528882205E+02  0.30000067950E+02 0.  0.
         12    1    1    2    0    0 -0.90294460660E+01  0.10644352841E+01 -0.39629533698E+02  0.40659117795E+02  0.00000000000E+00 0. -1.
         11    1    3    3    0    0  0.18808541911E+02 -0.41144350279E+01  0.26460678755E+02  0.32723956742E+02  0.51100000000E-03 0.  1.
        -11    1    3    3    0    0 -0.52220990199E+01  0.46018275007E+01  0.93711767458E+01  0.11673306660E+02  0.51100000000E-03 0. -1.
        -12    1    3    3    0    0 -0.45569968250E+01 -0.15518277569E+01  0.37976781981E+01  0.61316188031E+01  0.00000000000E+00 0.  1.
</event>
<event>
 7    1  0.2661323E-011  0.5052884E+02  0.7816164E-02  0.1300439E+00
        -11   -1    0    0    0    0  0.00000000000E+00  0.00000000000E+00  0.45593999997E+02  0.45594000000E+02  0.51100000000E-03 0.  1.
         11   -1    0    0    0    0 -0.00000000000E+00 -0.00000000000E+00 -0.45593999997E+02  0.45594000000E+02  0.51100000000E-03 0. -1.
    9900012    2    1    2    0    0 -0.22960210177E+02  0.32820191131E+02  0.69879029482E+01  0.50528843776E+02  0.29999951142E+02 0.  0.
         12    1    1    2    0    0  0.22960210177E+02 -0.32820191131E+02 -0.69879029482E+01  0.40659156224E+02  0.00000000000E+00 0. -1.
         11    1    3    3    0    0  0.60964223058E+01  0.33831844147E+01 -0.83430202977E+00  0.70219913025E+01  0.51100000000E-03 0.  1.
        -11    1    3    3    0    0 -0.13072308040E+01  0.61871552324E+01  0.29516576179E+01  0.69786836294E+01  0.51100000000E-03 0. -1.
        -12    1    3    3    0    0 -0.27749401679E+02  0.23249851484E+02  0.48705473600E+01  0.36528168844E+02  0.00000000000E+00 0.  1.
</event>
<event>
 7    1  0.2661323E-011  0.5052885E+02  0.7816164E-02  0.1300439E+00
        -11   -1    0    0    0    0  0.00000000000E+00  0.00000000000E+00  0.45593999997E+02  0.45594000000E+02  0.51100000000E-03 0. -1.
         11   -1    0    0    0    0 -0.00000000000E+00 -0.00000000000E+00 -0.45593999997E+02  0.45594000000E+02  0.51100000000E-03 0.  1.
    9900012    2    1    2    0    0 -0.14403194675E+02 -0.29944805896E+02 -0.23431234631E+02  0.50528853755E+02  0.29999981474E+02 0.  0.
         12    1    1    2    0    0  0.14403194675E+02  0.29944805896E+02  0.23431234631E+02  0.40659146245E+02  0.00000000000E+00 0. -1.
         11    1    3    3    0    0 -0.30660440410E+01 -0.20439301115E+02  0.77083212875E+00  0.20682355731E+02  0.51100000000E-03 0. -1.
        -11    1    3    3    0    0  0.10254750982E+01  0.88929116014E-02 -0.50108576031E+01  0.51147211499E+01  0.51100000000E-03 0.  1.
        -12    1    3    3    0    0 -0.12362625732E+02 -0.95143976926E+01 -0.19191209157E+02  0.24731776874E+02  0.00000000000E+00 0.  1.
</event>
<event>
 7    1  0.2661323E-011  0.5052887E+02  0.7816164E-02  0.1300439E+00
        -11   -1    0    0    0    0  0.00000000000E+00  0.00000000000E+00  0.45593999997E+02  0.45594000000E+02  0.51100000000E-03 0. -1.
         11   -1    0    0    0    0 -0.00000000000E+00 -0.00000000000E+00 -0.45593999997E+02  0.45594000000E+02  0.51100000000E-03 0.  1.
    9900012    2    1    2    0    0  0.30240922973E+02 -0.12302994175E+02 -0.24234018598E+02  0.50528871317E+02  0.30000034854E+02 0.  0.
         12    1    1    2    0    0 -0.30240922973E+02  0.12302994175E+02  0.24234018598E+02  0.40659128683E+02  0.00000000000E+00 0. -1.
         11    1    3    3    0    0  0.94814895287E+01  0.58109252380E+01 -0.23255393326E+00  0.11122930252E+02  0.51100000000E-03 0. -1.
        -11    1    3    3    0    0  0.80535087758E+01  0.11599517072E+01 -0.70418679157E+01  0.10760687504E+02  0.51100000000E-03 0.  1.
        -12    1    3    3    0    0  0.12705924668E+02 -0.19273871120E+02 -0.16959596749E+02  0.28645253560E+02  0.00000000000E+00 0.  1.
</event>
<event>
 7    1  0.2661323E-011  0.5052887E+02  0.7816164E-02  0.1300439E+00
        -11   -1    0    0    0    0  0.00000000000E+00  0.00000000000E+00  0.45593999997E+02  0.45594000000E+02  0.51100000000E-03 0. -1.
         11   -1    0    0    0    0 -0.00000000000E+00 -0.00000000000E+00 -0.45593999997E+02  0.45594000000E+02  0.51100000000E-03 0.  1.
    9900012    2    1    2    0    0 -0.14603338575E+02 -0.19287855902E+02 -0.32678527409E+02  0.50528867736E+02  0.30000023971E+02 0.  0.
         12    1    1    2    0    0  0.14603338575E+02  0.19287855902E+02  0.32678527409E+02  0.40659132264E+02  0.00000000000E+00 0. -1.
         11    1    3    3    0    0 -0.15738413099E+02 -0.10307845422E+02 -0.13660231158E+02  0.23249757841E+02  0.51100000000E-03 0.  1.
        -11    1    3    3    0    0 -0.78733294450E+01 -0.27299812533E+01 -0.10439216870E+02  0.13357371123E+02  0.51100000000E-03 0. -1.
         12    1    3    3    0    0  0.90084039695E+01 -0.62500292263E+01 -0.85790793806E+01  0.13921738772E+02  0.00000000000E+00 0. -1.
</event>
<event>
 7    1  0.2661323E-011  0.5052886E+02  0.7816164E-02  0.1300439E+00
        -11   -1    0    0    0    0  0.00000000000E+00  0.00000000000E+00  0.45593999997E+02  0.45594000000E+02  0.51100000000E-03 0.  1.
         11   -1    0    0    0    0 -0.00000000000E+00 -0.00000000000E+00 -0.45593999997E+02  0.45594000000E+02  0.51100000000E-03 0. -1.
    9900012    2    1    2    0    0  0.27869790740E+02  0.24735101991E+02  0.16267005906E+02  0.50528856041E+02  0.29999988421E+02 0.  0.
         12    1    1    2    0    0 -0.27869790740E+02 -0.24735101991E+02 -0.16267005906E+02  0.40659143959E+02  0.00000000000E+00 0. -1.
         11    1    3    3    0    0  0.25819650984E+01  0.96910471423E+01  0.46578721006E+01  0.11057970485E+02  0.51100000000E-03 0. -1.
        -11    1    3    3    0    0 -0.16050413878E+01  0.94221503463E+01 -0.21503972252E+00  0.95602990199E+01  0.51100000000E-03 0.  1.
         12    1    3    3    0    0  0.26892867029E+02  0.56219045022E+01  0.11824173527E+02  0.29910586536E+02  0.00000000000E+00 0. -1.
</event>
<event>
 7    1  0.2661323E-011  0.5052887E+02  0.7816164E-02  0.1300439E+00
        -11   -1    0    0    0    0  0.00000000000E+00  0.00000000000E+00  0.45593999997E+02  0.45594000000E+02  0.51100000000E-03 0.  1.
         11   -1    0    0    0    0 -0.00000000000E+00 -0.00000000000E+00 -0.45593999997E+02  0.45594000000E+02  0.51100000000E-03 0. -1.
    9900012    2    1    2    0    0 -0.38338106114E+02 -0.11694905601E+02 -0.68252252972E+01  0.50528869441E+02  0.30000029154E+02 0.  0.
         12    1    1    2    0    0  0.38338106114E+02  0.11694905601E+02  0.68252252972E+01  0.40659130559E+02  0.00000000000E+00 0. -1.
         11    1    3    3    0    0 -0.17967415985E+02 -0.33190356292E+01 -0.10582223190E+02  0.21114627219E+02  0.51100000000E-03 0. -1.
        -11    1    3    3    0    0 -0.96893550538E+01 -0.14003499718E+02  0.11840284669E+01  0.17069959853E+02  0.51100000000E-03 0.  1.
         12    1    3    3    0    0 -0.10681335075E+02  0.56276297462E+01  0.25729694262E+01  0.12344282369E+02  0.00000000000E+00 0. -1.
</event>
<event>
 7    1  0.2661323E-011  0.5052885E+02  0.7816164E-02  0.1300439E+00
        -11   -1    0    0    0    0  0.00000000000E+00  0.00000000000E+00  0.45593999997E+02  0.45594000000E+02  0.51100000000E-03 0. -1.
         11   -1    0    0    0    0 -0.00000000000E+00 -0.00000000000E+00 -0.45593999997E+02  0.45594000000E+02  0.51100000000E-03 0.  1.
    9900012    2    1    2    0    0  0.38806690369E+02 -0.51537916497E+01 -0.10983870269E+02  0.50528853527E+02  0.29999980782E+02 0.  0.
         12    1    1    2    0    0 -0.38806690369E+02  0.51537916497E+01  0.10983870269E+02  0.40659146473E+02  0.00000000000E+00 0. -1.
         11    1    3    3    0    0  0.20647600288E+02 -0.12069051906E+02  0.59640341838E+01  0.24648633138E+02  0.51100000000E-03 0. -1.
        -11    1    3    3    0    0  0.12398445754E+01  0.11297672742E+01 -0.13996758448E+01  0.21846467441E+01  0.51100000000E-03 0.  1.
         12    1    3    3    0    0  0.16919245506E+02  0.57854929819E+01 -0.15548228608E+02  0.23695573645E+02  0.00000000000E+00 0. -1.
</event>
<event>
 7    1  0.2661323E-011  0.5052887E+02  0.7816164E-02  0.1300439E+00
        -11   -1    0    0    0    0  0.00000000000E+00  0.00000000000E+00  0.45593999997E+02  0.45594000000E+02  0.51100000000E-03 0. -1.
         11   -1    0    0    0    0 -0.00000000000E+00 -0.00000000000E+00 -0.45593999997E+02  0.45594000000E+02  0.51100000000E-03 0.  1.
    9900012    2    1    2    0    0  0.83307630171E+01 -0.38487103076E+02  0.10124527686E+02  0.50528870933E+02  0.30000033687E+02 0.  0.
         12    1    1    2    0    0 -0.83307630171E+01  0.38487103076E+02 -0.10124527686E+02  0.40659129067E+02  0.00000000000E+00 0. -1.
         11    1    3    3    0    0  0.76074878982E+01  0.97393867629E+00 -0.13905557777E+01  0.77946182908E+01  0.51100000000E-03 0. -1.
        -11    1    3    3    0    0 -0.30946185866E+01 -0.58474578217E+01 -0.94471513734E+00  0.66829569897E+01  0.51100000000E-03 0.  1.
        -12    1    3    3    0    0  0.38178937055E+01 -0.33613583931E+02  0.12459798601E+02  0.36051295652E+02  0.00000000000E+00 0.  1.
</event>
<event>
 7    1  0.2661323E-011  0.5052887E+02  0.7816164E-02  0.1300439E+00
        -11   -1    0    0    0    0  0.00000000000E+00  0.00000000000E+00  0.45593999997E+02  0.45594000000E+02  0.51100000000E-03 0.  1.
         11   -1    0    0    0    0 -0.00000000000E+00 -0.00000000000E+00 -0.45593999997E+02  0.45594000000E+02  0.51100000000E-03 0. -1.
    9900012    2    1    2    0    0 -0.16495727424E+02  0.37134069222E+02 -0.14550075063E+01  0.50528866130E+02  0.30000019088E+02 0.  0.
         12    1    1    2    0    0  0.16495727424E+02 -0.37134069222E+02  0.14550075063E+01  0.40659133870E+02  0.00000000000E+00 0. -1.
         11    1    3    3    0    0 -0.90816018114E+01  0.71036240265E+01 -0.78891491720E+01  0.13970527574E+02  0.51100000000E-03 0. -1.
        -11    1    3    3    0    0 -0.14347199796E+01  0.45505433394E+01 -0.59312116317E+01  0.76121703728E+01  0.51100000000E-03 0.  1.
        -12    1    3    3    0    0 -0.59794056330E+01  0.25479901856E+02  0.12365353297E+02  0.28946168183E+02  0.00000000000E+00 0.  1.
</event>
<event>
 7    1  0.2661323E-011  0.5052888E+02  0.7816164E-02  0.1300439E+00
        -11   -1    0    0    0    0  0.00000000000E+00  0.00000000000E+00  0.45593999997E+02  0.45594000000E+02  0.51100000000E-03 0. -1.
         11   -1    0    0    0    0 -0.00000000000E+00 -0.00000000000E+00 -0.45593999997E+02  0.45594000000E+02  0.51100000000E-03 0.  1.
    9900012    2    1    2    0    0  0.30750807560E+02  0.25323110429E+02  0.81419879712E+01  0.50528879799E+02  0.30000060638E+02 0.  0.
         12    1    1    2    0    0 -0.30750807560E+02 -0.25323110429E+02 -0.81419879712E+01  0.40659120201E+02  0.00000000000E+00 0. -1.
         11    1    3    3    0    0  0.43780909847E+01  0.93277860032E+01  0.58031161749E+01  0.11825879671E+02  0.51100000000E-03 0. -1.
        -11    1    3    3    0    0  0.94151613977E+00  0.12431486511E+02 -0.20993066469E+01  0.12642602508E+02  0.51100000000E-03 0.  1.
        -12    1    3    3    0    0  0.25431200435E+02  0.35638379156E+01  0.44381784432E+01  0.26060397621E+02  0.00000000000E+00 0.  1.
</event>
<event>
 7    1  0.2661323E-011  0.5052886E+02  0.7816164E-02  0.1300439E+00
        -11   -1    0    0    0    0  0.00000000000E+00  0.00000000000E+00  0.45593999997E+02  0.45594000000E+02  0.51100000000E-03 0.  1.
         11   -1    0    0    0    0 -0.00000000000E+00 -0.00000000000E+00 -0.45593999997E+02  0.45594000000E+02  0.51100000000E-03 0. -1.
    9900012    2    1    2    0    0  0.26899207867E+02 -0.11129913862E+01  0.30468991513E+02  0.50528861082E+02  0.30000003746E+02 0.  0.
         12    1    1    2    0    0 -0.26899207867E+02  0.11129913862E+01 -0.30468991513E+02  0.40659138918E+02  0.00000000000E+00 0. -1.
         11    1    3    3    0    0  0.11710171611E+02  0.13355766182E+02  0.72177428456E+01  0.19172908530E+02  0.51100000000E-03 0.  1.
        -11    1    3    3    0    0  0.58857799400E+01 -0.52515068183E+01  0.76738229772E+01  0.11004921113E+02  0.51100000000E-03 0. -1.
        -12    1    3    3    0    0  0.93032563161E+01 -0.92172507504E+01  0.15577425690E+02  0.20351031439E+02  0.00000000000E+00 0.  1.
</event>
<event>
 7    1  0.2661323E-011  0.5052886E+02  0.7816164E-02  0.1300439E+00
        -11   -1    0    0    0    0  0.00000000000E+00  0.00000000000E+00  0.45593999997E+02  0.45594000000E+02  0.51100000000E-03 0. -1.
         11   -1    0    0    0    0 -0.00000000000E+00 -0.00000000000E+00 -0.45593999997E+02  0.45594000000E+02  0.51100000000E-03 0.  1.
    9900012    2    1    2    0    0  0.34003380320E+02  0.21796839123E+02 -0.46726120187E+01  0.50528863609E+02  0.30000011427E+02 0.  0.
         12    1    1    2    0    0 -0.34003380320E+02 -0.21796839123E+02  0.46726120187E+01  0.40659136391E+02  0.00000000000E+00 0. -1.
         11    1    3    3    0    0  0.81779082600E+01  0.42808869351E+00  0.86464283261E+01  0.11908911222E+02  0.51100000000E-03 0. -1.
        -11    1    3    3    0    0  0.91291303970E+01  0.51327799614E+01  0.21102844235E+01  0.10683620760E+02  0.51100000000E-03 0.  1.
        -12    1    3    3    0    0  0.16696341663E+02  0.16235970468E+02 -0.15429324768E+02  0.27936331627E+02  0.00000000000E+00 0.  1.
</event>
<event>
 7    1  0.2661323E-011  0.5052887E+02  0.7816164E-02  0.1300439E+00
        -11   -1    0    0    0    0  0.00000000000E+00  0.00000000000E+00  0.45593999997E+02  0.45594000000E+02  0.51100000000E-03 0.  1.
         11   -1    0    0    0    0 -0.00000000000E+00 -0.00000000000E+00 -0.45593999997E+02  0.45594000000E+02  0.51100000000E-03 0. -1.
    9900012    2    1    2    0    0  0.31238159139E+02 -0.10820923151E+02  0.23669595710E+02  0.50528871563E+02  0.30000035601E+02 0.  0.
         12    1    1    2    0    0 -0.31238159139E+02  0.10820923151E+02 -0.23669595710E+02  0.40659128437E+02  0.00000000000E+00 0. -1.
         11    1    3    3    0    0  0.83662486691E-01 -0.10969107727E+01 -0.14784451224E+01  0.18428274190E+01  0.51100000000E-03 0. -1.
        -11    1    3    3    0    0  0.24038504836E+02 -0.33549606117E+01  0.28615416888E+01  0.24439596898E+02  0.51100000000E-03 0.  1.
         12    1    3    3    0    0  0.71159918161E+01 -0.63690517661E+01  0.22286499144E+02  0.24246447245E+02  0.00000000000E+00 0. -1.
</event>
<event>
 7    1  0.2661323E-011  0.5052886E+02  0.7816164E-02  0.1300439E+00
        -11   -1    0    0    0    0  0.00000000000E+00  0.00000000000E+00  0.45593999997E+02  0.45594000000E+02  0.51100000000E-03 0.  1.
         11   -1    0    0    0    0 -0.00000000000E+00 -0.00000000000E+00 -0.45593999997E+02  0.45594000000E+02  0.51100000000E-03 0. -1.
    9900012    2    1    2    0    0  0.78228803735E+01 -0.20101808093E+02  0.34465717471E+02  0.50528858018E+02  0.29999994431E+02 0.  0.
         12    1    1    2    0    0 -0.78228803735E+01  0.20101808093E+02 -0.34465717471E+02  0.40659141982E+02  0.00000000000E+00 0. -1.
         11    1    3    3    0    0  0.11383834160E+02 -0.24417858792E+01  0.46480913772E+01  0.12536297387E+02  0.51100000000E-03 0. -1.
        -11    1    3    3    0    0  0.24229106234E+01 -0.14078720384E+02  0.11329399231E+02  0.18232831670E+02  0.51100000000E-03 0.  1.
         12    1    3    3    0    0 -0.59838644097E+01 -0.35813018299E+01  0.18488226863E+02  0.19759728961E+02  0.00000000000E+00 0. -1.
</event>
<event>
 7    1  0.2661323E-011  0.5052886E+02  0.7816164E-02  0.1300439E+00
        -11   -1    0    0    0    0  0.00000000000E+00  0.00000000000E+00  0.45593999997E+02  0.45594000000E+02  0.51100000000E-03 0.  1.
         11   -1    0    0    0    0 -0.00000000000E+00 -0.00000000000E+00 -0.45593999997E+02  0.45594000000E+02  0.51100000000E-03 0. -1.
    9900012    2    1    2    0    0 -0.38397197843E+01  0.37497668835E+02  0.15242926522E+02  0.50528862958E+02  0.30000009446E+02 0.  0.
         12    1    1    2    0    0  0.38397197843E+01 -0.37497668835E+02 -0.15242926522E+02  0.40659137042E+02  0.00000000000E+00 0. -1.
         11    1    3    3    0    0  0.46950713015E+01  0.98925592472E+01 -0.41232022247E+01  0.11700735867E+02  0.51100000000E-03 0. -1.
        -11    1    3    3    0    0  0.28060926275E+01  0.89734201463E+01 -0.37483475602E+00  0.94094062678E+01  0.51100000000E-03 0.  1.
         12    1    3    3    0    0 -0.11340883713E+02  0.18631689442E+02  0.19740963502E+02  0.29418720823E+02  0.00000000000E+00 0. -1.
</event>
<event>
 7    1  0.2661323E-011  0.5052886E+02  0.7816164E-02  0.1300439E+00
        -11   -1    0    0    0    0  0.00000000000E+00  0.00000000000E+00  0.45593999997E+02  0.45594000000E+02  0.51100000000E-03 0.  1.
         11   -1    0    0    0    0 -0.00000000000E+00 -0.00000000000E+00 -0.45593999997E+02  0.45594000000E+02  0.51100000000E-03 0. -1.
    9900012    2    1    2    0    0 -0.28040766361E+02  0.18339652787E+02  0.23033417985E+02  0.50528858512E+02  0.29999995933E+02 0.  0.
         12    1    1    2    0    0  0.28040766361E+02 -0.18339652787E+02 -0.23033417985E+02  0.40659141488E+02  0.00000000000E+00 0. -1.
         11    1    3    3    0    0 -0.25205240814E+02  0.46355653430E+01  0.87307480351E+01  0.27074316096E+02  0.51100000000E-03 0. -1.
        -11    1    3    3    0    0 -0.48297448762E+01  0.11833034923E+01  0.98945525469E+00  0.50700754122E+01  0.51100000000E-03 0.  1.
         12    1    3    3    0    0  0.19942193290E+01  0.12520783952E+02  0.13313214695E+02  0.18384467004E+02  0.00000000000E+00 0. -1.
</event>
<event>
 7    1  0.2661323E-011  0.5052886E+02  0.7816164E-02  0.1300439E+00
        -11   -1    0    0    0    0  0.00000000000E+00  0.00000000000E+00  0.45593999997E+02  0.45594000000E+02  0.51100000000E-03 0.  1.
         11   -1    0    0    0    0 -0.00000000000E+00 -0.00000000000E+00 -0.45593999997E+02  0.45594000000E+02  0.51100000000E-03 0. -1.
    9900012    2    1    2    0    0  0.11199044291E+02  0.36969142187E+02  0.12689750320E+02  0.50528857974E+02  0.29999994298E+02 0.  0.
         12    1    1    2    0    0 -0.11199044291E+02 -0.36969142187E+02 -0.12689750320E+02  0.40659142026E+02  0.00000000000E+00 0. -1.
         11    1    3    3    0    0 -0.19758778772E+01  0.10493439564E+01  0.71010950346E+00  0.23472264255E+01  0.51100000000E-03 0. -1.
        -11    1    3    3    0    0 -0.43201827981E+00  0.17692752494E+02  0.17378445547E+02  0.24803840439E+02  0.51100000000E-03 0.  1.
        -12    1    3    3    0    0  0.13606940448E+02  0.18227045737E+02 -0.53988047306E+01  0.23377791109E+02  0.00000000000E+00 0.  1.
</event>
<event>
 7    1  0.2661323E-011  0.5052886E+02  0.7816164E-02  0.1300439E+00
        -11   -1    0    0    0    0  0.00000000000E+00  0.00000000000E+00  0.45593999997E+02  0.45594000000E+02  0.51100000000E-03 0.  1.
         11   -1    0    0    0    0 -0.00000000000E+00 -0.00000000000E+00 -0.45593999997E+02  0.45594000000E+02  0.51100000000E-03 0. -1.
    9900012    2    1    2    0    0 -0.38050503257E+02 -0.10431546941E+02 -0.98238200585E+01  0.50528863139E+02  0.30000009999E+02 0.  0.
         12    1    1    2    0    0  0.38050503257E+02  0.10431546941E+02  0.98238200585E+01  0.40659136861E+02  0.00000000000E+00 0. -1.
         11    1    3    3    0    0 -0.16244661669E+02  0.29734477185E+01 -0.62385470601E+01  0.17653608520E+02  0.51100000000E-03 0. -1.
        -11    1    3    3    0    0 -0.23547059702E+01 -0.37679026781E+01 -0.94044331736E+01  0.10401206390E+02  0.51100000000E-03 0.  1.
        -12    1    3    3    0    0 -0.19451135618E+02 -0.96370919810E+01  0.58191601752E+01  0.22474048229E+02  0.00000000000E+00 0.  1.
</event>
<event>
 7    1  0.2661323E-011  0.5052886E+02  0.7816164E-02  0.1300439E+00
        -11   -1    0    0    0    0  0.00000000000E+00  0.00000000000E+00  0.45593999997E+02  0.45594000000E+02  0.51100000000E-03 0.  1.
         11   -1    0    0    0    0 -0.00000000000E+00 -0.00000000000E+00 -0.45593999997E+02  0.45594000000E+02  0.51100000000E-03 0. -1.
    9900012    2    1    2    0    0 -0.13822695743E+02  0.79604743382E+01  0.37399590176E+02  0.50528863085E+02  0.30000009834E+02 0.  0.
         12    1    1    2    0    0  0.13822695743E+02 -0.79604743382E+01 -0.37399590176E+02  0.40659136915E+02  0.00000000000E+00 0. -1.
         11    1    3    3    0    0 -0.63374319711E+01  0.97992006449E+00  0.11493502638E+02  0.13161454725E+02  0.51100000000E-03 0. -1.
        -11    1    3    3    0    0 -0.92390192842E+01  0.25171257174E-01  0.28327942508E+02  0.29796517211E+02  0.51100000000E-03 0.  1.
         12    1    3    3    0    0  0.17537555118E+01  0.69553830165E+01 -0.24218549696E+01  0.75708911494E+01  0.00000000000E+00 0. -1.
</event>
<event>
 7    1  0.2661323E-011  0.5052882E+02  0.7816164E-02  0.1300439E+00
        -11   -1    0    0    0    0  0.00000000000E+00  0.00000000000E+00  0.45593999997E+02  0.45594000000E+02  0.51100000000E-03 0.  1.
         11   -1    0    0    0    0 -0.00000000000E+00 -0.00000000000E+00 -0.45593999997E+02  0.45594000000E+02  0.51100000000E-03 0. -1.
    9900012    2    1    2    0    0  0.27910279018E+02  0.27074707410E+02  0.11880467137E+02  0.50528819542E+02  0.29999877478E+02 0.  0.
         12    1    1    2    0    0 -0.27910279018E+02 -0.27074707410E+02 -0.11880467137E+02  0.40659180458E+02  0.00000000000E+00 0. -1.
         11    1    3    3    0    0 -0.24577542781E+01  0.72894745167E+01 -0.29249769294E+01  0.82299747946E+01  0.51100000000E-03 0. -1.
        -11    1    3    3    0    0  0.21241194624E+01  0.40984430227E+01 -0.29060044970E+01  0.54547209918E+01  0.51100000000E-03 0.  1.
        -12    1    3    3    0    0  0.28243913833E+02  0.15686789870E+02  0.17711448563E+02  0.36844123755E+02  0.00000000000E+00 0.  1.
</event>
<event>
 7    1  0.2661323E-011  0.5052886E+02  0.7816164E-02  0.1300439E+00
        -11   -1    0    0    0    0  0.00000000000E+00  0.00000000000E+00  0.45593999997E+02  0.45594000000E+02  0.51100000000E-03 0.  1.
         11   -1    0    0    0    0 -0.00000000000E+00 -0.00000000000E+00 -0.45593999997E+02  0.45594000000E+02  0.51100000000E-03 0. -1.
    9900012    2    1    2    0    0 -0.29804362117E+02 -0.13105258492E+02  0.24354006475E+02  0.50528862863E+02  0.30000009159E+02 0.  0.
         12    1    1    2    0    0  0.29804362117E+02  0.13105258492E+02 -0.24354006475E+02  0.40659137137E+02  0.00000000000E+00 0. -1.
         11    1    3    3    0    0  0.10914535669E+01 -0.80812613177E+01  0.83213352919E+01  0.11650865920E+02  0.51100000000E-03 0. -1.
        -11    1    3    3    0    0 -0.74122482912E+01  0.14757511034E+01 -0.28231736983E+01  0.80678111060E+01  0.51100000000E-03 0.  1.
        -12    1    3    3    0    0 -0.23483567393E+02 -0.64997482774E+01  0.18855844882E+02  0.30810185838E+02  0.00000000000E+00 0.  1.
</event>
<event>
 7    1  0.2661323E-011  0.5052884E+02  0.7816164E-02  0.1300439E+00
        -11   -1    0    0    0    0  0.00000000000E+00  0.00000000000E+00  0.45593999997E+02  0.45594000000E+02  0.51100000000E-03 0.  1.
         11   -1    0    0    0    0 -0.00000000000E+00 -0.00000000000E+00 -0.45593999997E+02  0.45594000000E+02  0.51100000000E-03 0. -1.
    9900012    2    1    2    0    0  0.32822683574E+01 -0.31933399313E+02  0.24952997834E+02  0.50528838939E+02  0.29999936439E+02 0.  0.
         12    1    1    2    0    0 -0.32822683574E+01  0.31933399313E+02 -0.24952997834E+02  0.40659161061E+02  0.00000000000E+00 0. -1.
         11    1    3    3    0    0  0.71015882895E+01 -0.24019846023E+02  0.18959733425E+02  0.31414281004E+02  0.51100000000E-03 0. -1.
        -11    1    3    3    0    0  0.16189809116E+00 -0.66554293247E+01  0.10837688156E+02  0.12719136579E+02  0.51100000000E-03 0.  1.
         12    1    3    3    0    0 -0.39812180233E+01 -0.12581239659E+01 -0.48444237481E+01  0.63954213555E+01  0.00000000000E+00 0. -1.
</event>
<event>
 7    1  0.2661323E-011  0.5052885E+02  0.7816164E-02  0.1300439E+00
        -11   -1    0    0    0    0  0.00000000000E+00  0.00000000000E+00  0.45593999997E+02  0.45594000000E+02  0.51100000000E-03 0.  1.
         11   -1    0    0    0    0 -0.00000000000E+00 -0.00000000000E+00 -0.45593999997E+02  0.45594000000E+02  0.51100000000E-03 0. -1.
    9900012    2    1    2    0    0  0.18189029986E+02  0.25902957263E+02  0.25521800079E+02  0.50528852369E+02  0.29999977262E+02 0.  0.
         12    1    1    2    0    0 -0.18189029986E+02 -0.25902957263E+02 -0.25521800079E+02  0.40659147631E+02  0.00000000000E+00 0. -1.
         11    1    3    3    0    0  0.65528675324E+01  0.53641927993E+01  0.59857038463E+01  0.10370308003E+02  0.51100000000E-03 0. -1.
        -11    1    3    3    0    0  0.25898553621E+01  0.17550887614E+02  0.23829900769E+02  0.29708671761E+02  0.51100000000E-03 0.  1.
         12    1    3    3    0    0  0.90463070918E+01  0.29878768489E+01 -0.42938045368E+01  0.10449872605E+02  0.00000000000E+00 0. -1.
</event>
<event>
 7    1  0.2661323E-011  0.5052885E+02  0.7816164E-02  0.1300439E+00
        -11   -1    0    0    0    0  0.00000000000E+00  0.00000000000E+00  0.45593999997E+02  0.45594000000E+02  0.51100000000E-03 0. -1.
         11   -1    0    0    0    0 -0.00000000000E+00 -0.00000000000E+00 -0.45593999997E+02  0.45594000000E+02  0.51100000000E-03 0.  1.
    9900012    2    1    2    0    0 -0.34136790058E+02 -0.18732430072E+02  0.11702229441E+02  0.50528849175E+02  0.29999967553E+02 0.  0.
         12    1    1    2    0    0  0.34136790058E+02  0.18732430072E+02 -0.11702229441E+02  0.40659150825E+02  0.00000000000E+00 0. -1.
         11    1    3    3    0    0 -0.42727556119E+01 -0.34098820010E+00  0.43326203700E+01  0.60946134417E+01  0.51100000000E-03 0. -1.
        -11    1    3    3    0    0 -0.21944116140E+02 -0.92787773304E+01  0.16767818654E+02  0.29134166962E+02  0.51100000000E-03 0.  1.
        -12    1    3    3    0    0 -0.79199183064E+01 -0.91126645419E+01 -0.93982095829E+01  0.15300068771E+02  0.00000000000E+00 0.  1.
</event>
<event>
 7    1  0.2661323E-011  0.5052887E+02  0.7816164E-02  0.1300439E+00
        -11   -1    0    0    0    0  0.00000000000E+00  0.00000000000E+00  0.45593999997E+02  0.45594000000E+02  0.51100000000E-03 0. -1.
         11   -1    0    0    0    0 -0.00000000000E+00 -0.00000000000E+00 -0.45593999997E+02  0.45594000000E+02  0.51100000000E-03 0.  1.
    9900012    2    1    2    0    0 -0.17062810140E+02  0.33708574827E+02 -0.15025229408E+02  0.50528867871E+02  0.30000024380E+02 0.  0.
         12    1    1    2    0    0  0.17062810140E+02 -0.33708574827E+02  0.15025229408E+02  0.40659132129E+02  0.00000000000E+00 0. -1.
         11    1    3    3    0    0  0.90971761391E+00  0.12658372957E+02 -0.29071669750E+01  0.13019739327E+02  0.51100000000E-03 0. -1.
        -11    1    3    3    0    0  0.46352994996E+00  0.91796598947E+01 -0.12576528645E+02  0.15577229819E+02  0.51100000000E-03 0.  1.
         12    1    3    3    0    0 -0.18436057703E+02  0.11870541975E+02  0.45846621175E+00  0.21931898725E+02  0.00000000000E+00 0. -1.
</event>
<event>
 7    1  0.2661323E-011  0.5052886E+02  0.7816164E-02  0.1300439E+00
        -11   -1    0    0    0    0  0.00000000000E+00  0.00000000000E+00  0.45593999997E+02  0.45594000000E+02  0.51100000000E-03 0.  1.
         11   -1    0    0    0    0 -0.00000000000E+00 -0.00000000000E+00 -0.45593999997E+02  0.45594000000E+02  0.51100000000E-03 0. -1.
    9900012    2    1    2    0    0  0.39002318396E+02  0.69065470981E+01  0.91806353962E+01  0.50528864503E+02  0.30000014143E+02 0.  0.
         12    1    1    2    0    0 -0.39002318396E+02 -0.69065470981E+01 -0.91806353962E+01  0.40659135497E+02  0.00000000000E+00 0. -1.
         11    1    3    3    0    0  0.10476432630E+02  0.93298182700E+01  0.64000624101E+01  0.15419531404E+02  0.51100000000E-03 0. -1.
        -11    1    3    3    0    0  0.95095126458E+00  0.18745533294E+01  0.66134989775E+01  0.69394976388E+01  0.51100000000E-03 0.  1.
         12    1    3    3    0    0  0.27574934502E+02 -0.42978245012E+01 -0.38329259914E+01  0.28169835460E+02  0.00000000000E+00 0. -1.
</event>
<event>
 7    1  0.2661323E-011  0.5052889E+02  0.7816164E-02  0.1300439E+00
        -11   -1    0    0    0    0  0.00000000000E+00  0.00000000000E+00  0.45593999997E+02  0.45594000000E+02  0.51100000000E-03 0. -1.
         11   -1    0    0    0    0 -0.00000000000E+00 -0.00000000000E+00 -0.45593999997E+02  0.45594000000E+02  0.51100000000E-03 0.  1.
    9900012    2    1    2    0    0  0.30654009530E+02  0.26085141017E+02  0.57498253571E+01  0.50528888183E+02  0.30000086120E+02 0.  0.
         12    1    1    2    0    0 -0.30654009530E+02 -0.26085141017E+02 -0.57498253571E+01  0.40659111817E+02  0.00000000000E+00 0. -1.
         11    1    3    3    0    0  0.54949710908E+01 -0.21607571899E+01  0.94326384852E+01  0.11128263475E+02  0.51100000000E-03 0. -1.
        -11    1    3    3    0    0  0.12667920453E+02  0.68378481289E+01 -0.22821870989E+01  0.14575347469E+02  0.51100000000E-03 0.  1.
        -12    1    3    3    0    0  0.12491117986E+02  0.21408050078E+02 -0.14006260293E+01  0.24825277238E+02  0.00000000000E+00 0.  1.
</event>
<event>
 7    1  0.2661323E-011  0.5052886E+02  0.7816164E-02  0.1300439E+00
        -11   -1    0    0    0    0  0.00000000000E+00  0.00000000000E+00  0.45593999997E+02  0.45594000000E+02  0.51100000000E-03 0.  1.
         11   -1    0    0    0    0 -0.00000000000E+00 -0.00000000000E+00 -0.45593999997E+02  0.45594000000E+02  0.51100000000E-03 0. -1.
    9900012    2    1    2    0    0  0.34426973711E+02  0.20322401532E+02  0.74127943514E+01  0.50528855358E+02  0.29999986347E+02 0.  0.
         12    1    1    2    0    0 -0.34426973711E+02 -0.20322401532E+02 -0.74127943514E+01  0.40659144642E+02  0.00000000000E+00 0. -1.
         11    1    3    3    0    0  0.48280495720E+01 -0.19607095606E+00 -0.58380125785E+01  0.75783175980E+01  0.51100000000E-03 0. -1.
        -11    1    3    3    0    0  0.74103023498E+01  0.54456538540E+01 -0.50374496898E+01  0.10485400634E+02  0.51100000000E-03 0.  1.
        -12    1    3    3    0    0  0.22188621789E+02  0.15072818634E+02  0.18288256620E+02  0.32465137127E+02  0.00000000000E+00 0.  1.
</event>
<event>
 7    1  0.2661323E-011  0.5052885E+02  0.7816164E-02  0.1300439E+00
        -11   -1    0    0    0    0  0.00000000000E+00  0.00000000000E+00  0.45593999997E+02  0.45594000000E+02  0.51100000000E-03 0. -1.
         11   -1    0    0    0    0 -0.00000000000E+00 -0.00000000000E+00 -0.45593999997E+02  0.45594000000E+02  0.51100000000E-03 0.  1.
    9900012    2    1    2    0    0 -0.40099205257E+02 -0.66489798018E+01  0.10056236981E+01  0.50528850062E+02  0.29999970249E+02 0.  0.
         12    1    1    2    0    0  0.40099205257E+02  0.66489798018E+01 -0.10056236981E+01  0.40659149938E+02  0.00000000000E+00 0. -1.
         11    1    3    3    0    0 -0.12947333556E-01 -0.73274689087E+01  0.31780334069E+01  0.79869809589E+01  0.51100000000E-03 0. -1.
        -11    1    3    3    0    0 -0.61218497323E+01 -0.44324579205E+01 -0.31329658689E+01  0.81816381464E+01  0.51100000000E-03 0.  1.
         12    1    3    3    0    0 -0.33964408191E+02  0.51109470274E+01  0.96055616009E+00  0.34360230957E+02  0.00000000000E+00 0. -1.
</event>
<event>
 7    1  0.2661323E-011  0.5052886E+02  0.7816164E-02  0.1300439E+00
        -11   -1    0    0    0    0  0.00000000000E+00  0.00000000000E+00  0.45593999997E+02  0.45594000000E+02  0.51100000000E-03 0.  1.
         11   -1    0    0    0    0 -0.00000000000E+00 -0.00000000000E+00 -0.45593999997E+02  0.45594000000E+02  0.51100000000E-03 0. -1.
    9900012    2    1    2    0    0  0.32014048383E+02 -0.69693452045E+01  0.24076841393E+02  0.50528863782E+02  0.30000011953E+02 0.  0.
         12    1    1    2    0    0 -0.32014048383E+02  0.69693452045E+01 -0.24076841393E+02  0.40659136218E+02  0.00000000000E+00 0. -1.
         11    1    3    3    0    0  0.18937715516E+02 -0.41138918749E+01  0.51321176684E+01  0.20047438922E+02  0.51100000000E-03 0. -1.
        -11    1    3    3    0    0  0.10312721688E+02 -0.56842726844E+01  0.22350199619E+02  0.25262513886E+02  0.51100000000E-03 0.  1.
         12    1    3    3    0    0  0.27636111798E+01  0.28288193548E+01 -0.34054758941E+01  0.52189109746E+01  0.00000000000E+00 0. -1.
</event>
<event>
 7    1  0.2661323E-011  0.5052887E+02  0.7816164E-02  0.1300439E+00
        -11   -1    0    0    0    0  0.00000000000E+00  0.00000000000E+00  0.45593999997E+02  0.45594000000E+02  0.51100000000E-03 0.  1.
         11   -1    0    0    0    0 -0.00000000000E+00 -0.00000000000E+00 -0.45593999997E+02  0.45594000000E+02  0.51100000000E-03 0. -1.
    9900012    2    1    2    0    0 -0.39937382366E+02 -0.53572985336E+01  0.54285810486E+01  0.50528872488E+02  0.30000038416E+02 0.  0.
         12    1    1    2    0    0  0.39937382366E+02  0.53572985336E+01 -0.54285810486E+01  0.40659127512E+02  0.00000000000E+00 0. -1.
         11    1    3    3    0    0 -0.27787774025E+01 -0.94360593890E+01 -0.36179043207E+01  0.10480937581E+02  0.51100000000E-03 0. -1.
        -11    1    3    3    0    0 -0.79323487781E+01  0.59701697724E+00  0.69111276173E+01  0.10537659684E+02  0.51100000000E-03 0.  1.
        -12    1    3    3    0    0 -0.29226256185E+02  0.34817438782E+01  0.21353577520E+01  0.29510275223E+02  0.00000000000E+00 0.  1.
</event>
<event>
 7    1  0.2661323E-011  0.5052886E+02  0.7816164E-02  0.1300439E+00
        -11   -1    0    0    0    0  0.00000000000E+00  0.00000000000E+00  0.45593999997E+02  0.45594000000E+02  0.51100000000E-03 0.  1.
         11   -1    0    0    0    0 -0.00000000000E+00 -0.00000000000E+00 -0.45593999997E+02  0.45594000000E+02  0.51100000000E-03 0. -1.
    9900012    2    1    2    0    0  0.20799869173E+02 -0.74316767043E+00  0.34928195498E+02  0.50528859619E+02  0.29999999297E+02 0.  0.
         12    1    1    2    0    0 -0.20799869173E+02  0.74316767043E+00 -0.34928195498E+02  0.40659140381E+02  0.00000000000E+00 0. -1.
         11    1    3    3    0    0  0.30365684676E+01  0.14688321986E+01 -0.11515536461E+01  0.35643080881E+01  0.51100000000E-03 0. -1.
        -11    1    3    3    0    0  0.13895161979E+02  0.16300228715E+00  0.38539386655E+01  0.14420642831E+02  0.51100000000E-03 0.  1.
        -12    1    3    3    0    0  0.38681387270E+01 -0.23750021562E+01  0.32225810479E+02  0.32543908700E+02  0.00000000000E+00 0.  1.
</event>
<event>
 7    1  0.2661323E-011  0.5052886E+02  0.7816164E-02  0.1300439E+00
        -11   -1    0    0    0    0  0.00000000000E+00  0.00000000000E+00  0.45593999997E+02  0.45594000000E+02  0.51100000000E-03 0.  1.
         11   -1    0    0    0    0 -0.00000000000E+00 -0.00000000000E+00 -0.45593999997E+02  0.45594000000E+02  0.51100000000E-03 0. -1.
    9900012    2    1    2    0    0  0.28302049815E+02 -0.28912315249E+02 -0.40295891754E+01  0.50528860981E+02  0.30000003439E+02 0.  0.
         12    1    1    2    0    0 -0.28302049815E+02  0.28912315249E+02  0.40295891754E+01  0.40659139019E+02  0.00000000000E+00 0. -1.
         11    1    3    3    0    0  0.59849968448E+01 -0.10202047157E+02  0.34212803759E+01  0.12312884028E+02  0.51100000000E-03 0. -1.
        -11    1    3    3    0    0  0.12082000331E+02  0.31948664401E+01 -0.63367367521E+01  0.14011999732E+02  0.51100000000E-03 0.  1.
         12    1    3    3    0    0  0.10235052640E+02 -0.21905134533E+02 -0.11141327993E+01  0.24203977221E+02  0.00000000000E+00 0. -1.
</event>
<event>
 7    1  0.2661323E-011  0.5052887E+02  0.7816164E-02  0.1300439E+00
        -11   -1    0    0    0    0  0.00000000000E+00  0.00000000000E+00  0.45593999997E+02  0.45594000000E+02  0.51100000000E-03 0.  1.
         11   -1    0    0    0    0 -0.00000000000E+00 -0.00000000000E+00 -0.45593999997E+02  0.45594000000E+02  0.51100000000E-03 0. -1.
    9900012    2    1    2    0    0  0.17397661240E+02  0.34696515008E+02  0.12109429637E+02  0.50528867490E+02  0.30000023223E+02 0.  0.
         12    1    1    2    0    0 -0.17397661240E+02 -0.34696515008E+02 -0.12109429637E+02  0.40659132510E+02  0.00000000000E+00 0. -1.
         11    1    3    3    0    0  0.29995748142E+01  0.57776615294E+01  0.94771444623E+01  0.11497612328E+02  0.51100000000E-03 0. -1.
        -11    1    3    3    0    0 -0.52142500294E+01  0.24520317331E+01  0.19491415591E+01  0.60827638510E+01  0.51100000000E-03 0.  1.
        -12    1    3    3    0    0  0.19612336455E+02  0.26466821745E+02  0.68314361576E+00  0.32948491312E+02  0.00000000000E+00 0.  1.
</event>
<event>
 7    1  0.2661323E-011  0.5052886E+02  0.7816164E-02  0.1300439E+00
        -11   -1    0    0    0    0  0.00000000000E+00  0.00000000000E+00  0.45593999997E+02  0.45594000000E+02  0.51100000000E-03 0. -1.
         11   -1    0    0    0    0 -0.00000000000E+00 -0.00000000000E+00 -0.45593999997E+02  0.45594000000E+02  0.51100000000E-03 0.  1.
    9900012    2    1    2    0    0  0.24449737206E+02 -0.29269410240E+02 -0.14095299751E+02  0.50528862032E+02  0.30000006632E+02 0.  0.
         12    1    1    2    0    0 -0.24449737206E+02  0.29269410240E+02  0.14095299751E+02  0.40659137968E+02  0.00000000000E+00 0. -1.
         11    1    3    3    0    0  0.53506375269E+01 -0.14589143815E+01 -0.12245784855E+01  0.56795550746E+01  0.51100000000E-03 0. -1.
        -11    1    3    3    0    0  0.95882421515E+01 -0.56071921406E+01  0.73743763388E+01  0.13332532314E+02  0.51100000000E-03 0.  1.
         12    1    3    3    0    0  0.95108575280E+01 -0.22203303718E+02 -0.20245097604E+02  0.31516774643E+02  0.00000000000E+00 0. -1.
</event>
<event>
 7    1  0.2661323E-011  0.5052886E+02  0.7816164E-02  0.1300439E+00
        -11   -1    0    0    0    0  0.00000000000E+00  0.00000000000E+00  0.45593999997E+02  0.45594000000E+02  0.51100000000E-03 0.  1.
         11   -1    0    0    0    0 -0.00000000000E+00 -0.00000000000E+00 -0.45593999997E+02  0.45594000000E+02  0.51100000000E-03 0. -1.
    9900012    2    1    2    0    0 -0.30259904929E+02 -0.10908170856E+02  0.24869967714E+02  0.50528864104E+02  0.30000012929E+02 0.  0.
         12    1    1    2    0    0  0.30259904929E+02  0.10908170856E+02 -0.24869967714E+02  0.40659135896E+02  0.00000000000E+00 0. -1.
         11    1    3    3    0    0 -0.11714495117E+02 -0.35064121366E+01  0.49711154145E+01  0.13199860251E+02  0.51100000000E-03 0. -1.
        -11    1    3    3    0    0 -0.19902576071E+02  0.30638029035E+01  0.17082037115E+02  0.26406351789E+02  0.51100000000E-03 0.  1.
        -12    1    3    3    0    0  0.13571662594E+01 -0.10465561622E+02  0.28168151845E+01  0.10922652064E+02  0.00000000000E+00 0.  1.
</event>
<event>
 7    1  0.2661323E-011  0.5052886E+02  0.7816164E-02  0.1300439E+00
        -11   -1    0    0    0    0  0.00000000000E+00  0.00000000000E+00  0.45593999997E+02  0.45594000000E+02  0.51100000000E-03 0. -1.
         11   -1    0    0    0    0 -0.00000000000E+00 -0.00000000000E+00 -0.45593999997E+02  0.45594000000E+02  0.51100000000E-03 0.  1.
    9900012    2    1    2    0    0  0.28751898104E+02 -0.28705052797E+02  0.15855790363E+01  0.50528858819E+02  0.29999996867E+02 0.  0.
         12    1    1    2    0    0 -0.28751898104E+02  0.28705052797E+02 -0.15855790363E+01  0.40659141181E+02  0.00000000000E+00 0. -1.
         11    1    3    3    0    0  0.92953301173E+00 -0.17617672263E+01 -0.33798992466E+01  0.39232097264E+01  0.51100000000E-03 0. -1.
        -11    1    3    3    0    0  0.11453084485E+02 -0.50489163830E+01 -0.94661259246E+01  0.15693063472E+02  0.51100000000E-03 0.  1.
        -12    1    3    3    0    0  0.16369280607E+02 -0.21894369188E+02  0.14431604208E+02  0.30912585620E+02  0.00000000000E+00 0.  1.
</event>
<event>
 7    1  0.2661323E-011  0.5052885E+02  0.7816164E-02  0.1300439E+00
        -11   -1    0    0    0    0  0.00000000000E+00  0.00000000000E+00  0.45593999997E+02  0.45594000000E+02  0.51100000000E-03 0.  1.
         11   -1    0    0    0    0 -0.00000000000E+00 -0.00000000000E+00 -0.45593999997E+02  0.45594000000E+02  0.51100000000E-03 0. -1.
    9900012    2    1    2    0    0  0.61714622291E+01 -0.38419131741E+02  0.11791925182E+02  0.50528854297E+02  0.29999983122E+02 0.  0.
         12    1    1    2    0    0 -0.61714622291E+01  0.38419131741E+02 -0.11791925182E+02  0.40659145703E+02  0.00000000000E+00 0. -1.
         11    1    3    3    0    0  0.99222070187E+00  0.41357763624E+01  0.22550701551E+01  0.48139889599E+01  0.51100000000E-03 0. -1.
        -11    1    3    3    0    0 -0.12066934856E+01 -0.61669852188E+00  0.23156379359E+01  0.26830217194E+01  0.51100000000E-03 0.  1.
        -12    1    3    3    0    0  0.63859350128E+01 -0.41938209581E+02  0.72212170911E+01  0.43031843618E+02  0.00000000000E+00 0.  1.
</event>
<event>
 7    1  0.2661323E-011  0.5052886E+02  0.7816164E-02  0.1300439E+00
        -11   -1    0    0    0    0  0.00000000000E+00  0.00000000000E+00  0.45593999997E+02  0.45594000000E+02  0.51100000000E-03 0. -1.
         11   -1    0    0    0    0 -0.00000000000E+00 -0.00000000000E+00 -0.45593999997E+02  0.45594000000E+02  0.51100000000E-03 0.  1.
    9900012    2    1    2    0    0  0.28554403530E+01  0.40511772846E+02 -0.19514147583E+01  0.50528864517E+02  0.30000014185E+02 0.  0.
         12    1    1    2    0    0 -0.28554403530E+01 -0.40511772846E+02  0.19514147583E+01  0.40659135483E+02  0.00000000000E+00 0. -1.
         11    1    3    3    0    0  0.74024356617E+01  0.21638975049E+01 -0.65064873986E+01  0.10090237097E+02  0.51100000000E-03 0. -1.
        -11    1    3    3    0    0  0.54250744985E+00  0.84155299554E+00 -0.17990580819E+01  0.20589162248E+01  0.51100000000E-03 0.  1.
        -12    1    3    3    0    0 -0.50895027586E+01  0.37506322345E+02  0.63541307222E+01  0.38379711195E+02  0.00000000000E+00 0.  1.
</event>
<event>
 7    1  0.2661323E-011  0.5052886E+02  0.7816164E-02  0.1300439E+00
        -11   -1    0    0    0    0  0.00000000000E+00  0.00000000000E+00  0.45593999997E+02  0.45594000000E+02  0.51100000000E-03 0.  1.
         11   -1    0    0    0    0 -0.00000000000E+00 -0.00000000000E+00 -0.45593999997E+02  0.45594000000E+02  0.51100000000E-03 0. -1.
    9900012    2    1    2    0    0 -0.80943715781E+01 -0.20525808046E+02  0.34151694431E+02  0.50528857366E+02  0.29999992450E+02 0.  0.
         12    1    1    2    0    0  0.80943715781E+01  0.20525808046E+02 -0.34151694431E+02  0.40659142634E+02  0.00000000000E+00 0. -1.
         11    1    3    3    0    0 -0.10668216393E+02  0.86146662894E+00  0.14604540791E+02  0.18106506503E+02  0.51100000000E-03 0. -1.
        -11    1    3    3    0    0 -0.39943978757E+01 -0.17131113806E+02  0.16186550884E+02  0.23904700467E+02  0.51100000000E-03 0.  1.
        -12    1    3    3    0    0  0.65682426909E+01 -0.42561608689E+01  0.33606027562E+01  0.85176503963E+01  0.00000000000E+00 0.  1.
</event>
<event>
 7    1  0.2661323E-011  0.5052886E+02  0.7816164E-02  0.1300439E+00
        -11   -1    0    0    0    0  0.00000000000E+00  0.00000000000E+00  0.45593999997E+02  0.45594000000E+02  0.51100000000E-03 0.  1.
         11   -1    0    0    0    0 -0.00000000000E+00 -0.00000000000E+00 -0.45593999997E+02  0.45594000000E+02  0.51100000000E-03 0. -1.
    9900012    2    1    2    0    0  0.19171401048E+02  0.10687947337E+02  0.34225589539E+02  0.50528858153E+02  0.29999994843E+02 0.  0.
         12    1    1    2    0    0 -0.19171401048E+02 -0.10687947337E+02 -0.34225589539E+02  0.40659141847E+02  0.00000000000E+00 0. -1.
         11    1    3    3    0    0 -0.12803475082E+00 -0.53688803823E+01  0.78827114814E-01  0.53709853316E+01  0.51100000000E-03 0. -1.
        -11    1    3    3    0    0  0.58380820481E+01  0.25396450135E+01  0.21117346559E+02  0.22056185635E+02  0.51100000000E-03 0.  1.
        -12    1    3    3    0    0  0.13461353751E+02  0.13517182706E+02  0.13029415865E+02  0.23101687187E+02  0.00000000000E+00 0.  1.
</event>
<event>
 7    1  0.2661323E-011  0.5052878E+02  0.7816164E-02  0.1300439E+00
        -11   -1    0    0    0    0  0.00000000000E+00  0.00000000000E+00  0.45593999997E+02  0.45594000000E+02  0.51100000000E-03 0.  1.
         11   -1    0    0    0    0 -0.00000000000E+00 -0.00000000000E+00 -0.45593999997E+02  0.45594000000E+02  0.51100000000E-03 0. -1.
    9900012    2    1    2    0    0  0.37178572412E+02  0.13848757845E+02 -0.88959452036E+01  0.50528779871E+02  0.29999756896E+02 0.  0.
         12    1    1    2    0    0 -0.37178572412E+02 -0.13848757845E+02  0.88959452036E+01  0.40659220129E+02  0.00000000000E+00 0. -1.
         11    1    3    3    0    0  0.11097149557E+02  0.70776300464E+01 -0.14404789658E+02  0.19512497040E+02  0.51100000000E-03 0. -1.
        -11    1    3    3    0    0 -0.14715956702E+00 -0.23132275948E+01 -0.97044906706E+00  0.25128568397E+01  0.51100000000E-03 0.  1.
        -12    1    3    3    0    0  0.26228582421E+02  0.90843553933E+01  0.64792935216E+01  0.28503425992E+02  0.00000000000E+00 0.  1.
</event>
<event>
 7    1  0.2661323E-011  0.5052886E+02  0.7816164E-02  0.1300439E+00
        -11   -1    0    0    0    0  0.00000000000E+00  0.00000000000E+00  0.45593999997E+02  0.45594000000E+02  0.51100000000E-03 0. -1.
         11   -1    0    0    0    0 -0.00000000000E+00 -0.00000000000E+00 -0.45593999997E+02  0.45594000000E+02  0.51100000000E-03 0.  1.
    9900012    2    1    2    0    0 -0.22360333459E+01 -0.26551077138E+02 -0.30711656941E+02  0.50528863089E+02  0.30000009844E+02 0.  0.
         12    1    1    2    0    0  0.22360333459E+01  0.26551077138E+02  0.30711656941E+02  0.40659136911E+02  0.00000000000E+00 0. -1.
         11    1    3    3    0    0 -0.76750764997E+01 -0.11368544611E+02 -0.51080805760E+01  0.14637045237E+02  0.51100000000E-03 0. -1.
        -11    1    3    3    0    0 -0.72205914565E+01 -0.58052747853E+01 -0.77299577775E+01  0.12066084859E+02  0.51100000000E-03 0.  1.
        -12    1    3    3    0    0  0.12659634610E+02 -0.93772577423E+01 -0.17873618587E+02  0.23825732993E+02  0.00000000000E+00 0.  1.
</event>
<event>
 7    1  0.2661323E-011  0.5052886E+02  0.7816164E-02  0.1300439E+00
        -11   -1    0    0    0    0  0.00000000000E+00  0.00000000000E+00  0.45593999997E+02  0.45594000000E+02  0.51100000000E-03 0.  1.
         11   -1    0    0    0    0 -0.00000000000E+00 -0.00000000000E+00 -0.45593999997E+02  0.45594000000E+02  0.51100000000E-03 0. -1.
    9900012    2    1    2    0    0 -0.36609940058E+02 -0.14535547327E+02  0.10079467342E+02  0.50528861925E+02  0.30000006306E+02 0.  0.
         12    1    1    2    0    0  0.36609940058E+02  0.14535547327E+02 -0.10079467342E+02  0.40659138075E+02  0.00000000000E+00 0. -1.
         11    1    3    3    0    0 -0.17495042421E+01  0.26342171564E+01 -0.54969712502E+01  0.63416526479E+01  0.51100000000E-03 0. -1.
        -11    1    3    3    0    0  0.99936553726E+00 -0.15809499315E+01 -0.45809039113E+00  0.19256119107E+01  0.51100000000E-03 0.  1.
        -12    1    3    3    0    0 -0.35859801353E+02 -0.15588814552E+02  0.16034528983E+02  0.42261597366E+02  0.00000000000E+00 0.  1.
</event>
<event>
 7    1  0.2661323E-011  0.5052886E+02  0.7816164E-02  0.1300439E+00
        -11   -1    0    0    0    0  0.00000000000E+00  0.00000000000E+00  0.45593999997E+02  0.45594000000E+02  0.51100000000E-03 0. -1.
         11   -1    0    0    0    0 -0.00000000000E+00 -0.00000000000E+00 -0.45593999997E+02  0.45594000000E+02  0.51100000000E-03 0.  1.
    9900012    2    1    2    0    0  0.16420783085E+02  0.23144814841E+02  0.29117713284E+02  0.50528858371E+02  0.29999995503E+02 0.  0.
         12    1    1    2    0    0 -0.16420783085E+02 -0.23144814841E+02 -0.29117713284E+02  0.40659141629E+02  0.00000000000E+00 0. -1.
         11    1    3    3    0    0  0.41910509660E+01  0.20220118512E+02  0.14307373869E+02  0.25122082878E+02  0.51100000000E-03 0. -1.
        -11    1    3    3    0    0  0.16536991764E+00  0.73606908722E+01  0.29982899979E+01  0.79496453064E+01  0.51100000000E-03 0.  1.
         12    1    3    3    0    0  0.12064362201E+02 -0.44359945429E+01  0.11812049417E+02  0.17457130186E+02  0.00000000000E+00 0. -1.
</event>
<event>
 7    1  0.2661323E-011  0.5052886E+02  0.7816164E-02  0.1300439E+00
        -11   -1    0    0    0    0  0.00000000000E+00  0.00000000000E+00  0.45593999997E+02  0.45594000000E+02  0.51100000000E-03 0.  1.
         11   -1    0    0    0    0 -0.00000000000E+00 -0.00000000000E+00 -0.45593999997E+02  0.45594000000E+02  0.51100000000E-03 0. -1.
    9900012    2    1    2    0    0  0.30484337676E+02  0.12098527724E+02  0.24031158967E+02  0.50528858126E+02  0.29999994759E+02 0.  0.
         12    1    1    2    0    0 -0.30484337676E+02 -0.12098527724E+02 -0.24031158967E+02  0.40659141874E+02  0.00000000000E+00 0. -1.
         11    1    3    3    0    0  0.10192980599E+02  0.56137414699E+00 -0.22136754517E+01  0.10445685889E+02  0.51100000000E-03 0. -1.
        -11    1    3    3    0    0  0.77675655378E+01 -0.40959332604E+01  0.27356800423E+01  0.91975914898E+01  0.51100000000E-03 0.  1.
         12    1    3    3    0    0  0.12523791540E+02  0.15633086837E+02  0.23509154377E+02  0.30885580747E+02  0.00000000000E+00 0. -1.
</event>
<event>
 7    1  0.2661323E-011  0.5052886E+02  0.7816164E-02  0.1300439E+00
        -11   -1    0    0    0    0  0.00000000000E+00  0.00000000000E+00  0.45593999997E+02  0.45594000000E+02  0.51100000000E-03 0. -1.
         11   -1    0    0    0    0 -0.00000000000E+00 -0.00000000000E+00 -0.45593999997E+02  0.45594000000E+02  0.51100000000E-03 0.  1.
    9900012    2    1    2    0    0  0.34335433256E+02 -0.21057939722E+02 -0.55504244414E+01  0.50528855719E+02  0.29999987443E+02 0.  0.
         12    1    1    2    0    0 -0.34335433256E+02  0.21057939722E+02  0.55504244414E+01  0.40659144281E+02  0.00000000000E+00 0. -1.
         11    1    3    3    0    0  0.74954811866E+01 -0.64314889031E+01 -0.12477730386E+02  0.15913517637E+02  0.51100000000E-03 0. -1.
        -11    1    3    3    0    0  0.76657915709E+01 -0.54161379518E+01 -0.45655446834E+01  0.10437581580E+02  0.51100000000E-03 0.  1.
        -12    1    3    3    0    0  0.19174160498E+02 -0.92103128668E+01  0.11492850628E+02  0.24177756502E+02  0.00000000000E+00 0.  1.
</event>
<event>
 7    1  0.2661323E-011  0.5052885E+02  0.7816164E-02  0.1300439E+00
        -11   -1    0    0    0    0  0.00000000000E+00  0.00000000000E+00  0.45593999997E+02  0.45594000000E+02  0.51100000000E-03 0.  1.
         11   -1    0    0    0    0 -0.00000000000E+00 -0.00000000000E+00 -0.45593999997E+02  0.45594000000E+02  0.51100000000E-03 0. -1.
    9900012    2    1    2    0    0 -0.99622692437E+01  0.65081639423E+01  0.38878832069E+02  0.50528848638E+02  0.29999965922E+02 0.  0.
         12    1    1    2    0    0  0.99622692437E+01 -0.65081639423E+01 -0.38878832069E+02  0.40659151362E+02  0.00000000000E+00 0. -1.
         11    1    3    3    0    0 -0.23765968032E+01 -0.67241882320E+01  0.76922118178E+01  0.10489663610E+02  0.51100000000E-03 0. -1.
        -11    1    3    3    0    0  0.58784901001E+01  0.19597140959E+01  0.31345342522E+01  0.69442372104E+01  0.51100000000E-03 0.  1.
        -12    1    3    3    0    0 -0.13464162541E+02  0.11272638078E+02  0.28052085999E+02  0.33094947818E+02  0.00000000000E+00 0.  1.
</event>
<event>
 7    1  0.2661323E-011  0.5052885E+02  0.7816164E-02  0.1300439E+00
        -11   -1    0    0    0    0  0.00000000000E+00  0.00000000000E+00  0.45593999997E+02  0.45594000000E+02  0.51100000000E-03 0. -1.
         11   -1    0    0    0    0 -0.00000000000E+00 -0.00000000000E+00 -0.45593999997E+02  0.45594000000E+02  0.51100000000E-03 0.  1.
    9900012    2    1    2    0    0 -0.25793445340E+02 -0.29977746543E+02 -0.94445264166E+01  0.50528853556E+02  0.29999980870E+02 0.  0.
         12    1    1    2    0    0  0.25793445340E+02  0.29977746543E+02  0.94445264166E+01  0.40659146444E+02  0.00000000000E+00 0. -1.
         11    1    3    3    0    0 -0.90040139704E+01  0.28243906159E+01 -0.18064419535E+01  0.96079489342E+01  0.51100000000E-03 0. -1.
        -11    1    3    3    0    0 -0.62731672593E+01 -0.16310944638E+02  0.43126067785E+01  0.17999947776E+02  0.51100000000E-03 0.  1.
         12    1    3    3    0    0 -0.10516264110E+02 -0.16491192520E+02 -0.11950691242E+02  0.22920956846E+02  0.00000000000E+00 0. -1.
</event>
<event>
 7    1  0.2661323E-011  0.5052886E+02  0.7816164E-02  0.1300439E+00
        -11   -1    0    0    0    0  0.00000000000E+00  0.00000000000E+00  0.45593999997E+02  0.45594000000E+02  0.51100000000E-03 0. -1.
         11   -1    0    0    0    0 -0.00000000000E+00 -0.00000000000E+00 -0.45593999997E+02  0.45594000000E+02  0.51100000000E-03 0.  1.
    9900012    2    1    2    0    0 -0.33727659115E+02  0.18918247411E+02 -0.12558296037E+02  0.50528857439E+02  0.29999992672E+02 0.  0.
         12    1    1    2    0    0  0.33727659115E+02 -0.18918247411E+02  0.12558296037E+02  0.40659142561E+02  0.00000000000E+00 0. -1.
         11    1    3    3    0    0 -0.38881559761E+01  0.22041374309E+01  0.55103751818E+01  0.70950837637E+01  0.51100000000E-03 0. -1.
        -11    1    3    3    0    0 -0.30775579372E+02  0.95324742062E+01 -0.15465711075E+02  0.35737831068E+02  0.51100000000E-03 0.  1.
         12    1    3    3    0    0  0.93607623323E+00  0.71816357737E+01 -0.26029601438E+01  0.76959426070E+01  0.00000000000E+00 0. -1.
</event>
<event>
 7    1  0.2661323E-011  0.5052883E+02  0.7816164E-02  0.1300439E+00
        -11   -1    0    0    0    0  0.00000000000E+00  0.00000000000E+00  0.45593999997E+02  0.45594000000E+02  0.51100000000E-03 0.  1.
         11   -1    0    0    0    0 -0.00000000000E+00 -0.00000000000E+00 -0.45593999997E+02  0.45594000000E+02  0.51100000000E-03 0. -1.
    9900012    2    1    2    0    0 -0.10602531512E+02  0.37173484173E+02  0.12605021421E+02  0.50528829263E+02  0.29999907027E+02 0.  0.
         12    1    1    2    0    0  0.10602531512E+02 -0.37173484173E+02 -0.12605021421E+02  0.40659170737E+02  0.00000000000E+00 0. -1.
         11    1    3    3    0    0 -0.33242470476E+01  0.14164104213E+01 -0.12356785843E+01  0.38188661590E+01  0.51100000000E-03 0. -1.
        -11    1    3    3    0    0 -0.87970763557E+00  0.30907297574E+02  0.24526103506E+00  0.30920787217E+02  0.51100000000E-03 0.  1.
        -12    1    3    3    0    0 -0.63985768285E+01  0.48497761776E+01  0.13595438970E+02  0.15789175887E+02  0.00000000000E+00 0.  1.
</event>
<event>
 7    1  0.2661323E-011  0.5052886E+02  0.7816164E-02  0.1300439E+00
        -11   -1    0    0    0    0  0.00000000000E+00  0.00000000000E+00  0.45593999997E+02  0.45594000000E+02  0.51100000000E-03 0.  1.
         11   -1    0    0    0    0 -0.00000000000E+00 -0.00000000000E+00 -0.45593999997E+02  0.45594000000E+02  0.51100000000E-03 0. -1.
    9900012    2    1    2    0    0 -0.13319140376E+02 -0.24338056333E+02  0.29722464726E+02  0.50528863317E+02  0.30000010538E+02 0.  0.
         12    1    1    2    0    0  0.13319140376E+02  0.24338056333E+02 -0.29722464726E+02  0.40659136683E+02  0.00000000000E+00 0. -1.
         11    1    3    3    0    0 -0.16276403388E+02 -0.14980651876E+02  0.20282215146E+02  0.30011822493E+02  0.51100000000E-03 0. -1.
        -11    1    3    3    0    0 -0.42762618506E+01 -0.10000837981E+02  0.47268302708E+01  0.11859430864E+02  0.51100000000E-03 0.  1.
         12    1    3    3    0    0  0.72335248622E+01  0.64343352411E+00  0.47134193091E+01  0.86576099598E+01  0.00000000000E+00 0. -1.
</event>
<event>
 7    1  0.2661323E-011  0.5052886E+02  0.7816164E-02  0.1300439E+00
        -11   -1    0    0    0    0  0.00000000000E+00  0.00000000000E+00  0.45593999997E+02  0.45594000000E+02  0.51100000000E-03 0. -1.
         11   -1    0    0    0    0 -0.00000000000E+00 -0.00000000000E+00 -0.45593999997E+02  0.45594000000E+02  0.51100000000E-03 0.  1.
    9900012    2    1    2    0    0  0.40094752642E+02  0.58950411098E+01  0.32901358045E+01  0.50528859665E+02  0.29999999439E+02 0.  0.
         12    1    1    2    0    0 -0.40094752642E+02 -0.58950411098E+01 -0.32901358045E+01  0.40659140335E+02  0.00000000000E+00 0. -1.
         11    1    3    3    0    0  0.11807394234E+02 -0.14993238995E+01  0.55159837392E+00  0.11914981820E+02  0.51100000000E-03 0. -1.
        -11    1    3    3    0    0  0.20333495032E+02 -0.19504525062E+01 -0.83567699950E+01  0.22070135709E+02  0.51100000000E-03 0.  1.
         12    1    3    3    0    0  0.79538633763E+01  0.93448175155E+01  0.11095307426E+02  0.16543742136E+02  0.00000000000E+00 0. -1.
</event>
<event>
 7    1  0.2661323E-011  0.5052886E+02  0.7816164E-02  0.1300439E+00
        -11   -1    0    0    0    0  0.00000000000E+00  0.00000000000E+00  0.45593999997E+02  0.45594000000E+02  0.51100000000E-03 0.  1.
         11   -1    0    0    0    0 -0.00000000000E+00 -0.00000000000E+00 -0.45593999997E+02  0.45594000000E+02  0.51100000000E-03 0. -1.
    9900012    2    1    2    0    0 -0.37842260685E+02 -0.10107294269E+02  0.10907390565E+02  0.50528864986E+02  0.30000015610E+02 0.  0.
         12    1    1    2    0    0  0.37842260685E+02  0.10107294269E+02 -0.10907390565E+02  0.40659135014E+02  0.00000000000E+00 0. -1.
         11    1    3    3    0    0  0.32140403021E+00 -0.16138577592E+01 -0.41901415405E+01  0.45016801095E+01  0.51100000000E-03 0. -1.
        -11    1    3    3    0    0  0.15617626040E+01  0.18594517020E+01  0.85587129988E+00  0.25747192093E+01  0.51100000000E-03 0.  1.
         12    1    3    3    0    0 -0.39725427319E+02 -0.10352888212E+02  0.14241660806E+02  0.43452465667E+02  0.00000000000E+00 0. -1.
</event>
<event>
 7    1  0.2661323E-011  0.5052886E+02  0.7816164E-02  0.1300439E+00
        -11   -1    0    0    0    0  0.00000000000E+00  0.00000000000E+00  0.45593999997E+02  0.45594000000E+02  0.51100000000E-03 0.  1.
         11   -1    0    0    0    0 -0.00000000000E+00 -0.00000000000E+00 -0.45593999997E+02  0.45594000000E+02  0.51100000000E-03 0. -1.
    9900012    2    1    2    0    0  0.27007745207E+02 -0.60637638714E+01  0.29782182871E+02  0.50528856502E+02  0.29999989822E+02 0.  0.
         12    1    1    2    0    0 -0.27007745207E+02  0.60637638714E+01 -0.29782182871E+02  0.40659143498E+02  0.00000000000E+00 0. -1.
         11    1    3    3    0    0  0.68702251915E+01 -0.13654311683E+01  0.18879387877E+02  0.20136923383E+02  0.51100000000E-03 0. -1.
        -11    1    3    3    0    0  0.12430078371E+01 -0.71466994403E+01  0.85219838022E+01  0.11191272920E+02  0.51100000000E-03 0.  1.
         12    1    3    3    0    0  0.18894512178E+02  0.24483667372E+01  0.23808111917E+01  0.19200660199E+02  0.00000000000E+00 0. -1.
</event>
<event>
 7    1  0.2661323E-011  0.5052887E+02  0.7816164E-02  0.1300439E+00
        -11   -1    0    0    0    0  0.00000000000E+00  0.00000000000E+00  0.45593999997E+02  0.45594000000E+02  0.51100000000E-03 0.  1.
         11   -1    0    0    0    0 -0.00000000000E+00 -0.00000000000E+00 -0.45593999997E+02  0.45594000000E+02  0.51100000000E-03 0. -1.
    9900012    2    1    2    0    0  0.13391160604E+02  0.12629181659E+01  0.38369869455E+02  0.50528867857E+02  0.30000024338E+02 0.  0.
         12    1    1    2    0    0 -0.13391160604E+02 -0.12629181659E+01 -0.38369869455E+02  0.40659132143E+02  0.00000000000E+00 0. -1.
         11    1    3    3    0    0  0.11438788059E+02  0.13562855350E+01  0.24049670927E+02  0.26665934348E+02  0.51100000000E-03 0. -1.
        -11    1    3    3    0    0  0.40105640836E+01  0.68460101795E+01  0.14602969269E+02  0.16619241600E+02  0.51100000000E-03 0.  1.
         12    1    3    3    0    0 -0.20581915382E+01 -0.69393775486E+01 -0.28277074096E+00  0.72436919083E+01  0.00000000000E+00 0. -1.
</event>
<event>
 7    1  0.2661323E-011  0.5052886E+02  0.7816164E-02  0.1300439E+00
        -11   -1    0    0    0    0  0.00000000000E+00  0.00000000000E+00  0.45593999997E+02  0.45594000000E+02  0.51100000000E-03 0. -1.
         11   -1    0    0    0    0 -0.00000000000E+00 -0.00000000000E+00 -0.45593999997E+02  0.45594000000E+02  0.51100000000E-03 0.  1.
    9900012    2    1    2    0    0  0.27047055737E+02  0.27479684598E+02 -0.12903067676E+02  0.50528862711E+02  0.30000008696E+02 0.  0.
         12    1    1    2    0    0 -0.27047055737E+02 -0.27479684598E+02  0.12903067676E+02  0.40659137289E+02  0.00000000000E+00 0. -1.
         11    1    3    3    0    0  0.50616183181E+01  0.63790796199E+01 -0.16457791083E+02  0.18362230921E+02  0.51100000000E-03 0.  1.
        -11    1    3    3    0    0  0.31188874889E+01  0.14026694045E+01  0.34967389275E+01  0.48910248430E+01  0.51100000000E-03 0. -1.
        -12    1    3    3    0    0  0.18866549930E+02  0.19697935574E+02  0.57984479843E-01  0.27275606947E+02  0.00000000000E+00 0.  1.
</event>
<event>
 7    1  0.2661323E-011  0.5052886E+02  0.7816164E-02  0.1300439E+00
        -11   -1    0    0    0    0  0.00000000000E+00  0.00000000000E+00  0.45593999997E+02  0.45594000000E+02  0.51100000000E-03 0.  1.
         11   -1    0    0    0    0 -0.00000000000E+00 -0.00000000000E+00 -0.45593999997E+02  0.45594000000E+02  0.51100000000E-03 0. -1.
    9900012    2    1    2    0    0  0.12089037329E+01 -0.40577535119E+02 -0.22733626723E+01  0.50528856104E+02  0.29999988613E+02 0.  0.
         12    1    1    2    0    0 -0.12089037329E+01  0.40577535119E+02  0.22733626723E+01  0.40659143896E+02  0.00000000000E+00 0. -1.
         11    1    3    3    0    0 -0.99140238615E+01 -0.13308667659E+02 -0.19276811898E+01  0.16707018256E+02  0.51100000000E-03 0. -1.
        -11    1    3    3    0    0  0.41095881849E+01 -0.12457801814E+02 -0.83844640473E+01  0.15568711530E+02  0.51100000000E-03 0.  1.
        -12    1    3    3    0    0  0.70133394095E+01 -0.14811065646E+02  0.80387825647E+01  0.18253126317E+02  0.00000000000E+00 0.  1.
</event>
<event>
 7    1  0.2661323E-011  0.5052885E+02  0.7816164E-02  0.1300439E+00
        -11   -1    0    0    0    0  0.00000000000E+00  0.00000000000E+00  0.45593999997E+02  0.45594000000E+02  0.51100000000E-03 0.  1.
         11   -1    0    0    0    0 -0.00000000000E+00 -0.00000000000E+00 -0.45593999997E+02  0.45594000000E+02  0.51100000000E-03 0. -1.
    9900012    2    1    2    0    0  0.32856460473E+02  0.21238008533E+02  0.11070969828E+02  0.50528851286E+02  0.29999973968E+02 0.  0.
         12    1    1    2    0    0 -0.32856460473E+02 -0.21238008533E+02 -0.11070969828E+02  0.40659148714E+02  0.00000000000E+00 0. -1.
         11    1    3    3    0    0  0.12982027877E+02  0.11346853284E+02  0.49284849995E+01  0.17932487053E+02  0.51100000000E-03 0. -1.
        -11    1    3    3    0    0  0.18592560951E+02  0.98263612374E+01  0.13590334955E+02  0.25038728050E+02  0.51100000000E-03 0.  1.
         12    1    3    3    0    0  0.12818716441E+01  0.64794011452E-01 -0.74478501262E+01  0.75576361833E+01  0.00000000000E+00 0. -1.
</event>
<event>
 7    1  0.2661323E-011  0.5052888E+02  0.7816164E-02  0.1300439E+00
        -11   -1    0    0    0    0  0.00000000000E+00  0.00000000000E+00  0.45593999997E+02  0.45594000000E+02  0.51100000000E-03 0. -1.
         11   -1    0    0    0    0 -0.00000000000E+00 -0.00000000000E+00 -0.45593999997E+02  0.45594000000E+02  0.51100000000E-03 0.  1.
    9900012    2    1    2    0    0  0.29200771239E+02  0.27938121447E+02  0.44654799724E+01  0.50528878240E+02  0.30000055898E+02 0.  0.
         12    1    1    2    0    0 -0.29200771239E+02 -0.27938121447E+02 -0.44654799724E+01  0.40659121760E+02  0.00000000000E+00 0. -1.
         11    1    3    3    0    0  0.16582030337E+02  0.88442417471E+01 -0.38038183602E+01  0.19174289467E+02  0.51100000000E-03 0. -1.
        -11    1    3    3    0    0  0.13688834383E+02  0.13533736392E+02 -0.22776506529E+01  0.19383856692E+02  0.51100000000E-03 0.  1.
         12    1    3    3    0    0 -0.10700934813E+01  0.55601433079E+01  0.10546948985E+02  0.11970732081E+02  0.00000000000E+00 0. -1.
</event>
<event>
 7    1  0.2661323E-011  0.5052887E+02  0.7816164E-02  0.1300439E+00
        -11   -1    0    0    0    0  0.00000000000E+00  0.00000000000E+00  0.45593999997E+02  0.45594000000E+02  0.51100000000E-03 0.  1.
         11   -1    0    0    0    0 -0.00000000000E+00 -0.00000000000E+00 -0.45593999997E+02  0.45594000000E+02  0.51100000000E-03 0. -1.
    9900012    2    1    2    0    0 -0.45222263570E+01  0.26048595047E+02  0.30889879059E+02  0.50528874783E+02  0.30000045389E+02 0.  0.
         12    1    1    2    0    0  0.45222263570E+01 -0.26048595047E+02 -0.30889879059E+02  0.40659125217E+02  0.00000000000E+00 0. -1.
         11    1    3    3    0    0 -0.35333612720E+01  0.62269970279E+00  0.72044332020E+01  0.80483696996E+01  0.51100000000E-03 0. -1.
        -11    1    3    3    0    0 -0.91136383472E+01  0.11128967683E+02  0.94248708514E+00  0.14415290763E+02  0.51100000000E-03 0.  1.
         12    1    3    3    0    0  0.81247732622E+01  0.14296927661E+02  0.22742958772E+02  0.28065214320E+02  0.00000000000E+00 0. -1.
</event>
<event>
 7    1  0.2661323E-011  0.5052886E+02  0.7816164E-02  0.1300439E+00
        -11   -1    0    0    0    0  0.00000000000E+00  0.00000000000E+00  0.45593999997E+02  0.45594000000E+02  0.51100000000E-03 0.  1.
         11   -1    0    0    0    0 -0.00000000000E+00 -0.00000000000E+00 -0.45593999997E+02  0.45594000000E+02  0.51100000000E-03 0. -1.
    9900012    2    1    2    0    0 -0.36830399244E+02  0.14793195066E+02 -0.88231940020E+01  0.50528859808E+02  0.29999999874E+02 0.  0.
         12    1    1    2    0    0  0.36830399244E+02 -0.14793195066E+02  0.88231940020E+01  0.40659140192E+02  0.00000000000E+00 0. -1.
         11    1    3    3    0    0 -0.12817830806E+01  0.52822675143E+01  0.86651930244E+00  0.55041960286E+01  0.51100000000E-03 0. -1.
        -11    1    3    3    0    0  0.11401342386E+01 -0.21109174957E+01 -0.58805725116E+01  0.63511425808E+01  0.51100000000E-03 0.  1.
        -12    1    3    3    0    0 -0.36688750402E+02  0.11621845047E+02 -0.38091407928E+01  0.38673521199E+02  0.00000000000E+00 0.  1.
</event>
<event>
 7    1  0.2661323E-011  0.5052887E+02  0.7816164E-02  0.1300439E+00
        -11   -1    0    0    0    0  0.00000000000E+00  0.00000000000E+00  0.45593999997E+02  0.45594000000E+02  0.51100000000E-03 0. -1.
         11   -1    0    0    0    0 -0.00000000000E+00 -0.00000000000E+00 -0.45593999997E+02  0.45594000000E+02  0.51100000000E-03 0.  1.
    9900012    2    1    2    0    0  0.20381681262E+01  0.17314929108E+02 -0.36731511065E+02  0.50528870590E+02  0.30000032644E+02 0.  0.
         12    1    1    2    0    0 -0.20381681262E+01 -0.17314929108E+02  0.36731511065E+02  0.40659129410E+02  0.00000000000E+00 0. -1.
         11    1    3    3    0    0 -0.62505108403E+01  0.10131640722E+02 -0.50671156409E+01  0.12938110011E+02  0.51100000000E-03 0. -1.
        -11    1    3    3    0    0 -0.34264617469E+00  0.54994308631E+01 -0.88623090144E+00  0.55809095756E+01  0.51100000000E-03 0.  1.
        -12    1    3    3    0    0  0.86313251411E+01  0.16838575229E+01 -0.30778164522E+02  0.32009851003E+02  0.00000000000E+00 0.  1.
</event>
<event>
 7    1  0.2661323E-011  0.5052884E+02  0.7816164E-02  0.1300439E+00
        -11   -1    0    0    0    0  0.00000000000E+00  0.00000000000E+00  0.45593999997E+02  0.45594000000E+02  0.51100000000E-03 0.  1.
         11   -1    0    0    0    0 -0.00000000000E+00 -0.00000000000E+00 -0.45593999997E+02  0.45594000000E+02  0.51100000000E-03 0. -1.
    9900012    2    1    2    0    0  0.13766357836E+02  0.37423899954E+02  0.79439516233E+01  0.50528840353E+02  0.29999940736E+02 0.  0.
         12    1    1    2    0    0 -0.13766357836E+02 -0.37423899954E+02 -0.79439516233E+01  0.40659159647E+02  0.00000000000E+00 0. -1.
         11    1    3    3    0    0  0.16550093473E+02  0.25863171695E+02  0.26901087976E-01  0.30705210763E+02  0.51100000000E-03 0. -1.
        -11    1    3    3    0    0  0.35213163483E+01  0.11275018603E+02  0.44499386669E+01  0.12622506396E+02  0.51100000000E-03 0.  1.
        -12    1    3    3    0    0 -0.63050519854E+01  0.28570965669E+00  0.34671118684E+01  0.72011231940E+01  0.00000000000E+00 0.  1.
</event>
<event>
 7    1  0.2661323E-011  0.5052886E+02  0.7816164E-02  0.1300439E+00
        -11   -1    0    0    0    0  0.00000000000E+00  0.00000000000E+00  0.45593999997E+02  0.45594000000E+02  0.51100000000E-03 0.  1.
         11   -1    0    0    0    0 -0.00000000000E+00 -0.00000000000E+00 -0.45593999997E+02  0.45594000000E+02  0.51100000000E-03 0. -1.
    9900012    2    1    2    0    0  0.33531052323E+02 -0.19098206643E+02  0.12809856740E+02  0.50528863308E+02  0.30000010510E+02 0.  0.
         12    1    1    2    0    0 -0.33531052323E+02  0.19098206643E+02 -0.12809856740E+02  0.40659136692E+02  0.00000000000E+00 0. -1.
         11    1    3    3    0    0  0.11161248681E+02  0.89414782305E+00 -0.24958052128E+01  0.11471792204E+02  0.51100000000E-03 0. -1.
        -11    1    3    3    0    0  0.98740600134E+01 -0.89497204832E+01  0.17757583713E+02  0.22201944452E+02  0.51100000000E-03 0.  1.
         12    1    3    3    0    0  0.12495743629E+02 -0.11042633983E+02 -0.24519217606E+01  0.16855126651E+02  0.00000000000E+00 0. -1.
</event>
<event>
 7    1  0.2661323E-011  0.5052887E+02  0.7816164E-02  0.1300439E+00
        -11   -1    0    0    0    0  0.00000000000E+00  0.00000000000E+00  0.45593999997E+02  0.45594000000E+02  0.51100000000E-03 0.  1.
         11   -1    0    0    0    0 -0.00000000000E+00 -0.00000000000E+00 -0.45593999997E+02  0.45594000000E+02  0.51100000000E-03 0. -1.
    9900012    2    1    2    0    0 -0.24892329725E+01 -0.30500120603E+02  0.26771456072E+02  0.50528874360E+02  0.30000044104E+02 0.  0.
         12    1    1    2    0    0  0.24892329725E+01  0.30500120603E+02 -0.26771456072E+02  0.40659125640E+02  0.00000000000E+00 0. -1.
         11    1    3    3    0    0 -0.26206921368E+01 -0.47377684605E+00  0.65568526345E+00  0.27427021715E+01  0.51100000000E-03 0. -1.
        -11    1    3    3    0    0  0.54569085642E+01 -0.71982965321E+01 -0.37836552402E+01  0.97933330015E+01  0.51100000000E-03 0.  1.
        -12    1    3    3    0    0 -0.53254493999E+01 -0.22828047225E+02  0.29899426049E+02  0.37992839187E+02  0.00000000000E+00 0.  1.
</event>
<event>
 7    1  0.2661323E-011  0.5052885E+02  0.7816164E-02  0.1300439E+00
        -11   -1    0    0    0    0  0.00000000000E+00  0.00000000000E+00  0.45593999997E+02  0.45594000000E+02  0.51100000000E-03 0.  1.
         11   -1    0    0    0    0 -0.00000000000E+00 -0.00000000000E+00 -0.45593999997E+02  0.45594000000E+02  0.51100000000E-03 0. -1.
    9900012    2    1    2    0    0  0.37740505583E+02 -0.15086892004E+02  0.10982862963E+01  0.50528852140E+02  0.29999976563E+02 0.  0.
         12    1    1    2    0    0 -0.37740505583E+02  0.15086892004E+02 -0.10982862963E+01  0.40659147860E+02  0.00000000000E+00 0. -1.
         11    1    3    3    0    0  0.58936270080E+01 -0.30161823153E+01  0.99761696541E+01  0.11973143125E+02  0.51100000000E-03 0. -1.
        -11    1    3    3    0    0  0.10063918541E+02 -0.90050680854E+01 -0.95626205653E+01  0.16547429407E+02  0.51100000000E-03 0.  1.
        -12    1    3    3    0    0  0.21782960033E+02 -0.30656416029E+01  0.68473720750E+00  0.22008279608E+02  0.00000000000E+00 0.  1.
</event>
<event>
 7    1  0.2661323E-011  0.5052886E+02  0.7816164E-02  0.1300439E+00
        -11   -1    0    0    0    0  0.00000000000E+00  0.00000000000E+00  0.45593999997E+02  0.45594000000E+02  0.51100000000E-03 0.  1.
         11   -1    0    0    0    0 -0.00000000000E+00 -0.00000000000E+00 -0.45593999997E+02  0.45594000000E+02  0.51100000000E-03 0. -1.
    9900012    2    1    2    0    0  0.38049317523E+02  0.14314748945E+02 -0.70918387368E+00  0.50528861506E+02  0.30000005032E+02 0.  0.
         12    1    1    2    0    0 -0.38049317523E+02 -0.14314748945E+02  0.70918387368E+00  0.40659138494E+02  0.00000000000E+00 0. -1.
         11    1    3    3    0    0  0.55454814578E+01  0.92907881801E+01 -0.28596256904E+01  0.11191450708E+02  0.51100000000E-03 0. -1.
        -11    1    3    3    0    0  0.21573908850E+01  0.81725570959E+01 -0.15862937496E+01  0.86000786646E+01  0.51100000000E-03 0.  1.
        -12    1    3    3    0    0  0.30346445180E+02 -0.31485963311E+01  0.37367355663E+01  0.30737332133E+02  0.00000000000E+00 0.  1.
</event>
<event>
 7    1  0.2661323E-011  0.5052887E+02  0.7816164E-02  0.1300439E+00
        -11   -1    0    0    0    0  0.00000000000E+00  0.00000000000E+00  0.45593999997E+02  0.45594000000E+02  0.51100000000E-03 0.  1.
         11   -1    0    0    0    0 -0.00000000000E+00 -0.00000000000E+00 -0.45593999997E+02  0.45594000000E+02  0.51100000000E-03 0. -1.
    9900012    2    1    2    0    0 -0.12911526949E+01 -0.57079351379E+01  0.40235770292E+02  0.50528870523E+02  0.30000032442E+02 0.  0.
         12    1    1    2    0    0  0.12911526949E+01  0.57079351379E+01 -0.40235770292E+02  0.40659129477E+02  0.00000000000E+00 0. -1.
         11    1    3    3    0    0  0.70826819455E+01  0.91818581311E+01  0.22108934221E+02  0.24965493685E+02  0.51100000000E-03 0. -1.
        -11    1    3    3    0    0 -0.20577872845E+01 -0.95016881897E+01  0.99165631860E+01  0.13887216879E+02  0.51100000000E-03 0.  1.
        -12    1    3    3    0    0 -0.63160473558E+01 -0.53881050793E+01  0.82102728855E+01  0.11676159960E+02  0.00000000000E+00 0.  1.
</event>
<event>
 7    1  0.2661323E-011  0.5052885E+02  0.7816164E-02  0.1300439E+00
        -11   -1    0    0    0    0  0.00000000000E+00  0.00000000000E+00  0.45593999997E+02  0.45594000000E+02  0.51100000000E-03 0.  1.
         11   -1    0    0    0    0 -0.00000000000E+00 -0.00000000000E+00 -0.45593999997E+02  0.45594000000E+02  0.51100000000E-03 0. -1.
    9900012    2    1    2    0    0  0.58624696667E+00  0.40029571657E+02  0.71032695319E+01  0.50528846902E+02  0.29999960644E+02 0.  0.
         12    1    1    2    0    0 -0.58624696667E+00 -0.40029571657E+02 -0.71032695319E+01  0.40659153098E+02  0.00000000000E+00 0. -1.
         11    1    3    3    0    0  0.78989966343E+01  0.42567056616E+01 -0.26839876064E+01  0.93657610823E+01  0.51100000000E-03 0. -1.
        -11    1    3    3    0    0  0.47911083194E+01  0.63946114282E+01  0.27213804778E+00  0.79949880316E+01  0.51100000000E-03 0.  1.
         12    1    3    3    0    0 -0.12103857987E+02  0.29378254567E+02  0.95151190905E+01  0.33168097789E+02  0.00000000000E+00 0. -1.
</event>
<event>
 7    1  0.2661323E-011  0.5052871E+02  0.7816164E-02  0.1300439E+00
        -11   -1    0    0    0    0  0.00000000000E+00  0.00000000000E+00  0.45593999997E+02  0.45594000000E+02  0.51100000000E-03 0.  1.
         11   -1    0    0    0    0 -0.00000000000E+00 -0.00000000000E+00 -0.45593999997E+02  0.45594000000E+02  0.51100000000E-03 0. -1.
    9900012    2    1    2    0    0 -0.24562142804E+02 -0.12871589458E+02  0.29735517064E+02  0.50528712631E+02  0.29999552509E+02 0.  0.
         12    1    1    2    0    0  0.24562142804E+02  0.12871589458E+02 -0.29735517064E+02  0.40659287369E+02  0.00000000000E+00 0. -1.
         11    1    3    3    0    0 -0.26404139257E+01  0.20521471448E+01  0.86171255771E+01  0.92432649576E+01  0.51100000000E-03 0. -1.
        -11    1    3    3    0    0 -0.25593472890E+02 -0.66806517990E+01  0.15839124321E+02  0.30830744761E+02  0.51100000000E-03 0.  1.
         12    1    3    3    0    0  0.36717440113E+01 -0.82430848039E+01  0.52792671658E+01  0.10454702912E+02  0.00000000000E+00 0. -1.
</event>
<event>
 7    1  0.2661323E-011  0.5052886E+02  0.7816164E-02  0.1300439E+00
        -11   -1    0    0    0    0  0.00000000000E+00  0.00000000000E+00  0.45593999997E+02  0.45594000000E+02  0.51100000000E-03 0.  1.
         11   -1    0    0    0    0 -0.00000000000E+00 -0.00000000000E+00 -0.45593999997E+02  0.45594000000E+02  0.51100000000E-03 0. -1.
    9900012    2    1    2    0    0  0.61169129266E+00 -0.37071912313E+02 -0.16687275721E+02  0.50528855644E+02  0.29999987216E+02 0.  0.
         12    1    1    2    0    0 -0.61169129266E+00  0.37071912313E+02  0.16687275721E+02  0.40659144356E+02  0.00000000000E+00 0. -1.
         11    1    3    3    0    0  0.52184829445E+01 -0.27422113619E+01 -0.11320970801E+02  0.12763881366E+02  0.51100000000E-03 0. -1.
        -11    1    3    3    0    0  0.32343556657E+01 -0.24768443754E+01  0.13286198040E+01  0.42849790521E+01  0.51100000000E-03 0.  1.
        -12    1    3    3    0    0 -0.78411473175E+01 -0.31852856576E+02 -0.66949247240E+01  0.33479995226E+02  0.00000000000E+00 0.  1.
</event>
<event>
 7    1  0.2661323E-011  0.5052886E+02  0.7816164E-02  0.1300439E+00
        -11   -1    0    0    0    0  0.00000000000E+00  0.00000000000E+00  0.45593999997E+02  0.45594000000E+02  0.51100000000E-03 0.  1.
         11   -1    0    0    0    0 -0.00000000000E+00 -0.00000000000E+00 -0.45593999997E+02  0.45594000000E+02  0.51100000000E-03 0. -1.
    9900012    2    1    2    0    0 -0.32610892033E+02 -0.69969962872E+01  0.23253760245E+02  0.50528860784E+02  0.30000002839E+02 0.  0.
         12    1    1    2    0    0  0.32610892033E+02  0.69969962872E+01 -0.23253760245E+02  0.40659139216E+02  0.00000000000E+00 0. -1.
         11    1    3    3    0    0  0.25085018977E+01 -0.21166478939E+01  0.15581724096E+01  0.36332742254E+01  0.51100000000E-03 0.  1.
        -11    1    3    3    0    0 -0.72196184712E+01 -0.92578440899E+01  0.80520765580E+00  0.11767706985E+02  0.51100000000E-03 0. -1.
         12    1    3    3    0    0 -0.27899775460E+02  0.43774956965E+01  0.20890380179E+02  0.35127879573E+02  0.00000000000E+00 0. -1.
</event>
<event>
 7    1  0.2661323E-011  0.5052886E+02  0.7816164E-02  0.1300439E+00
        -11   -1    0    0    0    0  0.00000000000E+00  0.00000000000E+00  0.45593999997E+02  0.45594000000E+02  0.51100000000E-03 0. -1.
         11   -1    0    0    0    0 -0.00000000000E+00 -0.00000000000E+00 -0.45593999997E+02  0.45594000000E+02  0.51100000000E-03 0.  1.
    9900012    2    1    2    0    0  0.30321882993E+02  0.15001696273E+02  0.22554334047E+02  0.50528862483E+02  0.30000008004E+02 0.  0.
         12    1    1    2    0    0 -0.30321882993E+02 -0.15001696273E+02 -0.22554334047E+02  0.40659137517E+02  0.00000000000E+00 0. -1.
         11    1    3    3    0    0  0.28268730240E+00 -0.32996034827E+01 -0.29159716666E+01  0.44125034023E+01  0.51100000000E-03 0. -1.
        -11    1    3    3    0    0 -0.79984026468E+00 -0.13729099198E+01  0.85930070575E-01  0.15912291900E+01  0.51100000000E-03 0.  1.
        -12    1    3    3    0    0  0.30839035955E+02  0.19674209676E+02  0.25384375643E+02  0.44525129891E+02  0.00000000000E+00 0.  1.
</event>
<event>
 7    1  0.2661323E-011  0.5052885E+02  0.7816164E-02  0.1300439E+00
        -11   -1    0    0    0    0  0.00000000000E+00  0.00000000000E+00  0.45593999997E+02  0.45594000000E+02  0.51100000000E-03 0. -1.
         11   -1    0    0    0    0 -0.00000000000E+00 -0.00000000000E+00 -0.45593999997E+02  0.45594000000E+02  0.51100000000E-03 0.  1.
    9900012    2    1    2    0    0 -0.33162476762E+02  0.21269913173E+02  0.10050226342E+02  0.50528854400E+02  0.29999983435E+02 0.  0.
         12    1    1    2    0    0  0.33162476762E+02 -0.21269913173E+02 -0.10050226342E+02  0.40659145600E+02  0.00000000000E+00 0. -1.
         11    1    3    3    0    0 -0.77726901478E+01 -0.39197232365E+01  0.36755953351E+01  0.94492827089E+01  0.51100000000E-03 0. -1.
        -11    1    3    3    0    0 -0.24299970884E+02  0.15296295046E+02  0.10120470487E+02  0.30444854249E+02  0.51100000000E-03 0.  1.
        -12    1    3    3    0    0 -0.10898157297E+01  0.98933413643E+01 -0.37458394800E+01  0.10634717443E+02  0.00000000000E+00 0.  1.
</event>
<event>
 7    1  0.2661323E-011  0.5052886E+02  0.7816164E-02  0.1300439E+00
        -11   -1    0    0    0    0  0.00000000000E+00  0.00000000000E+00  0.45593999997E+02  0.45594000000E+02  0.51100000000E-03 0.  1.
         11   -1    0    0    0    0 -0.00000000000E+00 -0.00000000000E+00 -0.45593999997E+02  0.45594000000E+02  0.51100000000E-03 0. -1.
    9900012    2    1    2    0    0  0.20673821252E+01 -0.34142715411E+02 -0.21981056424E+02  0.50528856797E+02  0.29999990720E+02 0.  0.
         12    1    1    2    0    0 -0.20673821252E+01  0.34142715411E+02  0.21981056424E+02  0.40659143203E+02  0.00000000000E+00 0. -1.
         11    1    3    3    0    0  0.44615998020E+01 -0.16491976412E+02 -0.53064649520E+01  0.17889933743E+02  0.51100000000E-03 0. -1.
        -11    1    3    3    0    0  0.50868804636E+01 -0.19053124784E+02 -0.85146659910E+01  0.21480164201E+02  0.51100000000E-03 0.  1.
         12    1    3    3    0    0 -0.74810981404E+01  0.14023857860E+01 -0.81599254813E+01  0.11158758853E+02  0.00000000000E+00 0. -1.
</event>
<event>
 7    1  0.2661323E-011  0.5052886E+02  0.7816164E-02  0.1300439E+00
        -11   -1    0    0    0    0  0.00000000000E+00  0.00000000000E+00  0.45593999997E+02  0.45594000000E+02  0.51100000000E-03 0. -1.
         11   -1    0    0    0    0 -0.00000000000E+00 -0.00000000000E+00 -0.45593999997E+02  0.45594000000E+02  0.51100000000E-03 0.  1.
    9900012    2    1    2    0    0  0.39193528010E+02 -0.69636955219E+01 -0.82788797087E+01  0.50528861514E+02  0.30000005056E+02 0.  0.
         12    1    1    2    0    0 -0.39193528010E+02  0.69636955219E+01  0.82788797087E+01  0.40659138486E+02  0.00000000000E+00 0. -1.
         11    1    3    3    0    0  0.38109370689E+01 -0.20377999206E+01  0.59282156040E+01  0.73361850010E+01  0.51100000000E-03 0. -1.
        -11    1    3    3    0    0  0.10301145243E+02 -0.54950329367E+01  0.38372665437E+01  0.12289572616E+02  0.51100000000E-03 0.  1.
        -12    1    3    3    0    0  0.25081445698E+02  0.56913733538E+00 -0.18044361857E+02  0.30903103896E+02  0.00000000000E+00 0.  1.
</event>
<event>
 7    1  0.2661323E-011  0.5052888E+02  0.7816164E-02  0.1300439E+00
        -11   -1    0    0    0    0  0.00000000000E+00  0.00000000000E+00  0.45593999997E+02  0.45594000000E+02  0.51100000000E-03 0.  1.
         11   -1    0    0    0    0 -0.00000000000E+00 -0.00000000000E+00 -0.45593999997E+02  0.45594000000E+02  0.51100000000E-03 0. -1.
    9900012    2    1    2    0    0  0.32636423376E+02  0.15175027002E+02  0.18914190983E+02  0.50528878074E+02  0.30000055392E+02 0.  0.
         12    1    1    2    0    0 -0.32636423376E+02 -0.15175027002E+02 -0.18914190983E+02  0.40659121926E+02  0.00000000000E+00 0. -1.
         11    1    3    3    0    0  0.13585290272E+02  0.70160214620E+00  0.42243464825E+00  0.13609952559E+02  0.51100000000E-03 0. -1.
        -11    1    3    3    0    0  0.20473556680E+02  0.17730638211E+02  0.19320957210E+02  0.33269226656E+02  0.51100000000E-03 0.  1.
         12    1    3    3    0    0 -0.14224235768E+01 -0.32572133545E+01 -0.82920087570E+00  0.36496988589E+01  0.00000000000E+00 0. -1.
</event>
<event>
 7    1  0.2661323E-011  0.5052886E+02  0.7816164E-02  0.1300439E+00
        -11   -1    0    0    0    0  0.00000000000E+00  0.00000000000E+00  0.45593999997E+02  0.45594000000E+02  0.51100000000E-03 0.  1.
         11   -1    0    0    0    0 -0.00000000000E+00 -0.00000000000E+00 -0.45593999997E+02  0.45594000000E+02  0.51100000000E-03 0. -1.
    9900012    2    1    2    0    0 -0.34613588049E+02 -0.69349858375E+01  0.20173527100E+02  0.50528859554E+02  0.29999999101E+02 0.  0.
         12    1    1    2    0    0  0.34613588049E+02  0.69349858375E+01 -0.20173527100E+02  0.40659140446E+02  0.00000000000E+00 0. -1.
         11    1    3    3    0    0 -0.12209449740E+02  0.60116226471E+01  0.39743147126E+01  0.14177638996E+02  0.51100000000E-03 0. -1.
        -11    1    3    3    0    0 -0.21911708646E+02 -0.27622343234E+01  0.88971132895E+01  0.23809904229E+02  0.51100000000E-03 0.  1.
         12    1    3    3    0    0 -0.49242966194E+00 -0.10184374161E+02  0.73020990975E+01  0.12541316329E+02  0.00000000000E+00 0. -1.
</event>
<event>
 7    1  0.2661323E-011  0.5052886E+02  0.7816164E-02  0.1300439E+00
        -11   -1    0    0    0    0  0.00000000000E+00  0.00000000000E+00  0.45593999997E+02  0.45594000000E+02  0.51100000000E-03 0. -1.
         11   -1    0    0    0    0 -0.00000000000E+00 -0.00000000000E+00 -0.45593999997E+02  0.45594000000E+02  0.51100000000E-03 0.  1.
    9900012    2    1    2    0    0 -0.25011560239E+02 -0.11193144538E+02 -0.30038323338E+02  0.50528862046E+02  0.30000006674E+02 0.  0.
         12    1    1    2    0    0  0.25011560239E+02  0.11193144538E+02  0.30038323338E+02  0.40659137954E+02  0.00000000000E+00 0. -1.
         11    1    3    3    0    0 -0.10526136729E+02 -0.73815711158E+00  0.59095709663E+00  0.10568522172E+02  0.51100000000E-03 0. -1.
        -11    1    3    3    0    0 -0.12616981562E+02  0.15949303477E+01 -0.10813308232E+02  0.16693102220E+02  0.51100000000E-03 0.  1.
         12    1    3    3    0    0 -0.18684419479E+01 -0.12049917774E+02 -0.19815972203E+02  0.23267237653E+02  0.00000000000E+00 0. -1.
</event>
<event>
 7    1  0.2661323E-011  0.5052885E+02  0.7816164E-02  0.1300439E+00
        -11   -1    0    0    0    0  0.00000000000E+00  0.00000000000E+00  0.45593999997E+02  0.45594000000E+02  0.51100000000E-03 0.  1.
         11   -1    0    0    0    0 -0.00000000000E+00 -0.00000000000E+00 -0.45593999997E+02  0.45594000000E+02  0.51100000000E-03 0. -1.
    9900012    2    1    2    0    0  0.82956710533E+01  0.15825732353E+02  0.36522515399E+02  0.50528854733E+02  0.29999984447E+02 0.  0.
         12    1    1    2    0    0 -0.82956710533E+01 -0.15825732353E+02 -0.36522515399E+02  0.40659145267E+02  0.00000000000E+00 0. -1.
         11    1    3    3    0    0  0.63833964670E+01  0.41851842444E+01  0.12392253381E+02  0.14554431000E+02  0.51100000000E-03 0. -1.
        -11    1    3    3    0    0  0.21468903582E+01  0.10339238736E+02  0.29034441827E+02  0.30895109780E+02  0.51100000000E-03 0.  1.
        -12    1    3    3    0    0 -0.23461577199E+00  0.13013093726E+01 -0.49041798086E+01  0.50793139536E+01  0.00000000000E+00 0.  1.
</event>
<event>
 7    1  0.2661323E-011  0.5052886E+02  0.7816164E-02  0.1300439E+00
        -11   -1    0    0    0    0  0.00000000000E+00  0.00000000000E+00  0.45593999997E+02  0.45594000000E+02  0.51100000000E-03 0.  1.
         11   -1    0    0    0    0 -0.00000000000E+00 -0.00000000000E+00 -0.45593999997E+02  0.45594000000E+02  0.51100000000E-03 0. -1.
    9900012    2    1    2    0    0  0.80582879588E+01 -0.30170327466E+02  0.26038063445E+02  0.50528863115E+02  0.30000009924E+02 0.  0.
         12    1    1    2    0    0 -0.80582879588E+01  0.30170327466E+02 -0.26038063445E+02  0.40659136885E+02  0.00000000000E+00 0. -1.
         11    1    3    3    0    0  0.81144730211E+01 -0.24177252739E+01  0.56824346319E+01  0.10197064848E+02  0.51100000000E-03 0. -1.
        -11    1    3    3    0    0  0.80829041040E+01 -0.28640298822E+01  0.40416520317E+01  0.94800293949E+01  0.51100000000E-03 0.  1.
        -12    1    3    3    0    0 -0.81390891663E+01 -0.24888572310E+02  0.16313976782E+02  0.30851768872E+02  0.00000000000E+00 0.  1.
</event>
<event>
 7    1  0.2661323E-011  0.5052886E+02  0.7816164E-02  0.1300439E+00
        -11   -1    0    0    0    0  0.00000000000E+00  0.00000000000E+00  0.45593999997E+02  0.45594000000E+02  0.51100000000E-03 0.  1.
         11   -1    0    0    0    0 -0.00000000000E+00 -0.00000000000E+00 -0.45593999997E+02  0.45594000000E+02  0.51100000000E-03 0. -1.
    9900012    2    1    2    0    0 -0.31320471036E+02 -0.18532276336E+02  0.18131423153E+02  0.50528859851E+02  0.30000000003E+02 0.  0.
         12    1    1    2    0    0  0.31320471036E+02  0.18532276336E+02 -0.18131423153E+02  0.40659140149E+02  0.00000000000E+00 0. -1.
         11    1    3    3    0    0 -0.88922400078E+01 -0.39213666970E+00  0.84222110077E+01  0.12253952099E+02  0.51100000000E-03 0. -1.
        -11    1    3    3    0    0 -0.24364043907E+02 -0.16556446033E+02  0.14528634482E+02  0.32845148210E+02  0.51100000000E-03 0.  1.
         12    1    3    3    0    0  0.19358128789E+01 -0.15836936328E+01 -0.48194223365E+01  0.54297595418E+01  0.00000000000E+00 0. -1.
</event>
<event>
 7    1  0.2661323E-011  0.5052888E+02  0.7816164E-02  0.1300439E+00
        -11   -1    0    0    0    0  0.00000000000E+00  0.00000000000E+00  0.45593999997E+02  0.45594000000E+02  0.51100000000E-03 0.  1.
         11   -1    0    0    0    0 -0.00000000000E+00 -0.00000000000E+00 -0.45593999997E+02  0.45594000000E+02  0.51100000000E-03 0. -1.
    9900012    2    1    2    0    0  0.85563895544E+01  0.36945400217E+01  0.39576545798E+02  0.50528875496E+02  0.30000047557E+02 0.  0.
         12    1    1    2    0    0 -0.85563895544E+01 -0.36945400217E+01 -0.39576545798E+02  0.40659124504E+02  0.00000000000E+00 0. -1.
         11    1    3    3    0    0 -0.53034865789E+01  0.11556055235E+02  0.12057545373E+02  0.17522950184E+02  0.51100000000E-03 0. -1.
        -11    1    3    3    0    0  0.61816861513E+00  0.17001557956E+01  0.19012107280E+01  0.26243598571E+01  0.51100000000E-03 0.  1.
        -12    1    3    3    0    0  0.13241707518E+02 -0.95616710091E+01  0.25617789697E+02  0.30381565454E+02  0.00000000000E+00 0.  1.
</event>
<event>
 7    1  0.2661323E-011  0.5052886E+02  0.7816164E-02  0.1300439E+00
        -11   -1    0    0    0    0  0.00000000000E+00  0.00000000000E+00  0.45593999997E+02  0.45594000000E+02  0.51100000000E-03 0. -1.
         11   -1    0    0    0    0 -0.00000000000E+00 -0.00000000000E+00 -0.45593999997E+02  0.45594000000E+02  0.51100000000E-03 0.  1.
    9900012    2    1    2    0    0 -0.39805174959E+02  0.80392409735E+01 -0.20210522898E+01  0.50528855871E+02  0.29999987905E+02 0.  0.
         12    1    1    2    0    0  0.39805174959E+02 -0.80392409735E+01  0.20210522898E+01  0.40659144129E+02  0.00000000000E+00 0. -1.
         11    1    3    3    0    0  0.31841262810E+01 -0.38501931393E+01 -0.77589067441E+00  0.50561501147E+01  0.51100000000E-03 0. -1.
        -11    1    3    3    0    0 -0.24037127147E+01 -0.13083742473E+01 -0.53914904047E+00  0.27893296568E+01  0.51100000000E-03 0.  1.
        -12    1    3    3    0    0 -0.40585588526E+02  0.13197808360E+02 -0.70601257492E+00  0.42683376099E+02  0.00000000000E+00 0.  1.
</event>
<event>
 7    1  0.2661323E-011  0.5052886E+02  0.7816164E-02  0.1300439E+00
        -11   -1    0    0    0    0  0.00000000000E+00  0.00000000000E+00  0.45593999997E+02  0.45594000000E+02  0.51100000000E-03 0. -1.
         11   -1    0    0    0    0 -0.00000000000E+00 -0.00000000000E+00 -0.45593999997E+02  0.45594000000E+02  0.51100000000E-03 0.  1.
    9900012    2    1    2    0    0  0.22141823444E+02  0.31502318548E+02 -0.13057909157E+02  0.50528863131E+02  0.30000009974E+02 0.  0.
         12    1    1    2    0    0 -0.22141823444E+02 -0.31502318548E+02  0.13057909157E+02  0.40659136869E+02  0.00000000000E+00 0. -1.
         11    1    3    3    0    0  0.15600751520E+02  0.31323396577E+01 -0.57802624702E+01  0.16929454634E+02  0.51100000000E-03 0. -1.
        -11    1    3    3    0    0  0.82485688954E+01  0.79165421858E+01 -0.62949317872E+01  0.13051310105E+02  0.51100000000E-03 0.  1.
        -12    1    3    3    0    0 -0.17074969714E+01  0.20453436705E+02 -0.98271489939E+00  0.20548098392E+02  0.00000000000E+00 0.  1.
</event>
<event>
 7    1  0.2661323E-011  0.5052887E+02  0.7816164E-02  0.1300439E+00
        -11   -1    0    0    0    0  0.00000000000E+00  0.00000000000E+00  0.45593999997E+02  0.45594000000E+02  0.51100000000E-03 0.  1.
         11   -1    0    0    0    0 -0.00000000000E+00 -0.00000000000E+00 -0.45593999997E+02  0.45594000000E+02  0.51100000000E-03 0. -1.
    9900012    2    1    2    0    0  0.43489193625E+01 -0.47228058333E+01  0.40149058729E+02  0.50528869274E+02  0.30000028646E+02 0.  0.
         12    1    1    2    0    0 -0.43489193625E+01  0.47228058333E+01 -0.40149058729E+02  0.40659130726E+02  0.00000000000E+00 0. -1.
         11    1    3    3    0    0  0.39793311668E-01  0.21536278454E+01 -0.21645974470E+01  0.30537155684E+01  0.51100000000E-03 0. -1.
        -11    1    3    3    0    0  0.94002796459E-01 -0.60070181044E+01  0.11869740239E+01  0.61238885217E+01  0.51100000000E-03 0.  1.
        -12    1    3    3    0    0  0.42151232543E+01 -0.86941557438E+00  0.41126682152E+02  0.41351265184E+02  0.00000000000E+00 0.  1.
</event>
<event>
 7    1  0.2661323E-011  0.5052886E+02  0.7816164E-02  0.1300439E+00
        -11   -1    0    0    0    0  0.00000000000E+00  0.00000000000E+00  0.45593999997E+02  0.45594000000E+02  0.51100000000E-03 0.  1.
         11   -1    0    0    0    0 -0.00000000000E+00 -0.00000000000E+00 -0.45593999997E+02  0.45594000000E+02  0.51100000000E-03 0. -1.
    9900012    2    1    2    0    0 -0.58795035040E+01 -0.19266339029E+02  0.35318628422E+02  0.50528857183E+02  0.29999991894E+02 0.  0.
         12    1    1    2    0    0  0.58795035040E+01  0.19266339029E+02 -0.35318628422E+02  0.40659142817E+02  0.00000000000E+00 0. -1.
         11    1    3    3    0    0  0.28441072516E+01 -0.10821989383E+02  0.33118432892E+01  0.11669306170E+02  0.51100000000E-03 0. -1.
        -11    1    3    3    0    0  0.30100113177E+01 -0.74280527385E+01  0.21967223120E+02  0.23383648720E+02  0.51100000000E-03 0.  1.
         12    1    3    3    0    0 -0.11733622073E+02 -0.10162969074E+01  0.10039562013E+02  0.15475902293E+02  0.00000000000E+00 0. -1.
</event>
<event>
 7    1  0.2661323E-011  0.5052887E+02  0.7816164E-02  0.1300439E+00
        -11   -1    0    0    0    0  0.00000000000E+00  0.00000000000E+00  0.45593999997E+02  0.45594000000E+02  0.51100000000E-03 0.  1.
         11   -1    0    0    0    0 -0.00000000000E+00 -0.00000000000E+00 -0.45593999997E+02  0.45594000000E+02  0.51100000000E-03 0. -1.
    9900012    2    1    2    0    0 -0.12994388358E+02  0.11875461441E+02  0.36650841537E+02  0.50528869432E+02  0.30000029125E+02 0.  0.
         12    1    1    2    0    0  0.12994388358E+02 -0.11875461441E+02 -0.36650841537E+02  0.40659130568E+02  0.00000000000E+00 0. -1.
         11    1    3    3    0    0  0.20728254127E+01  0.30172350487E+00  0.16564967737E+02  0.16696879908E+02  0.51100000000E-03 0. -1.
        -11    1    3    3    0    0  0.25215905394E+01  0.47778257165E+01  0.12295504454E+02  0.13430021127E+02  0.51100000000E-03 0.  1.
         12    1    3    3    0    0 -0.17588804310E+02  0.67959122195E+01  0.77903693458E+01  0.20401968397E+02  0.00000000000E+00 0. -1.
</event>
<event>
 7    1  0.2661323E-011  0.5052886E+02  0.7816164E-02  0.1300439E+00
        -11   -1    0    0    0    0  0.00000000000E+00  0.00000000000E+00  0.45593999997E+02  0.45594000000E+02  0.51100000000E-03 0.  1.
         11   -1    0    0    0    0 -0.00000000000E+00 -0.00000000000E+00 -0.45593999997E+02  0.45594000000E+02  0.51100000000E-03 0. -1.
    9900012    2    1    2    0    0 -0.19419891690E+02  0.21800297670E+02  0.28298067838E+02  0.50528858161E+02  0.29999994865E+02 0.  0.
         12    1    1    2    0    0  0.19419891690E+02 -0.21800297670E+02 -0.28298067838E+02  0.40659141839E+02  0.00000000000E+00 0. -1.
         11    1    3    3    0    0 -0.14126829226E+02  0.16321984370E+02  0.55058972699E+01  0.22277553339E+02  0.51100000000E-03 0. -1.
        -11    1    3    3    0    0 -0.35131792200E+00  0.50612878407E+01  0.15349005055E+00  0.50757874606E+01  0.51100000000E-03 0.  1.
        -12    1    3    3    0    0 -0.49417445415E+01  0.41702545863E+00  0.22638680518E+02  0.23175517361E+02  0.00000000000E+00 0.  1.
</event>
<event>
 7    1  0.2661323E-011  0.5052885E+02  0.7816164E-02  0.1300439E+00
        -11   -1    0    0    0    0  0.00000000000E+00  0.00000000000E+00  0.45593999997E+02  0.45594000000E+02  0.51100000000E-03 0.  1.
         11   -1    0    0    0    0 -0.00000000000E+00 -0.00000000000E+00 -0.45593999997E+02  0.45594000000E+02  0.51100000000E-03 0. -1.
    9900012    2    1    2    0    0  0.22862588217E+02  0.14438444412E+02  0.30364444844E+02  0.50528854317E+02  0.29999983182E+02 0.  0.
         12    1    1    2    0    0 -0.22862588217E+02 -0.14438444412E+02 -0.30364444844E+02  0.40659145683E+02  0.00000000000E+00 0. -1.
         11    1    3    3    0    0 -0.35498371644E+01  0.82913687515E+01  0.34636909847E+01  0.96615368946E+01  0.51100000000E-03 0. -1.
        -11    1    3    3    0    0  0.17275019310E+02  0.10880483377E+02  0.19057381229E+02  0.27928390398E+02  0.51100000000E-03 0.  1.
         12    1    3    3    0    0  0.91374060717E+01 -0.47334077162E+01  0.78433726301E+01  0.12938927024E+02  0.00000000000E+00 0. -1.
</event>
<event>
 7    1  0.2661323E-011  0.5052883E+02  0.7816164E-02  0.1300439E+00
        -11   -1    0    0    0    0  0.00000000000E+00  0.00000000000E+00  0.45593999997E+02  0.45594000000E+02  0.51100000000E-03 0. -1.
         11   -1    0    0    0    0 -0.00000000000E+00 -0.00000000000E+00 -0.45593999997E+02  0.45594000000E+02  0.51100000000E-03 0.  1.
    9900012    2    1    2    0    0  0.31497792083E+02 -0.15902714028E+02 -0.20203001136E+02  0.50528825458E+02  0.29999895462E+02 0.  0.
         12    1    1    2    0    0 -0.31497792083E+02  0.15902714028E+02  0.20203001136E+02  0.40659174542E+02  0.00000000000E+00 0. -1.
         11    1    3    3    0    0  0.23395061046E+00 -0.27586206862E+01 -0.42359292585E+01  0.50604167736E+01  0.51100000000E-03 0. -1.
        -11    1    3    3    0    0  0.57428087030E+01 -0.80793654256E+01 -0.16721499530E+02  0.19438738238E+02  0.51100000000E-03 0.  1.
         12    1    3    3    0    0  0.25521032769E+02 -0.50647279162E+01  0.75442765294E+00  0.26029670447E+02  0.00000000000E+00 0. -1.
</event>
<event>
 7    1  0.2661323E-011  0.5052886E+02  0.7816164E-02  0.1300439E+00
        -11   -1    0    0    0    0  0.00000000000E+00  0.00000000000E+00  0.45593999997E+02  0.45594000000E+02  0.51100000000E-03 0.  1.
         11   -1    0    0    0    0 -0.00000000000E+00 -0.00000000000E+00 -0.45593999997E+02  0.45594000000E+02  0.51100000000E-03 0. -1.
    9900012    2    1    2    0    0 -0.38984835293E+02 -0.33988470185E+01  0.11036120080E+02  0.50528862156E+02  0.30000007008E+02 0.  0.
         12    1    1    2    0    0  0.38984835293E+02  0.33988470185E+01 -0.11036120080E+02  0.40659137844E+02  0.00000000000E+00 0. -1.
         11    1    3    3    0    0 -0.87942846031E+01  0.11252225630E+01 -0.49190155432E+01  0.10139146003E+02  0.51100000000E-03 0. -1.
        -11    1    3    3    0    0 -0.77638249706E+01  0.17045798529E+01  0.15140075616E+02  0.17099838028E+02  0.51100000000E-03 0.  1.
         12    1    3    3    0    0 -0.22426725719E+02 -0.62286494345E+01  0.81506000666E+00  0.23289878125E+02  0.00000000000E+00 0. -1.
</event>
<event>
 7    1  0.2661323E-011  0.5052886E+02  0.7816164E-02  0.1300439E+00
        -11   -1    0    0    0    0  0.00000000000E+00  0.00000000000E+00  0.45593999997E+02  0.45594000000E+02  0.51100000000E-03 0. -1.
         11   -1    0    0    0    0 -0.00000000000E+00 -0.00000000000E+00 -0.45593999997E+02  0.45594000000E+02  0.51100000000E-03 0.  1.
    9900012    2    1    2    0    0 -0.39844526117E+02 -0.77407485842E+01 -0.23790799244E+01  0.50528862387E+02  0.30000007713E+02 0.  0.
         12    1    1    2    0    0  0.39844526117E+02  0.77407485842E+01  0.23790799244E+01  0.40659137613E+02  0.00000000000E+00 0. -1.
         11    1    3    3    0    0 -0.60105938559E+01 -0.32768914395E+01  0.53979970478E+01  0.87180059874E+01  0.51100000000E-03 0. -1.
        -11    1    3    3    0    0 -0.34505782958E+02 -0.78778377962E+01 -0.24894009803E+01  0.35481072467E+02  0.51100000000E-03 0.  1.
        -12    1    3    3    0    0  0.67185069722E+00  0.34139806515E+01 -0.52876759918E+01  0.63297839333E+01  0.00000000000E+00 0.  1.
</event>
<event>
 7    1  0.2661323E-011  0.5052887E+02  0.7816164E-02  0.1300439E+00
        -11   -1    0    0    0    0  0.00000000000E+00  0.00000000000E+00  0.45593999997E+02  0.45594000000E+02  0.51100000000E-03 0.  1.
         11   -1    0    0    0    0 -0.00000000000E+00 -0.00000000000E+00 -0.45593999997E+02  0.45594000000E+02  0.51100000000E-03 0. -1.
    9900012    2    1    2    0    0  0.26196931501E+02 -0.98180238449E+00  0.31079282729E+02  0.50528868541E+02  0.30000026418E+02 0.  0.
         12    1    1    2    0    0 -0.26196931501E+02  0.98180238449E+00 -0.31079282729E+02  0.40659131459E+02  0.00000000000E+00 0. -1.
         11    1    3    3    0    0 -0.19109437659E+01 -0.46471050268E+00  0.11478341997E+02  0.11645599907E+02  0.51100000000E-03 0. -1.
        -11    1    3    3    0    0  0.38238939894E+01 -0.36382140845E+01  0.12220029350E+02  0.13311193957E+02  0.51100000000E-03 0.  1.
         12    1    3    3    0    0  0.24283981278E+02  0.31211222027E+01  0.73809113818E+01  0.25572074678E+02  0.00000000000E+00 0. -1.
</event>
<event>
 7    1  0.2661323E-011  0.5052887E+02  0.7816164E-02  0.1300439E+00
        -11   -1    0    0    0    0  0.00000000000E+00  0.00000000000E+00  0.45593999997E+02  0.45594000000E+02  0.51100000000E-03 0.  1.
         11   -1    0    0    0    0 -0.00000000000E+00 -0.00000000000E+00 -0.45593999997E+02  0.45594000000E+02  0.51100000000E-03 0. -1.
    9900012    2    1    2    0    0 -0.34916829189E+02 -0.56692189899E+01  0.20045934214E+02  0.50528874541E+02  0.30000044656E+02 0.  0.
         12    1    1    2    0    0  0.34916829189E+02  0.56692189899E+01 -0.20045934214E+02  0.40659125459E+02  0.00000000000E+00 0. -1.
         11    1    3    3    0    0  0.13700288795E+00  0.29339232971E+01  0.15848741810E+01  0.33374394579E+01  0.51100000000E-03 0.  1.
        -11    1    3    3    0    0 -0.91780164891E+00 -0.36536592327E+01  0.11369025569E+02  0.11976908128E+02  0.51100000000E-03 0. -1.
        -12    1    3    3    0    0 -0.34136030428E+02 -0.49494830542E+01  0.70920344643E+01  0.35214526955E+02  0.00000000000E+00 0.  1.
</event>
<event>
 7    1  0.2661323E-011  0.5052888E+02  0.7816164E-02  0.1300439E+00
        -11   -1    0    0    0    0  0.00000000000E+00  0.00000000000E+00  0.45593999997E+02  0.45594000000E+02  0.51100000000E-03 0.  1.
         11   -1    0    0    0    0 -0.00000000000E+00 -0.00000000000E+00 -0.45593999997E+02  0.45594000000E+02  0.51100000000E-03 0. -1.
    9900012    2    1    2    0    0 -0.24788985521E+02  0.14246532289E+02  0.28908587458E+02  0.50528881537E+02  0.30000065919E+02 0.  0.
         12    1    1    2    0    0  0.24788985521E+02 -0.14246532289E+02 -0.28908587458E+02  0.40659118463E+02  0.00000000000E+00 0. -1.
         11    1    3    3    0    0 -0.68191313447E+01 -0.60913744164E+01  0.34955613696E+01  0.97889909657E+01  0.51100000000E-03 0.  1.
        -11    1    3    3    0    0 -0.51466962370E+01 -0.68524872497E+00 -0.21732272490E+00  0.51966602158E+01  0.51100000000E-03 0. -1.
        -12    1    3    3    0    0 -0.12823157939E+02  0.21023155431E+02  0.25630348813E+02  0.35543230355E+02  0.00000000000E+00 0.  1.
</event>
<event>
 7    1  0.2661323E-011  0.5052886E+02  0.7816164E-02  0.1300439E+00
        -11   -1    0    0    0    0  0.00000000000E+00  0.00000000000E+00  0.45593999997E+02  0.45594000000E+02  0.51100000000E-03 0.  1.
         11   -1    0    0    0    0 -0.00000000000E+00 -0.00000000000E+00 -0.45593999997E+02  0.45594000000E+02  0.51100000000E-03 0. -1.
    9900012    2    1    2    0    0  0.29079003328E+02  0.17698339573E+02  0.22233898528E+02  0.50528857093E+02  0.29999991619E+02 0.  0.
         12    1    1    2    0    0 -0.29079003328E+02 -0.17698339573E+02 -0.22233898528E+02  0.40659142907E+02  0.00000000000E+00 0. -1.
         11    1    3    3    0    0  0.99414289197E+01  0.64121910468E+01  0.19051484176E+02  0.22425593695E+02  0.51100000000E-03 0. -1.
        -11    1    3    3    0    0  0.21616169491E+02  0.68882420373E+01  0.38484729826E+01  0.23011245216E+02  0.51100000000E-03 0.  1.
         12    1    3    3    0    0 -0.24785950826E+01  0.43979064886E+01 -0.66605863081E+00  0.50920181819E+01  0.00000000000E+00 0. -1.
</event>
<event>
 7    1  0.2661323E-011  0.5052887E+02  0.7816164E-02  0.1300439E+00
        -11   -1    0    0    0    0  0.00000000000E+00  0.00000000000E+00  0.45593999997E+02  0.45594000000E+02  0.51100000000E-03 0.  1.
         11   -1    0    0    0    0 -0.00000000000E+00 -0.00000000000E+00 -0.45593999997E+02  0.45594000000E+02  0.51100000000E-03 0. -1.
    9900012    2    1    2    0    0 -0.40682568460E+00  0.11427880828E+02  0.39017982815E+02  0.50528868796E+02  0.30000027191E+02 0.  0.
         12    1    1    2    0    0  0.40682568460E+00 -0.11427880828E+02 -0.39017982815E+02  0.40659131204E+02  0.00000000000E+00 0. -1.
         11    1    3    3    0    0  0.16608088911E+01  0.82641401254E+01  0.75222086440E+01  0.11297695399E+02  0.51100000000E-03 0. -1.
        -11    1    3    3    0    0 -0.69112262248E+01  0.64782966477E+01  0.27094701918E+01  0.98526445367E+01  0.51100000000E-03 0.  1.
         12    1    3    3    0    0  0.48435916492E+01 -0.33145559454E+01  0.28786303979E+02  0.29378528860E+02  0.00000000000E+00 0. -1.
</event>
<event>
 7    1  0.2661323E-011  0.5052886E+02  0.7816164E-02  0.1300439E+00
        -11   -1    0    0    0    0  0.00000000000E+00  0.00000000000E+00  0.45593999997E+02  0.45594000000E+02  0.51100000000E-03 0. -1.
         11   -1    0    0    0    0 -0.00000000000E+00 -0.00000000000E+00 -0.45593999997E+02  0.45594000000E+02  0.51100000000E-03 0.  1.
    9900012    2    1    2    0    0  0.15878257381E+02  0.33424014580E+02 -0.16848787777E+02  0.50528862556E+02  0.30000008225E+02 0.  0.
         12    1    1    2    0    0 -0.15878257381E+02 -0.33424014580E+02  0.16848787777E+02  0.40659137444E+02  0.00000000000E+00 0. -1.
         11    1    3    3    0    0  0.20677055639E+00  0.16528956951E+02 -0.70407283954E+01  0.17967220947E+02  0.51100000000E-03 0. -1.
        -11    1    3    3    0    0  0.43704351202E+01  0.11591670383E+02  0.48538652736E+01  0.13305169437E+02  0.51100000000E-03 0.  1.
        -12    1    3    3    0    0  0.11301051705E+02  0.53033872466E+01 -0.14661924655E+02  0.19256472172E+02  0.00000000000E+00 0.  1.
</event>
<event>
 7    1  0.2661323E-011  0.5052886E+02  0.7816164E-02  0.1300439E+00
        -11   -1    0    0    0    0  0.00000000000E+00  0.00000000000E+00  0.45593999997E+02  0.45594000000E+02  0.51100000000E-03 0.  1.
         11   -1    0    0    0    0 -0.00000000000E+00 -0.00000000000E+00 -0.45593999997E+02  0.45594000000E+02  0.51100000000E-03 0. -1.
    9900012    2    1    2    0    0  0.35517159843E+02 -0.19035768906E+02  0.54163182780E+01  0.50528860255E+02  0.30000001230E+02 0.  0.
         12    1    1    2    0    0 -0.35517159843E+02  0.19035768906E+02 -0.54163182780E+01  0.40659139745E+02  0.00000000000E+00 0. -1.
         11    1    3    3    0    0  0.27085915416E+02 -0.70355177035E+01 -0.69480701707E+01  0.28834371896E+02  0.51100000000E-03 0. -1.
        -11    1    3    3    0    0  0.75645146987E+01 -0.38478925660E+01  0.24580588912E+01  0.88357350345E+01  0.51100000000E-03 0.  1.
         12    1    3    3    0    0  0.86672972852E+00 -0.81523586364E+01  0.99063295574E+01  0.12858753324E+02  0.00000000000E+00 0. -1.
</event>
<event>
 7    1  0.2661323E-011  0.5052887E+02  0.7816164E-02  0.1300439E+00
        -11   -1    0    0    0    0  0.00000000000E+00  0.00000000000E+00  0.45593999997E+02  0.45594000000E+02  0.51100000000E-03 0.  1.
         11   -1    0    0    0    0 -0.00000000000E+00 -0.00000000000E+00 -0.45593999997E+02  0.45594000000E+02  0.51100000000E-03 0. -1.
    9900012    2    1    2    0    0  0.21071114956E+02 -0.18825341658E+02 -0.29236616481E+02  0.50528866742E+02  0.30000020948E+02 0.  0.
         12    1    1    2    0    0 -0.21071114956E+02  0.18825341658E+02  0.29236616481E+02  0.40659133258E+02  0.00000000000E+00 0. -1.
         11    1    3    3    0    0  0.49637432977E+01 -0.49322843761E+01 -0.26753607997E+01  0.74915774281E+01  0.51100000000E-03 0. -1.
        -11    1    3    3    0    0  0.22164572895E+02 -0.70605789188E+01 -0.12882402185E+02  0.26590907329E+02  0.51100000000E-03 0.  1.
         12    1    3    3    0    0 -0.60572012362E+01 -0.68324783630E+01 -0.13678853496E+02  0.16446381984E+02  0.00000000000E+00 0. -1.
</event>
<event>
 7    1  0.2661323E-011  0.5052886E+02  0.7816164E-02  0.1300439E+00
        -11   -1    0    0    0    0  0.00000000000E+00  0.00000000000E+00  0.45593999997E+02  0.45594000000E+02  0.51100000000E-03 0. -1.
         11   -1    0    0    0    0 -0.00000000000E+00 -0.00000000000E+00 -0.45593999997E+02  0.45594000000E+02  0.51100000000E-03 0.  1.
    9900012    2    1    2    0    0 -0.79980590275E+01  0.22125089024E+01 -0.39803284716E+02  0.50528860584E+02  0.30000002230E+02 0.  0.
         12    1    1    2    0    0  0.79980590275E+01 -0.22125089024E+01  0.39803284716E+02  0.40659139416E+02  0.00000000000E+00 0. -1.
         11    1    3    3    0    0 -0.49109817379E+01  0.55231604220E+01 -0.34534261224E+02  0.35316260295E+02  0.51100000000E-03 0. -1.
        -11    1    3    3    0    0 -0.42403398957E+01  0.40327827149E+01 -0.51234089063E+01  0.77777334705E+01  0.51100000000E-03 0.  1.
         12    1    3    3    0    0  0.11532626061E+01 -0.73434342345E+01 -0.14561458600E+00  0.74348668180E+01  0.00000000000E+00 0. -1.
</event>
<event>
 7    1  0.2661323E-011  0.5052886E+02  0.7816164E-02  0.1300439E+00
        -11   -1    0    0    0    0  0.00000000000E+00  0.00000000000E+00  0.45593999997E+02  0.45594000000E+02  0.51100000000E-03 0. -1.
         11   -1    0    0    0    0 -0.00000000000E+00 -0.00000000000E+00 -0.45593999997E+02  0.45594000000E+02  0.51100000000E-03 0.  1.
    9900012    2    1    2    0    0 -0.17786517472E+02 -0.20692336030E+02  0.30143530032E+02  0.50528863549E+02  0.30000011244E+02 0.  0.
         12    1    1    2    0    0  0.17786517472E+02  0.20692336030E+02 -0.30143530032E+02  0.40659136451E+02  0.00000000000E+00 0. -1.
         11    1    3    3    0    0 -0.63564723923E+01 -0.33624270339E+00  0.12981526124E+02  0.14458140310E+02  0.51100000000E-03 0. -1.
        -11    1    3    3    0    0 -0.27994996605E+01  0.21253751377E+01  0.10518090218E+02  0.11089843999E+02  0.51100000000E-03 0.  1.
        -12    1    3    3    0    0 -0.86305454188E+01 -0.22481468464E+02  0.66439136898E+01  0.24980879241E+02  0.00000000000E+00 0.  1.
</event>
<event>
 7    1  0.2661323E-011  0.5052884E+02  0.7816164E-02  0.1300439E+00
        -11   -1    0    0    0    0  0.00000000000E+00  0.00000000000E+00  0.45593999997E+02  0.45594000000E+02  0.51100000000E-03 0.  1.
         11   -1    0    0    0    0 -0.00000000000E+00 -0.00000000000E+00 -0.45593999997E+02  0.45594000000E+02  0.51100000000E-03 0. -1.
    9900012    2    1    2    0    0  0.32730798501E+02  0.22790716438E+02 -0.79022542298E+01  0.50528836848E+02  0.29999930084E+02 0.  0.
         12    1    1    2    0    0 -0.32730798501E+02 -0.22790716438E+02  0.79022542298E+01  0.40659163152E+02  0.00000000000E+00 0. -1.
         11    1    3    3    0    0  0.12023291340E+02  0.14024039679E+02 -0.94629971139E+01  0.20755277358E+02  0.51100000000E-03 0. -1.
        -11    1    3    3    0    0  0.15440756162E+02 -0.41628215918E+00 -0.62033539042E+01  0.16645475109E+02  0.51100000000E-03 0.  1.
         12    1    3    3    0    0  0.52667509988E+01  0.91829589178E+01  0.77640967883E+01  0.13128084381E+02  0.00000000000E+00 0. -1.
</event>
<event>
 7    1  0.2661323E-011  0.5052886E+02  0.7816164E-02  0.1300439E+00
        -11   -1    0    0    0    0  0.00000000000E+00  0.00000000000E+00  0.45593999997E+02  0.45594000000E+02  0.51100000000E-03 0.  1.
         11   -1    0    0    0    0 -0.00000000000E+00 -0.00000000000E+00 -0.45593999997E+02  0.45594000000E+02  0.51100000000E-03 0. -1.
    9900012    2    1    2    0    0  0.33373613469E+02 -0.11533284964E+02  0.20158152880E+02  0.50528857540E+02  0.29999992978E+02 0.  0.
         12    1    1    2    0    0 -0.33373613469E+02  0.11533284964E+02 -0.20158152880E+02  0.40659142460E+02  0.00000000000E+00 0. -1.
         11    1    3    3    0    0  0.36276259081E+02 -0.26002201945E+01  0.18041454429E+02  0.40598302873E+02  0.51100000000E-03 0.  1.
        -11    1    3    3    0    0 -0.10757210274E+00 -0.34398875082E+01  0.90882091341E-01  0.34427688918E+01  0.51100000000E-03 0. -1.
        -12    1    3    3    0    0 -0.27950735087E+01 -0.54931772612E+01  0.20258163598E+01  0.64877857752E+01  0.00000000000E+00 0.  1.
</event>
<event>
 7    1  0.2661323E-011  0.5052886E+02  0.7816164E-02  0.1300439E+00
        -11   -1    0    0    0    0  0.00000000000E+00  0.00000000000E+00  0.45593999997E+02  0.45594000000E+02  0.51100000000E-03 0.  1.
         11   -1    0    0    0    0 -0.00000000000E+00 -0.00000000000E+00 -0.45593999997E+02  0.45594000000E+02  0.51100000000E-03 0. -1.
    9900012    2    1    2    0    0 -0.19839291649E+01  0.32873296125E+02  0.23844832938E+02  0.50528860427E+02  0.30000001753E+02 0.  0.
         12    1    1    2    0    0  0.19839291649E+01 -0.32873296125E+02 -0.23844832938E+02  0.40659139573E+02  0.00000000000E+00 0. -1.
         11    1    3    3    0    0  0.46733046227E+01  0.69303090272E+01  0.28192643067E+01  0.88214063959E+01  0.51100000000E-03 0. -1.
        -11    1    3    3    0    0  0.18608365955E+01  0.17717185682E+02  0.27603683550E+00  0.17816777989E+02  0.51100000000E-03 0.  1.
        -12    1    3    3    0    0 -0.85180703830E+01  0.82258014153E+01  0.20749531796E+02  0.23890676041E+02  0.00000000000E+00 0.  1.
</event>
<event>
 7    1  0.2661323E-011  0.5052886E+02  0.7816164E-02  0.1300439E+00
        -11   -1    0    0    0    0  0.00000000000E+00  0.00000000000E+00  0.45593999997E+02  0.45594000000E+02  0.51100000000E-03 0.  1.
         11   -1    0    0    0    0 -0.00000000000E+00 -0.00000000000E+00 -0.45593999997E+02  0.45594000000E+02  0.51100000000E-03 0. -1.
    9900012    2    1    2    0    0  0.37450705694E+02 -0.62473372939E+00  0.15818341890E+02  0.50528860937E+02  0.30000003305E+02 0.  0.
         12    1    1    2    0    0 -0.37450705694E+02  0.62473372939E+00 -0.15818341890E+02  0.40659139063E+02  0.00000000000E+00 0. -1.
         11    1    3    3    0    0  0.32209710648E+00 -0.39119904479E+01 -0.35632008094E+01  0.53013032435E+01  0.51100000000E-03 0. -1.
        -11    1    3    3    0    0  0.10456618378E+02 -0.17691047290E+01 -0.18482028706E+01  0.10765057063E+02  0.51100000000E-03 0.  1.
        -12    1    3    3    0    0  0.26671990209E+02  0.50563614476E+01  0.21229745570E+02  0.34462500631E+02  0.00000000000E+00 0.  1.
</event>
<event>
 7    1  0.2661323E-011  0.5052885E+02  0.7816164E-02  0.1300439E+00
        -11   -1    0    0    0    0  0.00000000000E+00  0.00000000000E+00  0.45593999997E+02  0.45594000000E+02  0.51100000000E-03 0. -1.
         11   -1    0    0    0    0 -0.00000000000E+00 -0.00000000000E+00 -0.45593999997E+02  0.45594000000E+02  0.51100000000E-03 0.  1.
    9900012    2    1    2    0    0  0.70502749121E+01 -0.39867855541E+02 -0.37435707595E+01  0.50528848462E+02  0.29999965386E+02 0.  0.
         12    1    1    2    0    0 -0.70502749121E+01  0.39867855541E+02  0.37435707595E+01  0.40659151538E+02  0.00000000000E+00 0. -1.
         11    1    3    3    0    0  0.46285473343E+01 -0.12482102630E+02  0.57506940785E+01  0.14501614363E+02  0.51100000000E-03 0. -1.
        -11    1    3    3    0    0 -0.88558341395E+01 -0.15406564385E+02 -0.17903737631E+01  0.17860388096E+02  0.51100000000E-03 0.  1.
        -12    1    3    3    0    0  0.11277561717E+02 -0.11979188526E+02 -0.77038910750E+01  0.18166846003E+02  0.00000000000E+00 0.  1.
</event>
<event>
 7    1  0.2661323E-011  0.5052887E+02  0.7816164E-02  0.1300439E+00
        -11   -1    0    0    0    0  0.00000000000E+00  0.00000000000E+00  0.45593999997E+02  0.45594000000E+02  0.51100000000E-03 0.  1.
         11   -1    0    0    0    0 -0.00000000000E+00 -0.00000000000E+00 -0.45593999997E+02  0.45594000000E+02  0.51100000000E-03 0. -1.
    9900012    2    1    2    0    0 -0.24914880845E+02  0.30252701831E+02  0.10825311104E+02  0.50528872906E+02  0.30000039684E+02 0.  0.
         12    1    1    2    0    0  0.24914880845E+02 -0.30252701831E+02 -0.10825311104E+02  0.40659127094E+02  0.00000000000E+00 0. -1.
         11    1    3    3    0    0 -0.11094279381E+01  0.20313946617E+01 -0.40268847843E+00  0.23493728723E+01  0.51100000000E-03 0. -1.
        -11    1    3    3    0    0 -0.21148110659E+02  0.34107246872E+02  0.11399427125E+02  0.41719225936E+02  0.51100000000E-03 0.  1.
        -12    1    3    3    0    0 -0.26573422484E+01 -0.58859397033E+01 -0.17142754241E+00  0.64602740977E+01  0.00000000000E+00 0.  1.
</event>
<event>
 7    1  0.2661323E-011  0.5052885E+02  0.7816164E-02  0.1300439E+00
        -11   -1    0    0    0    0  0.00000000000E+00  0.00000000000E+00  0.45593999997E+02  0.45594000000E+02  0.51100000000E-03 0.  1.
         11   -1    0    0    0    0 -0.00000000000E+00 -0.00000000000E+00 -0.45593999997E+02  0.45594000000E+02  0.51100000000E-03 0. -1.
    9900012    2    1    2    0    0 -0.29091621691E+02  0.28049339678E+02 -0.44808922318E+01  0.50528852146E+02  0.29999976584E+02 0.  0.
         12    1    1    2    0    0  0.29091621691E+02 -0.28049339678E+02  0.44808922318E+01  0.40659147854E+02  0.00000000000E+00 0. -1.
         11    1    3    3    0    0 -0.24277883361E+00 -0.17022598813E+01  0.52817814667E+00  0.17987781079E+01  0.51100000000E-03 0. -1.
        -11    1    3    3    0    0 -0.10630278039E+02  0.86904288559E+01  0.10102402549E+02  0.17046551042E+02  0.51100000000E-03 0.  1.
        -12    1    3    3    0    0 -0.18218564819E+02  0.21061170703E+02 -0.15111472928E+02  0.31683522997E+02  0.00000000000E+00 0.  1.
</event>
<event>
 7    1  0.2661323E-011  0.5052886E+02  0.7816164E-02  0.1300439E+00
        -11   -1    0    0    0    0  0.00000000000E+00  0.00000000000E+00  0.45593999997E+02  0.45594000000E+02  0.51100000000E-03 0.  1.
         11   -1    0    0    0    0 -0.00000000000E+00 -0.00000000000E+00 -0.45593999997E+02  0.45594000000E+02  0.51100000000E-03 0. -1.
    9900012    2    1    2    0    0 -0.13398506626E+02 -0.16840628459E+02  0.34496939283E+02  0.50528861217E+02  0.30000004154E+02 0.  0.
         12    1    1    2    0    0  0.13398506626E+02  0.16840628459E+02 -0.34496939283E+02  0.40659138783E+02  0.00000000000E+00 0. -1.
         11    1    3    3    0    0  0.30322281084E+01 -0.63585311157E+01 -0.13754779867E+01  0.71775528702E+01  0.51100000000E-03 0. -1.
        -11    1    3    3    0    0 -0.45148903141E+00 -0.80127325696E+01  0.97297999373E+01  0.12612562494E+02  0.51100000000E-03 0.  1.
        -12    1    3    3    0    0 -0.15979245703E+02 -0.24693647737E+01  0.26142617333E+02  0.30738745853E+02  0.00000000000E+00 0.  1.
</event>
<event>
 7    1  0.2661323E-011  0.5052886E+02  0.7816164E-02  0.1300439E+00
        -11   -1    0    0    0    0  0.00000000000E+00  0.00000000000E+00  0.45593999997E+02  0.45594000000E+02  0.51100000000E-03 0.  1.
         11   -1    0    0    0    0 -0.00000000000E+00 -0.00000000000E+00 -0.45593999997E+02  0.45594000000E+02  0.51100000000E-03 0. -1.
    9900012    2    1    2    0    0 -0.23816372575E+02  0.20920783339E+02  0.25461090087E+02  0.50528857282E+02  0.29999992194E+02 0.  0.
         12    1    1    2    0    0  0.23816372575E+02 -0.20920783339E+02 -0.25461090087E+02  0.40659142718E+02  0.00000000000E+00 0. -1.
         11    1    3    3    0    0 -0.19537260088E+01 -0.56433002313E+01  0.30425264154E+01  0.67023018485E+01  0.51100000000E-03 0. -1.
        -11    1    3    3    0    0 -0.80408824950E+01  0.91967004678E+00  0.22699628586E+01  0.84056121689E+01  0.51100000000E-03 0.  1.
         12    1    3    3    0    0 -0.13821764071E+02  0.25644413524E+02  0.20148600813E+02  0.35420943264E+02  0.00000000000E+00 0. -1.
</event>
<event>
 7    1  0.2661323E-011  0.5052886E+02  0.7816164E-02  0.1300439E+00
        -11   -1    0    0    0    0  0.00000000000E+00  0.00000000000E+00  0.45593999997E+02  0.45594000000E+02  0.51100000000E-03 0. -1.
         11   -1    0    0    0    0 -0.00000000000E+00 -0.00000000000E+00 -0.45593999997E+02  0.45594000000E+02  0.51100000000E-03 0.  1.
    9900012    2    1    2    0    0 -0.31242981508E+02  0.25161209866E+02 -0.66298811965E+01  0.50528859575E+02  0.29999999165E+02 0.  0.
         12    1    1    2    0    0  0.31242981508E+02 -0.25161209866E+02  0.66298811965E+01  0.40659140425E+02  0.00000000000E+00 0. -1.
         11    1    3    3    0    0 -0.16877511489E+01 -0.20117549192E+01  0.31057500824E+01  0.40671053135E+01  0.51100000000E-03 0. -1.
        -11    1    3    3    0    0 -0.15764847668E+02  0.31955547171E+01  0.23870013526E+01  0.16261604093E+02  0.51100000000E-03 0.  1.
         12    1    3    3    0    0 -0.13790382691E+02  0.23977410068E+02 -0.12122632631E+02  0.30200150169E+02  0.00000000000E+00 0. -1.
</event>
<event>
 7    1  0.2661323E-011  0.5052886E+02  0.7816164E-02  0.1300439E+00
        -11   -1    0    0    0    0  0.00000000000E+00  0.00000000000E+00  0.45593999997E+02  0.45594000000E+02  0.51100000000E-03 0.  1.
         11   -1    0    0    0    0 -0.00000000000E+00 -0.00000000000E+00 -0.45593999997E+02  0.45594000000E+02  0.51100000000E-03 0. -1.
    9900012    2    1    2    0    0  0.26511113701E+02  0.28279704966E+02  0.12271311826E+02  0.50528856421E+02  0.29999989577E+02 0.  0.
         12    1    1    2    0    0 -0.26511113701E+02 -0.28279704966E+02 -0.12271311826E+02  0.40659143579E+02  0.00000000000E+00 0. -1.
         11    1    3    3    0    0 -0.58927079744E+00  0.60999321640E+01  0.27744647732E+01  0.67271143529E+01  0.51100000000E-03 0.  1.
        -11    1    3    3    0    0 -0.16564087378E+01 -0.93103174823E+00  0.65177479079E+01  0.67890756421E+01  0.51100000000E-03 0. -1.
         12    1    3    3    0    0  0.28756793237E+02  0.23110804551E+02  0.29790991445E+01  0.37012666426E+02  0.00000000000E+00 0. -1.
</event>
<event>
 7    1  0.2661323E-011  0.5052885E+02  0.7816164E-02  0.1300439E+00
        -11   -1    0    0    0    0  0.00000000000E+00  0.00000000000E+00  0.45593999997E+02  0.45594000000E+02  0.51100000000E-03 0.  1.
         11   -1    0    0    0    0 -0.00000000000E+00 -0.00000000000E+00 -0.45593999997E+02  0.45594000000E+02  0.51100000000E-03 0. -1.
    9900012    2    1    2    0    0  0.14115451178E+02  0.35857204984E+02  0.12968471604E+02  0.50528851374E+02  0.29999974238E+02 0.  0.
         12    1    1    2    0    0 -0.14115451178E+02 -0.35857204984E+02 -0.12968471604E+02  0.40659148626E+02  0.00000000000E+00 0. -1.
         11    1    3    3    0    0  0.65039138035E+01 -0.10126355761E+01  0.84812153348E+01  0.10735797101E+02  0.51100000000E-03 0. -1.
        -11    1    3    3    0    0  0.82270427129E+01  0.11854648244E+02  0.29130073289E+01  0.14720819568E+02  0.51100000000E-03 0.  1.
        -12    1    3    3    0    0 -0.61550533826E+00  0.25015192316E+02  0.15742489403E+01  0.25072234706E+02  0.00000000000E+00 0.  1.
</event>
<event>
 7    1  0.2661323E-011  0.5052886E+02  0.7816164E-02  0.1300439E+00
        -11   -1    0    0    0    0  0.00000000000E+00  0.00000000000E+00  0.45593999997E+02  0.45594000000E+02  0.51100000000E-03 0.  1.
         11   -1    0    0    0    0 -0.00000000000E+00 -0.00000000000E+00 -0.45593999997E+02  0.45594000000E+02  0.51100000000E-03 0. -1.
    9900012    2    1    2    0    0 -0.19285124563E+01  0.34301281573E+02  0.21745546381E+02  0.50528857544E+02  0.29999992990E+02 0.  0.
         12    1    1    2    0    0  0.19285124563E+01 -0.34301281573E+02 -0.21745546381E+02  0.40659142456E+02  0.00000000000E+00 0. -1.
         11    1    3    3    0    0  0.22858132157E+01  0.94993729454E+01 -0.35604758624E+01  0.10399039236E+02  0.51100000000E-03 0. -1.
        -11    1    3    3    0    0  0.43261893297E+00  0.38924405495E+01 -0.27838660495E+01  0.48050143616E+01  0.51100000000E-03 0.  1.
        -12    1    3    3    0    0 -0.46469446050E+01  0.20909468079E+02  0.28089888293E+02  0.35324803946E+02  0.00000000000E+00 0.  1.
</event>
<event>
 7    1  0.2661323E-011  0.5052886E+02  0.7816164E-02  0.1300439E+00
        -11   -1    0    0    0    0  0.00000000000E+00  0.00000000000E+00  0.45593999997E+02  0.45594000000E+02  0.51100000000E-03 0.  1.
         11   -1    0    0    0    0 -0.00000000000E+00 -0.00000000000E+00 -0.45593999997E+02  0.45594000000E+02  0.51100000000E-03 0. -1.
    9900012    2    1    2    0    0 -0.62416873342E+00  0.59983600488E+01  0.40209399947E+02  0.50528858913E+02  0.29999997151E+02 0.  0.
         12    1    1    2    0    0  0.62416873342E+00 -0.59983600488E+01 -0.40209399947E+02  0.40659141087E+02  0.00000000000E+00 0. -1.
         11    1    3    3    0    0 -0.58950739839E+01  0.57633244874E+01  0.10222292510E+02  0.13132519592E+02  0.51100000000E-03 0. -1.
        -11    1    3    3    0    0 -0.84550717617E+01 -0.11378607327E+01  0.12201196279E+02  0.14887986984E+02  0.51100000000E-03 0.  1.
         12    1    3    3    0    0  0.13725977012E+02  0.13728962941E+01  0.17785911158E+02  0.22508352336E+02  0.00000000000E+00 0. -1.
</event>
<event>
 7    1  0.2661323E-011  0.5052887E+02  0.7816164E-02  0.1300439E+00
        -11   -1    0    0    0    0  0.00000000000E+00  0.00000000000E+00  0.45593999997E+02  0.45594000000E+02  0.51100000000E-03 0.  1.
         11   -1    0    0    0    0 -0.00000000000E+00 -0.00000000000E+00 -0.45593999997E+02  0.45594000000E+02  0.51100000000E-03 0. -1.
    9900012    2    1    2    0    0 -0.93456218450E+01 -0.20039681365E+02  0.34120889062E+02  0.50528873752E+02  0.30000042256E+02 0.  0.
         12    1    1    2    0    0  0.93456218450E+01  0.20039681365E+02 -0.34120889062E+02  0.40659126248E+02  0.00000000000E+00 0. -1.
         11    1    3    3    0    0 -0.85300721235E+00  0.59146075531E+00 -0.86520611827E+00  0.13513064114E+01  0.51100000000E-03 0.  1.
        -11    1    3    3    0    0  0.29745813233E+01  0.86549303832E+00 -0.28276939011E+01  0.41944088151E+01  0.51100000000E-03 0. -1.
        -12    1    3    3    0    0 -0.11467195956E+02 -0.21496635158E+02  0.37813789082E+02  0.44983158525E+02  0.00000000000E+00 0.  1.
</event>
<event>
 7    1  0.2661323E-011  0.5052886E+02  0.7816164E-02  0.1300439E+00
        -11   -1    0    0    0    0  0.00000000000E+00  0.00000000000E+00  0.45593999997E+02  0.45594000000E+02  0.51100000000E-03 0.  1.
         11   -1    0    0    0    0 -0.00000000000E+00 -0.00000000000E+00 -0.45593999997E+02  0.45594000000E+02  0.51100000000E-03 0. -1.
    9900012    2    1    2    0    0  0.21734044639E+02  0.60476214857E+00  0.34357405851E+02  0.50528858710E+02  0.29999996535E+02 0.  0.
         12    1    1    2    0    0 -0.21734044639E+02 -0.60476214857E+00 -0.34357405851E+02  0.40659141290E+02  0.00000000000E+00 0. -1.
         11    1    3    3    0    0  0.50924660364E+01 -0.81283747710E+01  0.37909818719E+01  0.10313836850E+02  0.51100000000E-03 0. -1.
        -11    1    3    3    0    0  0.35417602020E+01  0.10537985736E+01 -0.20581657785E+01  0.42297285250E+01  0.51100000000E-03 0.  1.
        -12    1    3    3    0    0  0.13099818401E+02  0.76793383461E+01  0.32624589758E+02  0.35985293335E+02  0.00000000000E+00 0.  1.
</event>
<event>
 7    1  0.2661323E-011  0.5052891E+02  0.7816164E-02  0.1300439E+00
        -11   -1    0    0    0    0  0.00000000000E+00  0.00000000000E+00  0.45593999997E+02  0.45594000000E+02  0.51100000000E-03 0. -1.
         11   -1    0    0    0    0 -0.00000000000E+00 -0.00000000000E+00 -0.45593999997E+02  0.45594000000E+02  0.51100000000E-03 0.  1.
    9900012    2    1    2    0    0 -0.19066235645E+02  0.32616367246E+02 -0.15027069192E+02  0.50528910457E+02  0.30000153824E+02 0.  0.
         12    1    1    2    0    0  0.19066235645E+02 -0.32616367246E+02  0.15027069192E+02  0.40659089543E+02  0.00000000000E+00 0. -1.
         11    1    3    3    0    0 -0.16992356638E+02  0.13258248094E+02  0.20772727036E+01  0.21652630066E+02  0.51100000000E-03 0. -1.
        -11    1    3    3    0    0 -0.44090101586E+01  0.14894651908E+01 -0.11167090294E+01  0.47859081114E+01  0.51100000000E-03 0.  1.
        -12    1    3    3    0    0  0.23351311520E+01  0.17868653961E+02 -0.15987632867E+02  0.24090372279E+02  0.00000000000E+00 0.  1.
</event>
<event>
 7    1  0.2661323E-011  0.5052886E+02  0.7816164E-02  0.1300439E+00
        -11   -1    0    0    0    0  0.00000000000E+00  0.00000000000E+00  0.45593999997E+02  0.45594000000E+02  0.51100000000E-03 0.  1.
         11   -1    0    0    0    0 -0.00000000000E+00 -0.00000000000E+00 -0.45593999997E+02  0.45594000000E+02  0.51100000000E-03 0. -1.
    9900012    2    1    2    0    0  0.14643703446E+02 -0.31014689117E+02  0.21836123856E+02  0.50528864536E+02  0.30000014243E+02 0.  0.
         12    1    1    2    0    0 -0.14643703446E+02  0.31014689117E+02 -0.21836123856E+02  0.40659135464E+02  0.00000000000E+00 0. -1.
         11    1    3    3    0    0  0.72450960950E+01  0.81406100105E+00 -0.23995544090E+01  0.76754136281E+01  0.51100000000E-03 0. -1.
        -11    1    3    3    0    0  0.67311499539E-01 -0.86657916346E+01  0.14053345613E+02  0.16510511763E+02  0.51100000000E-03 0.  1.
        -12    1    3    3    0    0  0.73312958511E+01 -0.23162958484E+02  0.10182332652E+02  0.26342939145E+02  0.00000000000E+00 0.  1.
</event>
<event>
 7    1  0.2661323E-011  0.5052886E+02  0.7816164E-02  0.1300439E+00
        -11   -1    0    0    0    0  0.00000000000E+00  0.00000000000E+00  0.45593999997E+02  0.45594000000E+02  0.51100000000E-03 0.  1.
         11   -1    0    0    0    0 -0.00000000000E+00 -0.00000000000E+00 -0.45593999997E+02  0.45594000000E+02  0.51100000000E-03 0. -1.
    9900012    2    1    2    0    0 -0.22502341542E+02 -0.27812082140E+02  0.19320928358E+02  0.50528861292E+02  0.30000004384E+02 0.  0.
         12    1    1    2    0    0  0.22502341542E+02  0.27812082140E+02 -0.19320928358E+02  0.40659138708E+02  0.00000000000E+00 0. -1.
         11    1    3    3    0    0 -0.84745826529E+01 -0.20928067887E+02  0.71212842691E+01  0.23675203622E+02  0.51100000000E-03 0.  1.
        -11    1    3    3    0    0 -0.36979181683E+01 -0.18952346685E+01  0.14560500009E+02  0.15141818715E+02  0.51100000000E-03 0. -1.
         12    1    3    3    0    0 -0.10329840721E+02 -0.49887795843E+01 -0.23608559196E+01  0.11711838956E+02  0.00000000000E+00 0. -1.
</event>
<event>
 7    1  0.2661323E-011  0.5052886E+02  0.7816164E-02  0.1300439E+00
        -11   -1    0    0    0    0  0.00000000000E+00  0.00000000000E+00  0.45593999997E+02  0.45594000000E+02  0.51100000000E-03 0.  1.
         11   -1    0    0    0    0 -0.00000000000E+00 -0.00000000000E+00 -0.45593999997E+02  0.45594000000E+02  0.51100000000E-03 0. -1.
    9900012    2    1    2    0    0 -0.49351653302E+01  0.22258498877E+02  0.33665552202E+02  0.50528855467E+02  0.29999986677E+02 0.  0.
         12    1    1    2    0    0  0.49351653302E+01 -0.22258498877E+02 -0.33665552202E+02  0.40659144533E+02  0.00000000000E+00 0. -1.
         11    1    3    3    0    0 -0.92082263027E+01  0.21433996513E+02  0.19394641235E+02  0.30337431452E+02  0.51100000000E-03 0. -1.
        -11    1    3    3    0    0  0.66611030165E+01  0.57159442704E+01  0.78693358323E+01  0.11788501135E+02  0.51100000000E-03 0.  1.
        -12    1    3    3    0    0 -0.23880420440E+01 -0.48914419069E+01  0.64015751347E+01  0.84029228806E+01  0.00000000000E+00 0.  1.
</event>
<event>
 7    1  0.2661323E-011  0.5052885E+02  0.7816164E-02  0.1300439E+00
        -11   -1    0    0    0    0  0.00000000000E+00  0.00000000000E+00  0.45593999997E+02  0.45594000000E+02  0.51100000000E-03 0.  1.
         11   -1    0    0    0    0 -0.00000000000E+00 -0.00000000000E+00 -0.45593999997E+02  0.45594000000E+02  0.51100000000E-03 0. -1.
    9900012    2    1    2    0    0 -0.28253729875E+01 -0.13886113988E+02  0.38109839575E+02  0.50528846459E+02  0.29999959297E+02 0.  0.
         12    1    1    2    0    0  0.28253729875E+01  0.13886113988E+02 -0.38109839575E+02  0.40659153541E+02  0.00000000000E+00 0. -1.
         11    1    3    3    0    0 -0.35261379679E+01 -0.10264202480E+02  0.16193161904E+02  0.19493742437E+02  0.51100000000E-03 0. -1.
        -11    1    3    3    0    0 -0.71493371804E+01  0.37555369598E+01  0.17720692331E+02  0.19474085779E+02  0.51100000000E-03 0.  1.
         12    1    3    3    0    0  0.78501021608E+01 -0.73774484678E+01  0.41959853404E+01  0.11561018243E+02  0.00000000000E+00 0. -1.
</event>
<event>
 7    1  0.2661323E-011  0.5052885E+02  0.7816164E-02  0.1300439E+00
        -11   -1    0    0    0    0  0.00000000000E+00  0.00000000000E+00  0.45593999997E+02  0.45594000000E+02  0.51100000000E-03 0.  1.
         11   -1    0    0    0    0 -0.00000000000E+00 -0.00000000000E+00 -0.45593999997E+02  0.45594000000E+02  0.51100000000E-03 0. -1.
    9900012    2    1    2    0    0  0.19502499413E+02 -0.15552452807E+02  0.32108261495E+02  0.50528846936E+02  0.29999960748E+02 0.  0.
         12    1    1    2    0    0 -0.19502499413E+02  0.15552452807E+02 -0.32108261495E+02  0.40659153064E+02  0.00000000000E+00 0. -1.
         11    1    3    3    0    0  0.23102723019E+01 -0.98940331779E+01  0.14665274538E+02  0.17840950876E+02  0.51100000000E-03 0. -1.
        -11    1    3    3    0    0  0.77183316223E+01 -0.10789889762E+02  0.17441588327E+02  0.21913543021E+02  0.51100000000E-03 0.  1.
         12    1    3    3    0    0  0.94738954886E+01  0.51314701332E+01  0.13986300308E-02  0.10774353039E+02  0.00000000000E+00 0. -1.
</event>
<event>
 7    1  0.2661323E-011  0.5052884E+02  0.7816164E-02  0.1300439E+00
        -11   -1    0    0    0    0  0.00000000000E+00  0.00000000000E+00  0.45593999997E+02  0.45594000000E+02  0.51100000000E-03 0. -1.
         11   -1    0    0    0    0 -0.00000000000E+00 -0.00000000000E+00 -0.45593999997E+02  0.45594000000E+02  0.51100000000E-03 0.  1.
    9900012    2    1    2    0    0 -0.27768999987E+02  0.29613728502E+02 -0.22532613245E+01  0.50528837900E+02  0.29999933281E+02 0.  0.
         12    1    1    2    0    0  0.27768999987E+02 -0.29613728502E+02  0.22532613245E+01  0.40659162100E+02  0.00000000000E+00 0. -1.
         11    1    3    3    0    0 -0.24918815036E+02  0.14584353878E+02 -0.36057625530E+00  0.28875261667E+02  0.51100000000E-03 0. -1.
        -11    1    3    3    0    0 -0.85645162886E+01  0.10926523454E+02 -0.37445655644E+01  0.14379208100E+02  0.51100000000E-03 0.  1.
         12    1    3    3    0    0  0.57143313379E+01  0.41028511705E+01  0.18518804952E+01  0.72743681330E+01  0.00000000000E+00 0. -1.
</event>
<event>
 7    1  0.2661323E-011  0.5052885E+02  0.7816164E-02  0.1300439E+00
        -11   -1    0    0    0    0  0.00000000000E+00  0.00000000000E+00  0.45593999997E+02  0.45594000000E+02  0.51100000000E-03 0.  1.
         11   -1    0    0    0    0 -0.00000000000E+00 -0.00000000000E+00 -0.45593999997E+02  0.45594000000E+02  0.51100000000E-03 0. -1.
    9900012    2    1    2    0    0  0.97682192008E+01  0.13957190492E+02  0.36918086610E+02  0.50528851070E+02  0.29999973312E+02 0.  0.
         12    1    1    2    0    0 -0.97682192008E+01 -0.13957190492E+02 -0.36918086610E+02  0.40659148930E+02  0.00000000000E+00 0. -1.
         11    1    3    3    0    0  0.10655494689E+01  0.24455149110E+01  0.35749313464E+01  0.44605014565E+01  0.51100000000E-03 0.  1.
        -11    1    3    3    0    0 -0.82866062182E+01  0.51227569090E+01  0.23457327264E+02  0.25399934717E+02  0.51100000000E-03 0. -1.
         12    1    3    3    0    0  0.16989275950E+02  0.63889186716E+01  0.98858279995E+01  0.20668414897E+02  0.00000000000E+00 0. -1.
</event>
<event>
 7    1  0.2661323E-011  0.5052887E+02  0.7816164E-02  0.1300439E+00
        -11   -1    0    0    0    0  0.00000000000E+00  0.00000000000E+00  0.45593999997E+02  0.45594000000E+02  0.51100000000E-03 0.  1.
         11   -1    0    0    0    0 -0.00000000000E+00 -0.00000000000E+00 -0.45593999997E+02  0.45594000000E+02  0.51100000000E-03 0. -1.
    9900012    2    1    2    0    0 -0.11844760298E+02  0.26238996157E+02  0.28712045845E+02  0.50528870122E+02  0.30000031223E+02 0.  0.
         12    1    1    2    0    0  0.11844760298E+02 -0.26238996157E+02 -0.28712045845E+02  0.40659129878E+02  0.00000000000E+00 0. -1.
         11    1    3    3    0    0 -0.21673142116E+01  0.88026505647E+00 -0.25491021581E+01  0.34597744919E+01  0.51100000000E-03 0. -1.
        -11    1    3    3    0    0 -0.42759464535E+01  0.10530241400E+02 -0.73869512259E+00  0.11389265682E+02  0.51100000000E-03 0.  1.
        -12    1    3    3    0    0 -0.54014996329E+01  0.14828489700E+02  0.31999843126E+02  0.35679829948E+02  0.00000000000E+00 0.  1.
</event>
<event>
 7    1  0.2661323E-011  0.5052885E+02  0.7816164E-02  0.1300439E+00
        -11   -1    0    0    0    0  0.00000000000E+00  0.00000000000E+00  0.45593999997E+02  0.45594000000E+02  0.51100000000E-03 0.  1.
         11   -1    0    0    0    0 -0.00000000000E+00 -0.00000000000E+00 -0.45593999997E+02  0.45594000000E+02  0.51100000000E-03 0. -1.
    9900012    2    1    2    0    0  0.75932292740E+01  0.12841887310E+02  0.37823208763E+02  0.50528851932E+02  0.29999975933E+02 0.  0.
         12    1    1    2    0    0 -0.75932292740E+01 -0.12841887310E+02 -0.37823208763E+02  0.40659148068E+02  0.00000000000E+00 0. -1.
         11    1    3    3    0    0  0.85958000356E+01  0.18450973799E+01  0.94883570917E+01  0.12935265098E+02  0.51100000000E-03 0. -1.
        -11    1    3    3    0    0  0.71084282817E+01  0.95336099015E+01  0.50985675792E+01  0.12938889520E+02  0.51100000000E-03 0.  1.
        -12    1    3    3    0    0 -0.81109990433E+01  0.14631800289E+01  0.23236284092E+02  0.24654697314E+02  0.00000000000E+00 0.  1.
</event>
<event>
 7    1  0.2661323E-011  0.5052886E+02  0.7816164E-02  0.1300439E+00
        -11   -1    0    0    0    0  0.00000000000E+00  0.00000000000E+00  0.45593999997E+02  0.45594000000E+02  0.51100000000E-03 0.  1.
         11   -1    0    0    0    0 -0.00000000000E+00 -0.00000000000E+00 -0.45593999997E+02  0.45594000000E+02  0.51100000000E-03 0. -1.
    9900012    2    1    2    0    0  0.17572364311E+02 -0.30062466167E+00  0.36664522176E+02  0.50528861432E+02  0.30000004809E+02 0.  0.
         12    1    1    2    0    0 -0.17572364311E+02  0.30062466167E+00 -0.36664522176E+02  0.40659138568E+02  0.00000000000E+00 0. -1.
         11    1    3    3    0    0 -0.28263855910E+01  0.12577978866E+01  0.56178891896E+01  0.64133602924E+01  0.51100000000E-03 0. -1.
        -11    1    3    3    0    0  0.11318778257E+02  0.50121452023E+01  0.14447880171E+01  0.12462895066E+02  0.51100000000E-03 0.  1.
         12    1    3    3    0    0  0.90799716454E+01 -0.65705677506E+01  0.29601844969E+02  0.31652606073E+02  0.00000000000E+00 0. -1.
</event>
<event>
 7    1  0.2661323E-011  0.5052886E+02  0.7816164E-02  0.1300439E+00
        -11   -1    0    0    0    0  0.00000000000E+00  0.00000000000E+00  0.45593999997E+02  0.45594000000E+02  0.51100000000E-03 0.  1.
         11   -1    0    0    0    0 -0.00000000000E+00 -0.00000000000E+00 -0.45593999997E+02  0.45594000000E+02  0.51100000000E-03 0. -1.
    9900012    2    1    2    0    0 -0.18394714899E+02  0.36050842680E+02 -0.38906355218E+01  0.50528857868E+02  0.29999993975E+02 0.  0.
         12    1    1    2    0    0  0.18394714899E+02 -0.36050842680E+02  0.38906355218E+01  0.40659142132E+02  0.00000000000E+00 0. -1.
         11    1    3    3    0    0  0.17124117608E+01  0.32844943633E+01 -0.34209239065E+01  0.50421203770E+01  0.51100000000E-03 0. -1.
        -11    1    3    3    0    0  0.15835502982E+01  0.24604284031E+01  0.69016990380E+01  0.74963183861E+01  0.51100000000E-03 0.  1.
        -12    1    3    3    0    0 -0.21690676958E+02  0.30305919914E+02 -0.73714106534E+01  0.37990419105E+02  0.00000000000E+00 0.  1.
</event>
<event>
 7    1  0.2661323E-011  0.5052884E+02  0.7816164E-02  0.1300439E+00
        -11   -1    0    0    0    0  0.00000000000E+00  0.00000000000E+00  0.45593999997E+02  0.45594000000E+02  0.51100000000E-03 0.  1.
         11   -1    0    0    0    0 -0.00000000000E+00 -0.00000000000E+00 -0.45593999997E+02  0.45594000000E+02  0.51100000000E-03 0. -1.
    9900012    2    1    2    0    0  0.12272389565E+02 -0.26941607032E+02  0.27869435771E+02  0.50528841311E+02  0.29999943649E+02 0.  0.
         12    1    1    2    0    0 -0.12272389565E+02  0.26941607032E+02 -0.27869435771E+02  0.40659158689E+02  0.00000000000E+00 0. -1.
         11    1    3    3    0    0  0.51196042095E+01 -0.12196305278E+02  0.28068803577E+01  0.13521789352E+02  0.51100000000E-03 0. -1.
        -11    1    3    3    0    0  0.13800885941E+02 -0.13575864212E+02  0.13441624369E+02  0.23567897823E+02  0.51100000000E-03 0.  1.
        -12    1    3    3    0    0 -0.66481005854E+01 -0.11694375427E+01  0.11620931044E+02  0.13439154136E+02  0.00000000000E+00 0.  1.
</event>
<event>
 7    1  0.2661323E-011  0.5052886E+02  0.7816164E-02  0.1300439E+00
        -11   -1    0    0    0    0  0.00000000000E+00  0.00000000000E+00  0.45593999997E+02  0.45594000000E+02  0.51100000000E-03 0.  1.
         11   -1    0    0    0    0 -0.00000000000E+00 -0.00000000000E+00 -0.45593999997E+02  0.45594000000E+02  0.51100000000E-03 0. -1.
    9900012    2    1    2    0    0  0.38288032759E+02 -0.53658974982E+00  0.13671291108E+02  0.50528861031E+02  0.30000003591E+02 0.  0.
         12    1    1    2    0    0 -0.38288032759E+02  0.53658974982E+00 -0.13671291108E+02  0.40659138969E+02  0.00000000000E+00 0. -1.
         11    1    3    3    0    0  0.83965904234E+01  0.74137068969E+00  0.13626172514E+02  0.16022638324E+02  0.51100000000E-03 0. -1.
        -11    1    3    3    0    0  0.26717116493E+01 -0.18403844501E+01  0.58309270676E+01  0.66726882731E+01  0.51100000000E-03 0.  1.
        -12    1    3    3    0    0  0.27219730686E+02  0.56242401059E+00 -0.57858084733E+01  0.27833534434E+02  0.00000000000E+00 0.  1.
</event>
<event>
 7    1  0.2661323E-011  0.5052890E+02  0.7816164E-02  0.1300439E+00
        -11   -1    0    0    0    0  0.00000000000E+00  0.00000000000E+00  0.45593999997E+02  0.45594000000E+02  0.51100000000E-03 0.  1.
         11   -1    0    0    0    0 -0.00000000000E+00 -0.00000000000E+00 -0.45593999997E+02  0.45594000000E+02  0.51100000000E-03 0. -1.
    9900012    2    1    2    0    0  0.37935553650E+02  0.12908694767E+02  0.68863707981E+01  0.50528896049E+02  0.30000110031E+02 0.  0.
         12    1    1    2    0    0 -0.37935553650E+02 -0.12908694767E+02 -0.68863707981E+01  0.40659103951E+02  0.00000000000E+00 0. -1.
         11    1    3    3    0    0  0.65942633995E+01  0.10187509744E+02 -0.47987034887E+01  0.13049797699E+02  0.51100000000E-03 0. -1.
        -11    1    3    3    0    0 -0.31572258401E+00  0.10589155333E+01 -0.25122217504E+01  0.27444928932E+01  0.51100000000E-03 0.  1.
        -12    1    3    3    0    0  0.31657012834E+02  0.16622694903E+01  0.14197296037E+02  0.34734605457E+02  0.00000000000E+00 0.  1.
</event>
<event>
 7    1  0.2661323E-011  0.5052886E+02  0.7816164E-02  0.1300439E+00
        -11   -1    0    0    0    0  0.00000000000E+00  0.00000000000E+00  0.45593999997E+02  0.45594000000E+02  0.51100000000E-03 0.  1.
         11   -1    0    0    0    0 -0.00000000000E+00 -0.00000000000E+00 -0.45593999997E+02  0.45594000000E+02  0.51100000000E-03 0. -1.
    9900012    2    1    2    0    0  0.40310322120E+02  0.47044773481E+01 -0.24721681219E+01  0.50528858448E+02  0.29999995739E+02 0.  0.
         12    1    1    2    0    0 -0.40310322120E+02 -0.47044773481E+01  0.24721681219E+01  0.40659141552E+02  0.00000000000E+00 0. -1.
         11    1    3    3    0    0  0.10700715068E+02  0.11468845424E+02  0.74783744708E+01  0.17377163270E+02  0.51100000000E-03 0. -1.
        -11    1    3    3    0    0  0.65955668420E+01  0.13036394744E+01  0.22444351210E+00  0.67269125903E+01  0.51100000000E-03 0.  1.
        -12    1    3    3    0    0  0.23014040209E+02 -0.80680075500E+01 -0.10174986105E+02  0.26424782588E+02  0.00000000000E+00 0.  1.
</event>
<event>
 7    1  0.2661323E-011  0.5052886E+02  0.7816164E-02  0.1300439E+00
        -11   -1    0    0    0    0  0.00000000000E+00  0.00000000000E+00  0.45593999997E+02  0.45594000000E+02  0.51100000000E-03 0.  1.
         11   -1    0    0    0    0 -0.00000000000E+00 -0.00000000000E+00 -0.45593999997E+02  0.45594000000E+02  0.51100000000E-03 0. -1.
    9900012    2    1    2    0    0  0.90785777018E+01  0.26978844626E+02  0.29032512820E+02  0.50528862883E+02  0.30000009220E+02 0.  0.
         12    1    1    2    0    0 -0.90785777018E+01 -0.26978844626E+02 -0.29032512820E+02  0.40659137117E+02  0.00000000000E+00 0. -1.
         11    1    3    3    0    0 -0.39003049445E+01  0.82437446937E+01  0.86645258361E+01  0.12579575250E+02  0.51100000000E-03 0. -1.
        -11    1    3    3    0    0 -0.48860017991E+01  0.11723416706E+02  0.64697396313E+01  0.14253737896E+02  0.51100000000E-03 0.  1.
         12    1    3    3    0    0  0.17864884445E+02  0.70116832259E+01  0.13898247352E+02  0.23695549738E+02  0.00000000000E+00 0. -1.
</event>
<event>
 7    1  0.2661323E-011  0.5052886E+02  0.7816164E-02  0.1300439E+00
        -11   -1    0    0    0    0  0.00000000000E+00  0.00000000000E+00  0.45593999997E+02  0.45594000000E+02  0.51100000000E-03 0. -1.
         11   -1    0    0    0    0 -0.00000000000E+00 -0.00000000000E+00 -0.45593999997E+02  0.45594000000E+02  0.51100000000E-03 0.  1.
    9900012    2    1    2    0    0 -0.35998688705E+02 -0.15138816174E+02 -0.11317097830E+02  0.50528855310E+02  0.29999986199E+02 0.  0.
         12    1    1    2    0    0  0.35998688705E+02  0.15138816174E+02  0.11317097830E+02  0.40659144690E+02  0.00000000000E+00 0. -1.
         11    1    3    3    0    0 -0.62966542824E+01 -0.50765065052E+01  0.13204175994E+01  0.81952593825E+01  0.51100000000E-03 0. -1.
        -11    1    3    3    0    0 -0.20396004110E+02 -0.49154007930E+01  0.51561056991E+01  0.21604249000E+02  0.51100000000E-03 0.  1.
         12    1    3    3    0    0 -0.93060303127E+01 -0.51469088762E+01 -0.17793621128E+02  0.20729346927E+02  0.00000000000E+00 0. -1.
</event>
<event>
 7    1  0.2661323E-011  0.5052886E+02  0.7816164E-02  0.1300439E+00
        -11   -1    0    0    0    0  0.00000000000E+00  0.00000000000E+00  0.45593999997E+02  0.45594000000E+02  0.51100000000E-03 0.  1.
         11   -1    0    0    0    0 -0.00000000000E+00 -0.00000000000E+00 -0.45593999997E+02  0.45594000000E+02  0.51100000000E-03 0. -1.
    9900012    2    1    2    0    0  0.30182781371E+01 -0.26425795750E+02  0.30752774177E+02  0.50528858303E+02  0.29999995298E+02 0.  0.
         12    1    1    2    0    0 -0.30182781371E+01  0.26425795750E+02 -0.30752774177E+02  0.40659141697E+02  0.00000000000E+00 0. -1.
         11    1    3    3    0    0  0.64115589672E+01 -0.16657012491E+01  0.20030277775E+01  0.69206047120E+01  0.51100000000E-03 0. -1.
        -11    1    3    3    0    0 -0.44613528858E+01 -0.11954843053E+01  0.16287681630E+02  0.16929897384E+02  0.51100000000E-03 0.  1.
         12    1    3    3    0    0  0.10680720558E+01 -0.23564610195E+02  0.12462064770E+02  0.26678356207E+02  0.00000000000E+00 0. -1.
</event>
<event>
 7    1  0.2661323E-011  0.5052886E+02  0.7816164E-02  0.1300439E+00
        -11   -1    0    0    0    0  0.00000000000E+00  0.00000000000E+00  0.45593999997E+02  0.45594000000E+02  0.51100000000E-03 0. -1.
         11   -1    0    0    0    0 -0.00000000000E+00 -0.00000000000E+00 -0.45593999997E+02  0.45594000000E+02  0.51100000000E-03 0.  1.
    9900012    2    1    2    0    0 -0.11764045174E+02 -0.38717361861E+02  0.39672079294E+01  0.50528860719E+02  0.30000002642E+02 0.  0.
         12    1    1    2    0    0  0.11764045174E+02  0.38717361861E+02 -0.39672079294E+01  0.40659139281E+02  0.00000000000E+00 0. -1.
         11    1    3    3    0    0 -0.82101628969E+01 -0.22671664995E+02  0.33787839635E+00  0.24114836315E+02  0.51100000000E-03 0. -1.
        -11    1    3    3    0    0 -0.69854503787E+01 -0.17078316846E+02 -0.31757963244E+01  0.18723010063E+02  0.51100000000E-03 0.  1.
         12    1    3    3    0    0  0.34315681011E+01  0.10326199798E+01  0.68051258574E+01  0.76910143408E+01  0.00000000000E+00 0. -1.
</event>
<event>
 7    1  0.2661323E-011  0.5052886E+02  0.7816164E-02  0.1300439E+00
        -11   -1    0    0    0    0  0.00000000000E+00  0.00000000000E+00  0.45593999997E+02  0.45594000000E+02  0.51100000000E-03 0.  1.
         11   -1    0    0    0    0 -0.00000000000E+00 -0.00000000000E+00 -0.45593999997E+02  0.45594000000E+02  0.51100000000E-03 0. -1.
    9900012    2    1    2    0    0  0.39358482071E+02 -0.84433977405E+01  0.57257813276E+01  0.50528860214E+02  0.30000001106E+02 0.  0.
         12    1    1    2    0    0 -0.39358482071E+02  0.84433977405E+01 -0.57257813276E+01  0.40659139786E+02  0.00000000000E+00 0. -1.
         11    1    3    3    0    0  0.16787593363E+01  0.17809755206E+01  0.29291992526E+01  0.38171082296E+01  0.51100000000E-03 0. -1.
        -11    1    3    3    0    0  0.19160692935E+02 -0.97763770162E+01  0.13423592692E+02  0.25355522916E+02  0.51100000000E-03 0.  1.
        -12    1    3    3    0    0  0.18519029800E+02 -0.44799624483E+00 -0.10627010617E+02  0.21356229069E+02  0.00000000000E+00 0.  1.
</event>
<event>
 7    1  0.2661323E-011  0.5052890E+02  0.7816164E-02  0.1300439E+00
        -11   -1    0    0    0    0  0.00000000000E+00  0.00000000000E+00  0.45593999997E+02  0.45594000000E+02  0.51100000000E-03 0. -1.
         11   -1    0    0    0    0 -0.00000000000E+00 -0.00000000000E+00 -0.45593999997E+02  0.45594000000E+02  0.51100000000E-03 0.  1.
    9900012    2    1    2    0    0 -0.18227198082E+02  0.15446623133E+02 -0.32898835466E+02  0.50528901497E+02  0.30000126589E+02 0.  0.
         12    1    1    2    0    0  0.18227198082E+02 -0.15446623133E+02  0.32898835466E+02  0.40659098503E+02  0.00000000000E+00 0. -1.
         11    1    3    3    0    0 -0.86715245552E+01  0.64182838259E+00 -0.20119796103E+02  0.21918336553E+02  0.51100000000E-03 0.  1.
        -11    1    3    3    0    0 -0.10637066566E+02  0.85729153036E+00 -0.17887442183E+01  0.10820431601E+02  0.51100000000E-03 0. -1.
         12    1    3    3    0    0  0.10813930391E+01  0.13947503220E+02 -0.10990295145E+02  0.17790133342E+02  0.00000000000E+00 0. -1.
</event>
<event>
 7    1  0.2661323E-011  0.5052873E+02  0.7816164E-02  0.1300439E+00
        -11   -1    0    0    0    0  0.00000000000E+00  0.00000000000E+00  0.45593999997E+02  0.45594000000E+02  0.51100000000E-03 0. -1.
         11   -1    0    0    0    0 -0.00000000000E+00 -0.00000000000E+00 -0.45593999997E+02  0.45594000000E+02  0.51100000000E-03 0.  1.
    9900012    2    1    2    0    0  0.18166903207E+02 -0.16478368298E+02 -0.32428434002E+02  0.50528728908E+02  0.29999601986E+02 0.  0.
         12    1    1    2    0    0 -0.18166903207E+02  0.16478368298E+02  0.32428434002E+02  0.40659271092E+02  0.00000000000E+00 0. -1.
         11    1    3    3    0    0  0.41099368123E+01  0.34955777913E+00 -0.33332089835E+01  0.53032116337E+01  0.51100000000E-03 0.  1.
        -11    1    3    3    0    0  0.74348131459E+01 -0.61279093058E+01 -0.31032556621E+02  0.32493803866E+02  0.51100000000E-03 0. -1.
         12    1    3    3    0    0  0.66221532493E+01 -0.10700016772E+02  0.19373316032E+01  0.12731713408E+02  0.00000000000E+00 0. -1.
</event>
<event>
 7    1  0.2661323E-011  0.5052886E+02  0.7816164E-02  0.1300439E+00
        -11   -1    0    0    0    0  0.00000000000E+00  0.00000000000E+00  0.45593999997E+02  0.45594000000E+02  0.51100000000E-03 0.  1.
         11   -1    0    0    0    0 -0.00000000000E+00 -0.00000000000E+00 -0.45593999997E+02  0.45594000000E+02  0.51100000000E-03 0. -1.
    9900012    2    1    2    0    0  0.26124001697E+02 -0.30743958737E+02  0.50508434502E+01  0.50528862244E+02  0.30000007277E+02 0.  0.
         12    1    1    2    0    0 -0.26124001697E+02  0.30743958737E+02 -0.50508434502E+01  0.40659137756E+02  0.00000000000E+00 0. -1.
         11    1    3    3    0    0  0.11655803280E+02 -0.47191941128E+01 -0.28780504126E+01  0.12900066574E+02  0.51100000000E-03 0. -1.
        -11    1    3    3    0    0  0.16645533142E+02 -0.15065700410E+02 -0.21859895481E+01  0.22557208448E+02  0.51100000000E-03 0.  1.
        -12    1    3    3    0    0 -0.21773347244E+01 -0.10959064215E+02  0.10114883411E+02  0.15071587222E+02  0.00000000000E+00 0.  1.
</event>
<event>
 7    1  0.2661323E-011  0.5052882E+02  0.7816164E-02  0.1300439E+00
        -11   -1    0    0    0    0  0.00000000000E+00  0.00000000000E+00  0.45593999997E+02  0.45594000000E+02  0.51100000000E-03 0.  1.
         11   -1    0    0    0    0 -0.00000000000E+00 -0.00000000000E+00 -0.45593999997E+02  0.45594000000E+02  0.51100000000E-03 0. -1.
    9900012    2    1    2    0    0 -0.35640322695E+02  0.17745341337E+02  0.82485958326E+01  0.50528818083E+02  0.29999873044E+02 0.  0.
         12    1    1    2    0    0  0.35640322695E+02 -0.17745341337E+02 -0.82485958326E+01  0.40659181917E+02  0.00000000000E+00 0. -1.
         11    1    3    3    0    0 -0.18112368185E+02  0.10950821115E+02  0.93753003847E+01  0.23148965893E+02  0.51100000000E-03 0. -1.
        -11    1    3    3    0    0 -0.20094963170E+02  0.85423882121E+01 -0.50147698414E+01  0.22403746517E+02  0.51100000000E-03 0.  1.
         12    1    3    3    0    0  0.25670086595E+01 -0.17478679910E+01  0.38880652893E+01  0.49761056727E+01  0.00000000000E+00 0. -1.
</event>
<event>
 7    1  0.2661323E-011  0.5052885E+02  0.7816164E-02  0.1300439E+00
        -11   -1    0    0    0    0  0.00000000000E+00  0.00000000000E+00  0.45593999997E+02  0.45594000000E+02  0.51100000000E-03 0.  1.
         11   -1    0    0    0    0 -0.00000000000E+00 -0.00000000000E+00 -0.45593999997E+02  0.45594000000E+02  0.51100000000E-03 0. -1.
    9900012    2    1    2    0    0  0.11661319807E+02  0.25622637698E+02  0.29337012976E+02  0.50528852535E+02  0.29999977765E+02 0.  0.
         12    1    1    2    0    0 -0.11661319807E+02 -0.25622637698E+02 -0.29337012976E+02  0.40659147465E+02  0.00000000000E+00 0. -1.
         11    1    3    3    0    0  0.11905182335E+02  0.20575657925E+02  0.12250702606E+02  0.26742677130E+02  0.51100000000E-03 0. -1.
        -11    1    3    3    0    0  0.69437267232E+01  0.40792766302E+01  0.13441452587E+02  0.15669348632E+02  0.51100000000E-03 0.  1.
         12    1    3    3    0    0 -0.71875892512E+01  0.96770314335E+00  0.36448577824E+01  0.81168267736E+01  0.00000000000E+00 0. -1.
</event>
<event>
 7    1  0.2661323E-011  0.5052886E+02  0.7816164E-02  0.1300439E+00
        -11   -1    0    0    0    0  0.00000000000E+00  0.00000000000E+00  0.45593999997E+02  0.45594000000E+02  0.51100000000E-03 0. -1.
         11   -1    0    0    0    0 -0.00000000000E+00 -0.00000000000E+00 -0.45593999997E+02  0.45594000000E+02  0.51100000000E-03 0.  1.
    9900012    2    1    2    0    0 -0.74855102229E+01  0.28576115723E+02 -0.27938118798E+02  0.50528859145E+02  0.29999997857E+02 0.  0.
         12    1    1    2    0    0  0.74855102229E+01 -0.28576115723E+02  0.27938118798E+02  0.40659140855E+02  0.00000000000E+00 0. -1.
         11    1    3    3    0    0 -0.14922048097E+02  0.14636593391E+02 -0.25387729198E+02  0.32885166558E+02  0.51100000000E-03 0. -1.
        -11    1    3    3    0    0 -0.10484943959E+01  0.41507994084E-01 -0.68647091305E+00  0.12539162601E+01  0.51100000000E-03 0.  1.
        -12    1    3    3    0    0  0.84850322699E+01  0.13898014338E+02 -0.18639186874E+01  0.16389776327E+02  0.00000000000E+00 0.  1.
</event>
<event>
 7    1  0.2661323E-011  0.5052887E+02  0.7816164E-02  0.1300439E+00
        -11   -1    0    0    0    0  0.00000000000E+00  0.00000000000E+00  0.45593999997E+02  0.45594000000E+02  0.51100000000E-03 0.  1.
         11   -1    0    0    0    0 -0.00000000000E+00 -0.00000000000E+00 -0.45593999997E+02  0.45594000000E+02  0.51100000000E-03 0. -1.
    9900012    2    1    2    0    0  0.71686446687E+01 -0.17735132346E+02  0.35878132144E+02  0.50528871236E+02  0.30000034609E+02 0.  0.
         12    1    1    2    0    0 -0.71686446687E+01  0.17735132346E+02 -0.35878132144E+02  0.40659128764E+02  0.00000000000E+00 0. -1.
         11    1    3    3    0    0  0.40728446849E+01  0.42413731532E+01  0.63760003067E+01  0.86735627180E+01  0.51100000000E-03 0. -1.
        -11    1    3    3    0    0  0.21259305282E+01  0.33940352326E+01  0.62772809041E+01  0.74460265633E+01  0.51100000000E-03 0.  1.
         12    1    3    3    0    0  0.96986945562E+00 -0.25370540732E+02  0.23224850933E+02  0.34409281955E+02  0.00000000000E+00 0. -1.
</event>
<event>
 7    1  0.2661323E-011  0.5052900E+02  0.7816164E-02  0.1300438E+00
        -11   -1    0    0    0    0  0.00000000000E+00  0.00000000000E+00  0.45593999997E+02  0.45594000000E+02  0.51100000000E-03 0.  1.
         11   -1    0    0    0    0 -0.00000000000E+00 -0.00000000000E+00 -0.45593999997E+02  0.45594000000E+02  0.51100000000E-03 0. -1.
    9900012    2    1    2    0    0  0.25496283098E+02 -0.23447995654E+02  0.21290491902E+02  0.50529003487E+02  0.30000436595E+02 0.  0.
         12    1    1    2    0    0 -0.25496283098E+02  0.23447995654E+02 -0.21290491902E+02  0.40658996513E+02  0.00000000000E+00 0. -1.
         11    1    3    3    0    0  0.67179243370E+01  0.13154355820E+00 -0.19735794629E+01  0.70030584221E+01  0.51100000000E-03 0. -1.
        -11    1    3    3    0    0  0.20474375681E+02 -0.94718552909E+01  0.14946062080E+02  0.27061058260E+02  0.51100000000E-03 0.  1.
         12    1    3    3    0    0 -0.16960169201E+01 -0.14107683922E+02  0.83180092849E+01  0.16464886805E+02  0.00000000000E+00 0. -1.
</event>
<event>
 7    1  0.2661323E-011  0.5052886E+02  0.7816164E-02  0.1300439E+00
        -11   -1    0    0    0    0  0.00000000000E+00  0.00000000000E+00  0.45593999997E+02  0.45594000000E+02  0.51100000000E-03 0.  1.
         11   -1    0    0    0    0 -0.00000000000E+00 -0.00000000000E+00 -0.45593999997E+02  0.45594000000E+02  0.51100000000E-03 0. -1.
    9900012    2    1    2    0    0 -0.79374732720E+01 -0.44711562962E+01  0.39625382165E+02  0.50528860409E+02  0.30000001700E+02 0.  0.
         12    1    1    2    0    0  0.79374732720E+01  0.44711562962E+01 -0.39625382165E+02  0.40659139591E+02  0.00000000000E+00 0. -1.
         11    1    3    3    0    0 -0.10705888435E+02 -0.30902935788E+01  0.44093644892E+01  0.11983674605E+02  0.51100000000E-03 0. -1.
        -11    1    3    3    0    0 -0.42015974357E+01 -0.57993443927E+01  0.19866616211E+02  0.21117960516E+02  0.51100000000E-03 0.  1.
        -12    1    3    3    0    0  0.69700125986E+01  0.44184816753E+01  0.15349401464E+02  0.17427225288E+02  0.00000000000E+00 0.  1.
</event>
<event>
 7    1  0.2661323E-011  0.5052885E+02  0.7816164E-02  0.1300439E+00
        -11   -1    0    0    0    0  0.00000000000E+00  0.00000000000E+00  0.45593999997E+02  0.45594000000E+02  0.51100000000E-03 0.  1.
         11   -1    0    0    0    0 -0.00000000000E+00 -0.00000000000E+00 -0.45593999997E+02  0.45594000000E+02  0.51100000000E-03 0. -1.
    9900012    2    1    2    0    0 -0.72817353118E+01 -0.33624154747E+02  0.21669308216E+02  0.50528851335E+02  0.29999974119E+02 0.  0.
         12    1    1    2    0    0  0.72817353118E+01  0.33624154747E+02 -0.21669308216E+02  0.40659148665E+02  0.00000000000E+00 0. -1.
         11    1    3    3    0    0  0.21960352773E+00 -0.22155273719E+01  0.35429561310E+01  0.41844146129E+01  0.51100000000E-03 0. -1.
        -11    1    3    3    0    0 -0.11919881158E+02 -0.32332583745E+02  0.81737327489E+01  0.35415949031E+02  0.51100000000E-03 0.  1.
         12    1    3    3    0    0  0.44185423185E+01  0.92395636985E+00  0.99526193356E+01  0.10928487692E+02  0.00000000000E+00 0. -1.
</event>
<event>
 7    1  0.2661323E-011  0.5052886E+02  0.7816164E-02  0.1300439E+00
        -11   -1    0    0    0    0  0.00000000000E+00  0.00000000000E+00  0.45593999997E+02  0.45594000000E+02  0.51100000000E-03 0.  1.
         11   -1    0    0    0    0 -0.00000000000E+00 -0.00000000000E+00 -0.45593999997E+02  0.45594000000E+02  0.51100000000E-03 0. -1.
    9900012    2    1    2    0    0 -0.91785252630E+01 -0.18174380109E+02  0.35193923385E+02  0.50528860048E+02  0.30000000602E+02 0.  0.
         12    1    1    2    0    0  0.91785252630E+01  0.18174380109E+02 -0.35193923385E+02  0.40659139952E+02  0.00000000000E+00 0. -1.
         11    1    3    3    0    0  0.20554892524E+01  0.12745607844E+01  0.28207659743E+00  0.24349761247E+01  0.51100000000E-03 0. -1.
        -11    1    3    3    0    0 -0.31811546386E-01  0.38214573221E+01  0.15010153091E+02  0.15489003974E+02  0.51100000000E-03 0.  1.
        -12    1    3    3    0    0 -0.11202202969E+02 -0.23270398216E+02  0.19901693698E+02  0.32604879949E+02  0.00000000000E+00 0.  1.
</event>
<event>
 7    1  0.2661323E-011  0.5052883E+02  0.7816164E-02  0.1300439E+00
        -11   -1    0    0    0    0  0.00000000000E+00  0.00000000000E+00  0.45593999997E+02  0.45594000000E+02  0.51100000000E-03 0.  1.
         11   -1    0    0    0    0 -0.00000000000E+00 -0.00000000000E+00 -0.45593999997E+02  0.45594000000E+02  0.51100000000E-03 0. -1.
    9900012    2    1    2    0    0  0.82775584355E+01  0.39753850521E+02  0.20690950300E+01  0.50528834255E+02  0.29999922200E+02 0.  0.
         12    1    1    2    0    0 -0.82775584355E+01 -0.39753850521E+02 -0.20690950300E+01  0.40659165745E+02  0.00000000000E+00 0. -1.
         11    1    3    3    0    0 -0.40448578951E+01  0.74970613696E+01 -0.35091686722E+00  0.85258399868E+01  0.51100000000E-03 0. -1.
        -11    1    3    3    0    0  0.10662869154E+02  0.19466385414E+02  0.12644339409E+02  0.25544397801E+02  0.51100000000E-03 0.  1.
         12    1    3    3    0    0  0.16595471765E+01  0.12790403737E+02 -0.10224327512E+02  0.16458596467E+02  0.00000000000E+00 0. -1.
</event>
<event>
 7    1  0.2661323E-011  0.5052886E+02  0.7816164E-02  0.1300439E+00
        -11   -1    0    0    0    0  0.00000000000E+00  0.00000000000E+00  0.45593999997E+02  0.45594000000E+02  0.51100000000E-03 0.  1.
         11   -1    0    0    0    0 -0.00000000000E+00 -0.00000000000E+00 -0.45593999997E+02  0.45594000000E+02  0.51100000000E-03 0. -1.
    9900012    2    1    2    0    0  0.20939793649E+02  0.21087795228E+01  0.34788559123E+02  0.50528858900E+02  0.29999997112E+02 0.  0.
         12    1    1    2    0    0 -0.20939793649E+02 -0.21087795228E+01 -0.34788559123E+02  0.40659141100E+02  0.00000000000E+00 0. -1.
         11    1    3    3    0    0  0.13712101157E+01 -0.52299395496E+01  0.12457575308E+02  0.13580267585E+02  0.51100000000E-03 0. -1.
        -11    1    3    3    0    0  0.78928850837E+01 -0.72600470014E+01  0.87877572565E+01  0.13864724854E+02  0.51100000000E-03 0.  1.
         12    1    3    3    0    0  0.11675698450E+02  0.14598766074E+02  0.13543226559E+02  0.23083866461E+02  0.00000000000E+00 0. -1.
</event>
<event>
 7    1  0.2661323E-011  0.5052885E+02  0.7816164E-02  0.1300439E+00
        -11   -1    0    0    0    0  0.00000000000E+00  0.00000000000E+00  0.45593999997E+02  0.45594000000E+02  0.51100000000E-03 0.  1.
         11   -1    0    0    0    0 -0.00000000000E+00 -0.00000000000E+00 -0.45593999997E+02  0.45594000000E+02  0.51100000000E-03 0. -1.
    9900012    2    1    2    0    0 -0.22501605195E+02 -0.25555146782E+02  0.22221123385E+02  0.50528854806E+02  0.29999984669E+02 0.  0.
         12    1    1    2    0    0  0.22501605195E+02  0.25555146782E+02 -0.22221123385E+02  0.40659145194E+02  0.00000000000E+00 0. -1.
         11    1    3    3    0    0 -0.44796438676E+01 -0.14070421559E+01  0.93910118065E+01  0.10499432357E+02  0.51100000000E-03 0. -1.
        -11    1    3    3    0    0 -0.15711332001E+02 -0.10906628210E+02  0.17375566004E+02  0.25840100355E+02  0.51100000000E-03 0.  1.
         12    1    3    3    0    0 -0.23106293265E+01 -0.13241476416E+02 -0.45454544253E+01  0.14189322094E+02  0.00000000000E+00 0. -1.
</event>
<event>
 7    1  0.2661323E-011  0.5052883E+02  0.7816164E-02  0.1300439E+00
        -11   -1    0    0    0    0  0.00000000000E+00  0.00000000000E+00  0.45593999997E+02  0.45594000000E+02  0.51100000000E-03 0.  1.
         11   -1    0    0    0    0 -0.00000000000E+00 -0.00000000000E+00 -0.45593999997E+02  0.45594000000E+02  0.51100000000E-03 0. -1.
    9900012    2    1    2    0    0  0.27124444964E+02  0.85589063309E+01  0.29054738210E+02  0.50528828776E+02  0.29999905546E+02 0.  0.
         12    1    1    2    0    0 -0.27124444964E+02 -0.85589063309E+01 -0.29054738210E+02  0.40659171224E+02  0.00000000000E+00 0. -1.
         11    1    3    3    0    0 -0.91630631550E+00 -0.47060807142E+01  0.72924329719E+01  0.87273358972E+01  0.51100000000E-03 0. -1.
        -11    1    3    3    0    0  0.40540729883E+01  0.10370002887E+02  0.40671451323E+01  0.11853865929E+02  0.51100000000E-03 0.  1.
        -12    1    3    3    0    0  0.23986678292E+02  0.28949841582E+01  0.17695160106E+02  0.29947626950E+02  0.00000000000E+00 0.  1.
</event>
<event>
 7    1  0.2661323E-011  0.5052886E+02  0.7816164E-02  0.1300439E+00
        -11   -1    0    0    0    0  0.00000000000E+00  0.00000000000E+00  0.45593999997E+02  0.45594000000E+02  0.51100000000E-03 0. -1.
         11   -1    0    0    0    0 -0.00000000000E+00 -0.00000000000E+00 -0.45593999997E+02  0.45594000000E+02  0.51100000000E-03 0.  1.
    9900012    2    1    2    0    0  0.20608720752E+02 -0.34958716925E+02 -0.25168267140E+01  0.50528859862E+02  0.30000000037E+02 0.  0.
         12    1    1    2    0    0 -0.20608720752E+02  0.34958716925E+02  0.25168267140E+01  0.40659140138E+02  0.00000000000E+00 0. -1.
         11    1    3    3    0    0  0.95668704825E+01 -0.33437747672E+01  0.70118583784E+01  0.12323635775E+02  0.51100000000E-03 0. -1.
        -11    1    3    3    0    0  0.71974319076E+01 -0.11811414411E+02  0.34016637338E+01  0.14243730301E+02  0.51100000000E-03 0.  1.
        -12    1    3    3    0    0  0.38444183617E+01 -0.19803527746E+02 -0.12930348826E+02  0.23961493787E+02  0.00000000000E+00 0.  1.
</event>
<event>
 7    1  0.2661323E-011  0.5052884E+02  0.7816164E-02  0.1300439E+00
        -11   -1    0    0    0    0  0.00000000000E+00  0.00000000000E+00  0.45593999997E+02  0.45594000000E+02  0.51100000000E-03 0.  1.
         11   -1    0    0    0    0 -0.00000000000E+00 -0.00000000000E+00 -0.45593999997E+02  0.45594000000E+02  0.51100000000E-03 0. -1.
    9900012    2    1    2    0    0  0.17206228772E+02  0.36382445986E+02  0.57819261970E+01  0.50528839223E+02  0.29999937304E+02 0.  0.
         12    1    1    2    0    0 -0.17206228772E+02 -0.36382445986E+02 -0.57819261970E+01  0.40659160777E+02  0.00000000000E+00 0. -1.
         11    1    3    3    0    0  0.19587884659E+01  0.39590959557E+01 -0.46734760889E+01  0.64306043305E+01  0.51100000000E-03 0. -1.
        -11    1    3    3    0    0  0.16588360248E+02  0.32132559950E+02  0.15150092154E+02  0.39207147272E+02  0.51100000000E-03 0.  1.
         12    1    3    3    0    0 -0.13409199414E+01  0.29079008018E+00 -0.46946898680E+01  0.48910876210E+01  0.00000000000E+00 0. -1.
</event>
<event>
 7    1  0.2661323E-011  0.5052884E+02  0.7816164E-02  0.1300439E+00
        -11   -1    0    0    0    0  0.00000000000E+00  0.00000000000E+00  0.45593999997E+02  0.45594000000E+02  0.51100000000E-03 0.  1.
         11   -1    0    0    0    0 -0.00000000000E+00 -0.00000000000E+00 -0.45593999997E+02  0.45594000000E+02  0.51100000000E-03 0. -1.
    9900012    2    1    2    0    0  0.18065718278E+01 -0.11606366568E+02  0.38925514362E+02  0.50528842175E+02  0.29999946275E+02 0.  0.
         12    1    1    2    0    0 -0.18065718278E+01  0.11606366568E+02 -0.38925514362E+02  0.40659157825E+02  0.00000000000E+00 0. -1.
         11    1    3    3    0    0  0.60527120816E+01 -0.78729416293E+01  0.28189205202E+01  0.10323025070E+02  0.51100000000E-03 0. -1.
        -11    1    3    3    0    0 -0.81236971266E+01 -0.78344339248E+01  0.18051803373E+02  0.21289443751E+02  0.51100000000E-03 0.  1.
        -12    1    3    3    0    0  0.38775568728E+01  0.41010089860E+01  0.18054790469E+02  0.18916373354E+02  0.00000000000E+00 0.  1.
</event>
<event>
 7    1  0.2661323E-011  0.5052889E+02  0.7816164E-02  0.1300439E+00
        -11   -1    0    0    0    0  0.00000000000E+00  0.00000000000E+00  0.45593999997E+02  0.45594000000E+02  0.51100000000E-03 0.  1.
         11   -1    0    0    0    0 -0.00000000000E+00 -0.00000000000E+00 -0.45593999997E+02  0.45594000000E+02  0.51100000000E-03 0. -1.
    9900012    2    1    2    0    0 -0.25979570459E+02  0.31214827822E+02  0.19646149740E+01  0.50528889469E+02  0.30000090029E+02 0.  0.
         12    1    1    2    0    0  0.25979570459E+02 -0.31214827822E+02 -0.19646149740E+01  0.40659110531E+02  0.00000000000E+00 0. -1.
         11    1    3    3    0    0 -0.16694851769E+01 -0.32161255131E+01  0.78076861049E+00  0.37067835054E+01  0.51100000000E-03 0. -1.
        -11    1    3    3    0    0 -0.10686284371E+01  0.23459837363E+01  0.63642569215E+01  0.68665400932E+01  0.51100000000E-03 0.  1.
        -12    1    3    3    0    0 -0.23241456845E+02  0.32084969599E+02 -0.51804105580E+01  0.39955565870E+02  0.00000000000E+00 0.  1.
</event>
<event>
 7    1  0.2661323E-011  0.5052884E+02  0.7816164E-02  0.1300439E+00
        -11   -1    0    0    0    0  0.00000000000E+00  0.00000000000E+00  0.45593999997E+02  0.45594000000E+02  0.51100000000E-03 0. -1.
         11   -1    0    0    0    0 -0.00000000000E+00 -0.00000000000E+00 -0.45593999997E+02  0.45594000000E+02  0.51100000000E-03 0.  1.
    9900012    2    1    2    0    0 -0.37587518035E+02  0.30881104172E+01 -0.15192412508E+02  0.50528839461E+02  0.29999938024E+02 0.  0.
         12    1    1    2    0    0  0.37587518035E+02 -0.30881104172E+01  0.15192412508E+02  0.40659160539E+02  0.00000000000E+00 0. -1.
         11    1    3    3    0    0 -0.11715154781E+02  0.34054122538E+01  0.37690777437E+01  0.12769010590E+02  0.51100000000E-03 0. -1.
        -11    1    3    3    0    0 -0.24403934097E+02  0.29746520650E+01 -0.74370664660E+01  0.25684830391E+02  0.51100000000E-03 0.  1.
        -12    1    3    3    0    0 -0.14684291564E+01 -0.32919539017E+01 -0.11524423786E+02  0.12074998479E+02  0.00000000000E+00 0.  1.
</event>
<event>
 7    1  0.2661323E-011  0.5052883E+02  0.7816164E-02  0.1300439E+00
        -11   -1    0    0    0    0  0.00000000000E+00  0.00000000000E+00  0.45593999997E+02  0.45594000000E+02  0.51100000000E-03 0.  1.
         11   -1    0    0    0    0 -0.00000000000E+00 -0.00000000000E+00 -0.45593999997E+02  0.45594000000E+02  0.51100000000E-03 0. -1.
    9900012    2    1    2    0    0  0.25360307824E+02 -0.14858335037E+02  0.28093644369E+02  0.50528828993E+02  0.29999906208E+02 0.  0.
         12    1    1    2    0    0 -0.25360307824E+02  0.14858335037E+02 -0.28093644369E+02  0.40659171007E+02  0.00000000000E+00 0. -1.
         11    1    3    3    0    0  0.62258643105E+01 -0.47942222584E+01  0.36359746830E+00  0.78662670217E+01  0.51100000000E-03 0. -1.
        -11    1    3    3    0    0  0.17332050343E+02 -0.10263450875E+02  0.62274433813E+01  0.21083629771E+02  0.51100000000E-03 0.  1.
        -12    1    3    3    0    0  0.18023931704E+01  0.19933809651E+00  0.21502603520E+02  0.21578932201E+02  0.00000000000E+00 0.  1.
</event>
<event>
 7    1  0.2661323E-011  0.5052888E+02  0.7816164E-02  0.1300439E+00
        -11   -1    0    0    0    0  0.00000000000E+00  0.00000000000E+00  0.45593999997E+02  0.45594000000E+02  0.51100000000E-03 0.  1.
         11   -1    0    0    0    0 -0.00000000000E+00 -0.00000000000E+00 -0.45593999997E+02  0.45594000000E+02  0.51100000000E-03 0. -1.
    9900012    2    1    2    0    0  0.41779078929E+01 -0.24159038665E+02  0.32435319015E+02  0.50528880689E+02  0.30000063341E+02 0.  0.
         12    1    1    2    0    0 -0.41779078929E+01  0.24159038665E+02 -0.32435319015E+02  0.40659119311E+02  0.00000000000E+00 0. -1.
         11    1    3    3    0    0 -0.61965105214E+01 -0.78759325173E+01  0.11253203667E+02  0.15068564918E+02  0.51100000000E-03 0. -1.
        -11    1    3    3    0    0  0.11694008527E+02 -0.20463124803E+02  0.20024045683E+02  0.30926553605E+02  0.51100000000E-03 0.  1.
         12    1    3    3    0    0 -0.13195901127E+01  0.41800186551E+01  0.11580696652E+01  0.45337621654E+01  0.00000000000E+00 0. -1.
</event>
<event>
 7    1  0.2661323E-011  0.5052885E+02  0.7816164E-02  0.1300439E+00
        -11   -1    0    0    0    0  0.00000000000E+00  0.00000000000E+00  0.45593999997E+02  0.45594000000E+02  0.51100000000E-03 0.  1.
         11   -1    0    0    0    0 -0.00000000000E+00 -0.00000000000E+00 -0.45593999997E+02  0.45594000000E+02  0.51100000000E-03 0. -1.
    9900012    2    1    2    0    0 -0.21974454208E+02 -0.78309919403E+01  0.33301128592E+02  0.50528852960E+02  0.29999979058E+02 0.  0.
         12    1    1    2    0    0  0.21974454208E+02  0.78309919403E+01 -0.33301128592E+02  0.40659147040E+02  0.00000000000E+00 0. -1.
         11    1    3    3    0    0 -0.59251973762E+01  0.23909826026E+01  0.22873534719E+02  0.23749175829E+02  0.51100000000E-03 0. -1.
        -11    1    3    3    0    0 -0.24805191593E+01  0.36379658365E+01  0.49499719910E+01  0.66249523545E+01  0.51100000000E-03 0.  1.
         12    1    3    3    0    0 -0.13568737672E+02 -0.13859940379E+02  0.54776218815E+01  0.20154724776E+02  0.00000000000E+00 0. -1.
</event>
<event>
 7    1  0.2661323E-011  0.5052885E+02  0.7816164E-02  0.1300439E+00
        -11   -1    0    0    0    0  0.00000000000E+00  0.00000000000E+00  0.45593999997E+02  0.45594000000E+02  0.51100000000E-03 0. -1.
         11   -1    0    0    0    0 -0.00000000000E+00 -0.00000000000E+00 -0.45593999997E+02  0.45594000000E+02  0.51100000000E-03 0.  1.
    9900012    2    1    2    0    0  0.53081055284E+01  0.37526762643E+02 -0.14721842903E+02  0.50528849035E+02  0.29999967126E+02 0.  0.
         12    1    1    2    0    0 -0.53081055284E+01 -0.37526762643E+02  0.14721842903E+02  0.40659150965E+02  0.00000000000E+00 0. -1.
         11    1    3    3    0    0  0.32725874347E+00  0.22274251813E+01 -0.43660809561E+01  0.49123501911E+01  0.51100000000E-03 0. -1.
        -11    1    3    3    0    0 -0.94662958420E+01  0.61041042687E+01  0.51707699947E+00  0.11275558291E+02  0.51100000000E-03 0.  1.
        -12    1    3    3    0    0  0.14447142627E+02  0.29195233193E+02 -0.10872838947E+02  0.34340940552E+02  0.00000000000E+00 0.  1.
</event>
<event>
 7    1  0.2661323E-011  0.5052885E+02  0.7816164E-02  0.1300439E+00
        -11   -1    0    0    0    0  0.00000000000E+00  0.00000000000E+00  0.45593999997E+02  0.45594000000E+02  0.51100000000E-03 0.  1.
         11   -1    0    0    0    0 -0.00000000000E+00 -0.00000000000E+00 -0.45593999997E+02  0.45594000000E+02  0.51100000000E-03 0. -1.
    9900012    2    1    2    0    0 -0.14333874632E+02  0.10852164236E+02  0.36468300448E+02  0.50528851360E+02  0.29999974194E+02 0.  0.
         12    1    1    2    0    0  0.14333874632E+02 -0.10852164236E+02 -0.36468300448E+02  0.40659148640E+02  0.00000000000E+00 0. -1.
         11    1    3    3    0    0  0.54386345127E+01 -0.22138263914E+01  0.26408410884E+01  0.64384636808E+01  0.51100000000E-03 0. -1.
        -11    1    3    3    0    0 -0.92397082794E+01  0.90385896507E-01  0.21255984669E+02  0.23177516329E+02  0.51100000000E-03 0.  1.
        -12    1    3    3    0    0 -0.10532800865E+02  0.12975604731E+02  0.12571474691E+02  0.20912871350E+02  0.00000000000E+00 0.  1.
</event>
<event>
 7    1  0.2661323E-011  0.5052887E+02  0.7816164E-02  0.1300439E+00
        -11   -1    0    0    0    0  0.00000000000E+00  0.00000000000E+00  0.45593999997E+02  0.45594000000E+02  0.51100000000E-03 0. -1.
         11   -1    0    0    0    0 -0.00000000000E+00 -0.00000000000E+00 -0.45593999997E+02  0.45594000000E+02  0.51100000000E-03 0.  1.
    9900012    2    1    2    0    0  0.18027765848E+02 -0.34017826813E+02 -0.13074874665E+02  0.50528865356E+02  0.30000016735E+02 0.  0.
         12    1    1    2    0    0 -0.18027765848E+02  0.34017826813E+02  0.13074874665E+02  0.40659134644E+02  0.00000000000E+00 0. -1.
         11    1    3    3    0    0 -0.54532008510E+01 -0.11107172224E+02 -0.77330630248E+01  0.14591330931E+02  0.51100000000E-03 0. -1.
        -11    1    3    3    0    0  0.44283351301E+01 -0.73430771818E+01 -0.72922246852E+01  0.11256441518E+02  0.51100000000E-03 0.  1.
         12    1    3    3    0    0  0.19052631569E+02 -0.15567577407E+02  0.19504130453E+01  0.24681092906E+02  0.00000000000E+00 0. -1.
</event>
<event>
 7    1  0.2661323E-011  0.5052887E+02  0.7816164E-02  0.1300439E+00
        -11   -1    0    0    0    0  0.00000000000E+00  0.00000000000E+00  0.45593999997E+02  0.45594000000E+02  0.51100000000E-03 0.  1.
         11   -1    0    0    0    0 -0.00000000000E+00 -0.00000000000E+00 -0.45593999997E+02  0.45594000000E+02  0.51100000000E-03 0. -1.
    9900012    2    1    2    0    0  0.18864623290E+02 -0.29639744669E+02  0.20464032693E+02  0.50528866832E+02  0.30000021221E+02 0.  0.
         12    1    1    2    0    0 -0.18864623290E+02  0.29639744669E+02 -0.20464032693E+02  0.40659133168E+02  0.00000000000E+00 0. -1.
         11    1    3    3    0    0  0.52202280537E+01 -0.18765301876E+02 -0.26259701948E+01  0.19654084948E+02  0.51100000000E-03 0. -1.
        -11    1    3    3    0    0 -0.20234643310E+00 -0.13413679351E+01 -0.86550545085E+00  0.16091339170E+01  0.51100000000E-03 0.  1.
        -12    1    3    3    0    0  0.13846741670E+02 -0.95330748585E+01  0.23955508339E+02  0.29265647967E+02  0.00000000000E+00 0.  1.
</event>
<event>
 7    1  0.2661323E-011  0.5052887E+02  0.7816164E-02  0.1300439E+00
        -11   -1    0    0    0    0  0.00000000000E+00  0.00000000000E+00  0.45593999997E+02  0.45594000000E+02  0.51100000000E-03 0.  1.
         11   -1    0    0    0    0 -0.00000000000E+00 -0.00000000000E+00 -0.45593999997E+02  0.45594000000E+02  0.51100000000E-03 0. -1.
    9900012    2    1    2    0    0  0.27531779982E+02  0.25686257147E+02  0.15342177401E+02  0.50528866677E+02  0.30000020750E+02 0.  0.
         12    1    1    2    0    0 -0.27531779982E+02 -0.25686257147E+02 -0.15342177401E+02  0.40659133323E+02  0.00000000000E+00 0. -1.
         11    1    3    3    0    0  0.51071890212E+01  0.64973228282E+01 -0.56379195165E+01  0.10004235122E+02  0.51100000000E-03 0. -1.
        -11    1    3    3    0    0  0.10860302950E+02 -0.13245767299E+01  0.47657749422E+01  0.11933704150E+02  0.51100000000E-03 0.  1.
         12    1    3    3    0    0  0.11564288010E+02  0.20513511049E+02  0.16214321976E+02  0.28590927405E+02  0.00000000000E+00 0. -1.
</event>
<event>
 7    1  0.2661323E-011  0.5052885E+02  0.7816164E-02  0.1300439E+00
        -11   -1    0    0    0    0  0.00000000000E+00  0.00000000000E+00  0.45593999997E+02  0.45594000000E+02  0.51100000000E-03 0.  1.
         11   -1    0    0    0    0 -0.00000000000E+00 -0.00000000000E+00 -0.45593999997E+02  0.45594000000E+02  0.51100000000E-03 0. -1.
    9900012    2    1    2    0    0  0.54232790446E+01  0.37649905330E+02 -0.14361027498E+02  0.50528850504E+02  0.29999971592E+02 0.  0.
         12    1    1    2    0    0 -0.54232790446E+01 -0.37649905330E+02  0.14361027498E+02  0.40659149496E+02  0.00000000000E+00 0. -1.
         11    1    3    3    0    0 -0.18345235089E+01  0.59607604527E+01 -0.53849054478E+01  0.82397420240E+01  0.51100000000E-03 0. -1.
        -11    1    3    3    0    0 -0.82613012179E+01  0.11716584900E+02  0.24339893294E+01  0.14541381084E+02  0.51100000000E-03 0.  1.
        -12    1    3    3    0    0  0.15519103771E+02  0.19972559978E+02 -0.11410111379E+02  0.27747727396E+02  0.00000000000E+00 0.  1.
</event>
<event>
 7    1  0.2661323E-011  0.5052886E+02  0.7816164E-02  0.1300439E+00
        -11   -1    0    0    0    0  0.00000000000E+00  0.00000000000E+00  0.45593999997E+02  0.45594000000E+02  0.51100000000E-03 0. -1.
         11   -1    0    0    0    0 -0.00000000000E+00 -0.00000000000E+00 -0.45593999997E+02  0.45594000000E+02  0.51100000000E-03 0.  1.
    9900012    2    1    2    0    0  0.33055390508E+02  0.22264496646E+02  0.80497932260E+01  0.50528858057E+02  0.29999994551E+02 0.  0.
         12    1    1    2    0    0 -0.33055390508E+02 -0.22264496646E+02 -0.80497932260E+01  0.40659141943E+02  0.00000000000E+00 0. -1.
         11    1    3    3    0    0  0.10605191840E+02  0.55686403461E+01  0.11565880153E+02  0.16650808787E+02  0.51100000000E-03 0. -1.
        -11    1    3    3    0    0  0.45711105075E+01  0.79014508854E+01  0.68548483635E+01  0.11415643815E+02  0.51100000000E-03 0.  1.
         12    1    3    3    0    0  0.17879088160E+02  0.87944054150E+01 -0.10370935291E+02  0.22462405455E+02  0.00000000000E+00 0. -1.
</event>
<event>
 7    1  0.2661323E-011  0.5052883E+02  0.7816164E-02  0.1300439E+00
        -11   -1    0    0    0    0  0.00000000000E+00  0.00000000000E+00  0.45593999997E+02  0.45594000000E+02  0.51100000000E-03 0.  1.
         11   -1    0    0    0    0 -0.00000000000E+00 -0.00000000000E+00 -0.45593999997E+02  0.45594000000E+02  0.51100000000E-03 0. -1.
    9900012    2    1    2    0    0 -0.34593756984E+02 -0.17362582852E+02  0.12449115928E+02  0.50528833839E+02  0.29999920937E+02 0.  0.
         12    1    1    2    0    0  0.34593756984E+02  0.17362582852E+02 -0.12449115928E+02  0.40659166161E+02  0.00000000000E+00 0. -1.
         11    1    3    3    0    0  0.16951945666E+01  0.13437711368E+01 -0.14183017234E+01  0.25866939375E+01  0.51100000000E-03 0. -1.
        -11    1    3    3    0    0 -0.17044949962E+02 -0.23479905299E+01 -0.31432898616E+01  0.17490673233E+02  0.51100000000E-03 0.  1.
        -12    1    3    3    0    0 -0.19244001589E+02 -0.16358363459E+02  0.17010707513E+02  0.30451466668E+02  0.00000000000E+00 0.  1.
</event>
<event>
 7    1  0.2661323E-011  0.5052886E+02  0.7816164E-02  0.1300439E+00
        -11   -1    0    0    0    0  0.00000000000E+00  0.00000000000E+00  0.45593999997E+02  0.45594000000E+02  0.51100000000E-03 0.  1.
         11   -1    0    0    0    0 -0.00000000000E+00 -0.00000000000E+00 -0.45593999997E+02  0.45594000000E+02  0.51100000000E-03 0. -1.
    9900012    2    1    2    0    0  0.29422847393E+02  0.16519454573E+02  0.22684112665E+02  0.50528864551E+02  0.30000014289E+02 0.  0.
         12    1    1    2    0    0 -0.29422847393E+02 -0.16519454573E+02 -0.22684112665E+02  0.40659135449E+02  0.00000000000E+00 0. -1.
         11    1    3    3    0    0  0.10254279333E+02  0.29817228076E+01 -0.26566463629E+01  0.11004484799E+02  0.51100000000E-03 0. -1.
        -11    1    3    3    0    0  0.21081062963E+01  0.43144775406E+01 -0.26397903269E+01  0.54797191384E+01  0.51100000000E-03 0.  1.
        -12    1    3    3    0    0  0.17060461764E+02  0.92232542243E+01  0.27980549355E+02  0.34044660613E+02  0.00000000000E+00 0.  1.
</event>
<event>
 7    1  0.2661323E-011  0.5052883E+02  0.7816164E-02  0.1300439E+00
        -11   -1    0    0    0    0  0.00000000000E+00  0.00000000000E+00  0.45593999997E+02  0.45594000000E+02  0.51100000000E-03 0. -1.
         11   -1    0    0    0    0 -0.00000000000E+00 -0.00000000000E+00 -0.45593999997E+02  0.45594000000E+02  0.51100000000E-03 0.  1.
    9900012    2    1    2    0    0  0.29744183009E+02  0.14459593742E+02 -0.23651046988E+02  0.50528827632E+02  0.29999902069E+02 0.  0.
         12    1    1    2    0    0 -0.29744183009E+02 -0.14459593742E+02  0.23651046988E+02  0.40659172368E+02  0.00000000000E+00 0. -1.
         11    1    3    3    0    0 -0.15262161528E+01 -0.23013887971E+00  0.29204293801E+01  0.33032117211E+01  0.51100000000E-03 0. -1.
        -11    1    3    3    0    0  0.16914830667E+02 -0.50039896363E+00 -0.17797468478E+02  0.24558334229E+02  0.51100000000E-03 0.  1.
        -12    1    3    3    0    0  0.14355568495E+02  0.15190131585E+02 -0.87740078902E+01  0.22667281682E+02  0.00000000000E+00 0.  1.
</event>
<event>
 7    1  0.2661323E-011  0.5052875E+02  0.7816164E-02  0.1300439E+00
        -11   -1    0    0    0    0  0.00000000000E+00  0.00000000000E+00  0.45593999997E+02  0.45594000000E+02  0.51100000000E-03 0. -1.
         11   -1    0    0    0    0 -0.00000000000E+00 -0.00000000000E+00 -0.45593999997E+02  0.45594000000E+02  0.51100000000E-03 0.  1.
    9900012    2    1    2    0    0  0.39346279041E+02  0.59528870697E+01 -0.83431481906E+01  0.50528749385E+02  0.29999664230E+02 0.  0.
         12    1    1    2    0    0 -0.39346279041E+02 -0.59528870697E+01  0.83431481906E+01  0.40659250615E+02  0.00000000000E+00 0. -1.
         11    1    3    3    0    0  0.19603871716E+02 -0.35329399762E+01  0.67074885551E-02  0.19919676112E+02  0.51100000000E-03 0. -1.
        -11    1    3    3    0    0  0.60451405026E+01  0.31834107127E+01 -0.13122137726E+02  0.14794199073E+02  0.51100000000E-03 0.  1.
         12    1    3    3    0    0  0.13697266822E+02  0.63024163333E+01  0.47722820469E+01  0.15814874200E+02  0.00000000000E+00 0. -1.
</event>
<event>
 7    1  0.2661323E-011  0.5052886E+02  0.7816164E-02  0.1300439E+00
        -11   -1    0    0    0    0  0.00000000000E+00  0.00000000000E+00  0.45593999997E+02  0.45594000000E+02  0.51100000000E-03 0.  1.
         11   -1    0    0    0    0 -0.00000000000E+00 -0.00000000000E+00 -0.45593999997E+02  0.45594000000E+02  0.51100000000E-03 0. -1.
    9900012    2    1    2    0    0 -0.28005697181E+02  0.13044769762E+02  0.26432565044E+02  0.50528860959E+02  0.30000003372E+02 0.  0.
         12    1    1    2    0    0  0.28005697181E+02 -0.13044769762E+02 -0.26432565044E+02  0.40659139041E+02  0.00000000000E+00 0. -1.
         11    1    3    3    0    0 -0.34620592914E+01 -0.26606674096E+00  0.41217683005E+01  0.53893988749E+01  0.51100000000E-03 0. -1.
        -11    1    3    3    0    0 -0.44073525130E+01 -0.68389330571E+01  0.12686058694E+02  0.15070894034E+02  0.51100000000E-03 0.  1.
        -12    1    3    3    0    0 -0.20136285376E+02  0.20149769560E+02  0.96247380489E+01  0.30068568050E+02  0.00000000000E+00 0.  1.
</event>
<event>
 7    1  0.2661323E-011  0.5052886E+02  0.7816164E-02  0.1300439E+00
        -11   -1    0    0    0    0  0.00000000000E+00  0.00000000000E+00  0.45593999997E+02  0.45594000000E+02  0.51100000000E-03 0.  1.
         11   -1    0    0    0    0 -0.00000000000E+00 -0.00000000000E+00 -0.45593999997E+02  0.45594000000E+02  0.51100000000E-03 0. -1.
    9900012    2    1    2    0    0 -0.37713263558E+02  0.11651122688E+02  0.97532876191E+01  0.50528861698E+02  0.30000005618E+02 0.  0.
         12    1    1    2    0    0  0.37713263558E+02 -0.11651122688E+02 -0.97532876191E+01  0.40659138302E+02  0.00000000000E+00 0. -1.
         11    1    3    3    0    0 -0.22828771950E+02  0.40786807803E+01  0.12738924695E+02  0.26458810788E+02  0.51100000000E-03 0. -1.
        -11    1    3    3    0    0 -0.47370817639E+01  0.20891753699E+01  0.70734588298E+01  0.87657525314E+01  0.51100000000E-03 0.  1.
         12    1    3    3    0    0 -0.10147409843E+02  0.54832665375E+01 -0.10059095905E+02  0.15304298379E+02  0.00000000000E+00 0. -1.
</event>
<event>
 7    1  0.2661323E-011  0.5052886E+02  0.7816164E-02  0.1300439E+00
        -11   -1    0    0    0    0  0.00000000000E+00  0.00000000000E+00  0.45593999997E+02  0.45594000000E+02  0.51100000000E-03 0.  1.
         11   -1    0    0    0    0 -0.00000000000E+00 -0.00000000000E+00 -0.45593999997E+02  0.45594000000E+02  0.51100000000E-03 0. -1.
    9900012    2    1    2    0    0 -0.10538472350E+02 -0.28290827546E+02  0.27234824240E+02  0.50528856206E+02  0.29999988922E+02 0.  0.
         12    1    1    2    0    0  0.10538472350E+02  0.28290827546E+02 -0.27234824240E+02  0.40659143794E+02  0.00000000000E+00 0. -1.
         11    1    3    3    0    0  0.13681039045E+01 -0.18739546200E+02  0.11552318531E+02  0.22056707908E+02  0.51100000000E-03 0. -1.
        -11    1    3    3    0    0 -0.17106171201E+01 -0.12857048216E+02  0.74564015227E+01  0.14960876434E+02  0.51100000000E-03 0.  1.
         12    1    3    3    0    0 -0.10195959134E+02  0.33057668694E+01  0.82261041871E+01  0.13511271863E+02  0.00000000000E+00 0. -1.
</event>
<event>
 7    1  0.2661323E-011  0.5052886E+02  0.7816164E-02  0.1300439E+00
        -11   -1    0    0    0    0  0.00000000000E+00  0.00000000000E+00  0.45593999997E+02  0.45594000000E+02  0.51100000000E-03 0.  1.
         11   -1    0    0    0    0 -0.00000000000E+00 -0.00000000000E+00 -0.45593999997E+02  0.45594000000E+02  0.51100000000E-03 0. -1.
    9900012    2    1    2    0    0 -0.18555646465E+02  0.35244305409E+02  0.81665527484E+01  0.50528860028E+02  0.30000000540E+02 0.  0.
         12    1    1    2    0    0  0.18555646465E+02 -0.35244305409E+02 -0.81665527484E+01  0.40659139972E+02  0.00000000000E+00 0. -1.
         11    1    3    3    0    0 -0.68334672073E+01  0.45799618484E+00  0.26489340179E+01  0.73432204291E+01  0.51100000000E-03 0. -1.
        -11    1    3    3    0    0  0.16327304949E+01  0.14942751501E+02  0.11024186987E+02  0.18640931583E+02  0.51100000000E-03 0.  1.
        -12    1    3    3    0    0 -0.13354909752E+02  0.19843557724E+02 -0.55065682568E+01  0.24544708016E+02  0.00000000000E+00 0.  1.
</event>
<event>
 7    1  0.2661323E-011  0.5052888E+02  0.7816164E-02  0.1300439E+00
        -11   -1    0    0    0    0  0.00000000000E+00  0.00000000000E+00  0.45593999997E+02  0.45594000000E+02  0.51100000000E-03 0. -1.
         11   -1    0    0    0    0 -0.00000000000E+00 -0.00000000000E+00 -0.45593999997E+02  0.45594000000E+02  0.51100000000E-03 0.  1.
    9900012    2    1    2    0    0  0.10887162053E+02  0.36099407853E+02 -0.15214035400E+02  0.50528875341E+02  0.30000047085E+02 0.  0.
         12    1    1    2    0    0 -0.10887162053E+02 -0.36099407853E+02  0.15214035400E+02  0.40659124659E+02  0.00000000000E+00 0. -1.
         11    1    3    3    0    0 -0.47728017296E+01  0.12637437494E+02 -0.15401845706E+02  0.20486613048E+02  0.51100000000E-03 0. -1.
        -11    1    3    3    0    0  0.78523448247E+00  0.98416790409E+01  0.12507716844E-01  0.98729628906E+01  0.51100000000E-03 0.  1.
        -12    1    3    3    0    0  0.14874729300E+02  0.13620291319E+02  0.17530258967E+00  0.20169299402E+02  0.00000000000E+00 0.  1.
</event>
<event>
 7    1  0.2661323E-011  0.5052891E+02  0.7816164E-02  0.1300439E+00
        -11   -1    0    0    0    0  0.00000000000E+00  0.00000000000E+00  0.45593999997E+02  0.45594000000E+02  0.51100000000E-03 0.  1.
         11   -1    0    0    0    0 -0.00000000000E+00 -0.00000000000E+00 -0.45593999997E+02  0.45594000000E+02  0.51100000000E-03 0. -1.
    9900012    2    1    2    0    0  0.29700695200E+02  0.27442831306E+02 -0.42333708126E+01  0.50528908595E+02  0.30000148166E+02 0.  0.
         12    1    1    2    0    0 -0.29700695200E+02 -0.27442831306E+02  0.42333708126E+01  0.40659091405E+02  0.00000000000E+00 0. -1.
         11    1    3    3    0    0  0.23580778583E+01  0.96935783334E+01  0.33777941612E+00  0.99819881430E+01  0.51100000000E-03 0. -1.
        -11    1    3    3    0    0  0.99867020457E+01  0.19387410015E+02 -0.70919764604E+01  0.22932553613E+02  0.51100000000E-03 0.  1.
         12    1    3    3    0    0  0.17355915296E+02 -0.16381570432E+01  0.25208262317E+01  0.17614366839E+02  0.00000000000E+00 0. -1.
</event>
<event>
 7    1  0.2661323E-011  0.5052886E+02  0.7816164E-02  0.1300439E+00
        -11   -1    0    0    0    0  0.00000000000E+00  0.00000000000E+00  0.45593999997E+02  0.45594000000E+02  0.51100000000E-03 0.  1.
         11   -1    0    0    0    0 -0.00000000000E+00 -0.00000000000E+00 -0.45593999997E+02  0.45594000000E+02  0.51100000000E-03 0. -1.
    9900012    2    1    2    0    0  0.57837411498E+01  0.39078543584E+02  0.96219229257E+01  0.50528860423E+02  0.30000001742E+02 0.  0.
         12    1    1    2    0    0 -0.57837411498E+01 -0.39078543584E+02 -0.96219229257E+01  0.40659139577E+02  0.00000000000E+00 0. -1.
         11    1    3    3    0    0  0.24185445697E+01  0.25704475503E+01 -0.19652612425E+01  0.40396547448E+01  0.51100000000E-03 0. -1.
        -11    1    3    3    0    0  0.13921418251E+02  0.12277666330E+02  0.39463264025E+01  0.18976840331E+02  0.51100000000E-03 0.  1.
        -12    1    3    3    0    0 -0.10556221670E+02  0.24230429704E+02  0.76408577658E+01  0.27512365347E+02  0.00000000000E+00 0.  1.
</event>
<event>
 7    1  0.2661323E-011  0.5052885E+02  0.7816164E-02  0.1300439E+00
        -11   -1    0    0    0    0  0.00000000000E+00  0.00000000000E+00  0.45593999997E+02  0.45594000000E+02  0.51100000000E-03 0. -1.
         11   -1    0    0    0    0 -0.00000000000E+00 -0.00000000000E+00 -0.45593999997E+02  0.45594000000E+02  0.51100000000E-03 0.  1.
    9900012    2    1    2    0    0 -0.26472076423E+02 -0.24820387759E+02 -0.18339672850E+02  0.50528854917E+02  0.29999985005E+02 0.  0.
         12    1    1    2    0    0  0.26472076423E+02  0.24820387759E+02  0.18339672850E+02  0.40659145083E+02  0.00000000000E+00 0. -1.
         11    1    3    3    0    0  0.40088495977E+01 -0.10875354719E+02 -0.24939125687E+01  0.11855961181E+02  0.51100000000E-03 0. -1.
        -11    1    3    3    0    0 -0.12541809047E+02 -0.37676315049E+01 -0.11856821057E+02  0.17665679357E+02  0.51100000000E-03 0.  1.
        -12    1    3    3    0    0 -0.17939116974E+02 -0.10177401535E+02 -0.39889392246E+01  0.21007214378E+02  0.00000000000E+00 0.  1.
</event>
<event>
 7    1  0.2661323E-011  0.5052886E+02  0.7816164E-02  0.1300439E+00
        -11   -1    0    0    0    0  0.00000000000E+00  0.00000000000E+00  0.45593999997E+02  0.45594000000E+02  0.51100000000E-03 0.  1.
         11   -1    0    0    0    0 -0.00000000000E+00 -0.00000000000E+00 -0.45593999997E+02  0.45594000000E+02  0.51100000000E-03 0. -1.
    9900012    2    1    2    0    0  0.30209144427E+02  0.18213265918E+02  0.20220050026E+02  0.50528857296E+02  0.29999992236E+02 0.  0.
         12    1    1    2    0    0 -0.30209144427E+02 -0.18213265918E+02 -0.20220050026E+02  0.40659142704E+02  0.00000000000E+00 0. -1.
         11    1    3    3    0    0  0.14621615623E+02  0.63367182340E+01  0.10981862989E+02  0.19353215660E+02  0.51100000000E-03 0. -1.
        -11    1    3    3    0    0  0.21138955489E+02  0.70320237589E+01  0.81791209500E+01  0.23731894511E+02  0.51100000000E-03 0.  1.
         12    1    3    3    0    0 -0.55514266844E+01  0.48445239251E+01  0.10590660865E+01  0.74437471255E+01  0.00000000000E+00 0. -1.
</event>
<event>
 7    1  0.2661323E-011  0.5052884E+02  0.7816164E-02  0.1300439E+00
        -11   -1    0    0    0    0  0.00000000000E+00  0.00000000000E+00  0.45593999997E+02  0.45594000000E+02  0.51100000000E-03 0.  1.
         11   -1    0    0    0    0 -0.00000000000E+00 -0.00000000000E+00 -0.45593999997E+02  0.45594000000E+02  0.51100000000E-03 0. -1.
    9900012    2    1    2    0    0  0.13206390552E+02  0.18756947879E+02  0.33569861121E+02  0.50528838415E+02  0.29999934845E+02 0.  0.
         12    1    1    2    0    0 -0.13206390552E+02 -0.18756947879E+02 -0.33569861121E+02  0.40659161585E+02  0.00000000000E+00 0. -1.
         11    1    3    3    0    0 -0.41008408362E+01 -0.31611881130E+01  0.70835896206E+01  0.87742377460E+01  0.51100000000E-03 0. -1.
        -11    1    3    3    0    0  0.45296827521E+01 -0.35767385315E+00  0.10663184819E+02  0.11590921756E+02  0.51100000000E-03 0.  1.
        -12    1    3    3    0    0  0.12777548636E+02  0.22275809845E+02  0.15823086682E+02  0.30163678912E+02  0.00000000000E+00 0.  1.
</event>
<event>
 7    1  0.2661323E-011  0.5052886E+02  0.7816164E-02  0.1300439E+00
        -11   -1    0    0    0    0  0.00000000000E+00  0.00000000000E+00  0.45593999997E+02  0.45594000000E+02  0.51100000000E-03 0. -1.
         11   -1    0    0    0    0 -0.00000000000E+00 -0.00000000000E+00 -0.45593999997E+02  0.45594000000E+02  0.51100000000E-03 0.  1.
    9900012    2    1    2    0    0  0.58658241763E+01  0.39050284345E+02 -0.96867548897E+01  0.50528858088E+02  0.29999994645E+02 0.  0.
         12    1    1    2    0    0 -0.58658241763E+01 -0.39050284345E+02  0.96867548897E+01  0.40659141912E+02  0.00000000000E+00 0. -1.
         11    1    3    3    0    0 -0.85970218614E+01  0.43343910582E+01 -0.58345398832E+01  0.11257778939E+02  0.51100000000E-03 0. -1.
        -11    1    3    3    0    0 -0.85884517987E+00  0.85964834847E+01  0.61759494862E+00  0.86613259451E+01  0.51100000000E-03 0.  1.
        -12    1    3    3    0    0  0.15321691218E+02  0.26119409802E+02 -0.44698099550E+01  0.30609753204E+02  0.00000000000E+00 0.  1.
</event>
<event>
 7    1  0.2661323E-011  0.5052886E+02  0.7816164E-02  0.1300439E+00
        -11   -1    0    0    0    0  0.00000000000E+00  0.00000000000E+00  0.45593999997E+02  0.45594000000E+02  0.51100000000E-03 0.  1.
         11   -1    0    0    0    0 -0.00000000000E+00 -0.00000000000E+00 -0.45593999997E+02  0.45594000000E+02  0.51100000000E-03 0. -1.
    9900012    2    1    2    0    0 -0.12760114139E+02  0.36021349926E+02  0.13885508086E+02  0.50528862058E+02  0.30000006711E+02 0.  0.
         12    1    1    2    0    0  0.12760114139E+02 -0.36021349926E+02 -0.13885508086E+02  0.40659137942E+02  0.00000000000E+00 0. -1.
         11    1    3    3    0    0 -0.30054327790E+01  0.60629314840E+01  0.13451723461E+02  0.15057909174E+02  0.51100000000E-03 0. -1.
        -11    1    3    3    0    0 -0.10099618675E+01 -0.20322496988E+01  0.41279984732E+00  0.23066134889E+01  0.51100000000E-03 0.  1.
        -12    1    3    3    0    0 -0.87447194927E+01  0.31990668141E+02  0.20984778193E-01  0.33164339395E+02  0.00000000000E+00 0.  1.
</event>
<event>
 7    1  0.2661323E-011  0.5052887E+02  0.7816164E-02  0.1300439E+00
        -11   -1    0    0    0    0  0.00000000000E+00  0.00000000000E+00  0.45593999997E+02  0.45594000000E+02  0.51100000000E-03 0.  1.
         11   -1    0    0    0    0 -0.00000000000E+00 -0.00000000000E+00 -0.45593999997E+02  0.45594000000E+02  0.51100000000E-03 0. -1.
    9900012    2    1    2    0    0 -0.34108881923E+02 -0.17981355092E+02  0.12900389684E+02  0.50528868050E+02  0.30000024924E+02 0.  0.
         12    1    1    2    0    0  0.34108881923E+02  0.17981355092E+02 -0.12900389684E+02  0.40659131950E+02  0.00000000000E+00 0. -1.
         11    1    3    3    0    0 -0.12136629808E+02  0.29895927845E+01  0.12355190547E+01  0.12560332627E+02  0.51100000000E-03 0.  1.
        -11    1    3    3    0    0 -0.25398780398E+02 -0.19539614744E+02  0.86685054662E+01  0.33196951326E+02  0.51100000000E-03 0. -1.
         12    1    3    3    0    0  0.34265282827E+01 -0.14313331321E+01  0.29963651629E+01  0.47715840972E+01  0.00000000000E+00 0. -1.
</event>
<event>
 7    1  0.2661323E-011  0.5052886E+02  0.7816164E-02  0.1300439E+00
        -11   -1    0    0    0    0  0.00000000000E+00  0.00000000000E+00  0.45593999997E+02  0.45594000000E+02  0.51100000000E-03 0.  1.
         11   -1    0    0    0    0 -0.00000000000E+00 -0.00000000000E+00 -0.45593999997E+02  0.45594000000E+02  0.51100000000E-03 0. -1.
    9900012    2    1    2    0    0  0.10775846705E+02  0.30194921355E+02  0.25006269999E+02  0.50528859735E+02  0.29999999650E+02 0.  0.
         12    1    1    2    0    0 -0.10775846705E+02 -0.30194921355E+02 -0.25006269999E+02  0.40659140265E+02  0.00000000000E+00 0. -1.
         11    1    3    3    0    0  0.24259313031E+01  0.16714535556E+01 -0.35092811274E+01  0.45819159713E+01  0.51100000000E-03 0. -1.
        -11    1    3    3    0    0 -0.21963187824E+01  0.77466943185E+01 -0.12477373800E+01  0.81481248081E+01  0.51100000000E-03 0.  1.
         12    1    3    3    0    0  0.10546234184E+02  0.20776773481E+02  0.29763288506E+02  0.37798818956E+02  0.00000000000E+00 0. -1.
</event>
<event>
 7    1  0.2661323E-011  0.5052886E+02  0.7816164E-02  0.1300439E+00
        -11   -1    0    0    0    0  0.00000000000E+00  0.00000000000E+00  0.45593999997E+02  0.45594000000E+02  0.51100000000E-03 0. -1.
         11   -1    0    0    0    0 -0.00000000000E+00 -0.00000000000E+00 -0.45593999997E+02  0.45594000000E+02  0.51100000000E-03 0.  1.
    9900012    2    1    2    0    0 -0.20135903649E+02 -0.32822467758E+02 -0.13053607504E+02  0.50528859892E+02  0.30000000127E+02 0.  0.
         12    1    1    2    0    0  0.20135903649E+02  0.32822467758E+02  0.13053607504E+02  0.40659140108E+02  0.00000000000E+00 0. -1.
         11    1    3    3    0    0 -0.11256511567E+02 -0.25558417813E+02 -0.12650240024E+02  0.30658935837E+02  0.51100000000E-03 0. -1.
        -11    1    3    3    0    0 -0.65570840171E+01 -0.18492611778E+01 -0.78371753882E+01  0.10384432389E+02  0.51100000000E-03 0.  1.
         12    1    3    3    0    0 -0.23223080650E+01 -0.54147887666E+01  0.74338079074E+01  0.94854916657E+01  0.00000000000E+00 0. -1.
</event>
<event>
 7    1  0.2661323E-011  0.5052886E+02  0.7816164E-02  0.1300439E+00
        -11   -1    0    0    0    0  0.00000000000E+00  0.00000000000E+00  0.45593999997E+02  0.45594000000E+02  0.51100000000E-03 0.  1.
         11   -1    0    0    0    0 -0.00000000000E+00 -0.00000000000E+00 -0.45593999997E+02  0.45594000000E+02  0.51100000000E-03 0. -1.
    9900012    2    1    2    0    0 -0.21259298565E+02 -0.12866112817E+01  0.34634557575E+02  0.50528859300E+02  0.29999998329E+02 0.  0.
         12    1    1    2    0    0  0.21259298565E+02  0.12866112817E+01 -0.34634557575E+02  0.40659140700E+02  0.00000000000E+00 0. -1.
         11    1    3    3    0    0  0.12876000493E+01  0.84299510420E+00 -0.12950792026E+01  0.20114136906E+01  0.51100000000E-03 0. -1.
        -11    1    3    3    0    0 -0.10247135085E+01  0.83367075078E+01  0.12227640428E+02  0.14834618989E+02  0.51100000000E-03 0.  1.
        -12    1    3    3    0    0 -0.21522185106E+02 -0.10466313894E+02  0.23701996349E+02  0.33682826621E+02  0.00000000000E+00 0.  1.
</event>
<event>
 7    1  0.2661323E-011  0.5052886E+02  0.7816164E-02  0.1300439E+00
        -11   -1    0    0    0    0  0.00000000000E+00  0.00000000000E+00  0.45593999997E+02  0.45594000000E+02  0.51100000000E-03 0. -1.
         11   -1    0    0    0    0 -0.00000000000E+00 -0.00000000000E+00 -0.45593999997E+02  0.45594000000E+02  0.51100000000E-03 0.  1.
    9900012    2    1    2    0    0  0.15250839869E+02  0.37462585111E+02 -0.41391292679E+01  0.50528858458E+02  0.29999995768E+02 0.  0.
         12    1    1    2    0    0 -0.15250839869E+02 -0.37462585111E+02  0.41391292679E+01  0.40659141542E+02  0.00000000000E+00 0. -1.
         11    1    3    3    0    0  0.13172060317E+02  0.17477890016E+02  0.27529726398E+01  0.22058074962E+02  0.51100000000E-03 0. -1.
        -11    1    3    3    0    0  0.89391080907E+01  0.16641039720E+02 -0.11590442532E+01  0.18925518230E+02  0.51100000000E-03 0.  1.
        -12    1    3    3    0    0 -0.68603285391E+01  0.33436553750E+01 -0.57330576546E+01  0.95452652662E+01  0.00000000000E+00 0.  1.
</event>
<event>
 7    1  0.2661323E-011  0.5052886E+02  0.7816164E-02  0.1300439E+00
        -11   -1    0    0    0    0  0.00000000000E+00  0.00000000000E+00  0.45593999997E+02  0.45594000000E+02  0.51100000000E-03 0.  1.
         11   -1    0    0    0    0 -0.00000000000E+00 -0.00000000000E+00 -0.45593999997E+02  0.45594000000E+02  0.51100000000E-03 0. -1.
    9900012    2    1    2    0    0 -0.17548872830E+01 -0.39593819365E+02  0.90782826129E+01  0.50528863555E+02  0.30000011261E+02 0.  0.
         12    1    1    2    0    0  0.17548872830E+01  0.39593819365E+02 -0.90782826129E+01  0.40659136445E+02  0.00000000000E+00 0. -1.
         11    1    3    3    0    0  0.54601662503E+01 -0.49345424881E+01 -0.26651861553E+00  0.73643843926E+01  0.51100000000E-03 0. -1.
        -11    1    3    3    0    0 -0.14960449439E+01 -0.30485014078E+02  0.15088316857E+02  0.34047489476E+02  0.51100000000E-03 0.  1.
         12    1    3    3    0    0 -0.57190085895E+01 -0.41742627986E+01 -0.57435156282E+01  0.91169896858E+01  0.00000000000E+00 0. -1.
</event>
<event>
 7    1  0.2661323E-011  0.5052885E+02  0.7816164E-02  0.1300439E+00
        -11   -1    0    0    0    0  0.00000000000E+00  0.00000000000E+00  0.45593999997E+02  0.45594000000E+02  0.51100000000E-03 0. -1.
         11   -1    0    0    0    0 -0.00000000000E+00 -0.00000000000E+00 -0.45593999997E+02  0.45594000000E+02  0.51100000000E-03 0.  1.
    9900012    2    1    2    0    0  0.18625749544E+02  0.10230790894E+02 -0.34663791879E+02  0.50528854709E+02  0.29999984372E+02 0.  0.
         12    1    1    2    0    0 -0.18625749544E+02 -0.10230790894E+02  0.34663791879E+02  0.40659145291E+02  0.00000000000E+00 0. -1.
         11    1    3    3    0    0  0.81040794025E+01  0.15069392898E+00 -0.96571911576E+01  0.12607940075E+02  0.51100000000E-03 0. -1.
        -11    1    3    3    0    0  0.15151011054E+02  0.10122693071E+02 -0.27246527243E+02  0.32777969706E+02  0.51100000000E-03 0.  1.
         12    1    3    3    0    0 -0.46293409122E+01 -0.42596105814E-01  0.22399265216E+01  0.51429449279E+01  0.00000000000E+00 0. -1.
</event>
<event>
 7    1  0.2661323E-011  0.5052889E+02  0.7816164E-02  0.1300439E+00
        -11   -1    0    0    0    0  0.00000000000E+00  0.00000000000E+00  0.45593999997E+02  0.45594000000E+02  0.51100000000E-03 0.  1.
         11   -1    0    0    0    0 -0.00000000000E+00 -0.00000000000E+00 -0.45593999997E+02  0.45594000000E+02  0.51100000000E-03 0. -1.
    9900012    2    1    2    0    0  0.24588728840E+02  0.64328197234E+00  0.32375053638E+02  0.50528886683E+02  0.30000081562E+02 0.  0.
         12    1    1    2    0    0 -0.24588728840E+02 -0.64328197234E+00 -0.32375053638E+02  0.40659113317E+02  0.00000000000E+00 0. -1.
         11    1    3    3    0    0  0.21087198176E+01 -0.82376435687E+00  0.13576969794E+02  0.13764425016E+02  0.51100000000E-03 0. -1.
        -11    1    3    3    0    0  0.36627312815E+01 -0.65230802233E+01  0.13833666396E+02  0.15726935565E+02  0.51100000000E-03 0.  1.
         12    1    3    3    0    0  0.18817277740E+02  0.79901265525E+01  0.49644174476E+01  0.21037526102E+02  0.00000000000E+00 0. -1.
</event>
<event>
 7    1  0.2661323E-011  0.5052884E+02  0.7816164E-02  0.1300439E+00
        -11   -1    0    0    0    0  0.00000000000E+00  0.00000000000E+00  0.45593999997E+02  0.45594000000E+02  0.51100000000E-03 0.  1.
         11   -1    0    0    0    0 -0.00000000000E+00 -0.00000000000E+00 -0.45593999997E+02  0.45594000000E+02  0.51100000000E-03 0. -1.
    9900012    2    1    2    0    0 -0.35904396307E+02 -0.98566612883E+00  0.19054395162E+02  0.50528841292E+02  0.29999943591E+02 0.  0.
         12    1    1    2    0    0  0.35904396307E+02  0.98566612883E+00 -0.19054395162E+02  0.40659158708E+02  0.00000000000E+00 0. -1.
         11    1    3    3    0    0 -0.98024375143E+00 -0.34626398008E+01  0.97892635716E+01  0.10429785891E+02  0.51100000000E-03 0. -1.
        -11    1    3    3    0    0 -0.72396513873E+00  0.16521318014E+01  0.53736354839E+01  0.56682998849E+01  0.51100000000E-03 0.  1.
        -12    1    3    3    0    0 -0.34200187417E+02  0.82484187059E+00  0.38914961063E+01  0.34430755516E+02  0.00000000000E+00 0.  1.
</event>
<event>
 7    1  0.2661323E-011  0.5052885E+02  0.7816164E-02  0.1300439E+00
        -11   -1    0    0    0    0  0.00000000000E+00  0.00000000000E+00  0.45593999997E+02  0.45594000000E+02  0.51100000000E-03 0.  1.
         11   -1    0    0    0    0 -0.00000000000E+00 -0.00000000000E+00 -0.45593999997E+02  0.45594000000E+02  0.51100000000E-03 0. -1.
    9900012    2    1    2    0    0 -0.22606857971E+02 -0.32043202403E+02  0.10739165845E+02  0.50528849362E+02  0.29999968120E+02 0.  0.
         12    1    1    2    0    0  0.22606857971E+02  0.32043202403E+02 -0.10739165845E+02  0.40659150638E+02  0.00000000000E+00 0. -1.
         11    1    3    3    0    0 -0.76433192383E+01 -0.40900486433E+01  0.65948645210E+01  0.10892247940E+02  0.51100000000E-03 0. -1.
        -11    1    3    3    0    0 -0.62980613536E+01 -0.17906620987E+02  0.13594319460E+02  0.23347765928E+02  0.51100000000E-03 0.  1.
         12    1    3    3    0    0 -0.86654773788E+01 -0.10046532773E+02 -0.94500181362E+01  0.16288835494E+02  0.00000000000E+00 0. -1.
</event>
<event>
 7    1  0.2661323E-011  0.5052886E+02  0.7816164E-02  0.1300439E+00
        -11   -1    0    0    0    0  0.00000000000E+00  0.00000000000E+00  0.45593999997E+02  0.45594000000E+02  0.51100000000E-03 0. -1.
         11   -1    0    0    0    0 -0.00000000000E+00 -0.00000000000E+00 -0.45593999997E+02  0.45594000000E+02  0.51100000000E-03 0.  1.
    9900012    2    1    2    0    0  0.23438605813E+01  0.28908371875E+02 -0.28495233137E+02  0.50528856399E+02  0.29999989509E+02 0.  0.
         12    1    1    2    0    0 -0.23438605813E+01 -0.28908371875E+02  0.28495233137E+02  0.40659143601E+02  0.00000000000E+00 0. -1.
         11    1    3    3    0    0  0.12537469520E+01 -0.28879337911E+01  0.18784484045E+01  0.36661439785E+01  0.51100000000E-03 0. -1.
        -11    1    3    3    0    0  0.57453328437E+01  0.33647894180E+01 -0.78480877821E+01  0.10291896784E+02  0.51100000000E-03 0.  1.
        -12    1    3    3    0    0 -0.46552192144E+01  0.28431516248E+02 -0.22525593759E+02  0.36570815636E+02  0.00000000000E+00 0.  1.
</event>
<event>
 7    1  0.2661323E-011  0.5052886E+02  0.7816164E-02  0.1300439E+00
        -11   -1    0    0    0    0  0.00000000000E+00  0.00000000000E+00  0.45593999997E+02  0.45594000000E+02  0.51100000000E-03 0. -1.
         11   -1    0    0    0    0 -0.00000000000E+00 -0.00000000000E+00 -0.45593999997E+02  0.45594000000E+02  0.51100000000E-03 0.  1.
    9900012    2    1    2    0    0 -0.13747660345E+02 -0.38263803339E+02 -0.22084176652E+00  0.50528861027E+02  0.30000003578E+02 0.  0.
         12    1    1    2    0    0  0.13747660345E+02  0.38263803339E+02  0.22084176652E+00  0.40659138973E+02  0.00000000000E+00 0. -1.
         11    1    3    3    0    0 -0.21318081355E+01 -0.15301580496E+02  0.31896428008E+01  0.15775195499E+02  0.51100000000E-03 0. -1.
        -11    1    3    3    0    0 -0.88776091379E+01 -0.15138533355E+02  0.90827851817E+01  0.19760671119E+02  0.51100000000E-03 0.  1.
         12    1    3    3    0    0 -0.27382430717E+01 -0.78236894885E+01 -0.12493269749E+02  0.14992994409E+02  0.00000000000E+00 0. -1.
</event>
<event>
 7    1  0.2661323E-011  0.5052886E+02  0.7816164E-02  0.1300439E+00
        -11   -1    0    0    0    0  0.00000000000E+00  0.00000000000E+00  0.45593999997E+02  0.45594000000E+02  0.51100000000E-03 0. -1.
         11   -1    0    0    0    0 -0.00000000000E+00 -0.00000000000E+00 -0.45593999997E+02  0.45594000000E+02  0.51100000000E-03 0.  1.
    9900012    2    1    2    0    0  0.37039448162E+02  0.10968298138E+02  0.12686258297E+02  0.50528862850E+02  0.30000009119E+02 0.  0.
         12    1    1    2    0    0 -0.37039448162E+02 -0.10968298138E+02 -0.12686258297E+02  0.40659137150E+02  0.00000000000E+00 0. -1.
         11    1    3    3    0    0  0.72142842409E+01  0.12350395783E+02  0.85559602922E+01  0.16666812230E+02  0.51100000000E-03 0. -1.
        -11    1    3    3    0    0  0.73749751978E+01  0.56230934036E+01 -0.21502409257E+01  0.95201352350E+01  0.51100000000E-03 0.  1.
        -12    1    3    3    0    0  0.22450188724E+02 -0.70051910494E+01  0.62805389308E+01  0.24341915385E+02  0.00000000000E+00 0.  1.
</event>
<event>
 7    1  0.2661323E-011  0.5052886E+02  0.7816164E-02  0.1300439E+00
        -11   -1    0    0    0    0  0.00000000000E+00  0.00000000000E+00  0.45593999997E+02  0.45594000000E+02  0.51100000000E-03 0. -1.
         11   -1    0    0    0    0 -0.00000000000E+00 -0.00000000000E+00 -0.45593999997E+02  0.45594000000E+02  0.51100000000E-03 0.  1.
    9900012    2    1    2    0    0 -0.15930185169E+02  0.72992303003E+01 -0.36689450077E+02  0.50528864379E+02  0.30000013766E+02 0.  0.
         12    1    1    2    0    0  0.15930185169E+02 -0.72992303003E+01  0.36689450077E+02  0.40659135621E+02  0.00000000000E+00 0. -1.
         11    1    3    3    0    0 -0.57408249264E+01 -0.11797449889E+01 -0.73306890874E+00  0.59064591221E+01  0.51100000000E-03 0. -1.
        -11    1    3    3    0    0 -0.44347689135E+01  0.77782368969E+01 -0.79784000011E+00  0.89891430886E+01  0.51100000000E-03 0.  1.
        -12    1    3    3    0    0 -0.57545913295E+01  0.70073839229E+00 -0.35158541168E+02  0.35633262168E+02  0.00000000000E+00 0.  1.
</event>
<event>
 7    1  0.2661323E-011  0.5052884E+02  0.7816164E-02  0.1300439E+00
        -11   -1    0    0    0    0  0.00000000000E+00  0.00000000000E+00  0.45593999997E+02  0.45594000000E+02  0.51100000000E-03 0.  1.
         11   -1    0    0    0    0 -0.00000000000E+00 -0.00000000000E+00 -0.45593999997E+02  0.45594000000E+02  0.51100000000E-03 0. -1.
    9900012    2    1    2    0    0  0.30669551788E+02 -0.15075854768E+02  0.22028720813E+02  0.50528839353E+02  0.29999937696E+02 0.  0.
         12    1    1    2    0    0 -0.30669551788E+02  0.15075854768E+02 -0.22028720813E+02  0.40659160647E+02  0.00000000000E+00 0. -1.
         11    1    3    3    0    0  0.67600780354E+01 -0.47713377398E+01 -0.34908332456E+01  0.89805476382E+01  0.51100000000E-03 0. -1.
        -11    1    3    3    0    0  0.48833365063E+01 -0.99523320225E+01  0.19505777062E+01  0.11256137960E+02  0.51100000000E-03 0.  1.
        -12    1    3    3    0    0  0.19026137247E+02 -0.35218500599E+00  0.23568976352E+02  0.30292153755E+02  0.00000000000E+00 0.  1.
</event>
<event>
 7    1  0.2661323E-011  0.5052886E+02  0.7816164E-02  0.1300439E+00
        -11   -1    0    0    0    0  0.00000000000E+00  0.00000000000E+00  0.45593999997E+02  0.45594000000E+02  0.51100000000E-03 0.  1.
         11   -1    0    0    0    0 -0.00000000000E+00 -0.00000000000E+00 -0.45593999997E+02  0.45594000000E+02  0.51100000000E-03 0. -1.
    9900012    2    1    2    0    0  0.18055939234E+02  0.69180946656E+01  0.35767143625E+02  0.50528861562E+02  0.30000005205E+02 0.  0.
         12    1    1    2    0    0 -0.18055939234E+02 -0.69180946656E+01 -0.35767143625E+02  0.40659138438E+02  0.00000000000E+00 0. -1.
         11    1    3    3    0    0 -0.26535464501E+01 -0.33934814433E+01  0.16800752331E+02  0.17344229710E+02  0.51100000000E-03 0. -1.
        -11    1    3    3    0    0  0.60624979675E+01 -0.98892696470E+00  0.11880239982E+02  0.13374302242E+02  0.51100000000E-03 0.  1.
        -12    1    3    3    0    0  0.14646987717E+02  0.11300503074E+02  0.70861513110E+01  0.19810329611E+02  0.00000000000E+00 0.  1.
</event>
<event>
 7    1  0.2661323E-011  0.5052886E+02  0.7816164E-02  0.1300439E+00
        -11   -1    0    0    0    0  0.00000000000E+00  0.00000000000E+00  0.45593999997E+02  0.45594000000E+02  0.51100000000E-03 0. -1.
         11   -1    0    0    0    0 -0.00000000000E+00 -0.00000000000E+00 -0.45593999997E+02  0.45594000000E+02  0.51100000000E-03 0.  1.
    9900012    2    1    2    0    0 -0.38666032108E+02  0.71297710159E+00 -0.12553699382E+02  0.50528859042E+02  0.29999997543E+02 0.  0.
         12    1    1    2    0    0  0.38666032108E+02 -0.71297710159E+00  0.12553699382E+02  0.40659140958E+02  0.00000000000E+00 0. -1.
         11    1    3    3    0    0 -0.19842602845E+01 -0.52014461557E+01 -0.36061335622E+01  0.66329880535E+01  0.51100000000E-03 0. -1.
        -11    1    3    3    0    0  0.46914198281E+00  0.37861738196E+01 -0.52654463852E+01  0.65023174553E+01  0.51100000000E-03 0.  1.
         12    1    3    3    0    0 -0.37150913806E+02  0.21282494377E+01 -0.36821194350E+01  0.37393553533E+02  0.00000000000E+00 0. -1.
</event>
<event>
 7    1  0.2661323E-011  0.5052872E+02  0.7816164E-02  0.1300439E+00
        -11   -1    0    0    0    0  0.00000000000E+00  0.00000000000E+00  0.45593999997E+02  0.45594000000E+02  0.51100000000E-03 0. -1.
         11   -1    0    0    0    0 -0.00000000000E+00 -0.00000000000E+00 -0.45593999997E+02  0.45594000000E+02  0.51100000000E-03 0.  1.
    9900012    2    1    2    0    0 -0.18260936801E+02 -0.72423126657E+01 -0.35598650422E+02  0.50528722861E+02  0.29999583606E+02 0.  0.
         12    1    1    2    0    0  0.18260936801E+02  0.72423126657E+01  0.35598650422E+02  0.40659277139E+02  0.00000000000E+00 0. -1.
         11    1    3    3    0    0  0.21316740519E+01 -0.21539907425E+01 -0.13930669264E+02  0.14256481220E+02  0.51100000000E-03 0. -1.
        -11    1    3    3    0    0 -0.86452771044E+01 -0.61876213921E+00 -0.22055441987E+02  0.23697388133E+02  0.51100000000E-03 0.  1.
         12    1    3    3    0    0 -0.11747333749E+02 -0.44695597840E+01  0.38746082932E+00  0.12574853509E+02  0.00000000000E+00 0. -1.
</event>
<event>
 7    1  0.2661323E-011  0.5052886E+02  0.7816164E-02  0.1300439E+00
        -11   -1    0    0    0    0  0.00000000000E+00  0.00000000000E+00  0.45593999997E+02  0.45594000000E+02  0.51100000000E-03 0.  1.
         11   -1    0    0    0    0 -0.00000000000E+00 -0.00000000000E+00 -0.45593999997E+02  0.45594000000E+02  0.51100000000E-03 0. -1.
    9900012    2    1    2    0    0 -0.30029793182E+02 -0.25272266327E+02  0.10615553987E+02  0.50528856990E+02  0.29999991306E+02 0.  0.
         12    1    1    2    0    0  0.30029793182E+02  0.25272266327E+02 -0.10615553987E+02  0.40659143010E+02  0.00000000000E+00 0. -1.
         11    1    3    3    0    0 -0.25348592352E+01  0.12990455970E+01 -0.23342843188E+01  0.36826504515E+01  0.51100000000E-03 0. -1.
        -11    1    3    3    0    0 -0.23883043364E+02 -0.86302061610E+01  0.18942973981E+01  0.25465046271E+02  0.51100000000E-03 0.  1.
         12    1    3    3    0    0 -0.36118905827E+01 -0.17941105763E+02  0.11055540908E+02  0.21381160267E+02  0.00000000000E+00 0. -1.
</event>
<event>
 7    1  0.2661323E-011  0.5052883E+02  0.7816164E-02  0.1300439E+00
        -11   -1    0    0    0    0  0.00000000000E+00  0.00000000000E+00  0.45593999997E+02  0.45594000000E+02  0.51100000000E-03 0. -1.
         11   -1    0    0    0    0 -0.00000000000E+00 -0.00000000000E+00 -0.45593999997E+02  0.45594000000E+02  0.51100000000E-03 0.  1.
    9900012    2    1    2    0    0  0.21494494140E+02 -0.13231346361E+02 -0.31876108479E+02  0.50528830104E+02  0.29999909583E+02 0.  0.
         12    1    1    2    0    0 -0.21494494140E+02  0.13231346361E+02  0.31876108479E+02  0.40659169896E+02  0.00000000000E+00 0. -1.
         11    1    3    3    0    0  0.13854791880E+02 -0.86572984291E+01 -0.57175960785E+01  0.17308812187E+02  0.51100000000E-03 0. -1.
        -11    1    3    3    0    0  0.73169220364E+01 -0.90584506702E+01 -0.70998178605E+01  0.13638192349E+02  0.51100000000E-03 0.  1.
        -12    1    3    3    0    0  0.32278022318E+00  0.44844027378E+01 -0.19058694540E+02  0.19581825568E+02  0.00000000000E+00 0.  1.
</event>
<event>
 7    1  0.2661323E-011  0.5052889E+02  0.7816164E-02  0.1300439E+00
        -11   -1    0    0    0    0  0.00000000000E+00  0.00000000000E+00  0.45593999997E+02  0.45594000000E+02  0.51100000000E-03 0.  1.
         11   -1    0    0    0    0 -0.00000000000E+00 -0.00000000000E+00 -0.45593999997E+02  0.45594000000E+02  0.51100000000E-03 0. -1.
    9900012    2    1    2    0    0  0.20153817734E+01 -0.29513874035E+02 -0.27893232423E+02  0.50528893526E+02  0.30000102362E+02 0.  0.
         12    1    1    2    0    0 -0.20153817734E+01  0.29513874035E+02  0.27893232423E+02  0.40659106474E+02  0.00000000000E+00 0. -1.
         11    1    3    3    0    0  0.59602083446E+01 -0.14327749294E+02 -0.28946573000E+01  0.15785674660E+02  0.51100000000E-03 0. -1.
        -11    1    3    3    0    0  0.27754506011E+01 -0.15043001407E+02 -0.23192766927E+02  0.27783078580E+02  0.51100000000E-03 0.  1.
         12    1    3    3    0    0 -0.67202771722E+01 -0.14312333393E+00 -0.18058081953E+01  0.69601402858E+01  0.00000000000E+00 0. -1.
</event>
<event>
 7    1  0.2661323E-011  0.5052887E+02  0.7816164E-02  0.1300439E+00
        -11   -1    0    0    0    0  0.00000000000E+00  0.00000000000E+00  0.45593999997E+02  0.45594000000E+02  0.51100000000E-03 0.  1.
         11   -1    0    0    0    0 -0.00000000000E+00 -0.00000000000E+00 -0.45593999997E+02  0.45594000000E+02  0.51100000000E-03 0. -1.
    9900012    2    1    2    0    0 -0.38417837021E+02 -0.31660592134E+01  0.12931012381E+02  0.50528865559E+02  0.30000017354E+02 0.  0.
         12    1    1    2    0    0  0.38417837021E+02  0.31660592134E+01 -0.12931012381E+02  0.40659134441E+02  0.00000000000E+00 0. -1.
         11    1    3    3    0    0 -0.13797995363E+02  0.25994892575E+01  0.10660591855E+01  0.14081139971E+02  0.51100000000E-03 0. -1.
        -11    1    3    3    0    0 -0.27855486843E+02 -0.73628696255E-02  0.97427715235E+01  0.29510164328E+02  0.51100000000E-03 0.  1.
        -12    1    3    3    0    0  0.32356451855E+01 -0.57581856013E+01  0.21221816716E+01  0.69375612597E+01  0.00000000000E+00 0.  1.
</event>
<event>
 7    1  0.2661323E-011  0.5052886E+02  0.7816164E-02  0.1300439E+00
        -11   -1    0    0    0    0  0.00000000000E+00  0.00000000000E+00  0.45593999997E+02  0.45594000000E+02  0.51100000000E-03 0.  1.
         11   -1    0    0    0    0 -0.00000000000E+00 -0.00000000000E+00 -0.45593999997E+02  0.45594000000E+02  0.51100000000E-03 0. -1.
    9900012    2    1    2    0    0  0.16914496583E+02 -0.21077554794E+02  0.30377659624E+02  0.50528859392E+02  0.29999998608E+02 0.  0.
         12    1    1    2    0    0 -0.16914496583E+02  0.21077554794E+02 -0.30377659624E+02  0.40659140608E+02  0.00000000000E+00 0. -1.
         11    1    3    3    0    0  0.59717764171E+01 -0.25660684435E+01  0.23762237873E+01  0.69204956890E+01  0.51100000000E-03 0. -1.
        -11    1    3    3    0    0  0.35957012143E+01 -0.15429693537E+02  0.14753999328E+01  0.15911672291E+02  0.51100000000E-03 0.  1.
        -12    1    3    3    0    0  0.73470189515E+01 -0.30817928136E+01  0.26526035904E+02  0.27696691412E+02  0.00000000000E+00 0.  1.
</event>
<event>
 7    1  0.2661323E-011  0.5052886E+02  0.7816164E-02  0.1300439E+00
        -11   -1    0    0    0    0  0.00000000000E+00  0.00000000000E+00  0.45593999997E+02  0.45594000000E+02  0.51100000000E-03 0. -1.
         11   -1    0    0    0    0 -0.00000000000E+00 -0.00000000000E+00 -0.45593999997E+02  0.45594000000E+02  0.51100000000E-03 0.  1.
    9900012    2    1    2    0    0 -0.30762598906E+02  0.25307313382E+01 -0.26465514160E+02  0.50528861638E+02  0.30000005435E+02 0.  0.
         12    1    1    2    0    0  0.30762598906E+02 -0.25307313382E+01  0.26465514160E+02  0.40659138362E+02  0.00000000000E+00 0. -1.
         11    1    3    3    0    0 -0.37137490684E+00  0.47157963416E+00 -0.50454308132E+01  0.50810116143E+01  0.51100000000E-03 0. -1.
        -11    1    3    3    0    0 -0.49219409580E+01 -0.89682563030E+01  0.25429386387E+00  0.10233268761E+02  0.51100000000E-03 0.  1.
        -12    1    3    3    0    0 -0.25469283041E+02  0.11027408007E+02 -0.21674377211E+02  0.35214581262E+02  0.00000000000E+00 0.  1.
</event>
<event>
 7    1  0.2661323E-011  0.5052888E+02  0.7816164E-02  0.1300439E+00
        -11   -1    0    0    0    0  0.00000000000E+00  0.00000000000E+00  0.45593999997E+02  0.45594000000E+02  0.51100000000E-03 0.  1.
         11   -1    0    0    0    0 -0.00000000000E+00 -0.00000000000E+00 -0.45593999997E+02  0.45594000000E+02  0.51100000000E-03 0. -1.
    9900012    2    1    2    0    0 -0.37262546789E+02  0.14331393480E+02  0.76991906990E+01  0.50528883313E+02  0.30000071320E+02 0.  0.
         12    1    1    2    0    0  0.37262546789E+02 -0.14331393480E+02 -0.76991906990E+01  0.40659116687E+02  0.00000000000E+00 0. -1.
         11    1    3    3    0    0 -0.11395612970E+02  0.67205582480E+01 -0.25440384322E+01  0.13472120469E+02  0.51100000000E-03 0. -1.
        -11    1    3    3    0    0 -0.23259355987E+02  0.12033603315E+02  0.14895951184E+02  0.30127970586E+02  0.51100000000E-03 0.  1.
        -12    1    3    3    0    0 -0.26075778321E+01 -0.44227680823E+01 -0.46527220531E+01  0.69287922587E+01  0.00000000000E+00 0.  1.
</event>
<event>
 7    1  0.2661323E-011  0.5052874E+02  0.7816164E-02  0.1300439E+00
        -11   -1    0    0    0    0  0.00000000000E+00  0.00000000000E+00  0.45593999997E+02  0.45594000000E+02  0.51100000000E-03 0.  1.
         11   -1    0    0    0    0 -0.00000000000E+00 -0.00000000000E+00 -0.45593999997E+02  0.45594000000E+02  0.51100000000E-03 0. -1.
    9900012    2    1    2    0    0  0.38358992547E+02 -0.11817560198E+02  0.64890813637E+01  0.50528742564E+02  0.29999643496E+02 0.  0.
         12    1    1    2    0    0 -0.38358992547E+02  0.11817560198E+02 -0.64890813637E+01  0.40659257436E+02  0.00000000000E+00 0. -1.
         11    1    3    3    0    0 -0.22513434783E+01 -0.71373866306E+01 -0.25924066296E+01  0.79203161405E+01  0.51100000000E-03 0. -1.
        -11    1    3    3    0    0  0.23186700379E+02 -0.28784563123E+01  0.11862408848E+01  0.23394780462E+02  0.51100000000E-03 0.  1.
        -12    1    3    3    0    0  0.17423635647E+02 -0.18017172556E+01  0.78952471084E+01  0.19213645961E+02  0.00000000000E+00 0.  1.
</event>
<event>
 7    1  0.2661323E-011  0.5052886E+02  0.7816164E-02  0.1300439E+00
        -11   -1    0    0    0    0  0.00000000000E+00  0.00000000000E+00  0.45593999997E+02  0.45594000000E+02  0.51100000000E-03 0.  1.
         11   -1    0    0    0    0 -0.00000000000E+00 -0.00000000000E+00 -0.45593999997E+02  0.45594000000E+02  0.51100000000E-03 0. -1.
    9900012    2    1    2    0    0  0.19655008775E+02  0.19174407592E+02  0.29986468474E+02  0.50528861200E+02  0.30000004102E+02 0.  0.
         12    1    1    2    0    0 -0.19655008775E+02 -0.19174407592E+02 -0.29986468474E+02  0.40659138800E+02  0.00000000000E+00 0. -1.
         11    1    3    3    0    0 -0.24208284853E+01 -0.21912148737E+01 -0.17188855329E+01  0.36900407741E+01  0.51100000000E-03 0. -1.
        -11    1    3    3    0    0  0.15246617157E+02  0.46957029531E+01  0.10917304475E+02  0.19331231161E+02  0.51100000000E-03 0.  1.
        -12    1    3    3    0    0  0.68292201036E+01  0.16669919513E+02  0.20788049532E+02  0.27507589264E+02  0.00000000000E+00 0.  1.
</event>
<event>
 7    1  0.2661323E-011  0.5052886E+02  0.7816164E-02  0.1300439E+00
        -11   -1    0    0    0    0  0.00000000000E+00  0.00000000000E+00  0.45593999997E+02  0.45594000000E+02  0.51100000000E-03 0.  1.
         11   -1    0    0    0    0 -0.00000000000E+00 -0.00000000000E+00 -0.45593999997E+02  0.45594000000E+02  0.51100000000E-03 0. -1.
    9900012    2    1    2    0    0 -0.36779095209E+02  0.17133825300E+02  0.26260239063E+01  0.50528858158E+02  0.29999994857E+02 0.  0.
         12    1    1    2    0    0  0.36779095209E+02 -0.17133825300E+02 -0.26260239063E+01  0.40659141842E+02  0.00000000000E+00 0. -1.
         11    1    3    3    0    0 -0.20849383860E+02  0.24351704972E+01 -0.17113030314E+01  0.21060755471E+02  0.51100000000E-03 0. -1.
        -11    1    3    3    0    0 -0.10278162490E+02 -0.98536427032E+00 -0.36901535064E+01  0.10964889423E+02  0.51100000000E-03 0.  1.
        -12    1    3    3    0    0 -0.56515488595E+01  0.15684019073E+02  0.80274804441E+01  0.18503213264E+02  0.00000000000E+00 0.  1.
</event>
<event>
 7    1  0.2661323E-011  0.5052886E+02  0.7816164E-02  0.1300439E+00
        -11   -1    0    0    0    0  0.00000000000E+00  0.00000000000E+00  0.45593999997E+02  0.45594000000E+02  0.51100000000E-03 0. -1.
         11   -1    0    0    0    0 -0.00000000000E+00 -0.00000000000E+00 -0.45593999997E+02  0.45594000000E+02  0.51100000000E-03 0.  1.
    9900012    2    1    2    0    0  0.72272438733E+00 -0.31317286585E+02 -0.25920469999E+02  0.50528861611E+02  0.30000005352E+02 0.  0.
         12    1    1    2    0    0 -0.72272438733E+00  0.31317286585E+02  0.25920469999E+02  0.40659138389E+02  0.00000000000E+00 0. -1.
         11    1    3    3    0    0  0.12055254481E+01 -0.15453623916E+01  0.16081583427E+01  0.25352731694E+01  0.51100000000E-03 0. -1.
        -11    1    3    3    0    0  0.97263034951E+01 -0.23841139103E+02 -0.11792801155E+02  0.28320858969E+02  0.51100000000E-03 0.  1.
         12    1    3    3    0    0 -0.10209104556E+02 -0.59307850898E+01 -0.15735827187E+02  0.19672729472E+02  0.00000000000E+00 0. -1.
</event>
<event>
 7    1  0.2661323E-011  0.5052884E+02  0.7816164E-02  0.1300439E+00
        -11   -1    0    0    0    0  0.00000000000E+00  0.00000000000E+00  0.45593999997E+02  0.45594000000E+02  0.51100000000E-03 0.  1.
         11   -1    0    0    0    0 -0.00000000000E+00 -0.00000000000E+00 -0.45593999997E+02  0.45594000000E+02  0.51100000000E-03 0. -1.
    9900012    2    1    2    0    0 -0.28199038443E+02 -0.25799668809E+02  0.13869337576E+02  0.50528841075E+02  0.29999942930E+02 0.  0.
         12    1    1    2    0    0  0.28199038443E+02  0.25799668809E+02 -0.13869337576E+02  0.40659158925E+02  0.00000000000E+00 0. -1.
         11    1    3    3    0    0 -0.71714945568E+01 -0.18160436399E+02  0.64066280997E+01  0.20549371480E+02  0.51100000000E-03 0. -1.
        -11    1    3    3    0    0 -0.20699404847E+02 -0.77304744254E+01 -0.40976925153E+00  0.22099626852E+02  0.51100000000E-03 0.  1.
         12    1    3    3    0    0 -0.32813903830E+00  0.91242015178E-01  0.78724787275E+01  0.78798427427E+01  0.00000000000E+00 0. -1.
</event>
<event>
 7    1  0.2661323E-011  0.5052885E+02  0.7816164E-02  0.1300439E+00
        -11   -1    0    0    0    0  0.00000000000E+00  0.00000000000E+00  0.45593999997E+02  0.45594000000E+02  0.51100000000E-03 0. -1.
         11   -1    0    0    0    0 -0.00000000000E+00 -0.00000000000E+00 -0.45593999997E+02  0.45594000000E+02  0.51100000000E-03 0.  1.
    9900012    2    1    2    0    0 -0.40452789689E+02 -0.34262098898E+01 -0.22360103278E+01  0.50528845434E+02  0.29999956180E+02 0.  0.
         12    1    1    2    0    0  0.40452789689E+02  0.34262098898E+01  0.22360103278E+01  0.40659154566E+02  0.00000000000E+00 0. -1.
         11    1    3    3    0    0 -0.17844000897E+02  0.38713182098E+01  0.22742360220E+01  0.18400207130E+02  0.51100000000E-03 0. -1.
        -11    1    3    3    0    0 -0.20050530990E+02  0.29052354986E+01  0.94028683352E+00  0.20281723937E+02  0.51100000000E-03 0.  1.
         12    1    3    3    0    0 -0.25582578029E+01 -0.10202763598E+02 -0.54505331833E+01  0.11846914367E+02  0.00000000000E+00 0. -1.
</event>
<event>
 7    1  0.2661323E-011  0.5052886E+02  0.7816164E-02  0.1300439E+00
        -11   -1    0    0    0    0  0.00000000000E+00  0.00000000000E+00  0.45593999997E+02  0.45594000000E+02  0.51100000000E-03 0.  1.
         11   -1    0    0    0    0 -0.00000000000E+00 -0.00000000000E+00 -0.45593999997E+02  0.45594000000E+02  0.51100000000E-03 0. -1.
    9900012    2    1    2    0    0 -0.16901994725E+01  0.22406117624E+02  0.33886203418E+02  0.50528860027E+02  0.30000000540E+02 0.  0.
         12    1    1    2    0    0  0.16901994725E+01 -0.22406117624E+02 -0.33886203418E+02  0.40659139973E+02  0.00000000000E+00 0. -1.
         11    1    3    3    0    0 -0.10042727213E+02  0.16578649227E+02  0.17859435480E+02  0.26356544083E+02  0.51100000000E-03 0. -1.
        -11    1    3    3    0    0  0.51755277469E+01  0.10463218986E+02  0.72214835259E+01  0.13726429383E+02  0.51100000000E-03 0.  1.
        -12    1    3    3    0    0  0.31769999932E+01 -0.46357505901E+01  0.88052844121E+01  0.10445886562E+02  0.00000000000E+00 0.  1.
</event>
<event>
 7    1  0.2661323E-011  0.5052885E+02  0.7816164E-02  0.1300439E+00
        -11   -1    0    0    0    0  0.00000000000E+00  0.00000000000E+00  0.45593999997E+02  0.45594000000E+02  0.51100000000E-03 0.  1.
         11   -1    0    0    0    0 -0.00000000000E+00 -0.00000000000E+00 -0.45593999997E+02  0.45594000000E+02  0.51100000000E-03 0. -1.
    9900012    2    1    2    0    0 -0.11815930573E+02 -0.62701047196E+01  0.38395781977E+02  0.50528849712E+02  0.29999969184E+02 0.  0.
         12    1    1    2    0    0  0.11815930573E+02  0.62701047196E+01 -0.38395781977E+02  0.40659150288E+02  0.00000000000E+00 0. -1.
         11    1    3    3    0    0  0.24982545414E+01  0.25771744328E+01 -0.21117716732E+01  0.41644547868E+01  0.51100000000E-03 0. -1.
        -11    1    3    3    0    0 -0.13594133747E+02 -0.29853580265E+01  0.16238019767E+02  0.21386587412E+02  0.51100000000E-03 0.  1.
        -12    1    3    3    0    0 -0.72005136703E+00 -0.58619211259E+01  0.24269533883E+02  0.24977807513E+02  0.00000000000E+00 0.  1.
</event>
<event>
 7    1  0.2661323E-011  0.5052888E+02  0.7816164E-02  0.1300439E+00
        -11   -1    0    0    0    0  0.00000000000E+00  0.00000000000E+00  0.45593999997E+02  0.45594000000E+02  0.51100000000E-03 0. -1.
         11   -1    0    0    0    0 -0.00000000000E+00 -0.00000000000E+00 -0.45593999997E+02  0.45594000000E+02  0.51100000000E-03 0.  1.
    9900012    2    1    2    0    0 -0.32735950078E+01 -0.11035185750E+02 -0.38995802616E+02  0.50528875926E+02  0.30000048864E+02 0.  0.
         12    1    1    2    0    0  0.32735950078E+01  0.11035185750E+02  0.38995802616E+02  0.40659124074E+02  0.00000000000E+00 0. -1.
         11    1    3    3    0    0 -0.78334778494E+01  0.14054126602E+01 -0.19355575840E+02  0.20927897083E+02  0.51100000000E-03 0. -1.
        -11    1    3    3    0    0 -0.45144002913E+00  0.18623969301E+00 -0.15345609310E+02  0.15353377762E+02  0.51100000000E-03 0.  1.
        -12    1    3    3    0    0  0.50113228707E+01 -0.12626838103E+02 -0.42946174658E+01  0.14247601081E+02  0.00000000000E+00 0.  1.
</event>
<event>
 7    1  0.2661323E-011  0.5052886E+02  0.7816164E-02  0.1300439E+00
        -11   -1    0    0    0    0  0.00000000000E+00  0.00000000000E+00  0.45593999997E+02  0.45594000000E+02  0.51100000000E-03 0.  1.
         11   -1    0    0    0    0 -0.00000000000E+00 -0.00000000000E+00 -0.45593999997E+02  0.45594000000E+02  0.51100000000E-03 0. -1.
    9900012    2    1    2    0    0 -0.25917526137E+02 -0.29812156780E+02  0.96272059565E+01  0.50528856533E+02  0.29999989917E+02 0.  0.
         12    1    1    2    0    0  0.25917526137E+02  0.29812156780E+02 -0.96272059565E+01  0.40659143467E+02  0.00000000000E+00 0. -1.
         11    1    3    3    0    0 -0.46591466732E+01 -0.88201569003E+00 -0.52326430582E+01  0.70615970599E+01  0.51100000000E-03 0.  1.
        -11    1    3    3    0    0 -0.39680018135E+01  0.25588577017E+01  0.31797432063E+01  0.56924123401E+01  0.51100000000E-03 0. -1.
        -12    1    3    3    0    0 -0.17290377650E+02 -0.31488998792E+02  0.11680105808E+02  0.37774847133E+02  0.00000000000E+00 0.  1.
</event>
<event>
 7    1  0.2661323E-011  0.5052886E+02  0.7816164E-02  0.1300439E+00
        -11   -1    0    0    0    0  0.00000000000E+00  0.00000000000E+00  0.45593999997E+02  0.45594000000E+02  0.51100000000E-03 0. -1.
         11   -1    0    0    0    0 -0.00000000000E+00 -0.00000000000E+00 -0.45593999997E+02  0.45594000000E+02  0.51100000000E-03 0.  1.
    9900012    2    1    2    0    0  0.31260221957E+02  0.98029808058E+01 -0.24080405659E+02  0.50528857778E+02  0.29999993703E+02 0.  0.
         12    1    1    2    0    0 -0.31260221957E+02 -0.98029808058E+01  0.24080405659E+02  0.40659142222E+02  0.00000000000E+00 0. -1.
         11    1    3    3    0    0  0.15669545832E+01  0.13532387030E+01 -0.99896621229E+01  0.10201958206E+02  0.51100000000E-03 0. -1.
        -11    1    3    3    0    0  0.68308130280E+01  0.62602420160E+01 -0.14671689552E+02  0.17352495823E+02  0.51100000000E-03 0.  1.
         12    1    3    3    0    0  0.22862454346E+02  0.21895000868E+01  0.58094601570E+00  0.22974403749E+02  0.00000000000E+00 0. -1.
</event>
<event>
 7    1  0.2661323E-011  0.5052886E+02  0.7816164E-02  0.1300439E+00
        -11   -1    0    0    0    0  0.00000000000E+00  0.00000000000E+00  0.45593999997E+02  0.45594000000E+02  0.51100000000E-03 0. -1.
         11   -1    0    0    0    0 -0.00000000000E+00 -0.00000000000E+00 -0.45593999997E+02  0.45594000000E+02  0.51100000000E-03 0.  1.
    9900012    2    1    2    0    0 -0.31724025053E+02 -0.98879844141E+01 -0.23430311136E+02  0.50528862266E+02  0.30000007343E+02 0.  0.
         12    1    1    2    0    0  0.31724025053E+02  0.98879844141E+01  0.23430311136E+02  0.40659137734E+02  0.00000000000E+00 0. -1.
         11    1    3    3    0    0 -0.13903523480E+02 -0.56527080126E+01 -0.17883680888E+02  0.23347100792E+02  0.51100000000E-03 0. -1.
        -11    1    3    3    0    0 -0.15661019391E+02 -0.56239257730E+01 -0.11814921653E+02  0.20408048496E+02  0.51100000000E-03 0.  1.
         12    1    3    3    0    0 -0.21594821825E+01  0.13886493715E+01  0.62682914048E+01  0.67737129780E+01  0.00000000000E+00 0. -1.
</event>
<event>
 7    1  0.2661323E-011  0.5052886E+02  0.7816164E-02  0.1300439E+00
        -11   -1    0    0    0    0  0.00000000000E+00  0.00000000000E+00  0.45593999997E+02  0.45594000000E+02  0.51100000000E-03 0.  1.
         11   -1    0    0    0    0 -0.00000000000E+00 -0.00000000000E+00 -0.45593999997E+02  0.45594000000E+02  0.51100000000E-03 0. -1.
    9900012    2    1    2    0    0 -0.12139679347E+02 -0.92407712933E+01  0.37688224124E+02  0.50528857038E+02  0.29999991454E+02 0.  0.
         12    1    1    2    0    0  0.12139679347E+02  0.92407712933E+01 -0.37688224124E+02  0.40659142962E+02  0.00000000000E+00 0. -1.
         11    1    3    3    0    0  0.87188838844E+01  0.31941743592E+00  0.78937323346E+01  0.11765711798E+02  0.51100000000E-03 0. -1.
        -11    1    3    3    0    0 -0.20850399502E+01  0.16948281781E+01  0.50966581302E+01  0.57615760435E+01  0.51100000000E-03 0.  1.
        -12    1    3    3    0    0 -0.18773523281E+02 -0.11255016907E+02  0.24697833659E+02  0.33001569197E+02  0.00000000000E+00 0.  1.
</event>
<event>
 7    1  0.2661323E-011  0.5052884E+02  0.7816164E-02  0.1300439E+00
        -11   -1    0    0    0    0  0.00000000000E+00  0.00000000000E+00  0.45593999997E+02  0.45594000000E+02  0.51100000000E-03 0. -1.
         11   -1    0    0    0    0 -0.00000000000E+00 -0.00000000000E+00 -0.45593999997E+02  0.45594000000E+02  0.51100000000E-03 0.  1.
    9900012    2    1    2    0    0 -0.67785438464E+01  0.14789552865E+02 -0.37262420263E+02  0.50528837509E+02  0.29999932092E+02 0.  0.
         12    1    1    2    0    0  0.67785438464E+01 -0.14789552865E+02  0.37262420263E+02  0.40659162491E+02  0.00000000000E+00 0. -1.
         11    1    3    3    0    0 -0.65972138148E+00  0.83465212222E+01 -0.28129657522E+02  0.29349229655E+02  0.51100000000E-03 0. -1.
        -11    1    3    3    0    0 -0.83077738473E+01 -0.23099834698E+01 -0.85422123017E+01  0.12137731304E+02  0.51100000000E-03 0.  1.
         12    1    3    3    0    0  0.21889513824E+01  0.87530151131E+01 -0.59055043933E+00  0.90418765500E+01  0.00000000000E+00 0. -1.
</event>
<event>
 7    1  0.2661323E-011  0.5052886E+02  0.7816164E-02  0.1300439E+00
        -11   -1    0    0    0    0  0.00000000000E+00  0.00000000000E+00  0.45593999997E+02  0.45594000000E+02  0.51100000000E-03 0.  1.
         11   -1    0    0    0    0 -0.00000000000E+00 -0.00000000000E+00 -0.45593999997E+02  0.45594000000E+02  0.51100000000E-03 0. -1.
    9900012    2    1    2    0    0  0.18623720517E+02 -0.35248231082E+02 -0.79928212859E+01  0.50528856472E+02  0.29999989732E+02 0.  0.
         12    1    1    2    0    0 -0.18623720517E+02  0.35248231082E+02  0.79928212859E+01  0.40659143528E+02  0.00000000000E+00 0. -1.
         11    1    3    3    0    0  0.17253413941E+01  0.10508083518E+01 -0.16385626265E+01  0.26011322267E+01  0.51100000000E-03 0. -1.
        -11    1    3    3    0    0 -0.54732685986E+01 -0.10094181410E+02 -0.70334825925E+01  0.13465476045E+02  0.51100000000E-03 0.  1.
        -12    1    3    3    0    0  0.22371647722E+02 -0.26204858024E+02  0.67922393310E+00  0.34462248200E+02  0.00000000000E+00 0.  1.
</event>
<event>
 7    1  0.2661323E-011  0.5052886E+02  0.7816164E-02  0.1300439E+00
        -11   -1    0    0    0    0  0.00000000000E+00  0.00000000000E+00  0.45593999997E+02  0.45594000000E+02  0.51100000000E-03 0.  1.
         11   -1    0    0    0    0 -0.00000000000E+00 -0.00000000000E+00 -0.45593999997E+02  0.45594000000E+02  0.51100000000E-03 0. -1.
    9900012    2    1    2    0    0  0.27093708505E+02  0.38156449722E+01  0.30075530065E+02  0.50528859628E+02  0.29999999325E+02 0.  0.
         12    1    1    2    0    0 -0.27093708505E+02 -0.38156449722E+01 -0.30075530065E+02  0.40659140372E+02  0.00000000000E+00 0. -1.
         11    1    3    3    0    0  0.95520063071E+01 -0.70596335772E+01  0.13350631702E+02  0.17869488460E+02  0.51100000000E-03 0. -1.
        -11    1    3    3    0    0  0.50282835805E+01 -0.39716548081E+01  0.10441984840E+02  0.12251233625E+02  0.51100000000E-03 0.  1.
        -12    1    3    3    0    0  0.12513418617E+02  0.14846933357E+02  0.62829135237E+01  0.20408137542E+02  0.00000000000E+00 0.  1.
</event>
<event>
 7    1  0.2661323E-011  0.5052887E+02  0.7816164E-02  0.1300439E+00
        -11   -1    0    0    0    0  0.00000000000E+00  0.00000000000E+00  0.45593999997E+02  0.45594000000E+02  0.51100000000E-03 0. -1.
         11   -1    0    0    0    0 -0.00000000000E+00 -0.00000000000E+00 -0.45593999997E+02  0.45594000000E+02  0.51100000000E-03 0.  1.
    9900012    2    1    2    0    0  0.19646503994E+00  0.40289454071E+01 -0.40458542708E+02  0.50528872149E+02  0.30000037383E+02 0.  0.
         12    1    1    2    0    0 -0.19646503994E+00 -0.40289454071E+01  0.40458542708E+02  0.40659127851E+02  0.00000000000E+00 0. -1.
         11    1    3    3    0    0  0.18572163073E+01 -0.19179002113E+01  0.19806277963E+01  0.33242262801E+01  0.51100000000E-03 0. -1.
        -11    1    3    3    0    0  0.29656658739E+01 -0.62683793433E+01 -0.20835340260E+02  0.21959033623E+02  0.51100000000E-03 0.  1.
         12    1    3    3    0    0 -0.46264171413E+01  0.12215224962E+02 -0.21603830244E+02  0.25245612245E+02  0.00000000000E+00 0. -1.
</event>
<event>
 7    1  0.2661323E-011  0.5052884E+02  0.7816164E-02  0.1300439E+00
        -11   -1    0    0    0    0  0.00000000000E+00  0.00000000000E+00  0.45593999997E+02  0.45594000000E+02  0.51100000000E-03 0. -1.
         11   -1    0    0    0    0 -0.00000000000E+00 -0.00000000000E+00 -0.45593999997E+02  0.45594000000E+02  0.51100000000E-03 0.  1.
    9900012    2    1    2    0    0 -0.20340519427E+02 -0.34932199560E+02 -0.43785439083E+01  0.50528844286E+02  0.29999952690E+02 0.  0.
         12    1    1    2    0    0  0.20340519427E+02  0.34932199560E+02  0.43785439083E+01  0.40659155714E+02  0.00000000000E+00 0. -1.
         11    1    3    3    0    0 -0.14383897609E+02 -0.25944830137E+02  0.52879461809E+01  0.30132923793E+02  0.51100000000E-03 0.  1.
        -11    1    3    3    0    0 -0.11020286687E+01 -0.38340086840E+01  0.35903585972E+01  0.53670070703E+01  0.51100000000E-03 0. -1.
        -12    1    3    3    0    0 -0.48545931497E+01 -0.51533607389E+01 -0.13256848686E+02  0.15028913422E+02  0.00000000000E+00 0.  1.
</event>
<event>
 7    1  0.2661323E-011  0.5052888E+02  0.7816164E-02  0.1300439E+00
        -11   -1    0    0    0    0  0.00000000000E+00  0.00000000000E+00  0.45593999997E+02  0.45594000000E+02  0.51100000000E-03 0.  1.
         11   -1    0    0    0    0 -0.00000000000E+00 -0.00000000000E+00 -0.45593999997E+02  0.45594000000E+02  0.51100000000E-03 0. -1.
    9900012    2    1    2    0    0 -0.11364373277E+02  0.30527515266E+02  0.24332817875E+02  0.50528878095E+02  0.30000055458E+02 0.  0.
         12    1    1    2    0    0  0.11364373277E+02 -0.30527515266E+02 -0.24332817875E+02  0.40659121905E+02  0.00000000000E+00 0. -1.
         11    1    3    3    0    0 -0.89163809444E+00  0.48536829131E+01  0.66346762928E+01  0.82687475523E+01  0.51100000000E-03 0. -1.
        -11    1    3    3    0    0 -0.86952379058E+01  0.21852159273E+02  0.24688390549E+02  0.34097516849E+02  0.51100000000E-03 0.  1.
         12    1    3    3    0    0 -0.17774972772E+01  0.38216730802E+01 -0.69902489664E+01  0.81626136938E+01  0.00000000000E+00 0. -1.
</event>
<event>
 7    1  0.2661323E-011  0.5052886E+02  0.7816164E-02  0.1300439E+00
        -11   -1    0    0    0    0  0.00000000000E+00  0.00000000000E+00  0.45593999997E+02  0.45594000000E+02  0.51100000000E-03 0.  1.
         11   -1    0    0    0    0 -0.00000000000E+00 -0.00000000000E+00 -0.45593999997E+02  0.45594000000E+02  0.51100000000E-03 0. -1.
    9900012    2    1    2    0    0 -0.27932952458E+02  0.21992685953E+02  0.19729106621E+02  0.50528859373E+02  0.29999998550E+02 0.  0.
         12    1    1    2    0    0  0.27932952458E+02 -0.21992685953E+02 -0.19729106621E+02  0.40659140627E+02  0.00000000000E+00 0. -1.
         11    1    3    3    0    0 -0.88168258808E+01  0.57386931137E+00  0.11264427650E+02  0.14316182282E+02  0.51100000000E-03 0. -1.
        -11    1    3    3    0    0 -0.42633054620E+01 -0.18011099375E+01  0.72758602120E+01  0.86231034179E+01  0.51100000000E-03 0.  1.
         12    1    3    3    0    0 -0.14852821115E+02  0.23219926579E+02  0.11888187595E+01  0.27589573673E+02  0.00000000000E+00 0. -1.
</event>
<event>
 7    1  0.2661323E-011  0.5052886E+02  0.7816164E-02  0.1300439E+00
        -11   -1    0    0    0    0  0.00000000000E+00  0.00000000000E+00  0.45593999997E+02  0.45594000000E+02  0.51100000000E-03 0.  1.
         11   -1    0    0    0    0 -0.00000000000E+00 -0.00000000000E+00 -0.45593999997E+02  0.45594000000E+02  0.51100000000E-03 0. -1.
    9900012    2    1    2    0    0  0.23385078357E+02  0.92472991580E+01  0.31949821814E+02  0.50528861477E+02  0.30000004947E+02 0.  0.
         12    1    1    2    0    0 -0.23385078357E+02 -0.92472991580E+01 -0.31949821814E+02  0.40659138523E+02  0.00000000000E+00 0. -1.
         11    1    3    3    0    0 -0.49634787683E+01  0.53629180362E+01  0.90093674375E+01  0.11600246257E+02  0.51100000000E-03 0. -1.
        -11    1    3    3    0    0  0.57381520935E+00 -0.24877970128E+01  0.37661532353E+00  0.25807435429E+01  0.51100000000E-03 0.  1.
        -12    1    3    3    0    0  0.27774741916E+02  0.63721781346E+01  0.22563839053E+02  0.36347871677E+02  0.00000000000E+00 0.  1.
</event>
<event>
 7    1  0.2661323E-011  0.5052886E+02  0.7816164E-02  0.1300439E+00
        -11   -1    0    0    0    0  0.00000000000E+00  0.00000000000E+00  0.45593999997E+02  0.45594000000E+02  0.51100000000E-03 0. -1.
         11   -1    0    0    0    0 -0.00000000000E+00 -0.00000000000E+00 -0.45593999997E+02  0.45594000000E+02  0.51100000000E-03 0.  1.
    9900012    2    1    2    0    0 -0.25417812425E+02 -0.31345262103E+02  0.49573268720E+01  0.50528859152E+02  0.29999997877E+02 0.  0.
         12    1    1    2    0    0  0.25417812425E+02  0.31345262103E+02 -0.49573268720E+01  0.40659140848E+02  0.00000000000E+00 0. -1.
         11    1    3    3    0    0 -0.62498926900E+01 -0.17428845405E+02  0.39329210372E+01  0.18928647045E+02  0.51100000000E-03 0. -1.
        -11    1    3    3    0    0 -0.16737676004E+02 -0.14977033308E+02  0.82312765818E+01  0.23921020863E+02  0.51100000000E-03 0.  1.
         12    1    3    3    0    0 -0.24302437319E+01  0.10606166104E+01 -0.72068707471E+01  0.76791912436E+01  0.00000000000E+00 0. -1.
</event>
<event>
 7    1  0.2661323E-011  0.5052885E+02  0.7816164E-02  0.1300439E+00
        -11   -1    0    0    0    0  0.00000000000E+00  0.00000000000E+00  0.45593999997E+02  0.45594000000E+02  0.51100000000E-03 0.  1.
         11   -1    0    0    0    0 -0.00000000000E+00 -0.00000000000E+00 -0.45593999997E+02  0.45594000000E+02  0.51100000000E-03 0. -1.
    9900012    2    1    2    0    0  0.17171535795E+02  0.90924803368E+01  0.35715985188E+02  0.50528850498E+02  0.29999971575E+02 0.  0.
         12    1    1    2    0    0 -0.17171535795E+02 -0.90924803368E+01 -0.35715985188E+02  0.40659149502E+02  0.00000000000E+00 0. -1.
         11    1    3    3    0    0  0.45497607376E+01  0.49879216444E+01  0.42539768293E+01  0.79797245708E+01  0.51100000000E-03 0. -1.
        -11    1    3    3    0    0  0.16336370321E+02  0.11454364684E+02  0.25521931161E+02  0.32395191557E+02  0.51100000000E-03 0.  1.
         12    1    3    3    0    0 -0.37145952633E+01 -0.73498059915E+01  0.59400771976E+01  0.10153934370E+02  0.00000000000E+00 0. -1.
</event>
<event>
 7    1  0.2661323E-011  0.5052885E+02  0.7816164E-02  0.1300439E+00
        -11   -1    0    0    0    0  0.00000000000E+00  0.00000000000E+00  0.45593999997E+02  0.45594000000E+02  0.51100000000E-03 0.  1.
         11   -1    0    0    0    0 -0.00000000000E+00 -0.00000000000E+00 -0.45593999997E+02  0.45594000000E+02  0.51100000000E-03 0. -1.
    9900012    2    1    2    0    0  0.13621966190E+02 -0.96121465602E+01  0.37083896793E+02  0.50528846962E+02  0.29999960826E+02 0.  0.
         12    1    1    2    0    0 -0.13621966190E+02  0.96121465602E+01 -0.37083896793E+02  0.40659153038E+02  0.00000000000E+00 0. -1.
         11    1    3    3    0    0  0.11907550566E+02 -0.79687534400E+01  0.19964475287E+02  0.24573788182E+02  0.51100000000E-03 0. -1.
        -11    1    3    3    0    0  0.85445004015E+01 -0.43739722456E+01  0.15792144828E+02  0.18480583293E+02  0.51100000000E-03 0.  1.
         12    1    3    3    0    0 -0.68300847776E+01  0.27305791255E+01  0.13272766782E+01  0.74744754873E+01  0.00000000000E+00 0. -1.
</event>
<event>
 7    1  0.2661323E-011  0.5052885E+02  0.7816164E-02  0.1300439E+00
        -11   -1    0    0    0    0  0.00000000000E+00  0.00000000000E+00  0.45593999997E+02  0.45594000000E+02  0.51100000000E-03 0.  1.
         11   -1    0    0    0    0 -0.00000000000E+00 -0.00000000000E+00 -0.45593999997E+02  0.45594000000E+02  0.51100000000E-03 0. -1.
    9900012    2    1    2    0    0 -0.22800293623E+02 -0.33347062767E+02  0.46136931343E+01  0.50528854057E+02  0.29999982391E+02 0.  0.
         12    1    1    2    0    0  0.22800293623E+02  0.33347062767E+02 -0.46136931343E+01  0.40659145943E+02  0.00000000000E+00 0. -1.
         11    1    3    3    0    0 -0.69094713541E+01 -0.18023225242E+02  0.42353892147E+01  0.19761476782E+02  0.51100000000E-03 0. -1.
        -11    1    3    3    0    0 -0.20919271112E+02 -0.98611582079E+01 -0.12702403047E+01  0.23161862096E+02  0.51100000000E-03 0.  1.
         12    1    3    3    0    0  0.50284488430E+01 -0.54626793168E+01  0.16485442243E+01  0.76055151793E+01  0.00000000000E+00 0. -1.
</event>
<event>
 7    1  0.2661323E-011  0.5052886E+02  0.7816164E-02  0.1300439E+00
        -11   -1    0    0    0    0  0.00000000000E+00  0.00000000000E+00  0.45593999997E+02  0.45594000000E+02  0.51100000000E-03 0.  1.
         11   -1    0    0    0    0 -0.00000000000E+00 -0.00000000000E+00 -0.45593999997E+02  0.45594000000E+02  0.51100000000E-03 0. -1.
    9900012    2    1    2    0    0  0.19152064640E+02  0.26812632972E+01  0.35765552436E+02  0.50528862111E+02  0.30000006872E+02 0.  0.
         12    1    1    2    0    0 -0.19152064640E+02 -0.26812632972E+01 -0.35765552436E+02  0.40659137889E+02  0.00000000000E+00 0. -1.
         11    1    3    3    0    0 -0.36220681736E+00 -0.68821359882E+01  0.23095950685E+01  0.72683711504E+01  0.51100000000E-03 0. -1.
        -11    1    3    3    0    0 -0.19035357195E+01  0.10203149589E+01 -0.49844236498E+00  0.22165143588E+01  0.51100000000E-03 0.  1.
         12    1    3    3    0    0  0.21417807177E+02  0.85430843265E+01  0.33954399733E+02  0.41043976601E+02  0.00000000000E+00 0. -1.
</event>
<event>
 7    1  0.2661323E-011  0.5052886E+02  0.7816164E-02  0.1300439E+00
        -11   -1    0    0    0    0  0.00000000000E+00  0.00000000000E+00  0.45593999997E+02  0.45594000000E+02  0.51100000000E-03 0. -1.
         11   -1    0    0    0    0 -0.00000000000E+00 -0.00000000000E+00 -0.45593999997E+02  0.45594000000E+02  0.51100000000E-03 0.  1.
    9900012    2    1    2    0    0 -0.25657319313E+02  0.25565672661E+02 -0.18473331040E+02  0.50528860650E+02  0.30000002433E+02 0.  0.
         12    1    1    2    0    0  0.25657319313E+02 -0.25565672661E+02  0.18473331040E+02  0.40659139350E+02  0.00000000000E+00 0. -1.
         11    1    3    3    0    0 -0.15788802144E+02  0.16998160715E+02 -0.19702440128E+01  0.23283161352E+02  0.51100000000E-03 0. -1.
        -11    1    3    3    0    0 -0.76446793089E+01  0.13359735107E+02 -0.82971444332E+01  0.17486173105E+02  0.51100000000E-03 0.  1.
         12    1    3    3    0    0 -0.22238378603E+01 -0.47922231609E+01 -0.82059425937E+01  0.97595261926E+01  0.00000000000E+00 0. -1.
</event>
<event>
 7    1  0.2661323E-011  0.5052886E+02  0.7816164E-02  0.1300439E+00
        -11   -1    0    0    0    0  0.00000000000E+00  0.00000000000E+00  0.45593999997E+02  0.45594000000E+02  0.51100000000E-03 0.  1.
         11   -1    0    0    0    0 -0.00000000000E+00 -0.00000000000E+00 -0.45593999997E+02  0.45594000000E+02  0.51100000000E-03 0. -1.
    9900012    2    1    2    0    0 -0.22949061457E+02  0.31633893931E+02  0.11216205012E+02  0.50528856848E+02  0.29999990875E+02 0.  0.
         12    1    1    2    0    0  0.22949061457E+02 -0.31633893931E+02 -0.11216205012E+02  0.40659143152E+02  0.00000000000E+00 0. -1.
         11    1    3    3    0    0 -0.19201319063E+02  0.15690126660E+02  0.15981579318E+02  0.29500535693E+02  0.51100000000E-03 0.  1.
        -11    1    3    3    0    0  0.22745556210E+01 -0.69302429215E+00  0.75350890533E+00  0.24943259358E+01  0.51100000000E-03 0. -1.
        -12    1    3    3    0    0 -0.60222980145E+01  0.16636791563E+02 -0.55188832116E+01  0.18533995219E+02  0.00000000000E+00 0.  1.
</event>
<event>
 7    1  0.2661323E-011  0.5052885E+02  0.7816164E-02  0.1300439E+00
        -11   -1    0    0    0    0  0.00000000000E+00  0.00000000000E+00  0.45593999997E+02  0.45594000000E+02  0.51100000000E-03 0.  1.
         11   -1    0    0    0    0 -0.00000000000E+00 -0.00000000000E+00 -0.45593999997E+02  0.45594000000E+02  0.51100000000E-03 0. -1.
    9900012    2    1    2    0    0  0.21295961432E+02 -0.28542093983E+02  0.19621344721E+02  0.50528852556E+02  0.29999977828E+02 0.  0.
         12    1    1    2    0    0 -0.21295961432E+02  0.28542093983E+02 -0.19621344721E+02  0.40659147444E+02  0.00000000000E+00 0. -1.
         11    1    3    3    0    0  0.94542139326E+01 -0.94781147776E+01 -0.21596067290E-02  0.13387188866E+02  0.51100000000E-03 0. -1.
        -11    1    3    3    0    0  0.15536081802E+02 -0.46330761757E+01  0.71762070507E+01  0.17729443886E+02  0.51100000000E-03 0.  1.
        -12    1    3    3    0    0 -0.36943343028E+01 -0.14430903030E+02  0.12447297277E+02  0.19412219804E+02  0.00000000000E+00 0.  1.
</event>
<event>
 7    1  0.2661323E-011  0.5052887E+02  0.7816164E-02  0.1300439E+00
        -11   -1    0    0    0    0  0.00000000000E+00  0.00000000000E+00  0.45593999997E+02  0.45594000000E+02  0.51100000000E-03 0.  1.
         11   -1    0    0    0    0 -0.00000000000E+00 -0.00000000000E+00 -0.45593999997E+02  0.45594000000E+02  0.51100000000E-03 0. -1.
    9900012    2    1    2    0    0 -0.31762560513E+02 -0.77652900666E+01  0.24166197445E+02  0.50528867212E+02  0.30000022377E+02 0.  0.
         12    1    1    2    0    0  0.31762560513E+02  0.77652900666E+01 -0.24166197445E+02  0.40659132788E+02  0.00000000000E+00 0. -1.
         11    1    3    3    0    0 -0.89607526198E+01 -0.35007253470E+01 -0.21649175850E+00  0.96227352874E+01  0.51100000000E-03 0. -1.
        -11    1    3    3    0    0 -0.67713190072E+00  0.73079484860E+01  0.88635376389E+01  0.11507689535E+02  0.51100000000E-03 0.  1.
         12    1    3    3    0    0 -0.22124675992E+02 -0.11572513206E+02  0.15519151565E+02  0.29398442390E+02  0.00000000000E+00 0. -1.
</event>
<event>
 7    1  0.2661323E-011  0.5052887E+02  0.7816164E-02  0.1300439E+00
        -11   -1    0    0    0    0  0.00000000000E+00  0.00000000000E+00  0.45593999997E+02  0.45594000000E+02  0.51100000000E-03 0.  1.
         11   -1    0    0    0    0 -0.00000000000E+00 -0.00000000000E+00 -0.45593999997E+02  0.45594000000E+02  0.51100000000E-03 0. -1.
    9900012    2    1    2    0    0 -0.95522605853E+01  0.39025233798E+02 -0.62410491855E+01  0.50528865107E+02  0.30000015981E+02 0.  0.
         12    1    1    2    0    0  0.95522605853E+01 -0.39025233798E+02  0.62410491855E+01  0.40659134893E+02  0.00000000000E+00 0. -1.
         11    1    3    3    0    0 -0.24421967859E+00  0.33135924790E+02 -0.96643042754E+01  0.34517356972E+02  0.51100000000E-03 0.  1.
        -11    1    3    3    0    0 -0.51718455887E+01  0.40474254641E+01 -0.37248155784E+01  0.75500921209E+01  0.51100000000E-03 0. -1.
        -12    1    3    3    0    0 -0.41361953180E+01  0.18418835443E+01  0.71480706683E+01  0.84614160150E+01  0.00000000000E+00 0.  1.
</event>
<event>
 7    1  0.2661323E-011  0.5052886E+02  0.7816164E-02  0.1300439E+00
        -11   -1    0    0    0    0  0.00000000000E+00  0.00000000000E+00  0.45593999997E+02  0.45594000000E+02  0.51100000000E-03 0.  1.
         11   -1    0    0    0    0 -0.00000000000E+00 -0.00000000000E+00 -0.45593999997E+02  0.45594000000E+02  0.51100000000E-03 0. -1.
    9900012    2    1    2    0    0 -0.26036810120E+02  0.12165186956E+02 -0.28762104318E+02  0.50528857120E+02  0.29999991703E+02 0.  0.
         12    1    1    2    0    0  0.26036810120E+02 -0.12165186956E+02  0.28762104318E+02  0.40659142880E+02  0.00000000000E+00 0. -1.
         11    1    3    3    0    0 -0.14314556326E+02  0.57693189891E+01 -0.22553424448E+02  0.27328529397E+02  0.51100000000E-03 0. -1.
        -11    1    3    3    0    0  0.40497265778E+01 -0.19522055194E+01 -0.92969189426E+00  0.45908298840E+01  0.51100000000E-03 0.  1.
         12    1    3    3    0    0 -0.15771980373E+02  0.83480734864E+01 -0.52789879755E+01  0.18609497840E+02  0.00000000000E+00 0. -1.
</event>
<event>
 7    1  0.2661323E-011  0.5052885E+02  0.7816164E-02  0.1300439E+00
        -11   -1    0    0    0    0  0.00000000000E+00  0.00000000000E+00  0.45593999997E+02  0.45594000000E+02  0.51100000000E-03 0.  1.
         11   -1    0    0    0    0 -0.00000000000E+00 -0.00000000000E+00 -0.45593999997E+02  0.45594000000E+02  0.51100000000E-03 0. -1.
    9900012    2    1    2    0    0 -0.39874666045E+02  0.54867640074E+01  0.57509125712E+01  0.50528848916E+02  0.29999966766E+02 0.  0.
         12    1    1    2    0    0  0.39874666045E+02 -0.54867640074E+01 -0.57509125712E+01  0.40659151084E+02  0.00000000000E+00 0. -1.
         11    1    3    3    0    0 -0.15254741510E+02  0.84918031729E+01  0.75540013774E+01  0.19023164740E+02  0.51100000000E-03 0. -1.
        -11    1    3    3    0    0 -0.14063804102E+02  0.61437238413E+01  0.47646684861E+01  0.16069785142E+02  0.51100000000E-03 0.  1.
         12    1    3    3    0    0 -0.10556120433E+02 -0.91487630068E+01 -0.65677572923E+01  0.15435899034E+02  0.00000000000E+00 0. -1.
</event>
<event>
 7    1  0.2661323E-011  0.5052886E+02  0.7816164E-02  0.1300439E+00
        -11   -1    0    0    0    0  0.00000000000E+00  0.00000000000E+00  0.45593999997E+02  0.45594000000E+02  0.51100000000E-03 0.  1.
         11   -1    0    0    0    0 -0.00000000000E+00 -0.00000000000E+00 -0.45593999997E+02  0.45594000000E+02  0.51100000000E-03 0. -1.
    9900012    2    1    2    0    0  0.36161842021E+02 -0.84039215466E+01  0.16578934550E+02  0.50528858512E+02  0.29999995932E+02 0.  0.
         12    1    1    2    0    0 -0.36161842021E+02  0.84039215466E+01 -0.16578934550E+02  0.40659141488E+02  0.00000000000E+00 0. -1.
         11    1    3    3    0    0  0.41487039209E+01 -0.66164318600E+01  0.10319848201E+02  0.12941722526E+02  0.51100000000E-03 0. -1.
        -11    1    3    3    0    0  0.75046493963E+01 -0.74109501544E+00  0.10258867188E+02  0.12732373723E+02  0.51100000000E-03 0.  1.
        -12    1    3    3    0    0  0.24508488704E+02 -0.10463946711E+01 -0.39997808391E+01  0.24854762262E+02  0.00000000000E+00 0.  1.
</event>
<event>
 7    1  0.2661323E-011  0.5052886E+02  0.7816164E-02  0.1300439E+00
        -11   -1    0    0    0    0  0.00000000000E+00  0.00000000000E+00  0.45593999997E+02  0.45594000000E+02  0.51100000000E-03 0.  1.
         11   -1    0    0    0    0 -0.00000000000E+00 -0.00000000000E+00 -0.45593999997E+02  0.45594000000E+02  0.51100000000E-03 0. -1.
    9900012    2    1    2    0    0 -0.16901035557E+02 -0.13797139049E+02  0.34309754188E+02  0.50528864725E+02  0.30000014819E+02 0.  0.
         12    1    1    2    0    0  0.16901035557E+02  0.13797139049E+02 -0.34309754188E+02  0.40659135275E+02  0.00000000000E+00 0. -1.
         11    1    3    3    0    0 -0.31274632813E+01  0.30292103922E+01 -0.85510186630E+00  0.44371546783E+01  0.51100000000E-03 0. -1.
        -11    1    3    3    0    0 -0.10527153262E+02  0.19258116676E+01  0.11224945410E+02  0.15509000809E+02  0.51100000000E-03 0.  1.
        -12    1    3    3    0    0 -0.32464190143E+01 -0.18752161109E+02  0.23939910644E+02  0.30582709238E+02  0.00000000000E+00 0.  1.
</event>
<event>
 7    1  0.2661323E-011  0.5052886E+02  0.7816164E-02  0.1300439E+00
        -11   -1    0    0    0    0  0.00000000000E+00  0.00000000000E+00  0.45593999997E+02  0.45594000000E+02  0.51100000000E-03 0. -1.
         11   -1    0    0    0    0 -0.00000000000E+00 -0.00000000000E+00 -0.45593999997E+02  0.45594000000E+02  0.51100000000E-03 0.  1.
    9900012    2    1    2    0    0 -0.33695438834E+02  0.47311392747E+01 -0.22257568315E+02  0.50528860507E+02  0.30000001997E+02 0.  0.
         12    1    1    2    0    0  0.33695438834E+02 -0.47311392747E+01  0.22257568315E+02  0.40659139493E+02  0.00000000000E+00 0. -1.
         11    1    3    3    0    0  0.17547192635E+01 -0.40198859881E+01 -0.43158665752E+01  0.61534728087E+01  0.51100000000E-03 0. -1.
        -11    1    3    3    0    0 -0.18120702241E+01  0.12419092000E+01  0.32446527929E+01  0.39183809112E+01  0.51100000000E-03 0.  1.
        -12    1    3    3    0    0 -0.33638087873E+02  0.75091160628E+01 -0.21186354532E+02  0.40457006787E+02  0.00000000000E+00 0.  1.
</event>
<event>
 7    1  0.2661323E-011  0.5052887E+02  0.7816164E-02  0.1300439E+00
        -11   -1    0    0    0    0  0.00000000000E+00  0.00000000000E+00  0.45593999997E+02  0.45594000000E+02  0.51100000000E-03 0. -1.
         11   -1    0    0    0    0 -0.00000000000E+00 -0.00000000000E+00 -0.45593999997E+02  0.45594000000E+02  0.51100000000E-03 0.  1.
    9900012    2    1    2    0    0 -0.26484534387E+02 -0.18785244564E+02  0.24471384893E+02  0.50528872445E+02  0.30000038283E+02 0.  0.
         12    1    1    2    0    0  0.26484534387E+02  0.18785244564E+02 -0.24471384893E+02  0.40659127555E+02  0.00000000000E+00 0. -1.
         11    1    3    3    0    0  0.12277937525E+00 -0.30927634793E+01  0.13799925624E+02  0.14142779366E+02  0.51100000000E-03 0. -1.
        -11    1    3    3    0    0 -0.26037000581E+01 -0.53178270545E+01 -0.32575749347E+01  0.67579829306E+01  0.51100000000E-03 0.  1.
         12    1    3    3    0    0 -0.24003613704E+02 -0.10374654030E+02  0.13929034203E+02  0.29628110148E+02  0.00000000000E+00 0. -1.
</event>
<event>
 7    1  0.2661323E-011  0.5052886E+02  0.7816164E-02  0.1300439E+00
        -11   -1    0    0    0    0  0.00000000000E+00  0.00000000000E+00  0.45593999997E+02  0.45594000000E+02  0.51100000000E-03 0.  1.
         11   -1    0    0    0    0 -0.00000000000E+00 -0.00000000000E+00 -0.45593999997E+02  0.45594000000E+02  0.51100000000E-03 0. -1.
    9900012    2    1    2    0    0 -0.29245888343E+02  0.28046668044E+02 -0.33508194398E+01  0.50528861246E+02  0.30000004242E+02 0.  0.
         12    1    1    2    0    0  0.29245888343E+02 -0.28046668044E+02  0.33508194398E+01  0.40659138754E+02  0.00000000000E+00 0. -1.
         11    1    3    3    0    0 -0.17194988979E+02  0.90618929987E+01 -0.10725055915E+02  0.22199377814E+02  0.51100000000E-03 0. -1.
        -11    1    3    3    0    0 -0.65481198346E+01 -0.77390625555E+00  0.34683743234E+01  0.74502634161E+01  0.51100000000E-03 0.  1.
         12    1    3    3    0    0 -0.55027795297E+01  0.19758681301E+02  0.39058621522E+01  0.20879220015E+02  0.00000000000E+00 0. -1.
</event>
<event>
 7    1  0.2661323E-011  0.5052887E+02  0.7816164E-02  0.1300439E+00
        -11   -1    0    0    0    0  0.00000000000E+00  0.00000000000E+00  0.45593999997E+02  0.45594000000E+02  0.51100000000E-03 0.  1.
         11   -1    0    0    0    0 -0.00000000000E+00 -0.00000000000E+00 -0.45593999997E+02  0.45594000000E+02  0.51100000000E-03 0. -1.
    9900012    2    1    2    0    0 -0.23720120290E+02  0.32584297684E+02 -0.53651306338E+01  0.50528865862E+02  0.30000018274E+02 0.  0.
         12    1    1    2    0    0  0.23720120290E+02 -0.32584297684E+02  0.53651306338E+01  0.40659134138E+02  0.00000000000E+00 0. -1.
         11    1    3    3    0    0  0.23725544608E+01  0.10007899093E+02  0.22716839564E+00  0.10287792021E+02  0.51100000000E-03 0. -1.
        -11    1    3    3    0    0 -0.15280874737E+02  0.20856898680E+02  0.33941072323E+01  0.26077486831E+02  0.51100000000E-03 0.  1.
         12    1    3    3    0    0 -0.10811800014E+02  0.17194999114E+01 -0.89864062617E+01  0.14163587010E+02  0.00000000000E+00 0. -1.
</event>
<event>
 7    1  0.2661323E-011  0.5052887E+02  0.7816164E-02  0.1300439E+00
        -11   -1    0    0    0    0  0.00000000000E+00  0.00000000000E+00  0.45593999997E+02  0.45594000000E+02  0.51100000000E-03 0. -1.
         11   -1    0    0    0    0 -0.00000000000E+00 -0.00000000000E+00 -0.45593999997E+02  0.45594000000E+02  0.51100000000E-03 0.  1.
    9900012    2    1    2    0    0 -0.31444819526E+02 -0.18559265810E+02 -0.17886914035E+02  0.50528871675E+02  0.30000035944E+02 0.  0.
         12    1    1    2    0    0  0.31444819526E+02  0.18559265810E+02  0.17886914035E+02  0.40659128325E+02  0.00000000000E+00 0. -1.
         11    1    3    3    0    0 -0.41945941976E+01  0.11789027936E+01 -0.77954025564E+01  0.89304385983E+01  0.51100000000E-03 0. -1.
        -11    1    3    3    0    0 -0.30566248280E+02 -0.18803157166E+02 -0.11767937499E+02  0.37766898292E+02  0.51100000000E-03 0.  1.
         12    1    3    3    0    0  0.33160229522E+01 -0.93501143761E+00  0.16764260203E+01  0.38315347851E+01  0.00000000000E+00 0. -1.
</event>
<event>
 7    1  0.2661323E-011  0.5052883E+02  0.7816164E-02  0.1300439E+00
        -11   -1    0    0    0    0  0.00000000000E+00  0.00000000000E+00  0.45593999997E+02  0.45594000000E+02  0.51100000000E-03 0. -1.
         11   -1    0    0    0    0 -0.00000000000E+00 -0.00000000000E+00 -0.45593999997E+02  0.45594000000E+02  0.51100000000E-03 0.  1.
    9900012    2    1    2    0    0  0.38796738146E+01 -0.19026750427E+02 -0.35722529560E+02  0.50528828600E+02  0.29999905013E+02 0.  0.
         12    1    1    2    0    0 -0.38796738146E+01  0.19026750427E+02  0.35722529560E+02  0.40659171400E+02  0.00000000000E+00 0. -1.
         11    1    3    3    0    0 -0.26910963642E+01 -0.66019485929E+01 -0.46083531990E+01  0.84890897234E+01  0.51100000000E-03 0.  1.
        -11    1    3    3    0    0  0.67656438745E+01 -0.13410988825E+02 -0.48908028673E+01  0.15797104521E+02  0.51100000000E-03 0. -1.
        -12    1    3    3    0    0 -0.19487369572E+00  0.98618699005E+00 -0.26223373494E+02  0.26242634356E+02  0.00000000000E+00 0.  1.
</event>
<event>
 7    1  0.2661323E-011  0.5052886E+02  0.7816164E-02  0.1300439E+00
        -11   -1    0    0    0    0  0.00000000000E+00  0.00000000000E+00  0.45593999997E+02  0.45594000000E+02  0.51100000000E-03 0.  1.
         11   -1    0    0    0    0 -0.00000000000E+00 -0.00000000000E+00 -0.45593999997E+02  0.45594000000E+02  0.51100000000E-03 0. -1.
    9900012    2    1    2    0    0  0.18356744235E+02 -0.29997997847E+02  0.20403815972E+02  0.50528860314E+02  0.30000001411E+02 0.  0.
         12    1    1    2    0    0 -0.18356744235E+02  0.29997997847E+02 -0.20403815972E+02  0.40659139686E+02  0.00000000000E+00 0. -1.
         11    1    3    3    0    0  0.31695334252E+01 -0.65465655082E+01 -0.23272807159E+01  0.76367334560E+01  0.51100000000E-03 0. -1.
        -11    1    3    3    0    0  0.34780699719E+01 -0.20511436750E+02  0.49250023504E+01  0.21379234240E+02  0.51100000000E-03 0.  1.
         12    1    3    3    0    0  0.11709140838E+02 -0.29399955886E+01  0.17806094337E+02  0.21512892618E+02  0.00000000000E+00 0. -1.
</event>
<event>
 7    1  0.2661323E-011  0.5052892E+02  0.7816164E-02  0.1300439E+00
        -11   -1    0    0    0    0  0.00000000000E+00  0.00000000000E+00  0.45593999997E+02  0.45594000000E+02  0.51100000000E-03 0.  1.
         11   -1    0    0    0    0 -0.00000000000E+00 -0.00000000000E+00 -0.45593999997E+02  0.45594000000E+02  0.51100000000E-03 0. -1.
    9900012    2    1    2    0    0  0.87787649860E+01  0.25803620139E+02  0.30170635420E+02  0.50528920219E+02  0.30000183498E+02 0.  0.
         12    1    1    2    0    0 -0.87787649860E+01 -0.25803620139E+02 -0.30170635420E+02  0.40659079781E+02  0.00000000000E+00 0. -1.
         11    1    3    3    0    0 -0.54175490328E+01 -0.25006248652E+01  0.40041207396E+01  0.71858155695E+01  0.51100000000E-03 0. -1.
        -11    1    3    3    0    0  0.19669028074E+01  0.30166841637E+00  0.69897289517E+01  0.72674632140E+01  0.51100000000E-03 0.  1.
        -12    1    3    3    0    0  0.12229411211E+02  0.28002576588E+02  0.19176785729E+02  0.36075641436E+02  0.00000000000E+00 0.  1.
</event>
<event>
 7    1  0.2661323E-011  0.5052886E+02  0.7816164E-02  0.1300439E+00
        -11   -1    0    0    0    0  0.00000000000E+00  0.00000000000E+00  0.45593999997E+02  0.45594000000E+02  0.51100000000E-03 0.  1.
         11   -1    0    0    0    0 -0.00000000000E+00 -0.00000000000E+00 -0.45593999997E+02  0.45594000000E+02  0.51100000000E-03 0. -1.
    9900012    2    1    2    0    0 -0.54321292018E+01 -0.34645197432E+02  0.20575912057E+02  0.50528857243E+02  0.29999992077E+02 0.  0.
         12    1    1    2    0    0  0.54321292018E+01  0.34645197432E+02 -0.20575912057E+02  0.40659142757E+02  0.00000000000E+00 0. -1.
         11    1    3    3    0    0 -0.21242660790E+01 -0.61386756226E+01  0.73314816656E+01  0.97952268196E+01  0.51100000000E-03 0.  1.
        -11    1    3    3    0    0 -0.37322542191E+01 -0.27019086019E+02 -0.12408637677E+00  0.27275925805E+02  0.51100000000E-03 0. -1.
         12    1    3    3    0    0  0.42439109634E+00 -0.14874357906E+01  0.13368516768E+02  0.13457704619E+02  0.00000000000E+00 0. -1.
</event>
<event>
 7    1  0.2661323E-011  0.5052886E+02  0.7816164E-02  0.1300439E+00
        -11   -1    0    0    0    0  0.00000000000E+00  0.00000000000E+00  0.45593999997E+02  0.45594000000E+02  0.51100000000E-03 0.  1.
         11   -1    0    0    0    0 -0.00000000000E+00 -0.00000000000E+00 -0.45593999997E+02  0.45594000000E+02  0.51100000000E-03 0. -1.
    9900012    2    1    2    0    0 -0.18597988290E+02 -0.34037025228E+02 -0.12196772310E+02  0.50528861918E+02  0.30000006286E+02 0.  0.
         12    1    1    2    0    0  0.18597988290E+02  0.34037025228E+02  0.12196772310E+02  0.40659138082E+02  0.00000000000E+00 0. -1.
         11    1    3    3    0    0  0.94281373939E+00 -0.24110810145E+02 -0.10163916068E+02  0.26182537190E+02  0.51100000000E-03 0. -1.
        -11    1    3    3    0    0 -0.13697674159E+02 -0.93718426477E+01  0.26890376629E+01  0.16813346954E+02  0.51100000000E-03 0.  1.
        -12    1    3    3    0    0 -0.58431278702E+01 -0.55437243526E+00 -0.47218939050E+01  0.75329777748E+01  0.00000000000E+00 0.  1.
</event>
<event>
 7    1  0.2661323E-011  0.5052886E+02  0.7816164E-02  0.1300439E+00
        -11   -1    0    0    0    0  0.00000000000E+00  0.00000000000E+00  0.45593999997E+02  0.45594000000E+02  0.51100000000E-03 0.  1.
         11   -1    0    0    0    0 -0.00000000000E+00 -0.00000000000E+00 -0.45593999997E+02  0.45594000000E+02  0.51100000000E-03 0. -1.
    9900012    2    1    2    0    0 -0.28060770635E+02  0.23370357428E+02  0.17876955849E+02  0.50528855821E+02  0.29999987755E+02 0.  0.
         12    1    1    2    0    0  0.28060770635E+02 -0.23370357428E+02 -0.17876955849E+02  0.40659144179E+02  0.00000000000E+00 0. -1.
         11    1    3    3    0    0 -0.21123015671E+02  0.10573997539E+02  0.11519093894E+02  0.26280805532E+02  0.51100000000E-03 0.  1.
        -11    1    3    3    0    0 -0.12109821108E+02  0.11852350446E+02  0.13685451333E+01  0.16999967483E+02  0.51100000000E-03 0. -1.
         12    1    3    3    0    0  0.51720661447E+01  0.94400944285E+00  0.49893168213E+01  0.72480828070E+01  0.00000000000E+00 0. -1.
</event>
<event>
 7    1  0.2661323E-011  0.5052886E+02  0.7816164E-02  0.1300439E+00
        -11   -1    0    0    0    0  0.00000000000E+00  0.00000000000E+00  0.45593999997E+02  0.45594000000E+02  0.51100000000E-03 0. -1.
         11   -1    0    0    0    0 -0.00000000000E+00 -0.00000000000E+00 -0.45593999997E+02  0.45594000000E+02  0.51100000000E-03 0.  1.
    9900012    2    1    2    0    0  0.24229985212E+02 -0.27188505185E+02 -0.18079239009E+02  0.50528857354E+02  0.29999992414E+02 0.  0.
         12    1    1    2    0    0 -0.24229985212E+02  0.27188505185E+02  0.18079239009E+02  0.40659142646E+02  0.00000000000E+00 0. -1.
         11    1    3    3    0    0  0.18668433868E+01  0.35420748389E+00 -0.40701412487E+01  0.44918389572E+01  0.51100000000E-03 0. -1.
        -11    1    3    3    0    0 -0.22300123958E+00 -0.30074545749E+01 -0.12278901993E+02  0.12643810620E+02  0.51100000000E-03 0.  1.
        -12    1    3    3    0    0  0.22586143065E+02 -0.24535258094E+02 -0.17301957675E+01  0.33393207777E+02  0.00000000000E+00 0.  1.
</event>
<event>
 7    1  0.2661323E-011  0.5052887E+02  0.7816164E-02  0.1300439E+00
        -11   -1    0    0    0    0  0.00000000000E+00  0.00000000000E+00  0.45593999997E+02  0.45594000000E+02  0.51100000000E-03 0.  1.
         11   -1    0    0    0    0 -0.00000000000E+00 -0.00000000000E+00 -0.45593999997E+02  0.45594000000E+02  0.51100000000E-03 0. -1.
    9900012    2    1    2    0    0 -0.38243916309E+01  0.52750078905E+01  0.40133690273E+02  0.50528870957E+02  0.30000033761E+02 0.  0.
         12    1    1    2    0    0  0.38243916309E+01 -0.52750078905E+01 -0.40133690273E+02  0.40659129043E+02  0.00000000000E+00 0. -1.
         11    1    3    3    0    0 -0.21414475433E+01 -0.35076959847E+01  0.99456951255E+01  0.10761346593E+02  0.51100000000E-03 0. -1.
        -11    1    3    3    0    0 -0.56019271232E+01 -0.57497072136E+01  0.20111501823E+02  0.21654404318E+02  0.51100000000E-03 0.  1.
        -12    1    3    3    0    0  0.39189830355E+01  0.14532411089E+02  0.10076493324E+02  0.18113120046E+02  0.00000000000E+00 0.  1.
</event>
<event>
 7    1  0.2661323E-011  0.5052886E+02  0.7816164E-02  0.1300439E+00
        -11   -1    0    0    0    0  0.00000000000E+00  0.00000000000E+00  0.45593999997E+02  0.45594000000E+02  0.51100000000E-03 0.  1.
         11   -1    0    0    0    0 -0.00000000000E+00 -0.00000000000E+00 -0.45593999997E+02  0.45594000000E+02  0.51100000000E-03 0. -1.
    9900012    2    1    2    0    0 -0.37795769208E+02  0.14794663192E+02  0.24007682204E+01  0.50528856907E+02  0.29999991054E+02 0.  0.
         12    1    1    2    0    0  0.37795769208E+02 -0.14794663192E+02 -0.24007682204E+01  0.40659143093E+02  0.00000000000E+00 0. -1.
         11    1    3    3    0    0 -0.12538111451E+02  0.99070511308E+01 -0.90627429639E+01  0.18370825000E+02  0.51100000000E-03 0. -1.
        -11    1    3    3    0    0 -0.76279915615E+01 -0.93624021563E+00 -0.33717579479E+01  0.83923508580E+01  0.51100000000E-03 0.  1.
        -12    1    3    3    0    0 -0.17629666195E+02  0.58238522772E+01  0.14835269132E+02  0.23765681049E+02  0.00000000000E+00 0.  1.
</event>
<event>
 7    1  0.2661323E-011  0.5052886E+02  0.7816164E-02  0.1300439E+00
        -11   -1    0    0    0    0  0.00000000000E+00  0.00000000000E+00  0.45593999997E+02  0.45594000000E+02  0.51100000000E-03 0.  1.
         11   -1    0    0    0    0 -0.00000000000E+00 -0.00000000000E+00 -0.45593999997E+02  0.45594000000E+02  0.51100000000E-03 0. -1.
    9900012    2    1    2    0    0 -0.15825945693E+02 -0.64675689677E+01  0.36890046131E+02  0.50528861926E+02  0.30000006309E+02 0.  0.
         12    1    1    2    0    0  0.15825945693E+02  0.64675689677E+01 -0.36890046131E+02  0.40659138074E+02  0.00000000000E+00 0. -1.
         11    1    3    3    0    0 -0.34847490955E+01 -0.76489035803E+01  0.14996118485E+02  0.17191066637E+02  0.51100000000E-03 0. -1.
        -11    1    3    3    0    0  0.22146188066E+01  0.62374945634E+01  0.15120574403E+02  0.16505836708E+02  0.51100000000E-03 0.  1.
         12    1    3    3    0    0 -0.14555815404E+02 -0.50561599508E+01  0.67733532429E+01  0.16831958581E+02  0.00000000000E+00 0. -1.
</event>
<event>
 7    1  0.2661323E-011  0.5052886E+02  0.7816164E-02  0.1300439E+00
        -11   -1    0    0    0    0  0.00000000000E+00  0.00000000000E+00  0.45593999997E+02  0.45594000000E+02  0.51100000000E-03 0.  1.
         11   -1    0    0    0    0 -0.00000000000E+00 -0.00000000000E+00 -0.45593999997E+02  0.45594000000E+02  0.51100000000E-03 0. -1.
    9900012    2    1    2    0    0  0.27017767401E+02 -0.26082067555E+02  0.15586277062E+02  0.50528855445E+02  0.29999986611E+02 0.  0.
         12    1    1    2    0    0 -0.27017767401E+02  0.26082067555E+02 -0.15586277062E+02  0.40659144555E+02  0.00000000000E+00 0. -1.
         11    1    3    3    0    0 -0.32661489059E+01 -0.21460002491E+01  0.65747971293E+00  0.39629945217E+01  0.51100000000E-03 0. -1.
        -11    1    3    3    0    0 -0.11321305253E+01  0.25630491285E+01  0.21298890263E+01  0.35195692758E+01  0.51100000000E-03 0.  1.
        -12    1    3    3    0    0  0.31416046833E+02 -0.26499116434E+02  0.12798908322E+02  0.43046291648E+02  0.00000000000E+00 0.  1.
</event>
<event>
 7    1  0.2661323E-011  0.5052886E+02  0.7816164E-02  0.1300439E+00
        -11   -1    0    0    0    0  0.00000000000E+00  0.00000000000E+00  0.45593999997E+02  0.45594000000E+02  0.51100000000E-03 0. -1.
         11   -1    0    0    0    0 -0.00000000000E+00 -0.00000000000E+00 -0.45593999997E+02  0.45594000000E+02  0.51100000000E-03 0.  1.
    9900012    2    1    2    0    0 -0.57635750614E+01 -0.28041293016E+02  0.28872695058E+02  0.50528862879E+02  0.30000009207E+02 0.  0.
         12    1    1    2    0    0  0.57635750614E+01  0.28041293016E+02 -0.28872695058E+02  0.40659137121E+02  0.00000000000E+00 0. -1.
         11    1    3    3    0    0 -0.61791594173E-01 -0.89776764840E+01  0.13827805501E+01  0.90837533852E+01  0.51100000000E-03 0. -1.
        -11    1    3    3    0    0  0.51355304004E+01 -0.18268126687E+02  0.11753229162E+02  0.22321212359E+02  0.51100000000E-03 0.  1.
         12    1    3    3    0    0 -0.10837313868E+02 -0.79548984472E+00  0.15736685346E+02  0.19123897135E+02  0.00000000000E+00 0. -1.
</event>
<event>
 7    1  0.2661323E-011  0.5052886E+02  0.7816164E-02  0.1300439E+00
        -11   -1    0    0    0    0  0.00000000000E+00  0.00000000000E+00  0.45593999997E+02  0.45594000000E+02  0.51100000000E-03 0.  1.
         11   -1    0    0    0    0 -0.00000000000E+00 -0.00000000000E+00 -0.45593999997E+02  0.45594000000E+02  0.51100000000E-03 0. -1.
    9900012    2    1    2    0    0  0.41439402500E+01  0.87325278673E+01  0.39493499159E+02  0.50528858843E+02  0.29999996941E+02 0.  0.
         12    1    1    2    0    0 -0.41439402500E+01 -0.87325278673E+01 -0.39493499159E+02  0.40659141157E+02  0.00000000000E+00 0. -1.
         11    1    3    3    0    0 -0.44598177244E+01  0.71641699083E+01  0.20472793569E+02  0.22143861032E+02  0.51100000000E-03 0. -1.
        -11    1    3    3    0    0  0.73504997316E+01 -0.66248893988E+00  0.22719066978E+02  0.23887752981E+02  0.51100000000E-03 0.  1.
         12    1    3    3    0    0  0.12532582428E+01  0.22308468988E+01 -0.36983613877E+01  0.44972448303E+01  0.00000000000E+00 0. -1.
</event>
<event>
 7    1  0.2661323E-011  0.5052887E+02  0.7816164E-02  0.1300439E+00
        -11   -1    0    0    0    0  0.00000000000E+00  0.00000000000E+00  0.45593999997E+02  0.45594000000E+02  0.51100000000E-03 0. -1.
         11   -1    0    0    0    0 -0.00000000000E+00 -0.00000000000E+00 -0.45593999997E+02  0.45594000000E+02  0.51100000000E-03 0.  1.
    9900012    2    1    2    0    0  0.19069903391E+02  0.30980281556E+02 -0.18158344277E+02  0.50528873995E+02  0.30000042995E+02 0.  0.
         12    1    1    2    0    0 -0.19069903391E+02 -0.30980281556E+02  0.18158344277E+02  0.40659126005E+02  0.00000000000E+00 0. -1.
         11    1    3    3    0    0  0.19514192426E+02  0.15376132516E+02 -0.16566373546E+02  0.29860909061E+02  0.51100000000E-03 0.  1.
        -11    1    3    3    0    0  0.56652261538E+01  0.29467547891E+01  0.71303689177E+00  0.64254628651E+01  0.51100000000E-03 0. -1.
         12    1    3    3    0    0 -0.61095151884E+01  0.12657394250E+02 -0.23050076224E+01  0.14242502069E+02  0.00000000000E+00 0. -1.
</event>
<event>
 7    1  0.2661323E-011  0.5052886E+02  0.7816164E-02  0.1300439E+00
        -11   -1    0    0    0    0  0.00000000000E+00  0.00000000000E+00  0.45593999997E+02  0.45594000000E+02  0.51100000000E-03 0. -1.
         11   -1    0    0    0    0 -0.00000000000E+00 -0.00000000000E+00 -0.45593999997E+02  0.45594000000E+02  0.51100000000E-03 0.  1.
    9900012    2    1    2    0    0 -0.59697804982E+01  0.38560550705E+02 -0.11428526421E+02  0.50528861224E+02  0.30000004175E+02 0.  0.
         12    1    1    2    0    0  0.59697804982E+01 -0.38560550705E+02  0.11428526421E+02  0.40659138776E+02  0.00000000000E+00 0. -1.
         11    1    3    3    0    0  0.57516295787E+01  0.81004302868E+01  0.41216512154E+01  0.10755753002E+02  0.51100000000E-03 0. -1.
        -11    1    3    3    0    0 -0.10230729455E+01  0.22168137040E+02 -0.13780599989E+02  0.26122364257E+02  0.51100000000E-03 0.  1.
        -12    1    3    3    0    0 -0.10698337131E+02  0.82919833783E+01 -0.17695776480E+01  0.13650743964E+02  0.00000000000E+00 0.  1.
</event>
<event>
 7    1  0.2661323E-011  0.5052886E+02  0.7816164E-02  0.1300439E+00
        -11   -1    0    0    0    0  0.00000000000E+00  0.00000000000E+00  0.45593999997E+02  0.45594000000E+02  0.51100000000E-03 0.  1.
         11   -1    0    0    0    0 -0.00000000000E+00 -0.00000000000E+00 -0.45593999997E+02  0.45594000000E+02  0.51100000000E-03 0. -1.
    9900012    2    1    2    0    0  0.13472911251E+02  0.18843085984E+02  0.33415334729E+02  0.50528858076E+02  0.29999994607E+02 0.  0.
         12    1    1    2    0    0 -0.13472911251E+02 -0.18843085984E+02 -0.33415334729E+02  0.40659141924E+02  0.00000000000E+00 0. -1.
         11    1    3    3    0    0  0.84055935288E+01  0.17273387188E+02  0.32179371983E+02  0.37477138218E+02  0.51100000000E-03 0. -1.
        -11    1    3    3    0    0  0.30931172388E+01  0.56410585311E+01  0.41628960304E+01  0.76628075289E+01  0.51100000000E-03 0.  1.
         12    1    3    3    0    0  0.19742004831E+01 -0.40713597353E+01 -0.29269332840E+01  0.53889123291E+01  0.00000000000E+00 0. -1.
</event>
<event>
 7    1  0.2661323E-011  0.5052886E+02  0.7816164E-02  0.1300439E+00
        -11   -1    0    0    0    0  0.00000000000E+00  0.00000000000E+00  0.45593999997E+02  0.45594000000E+02  0.51100000000E-03 0.  1.
         11   -1    0    0    0    0 -0.00000000000E+00 -0.00000000000E+00 -0.45593999997E+02  0.45594000000E+02  0.51100000000E-03 0. -1.
    9900012    2    1    2    0    0  0.16348146856E+02 -0.14500293700E+02  0.34287687916E+02  0.50528856309E+02  0.29999989238E+02 0.  0.
         12    1    1    2    0    0 -0.16348146856E+02  0.14500293700E+02 -0.34287687916E+02  0.40659143691E+02  0.00000000000E+00 0. -1.
         11    1    3    3    0    0 -0.31484218936E+01 -0.56630005718E+01  0.59245949609E+01  0.87796902911E+01  0.51100000000E-03 0. -1.
        -11    1    3    3    0    0 -0.45096552692E+01 -0.34359375175E+01  0.30115773023E+01  0.64196772022E+01  0.51100000000E-03 0.  1.
        -12    1    3    3    0    0  0.24006224019E+02 -0.54013556112E+01  0.25351515653E+02  0.35329488816E+02  0.00000000000E+00 0.  1.
</event>
<event>
 7    1  0.2661323E-011  0.5052887E+02  0.7816164E-02  0.1300439E+00
        -11   -1    0    0    0    0  0.00000000000E+00  0.00000000000E+00  0.45593999997E+02  0.45594000000E+02  0.51100000000E-03 0. -1.
         11   -1    0    0    0    0 -0.00000000000E+00 -0.00000000000E+00 -0.45593999997E+02  0.45594000000E+02  0.51100000000E-03 0.  1.
    9900012    2    1    2    0    0 -0.38864806412E+01 -0.21900956458E+02 -0.34035399259E+02  0.50528867836E+02  0.30000024275E+02 0.  0.
         12    1    1    2    0    0  0.38864806412E+01  0.21900956458E+02  0.34035399259E+02  0.40659132164E+02  0.00000000000E+00 0. -1.
         11    1    3    3    0    0  0.48371877520E+01 -0.24277112079E+01 -0.54119374982E+00  0.54392148324E+01  0.51100000000E-03 0. -1.
        -11    1    3    3    0    0 -0.44210902653E+01 -0.42059524143E+01  0.18274217670E+01  0.63698936742E+01  0.51100000000E-03 0.  1.
        -12    1    3    3    0    0 -0.43025781279E+01 -0.15267292836E+02 -0.35321627277E+02  0.38719759330E+02  0.00000000000E+00 0.  1.
</event>
<event>
 7    1  0.2661323E-011  0.5052885E+02  0.7816164E-02  0.1300439E+00
        -11   -1    0    0    0    0  0.00000000000E+00  0.00000000000E+00  0.45593999997E+02  0.45594000000E+02  0.51100000000E-03 0.  1.
         11   -1    0    0    0    0 -0.00000000000E+00 -0.00000000000E+00 -0.45593999997E+02  0.45594000000E+02  0.51100000000E-03 0. -1.
    9900012    2    1    2    0    0 -0.18984816224E+02 -0.21318267970E+02  0.28952966744E+02  0.50528854909E+02  0.29999984981E+02 0.  0.
         12    1    1    2    0    0  0.18984816224E+02  0.21318267970E+02 -0.28952966744E+02  0.40659145091E+02  0.00000000000E+00 0. -1.
         11    1    3    3    0    0 -0.59718592341E+01  0.27589047686E+00  0.44580913154E+01  0.74574658367E+01  0.51100000000E-03 0. -1.
        -11    1    3    3    0    0 -0.17177170337E+02 -0.65570347105E+01  0.19226753723E+02  0.26602968706E+02  0.51100000000E-03 0.  1.
         12    1    3    3    0    0  0.41642133473E+01 -0.15037123736E+02  0.52681217052E+01  0.16468420366E+02  0.00000000000E+00 0. -1.
</event>
<event>
 7    1  0.2661323E-011  0.5052885E+02  0.7816164E-02  0.1300439E+00
        -11   -1    0    0    0    0  0.00000000000E+00  0.00000000000E+00  0.45593999997E+02  0.45594000000E+02  0.51100000000E-03 0.  1.
         11   -1    0    0    0    0 -0.00000000000E+00 -0.00000000000E+00 -0.45593999997E+02  0.45594000000E+02  0.51100000000E-03 0. -1.
    9900012    2    1    2    0    0 -0.65546512737E+01  0.22692729892E+02  0.33094454964E+02  0.50528851059E+02  0.29999973279E+02 0.  0.
         12    1    1    2    0    0  0.65546512737E+01 -0.22692729892E+02 -0.33094454964E+02  0.40659148941E+02  0.00000000000E+00 0. -1.
         11    1    3    3    0    0 -0.24416370504E+01  0.40638280012E+01  0.23822873071E+02  0.24290030283E+02  0.51100000000E-03 0.  1.
        -11    1    3    3    0    0  0.19292285493E+01 -0.73396722588E+00 -0.21334808839E+01  0.29685638998E+01  0.51100000000E-03 0. -1.
        -12    1    3    3    0    0 -0.60422427727E+01  0.19362869117E+02  0.11405062776E+02  0.23270256876E+02  0.00000000000E+00 0.  1.
</event>
<event>
 7    1  0.2661323E-011  0.5052882E+02  0.7816164E-02  0.1300439E+00
        -11   -1    0    0    0    0  0.00000000000E+00  0.00000000000E+00  0.45593999997E+02  0.45594000000E+02  0.51100000000E-03 0. -1.
         11   -1    0    0    0    0 -0.00000000000E+00 -0.00000000000E+00 -0.45593999997E+02  0.45594000000E+02  0.51100000000E-03 0.  1.
    9900012    2    1    2    0    0  0.22018972850E+02  0.26400133102E+02 -0.21710978887E+02  0.50528821486E+02  0.29999883390E+02 0.  0.
         12    1    1    2    0    0 -0.22018972850E+02 -0.26400133102E+02  0.21710978887E+02  0.40659178514E+02  0.00000000000E+00 0. -1.
         11    1    3    3    0    0  0.10225268239E+02  0.19993899185E+02 -0.16921768579E+02  0.28118648034E+02  0.51100000000E-03 0. -1.
        -11    1    3    3    0    0  0.40576203587E+01  0.84424630538E+01 -0.93224432609E+01  0.13215423338E+02  0.51100000000E-03 0.  1.
         12    1    3    3    0    0  0.77360842523E+01 -0.20362291373E+01  0.45332329522E+01  0.91947501139E+01  0.00000000000E+00 0. -1.
</event>
<event>
 7    1  0.2661323E-011  0.5052886E+02  0.7816164E-02  0.1300439E+00
        -11   -1    0    0    0    0  0.00000000000E+00  0.00000000000E+00  0.45593999997E+02  0.45594000000E+02  0.51100000000E-03 0. -1.
         11   -1    0    0    0    0 -0.00000000000E+00 -0.00000000000E+00 -0.45593999997E+02  0.45594000000E+02  0.51100000000E-03 0.  1.
    9900012    2    1    2    0    0 -0.11674803507E+02  0.26755772798E+02 -0.28301825258E+02  0.50528859233E+02  0.29999998125E+02 0.  0.
         12    1    1    2    0    0  0.11674803507E+02 -0.26755772798E+02  0.28301825258E+02  0.40659140767E+02  0.00000000000E+00 0. -1.
         11    1    3    3    0    0  0.21570808652E+01  0.24344119934E+02 -0.14927605191E+02  0.28637782216E+02  0.51100000000E-03 0. -1.
        -11    1    3    3    0    0  0.27963282175E+00  0.22241667787E+01  0.27398779910E+00  0.22583582421E+01  0.51100000000E-03 0.  1.
        -12    1    3    3    0    0 -0.14111517194E+02  0.18748608463E+00 -0.13648207867E+02  0.19632718776E+02  0.00000000000E+00 0.  1.
</event>
<event>
 7    1  0.2661323E-011  0.5052886E+02  0.7816164E-02  0.1300439E+00
        -11   -1    0    0    0    0  0.00000000000E+00  0.00000000000E+00  0.45593999997E+02  0.45594000000E+02  0.51100000000E-03 0.  1.
         11   -1    0    0    0    0 -0.00000000000E+00 -0.00000000000E+00 -0.45593999997E+02  0.45594000000E+02  0.51100000000E-03 0. -1.
    9900012    2    1    2    0    0  0.43379340650E+01 -0.31260407821E+02  0.25634649455E+02  0.50528855619E+02  0.29999987141E+02 0.  0.
         12    1    1    2    0    0 -0.43379340650E+01  0.31260407821E+02 -0.25634649455E+02  0.40659144381E+02  0.00000000000E+00 0. -1.
         11    1    3    3    0    0 -0.11245138317E+02 -0.94599411343E+01  0.44666056912E+01  0.15358847245E+02  0.51100000000E-03 0. -1.
        -11    1    3    3    0    0  0.51970134594E+00 -0.62458892278E+00 -0.80115193023E+00  0.11410720783E+01  0.51100000000E-03 0.  1.
        -12    1    3    3    0    0  0.15063371036E+02 -0.21175877764E+02  0.21969195694E+02  0.34028936296E+02  0.00000000000E+00 0.  1.
</event>
<event>
 7    1  0.2661323E-011  0.5052887E+02  0.7816164E-02  0.1300439E+00
        -11   -1    0    0    0    0  0.00000000000E+00  0.00000000000E+00  0.45593999997E+02  0.45594000000E+02  0.51100000000E-03 0. -1.
         11   -1    0    0    0    0 -0.00000000000E+00 -0.00000000000E+00 -0.45593999997E+02  0.45594000000E+02  0.51100000000E-03 0.  1.
    9900012    2    1    2    0    0 -0.39023749682E+02  0.28994046160E+01 -0.11041078906E+02  0.50528868064E+02  0.30000024969E+02 0.  0.
         12    1    1    2    0    0  0.39023749682E+02 -0.28994046160E+01  0.11041078906E+02  0.40659131936E+02  0.00000000000E+00 0. -1.
         11    1    3    3    0    0 -0.66623570839E+01 -0.77105962749E+01  0.15761314562E+00  0.10191424777E+02  0.51100000000E-03 0. -1.
        -11    1    3    3    0    0  0.76730587757E+00  0.16030093389E+01  0.27552747007E+01  0.32787095309E+01  0.51100000000E-03 0.  1.
        -12    1    3    3    0    0 -0.33128698475E+02  0.90069915520E+01 -0.13953966752E+02  0.37058733756E+02  0.00000000000E+00 0.  1.
</event>
<event>
 7    1  0.2661323E-011  0.5052887E+02  0.7816164E-02  0.1300439E+00
        -11   -1    0    0    0    0  0.00000000000E+00  0.00000000000E+00  0.45593999997E+02  0.45594000000E+02  0.51100000000E-03 0.  1.
         11   -1    0    0    0    0 -0.00000000000E+00 -0.00000000000E+00 -0.45593999997E+02  0.45594000000E+02  0.51100000000E-03 0. -1.
    9900012    2    1    2    0    0  0.22391293630E+02  0.26397113455E+02  0.21330434254E+02  0.50528867512E+02  0.30000023290E+02 0.  0.
         12    1    1    2    0    0 -0.22391293630E+02 -0.26397113455E+02 -0.21330434254E+02  0.40659132488E+02  0.00000000000E+00 0. -1.
         11    1    3    3    0    0  0.97807100982E+00  0.48287436860E+01 -0.10238749407E+01  0.50320680282E+01  0.51100000000E-03 0. -1.
        -11    1    3    3    0    0  0.94933830328E+01  0.58462505334E+01 -0.46272130565E+01  0.12071208210E+02  0.51100000000E-03 0.  1.
        -12    1    3    3    0    0  0.11919839587E+02  0.15722119236E+02  0.26981522251E+02  0.33425591274E+02  0.00000000000E+00 0.  1.
</event>
<event>
 7    1  0.2661323E-011  0.5052886E+02  0.7816164E-02  0.1300439E+00
        -11   -1    0    0    0    0  0.00000000000E+00  0.00000000000E+00  0.45593999997E+02  0.45594000000E+02  0.51100000000E-03 0.  1.
         11   -1    0    0    0    0 -0.00000000000E+00 -0.00000000000E+00 -0.45593999997E+02  0.45594000000E+02  0.51100000000E-03 0. -1.
    9900012    2    1    2    0    0 -0.31594443780E+02 -0.74864368265E+01  0.24472636320E+02  0.50528861512E+02  0.30000005052E+02 0.  0.
         12    1    1    2    0    0  0.31594443780E+02  0.74864368265E+01 -0.24472636320E+02  0.40659138488E+02  0.00000000000E+00 0. -1.
         11    1    3    3    0    0 -0.33489220793E+01 -0.19951486386E+01  0.28651024255E+00  0.39087063798E+01  0.51100000000E-03 0. -1.
        -11    1    3    3    0    0 -0.34675974106E+01 -0.58723948717E+01 -0.49084835149E+01  0.84025272393E+01  0.51100000000E-03 0.  1.
        -12    1    3    3    0    0 -0.24777924290E+02  0.38110668379E+00  0.29094609592E+02  0.38217627893E+02  0.00000000000E+00 0.  1.
</event>
<event>
 7    1  0.2661323E-011  0.5052886E+02  0.7816164E-02  0.1300439E+00
        -11   -1    0    0    0    0  0.00000000000E+00  0.00000000000E+00  0.45593999997E+02  0.45594000000E+02  0.51100000000E-03 0.  1.
         11   -1    0    0    0    0 -0.00000000000E+00 -0.00000000000E+00 -0.45593999997E+02  0.45594000000E+02  0.51100000000E-03 0. -1.
    9900012    2    1    2    0    0 -0.29731697436E+02  0.13667758293E+01  0.27700613886E+02  0.50528856892E+02  0.29999991008E+02 0.  0.
         12    1    1    2    0    0  0.29731697436E+02 -0.13667758293E+01 -0.27700613886E+02  0.40659143108E+02  0.00000000000E+00 0. -1.
         11    1    3    3    0    0 -0.11295742463E+02 -0.69094163680E+01  0.11932328486E+02  0.17824541949E+02  0.51100000000E-03 0. -1.
        -11    1    3    3    0    0 -0.83810106366E+01 -0.53069881507E+00  0.17319541092E+02  0.19248103398E+02  0.51100000000E-03 0.  1.
        -12    1    3    3    0    0 -0.10054944337E+02  0.88068910124E+01 -0.15512556913E+01  0.13456211545E+02  0.00000000000E+00 0.  1.
</event>
<event>
 7    1  0.2661323E-011  0.5052886E+02  0.7816164E-02  0.1300439E+00
        -11   -1    0    0    0    0  0.00000000000E+00  0.00000000000E+00  0.45593999997E+02  0.45594000000E+02  0.51100000000E-03 0. -1.
         11   -1    0    0    0    0 -0.00000000000E+00 -0.00000000000E+00 -0.45593999997E+02  0.45594000000E+02  0.51100000000E-03 0.  1.
    9900012    2    1    2    0    0  0.31953843915E+02 -0.18177322907E+01 -0.25076150341E+02  0.50528860713E+02  0.30000002622E+02 0.  0.
         12    1    1    2    0    0 -0.31953843915E+02  0.18177322907E+01  0.25076150341E+02  0.40659139287E+02  0.00000000000E+00 0. -1.
         11    1    3    3    0    0  0.14975753470E+02 -0.71117937178E+01 -0.34470830051E-01  0.16578660693E+02  0.51100000000E-03 0. -1.
        -11    1    3    3    0    0  0.24261311872E+01  0.25346058225E+01  0.12904224729E+01  0.37383859663E+01  0.51100000000E-03 0.  1.
         12    1    3    3    0    0  0.14551959259E+02  0.27594556045E+01 -0.26332101984E+02  0.30211814053E+02  0.00000000000E+00 0. -1.
</event>
<event>
 7    1  0.2661323E-011  0.5052886E+02  0.7816164E-02  0.1300439E+00
        -11   -1    0    0    0    0  0.00000000000E+00  0.00000000000E+00  0.45593999997E+02  0.45594000000E+02  0.51100000000E-03 0.  1.
         11   -1    0    0    0    0 -0.00000000000E+00 -0.00000000000E+00 -0.45593999997E+02  0.45594000000E+02  0.51100000000E-03 0. -1.
    9900012    2    1    2    0    0  0.21098583563E+02 -0.20178857667E+01  0.34697887416E+02  0.50528862251E+02  0.30000007299E+02 0.  0.
         12    1    1    2    0    0 -0.21098583563E+02  0.20178857667E+01 -0.34697887416E+02  0.40659137749E+02  0.00000000000E+00 0. -1.
         11    1    3    3    0    0  0.18521835487E+02 -0.50076517402E+01  0.20242610878E+02  0.27890827545E+02  0.51100000000E-03 0. -1.
        -11    1    3    3    0    0  0.82064650755E+01  0.25690361476E+01  0.14652180888E+02  0.16989185407E+02  0.51100000000E-03 0.  1.
         12    1    3    3    0    0 -0.56297169988E+01  0.42072982594E+00 -0.19690435032E+00  0.56488492984E+01  0.00000000000E+00 0. -1.
</event>
<event>
 7    1  0.2661323E-011  0.5052886E+02  0.7816164E-02  0.1300439E+00
        -11   -1    0    0    0    0  0.00000000000E+00  0.00000000000E+00  0.45593999997E+02  0.45594000000E+02  0.51100000000E-03 0.  1.
         11   -1    0    0    0    0 -0.00000000000E+00 -0.00000000000E+00 -0.45593999997E+02  0.45594000000E+02  0.51100000000E-03 0. -1.
    9900012    2    1    2    0    0 -0.27795898752E+02 -0.29577264345E+02  0.23955847647E+01  0.50528863512E+02  0.30000011133E+02 0.  0.
         12    1    1    2    0    0  0.27795898752E+02  0.29577264345E+02 -0.23955847647E+01  0.40659136488E+02  0.00000000000E+00 0. -1.
         11    1    3    3    0    0 -0.13073502038E+02 -0.13898639993E+02 -0.42736723274E+01  0.19553846798E+02  0.51100000000E-03 0. -1.
        -11    1    3    3    0    0 -0.69929443419E+01 -0.96997047069E+01 -0.72381626107E+01  0.13977715844E+02  0.51100000000E-03 0.  1.
        -12    1    3    3    0    0 -0.77294523722E+01 -0.59789196453E+01  0.13907419703E+02  0.16997300871E+02  0.00000000000E+00 0.  1.
</event>
<event>
 7    1  0.2661323E-011  0.5052886E+02  0.7816164E-02  0.1300439E+00
        -11   -1    0    0    0    0  0.00000000000E+00  0.00000000000E+00  0.45593999997E+02  0.45594000000E+02  0.51100000000E-03 0.  1.
         11   -1    0    0    0    0 -0.00000000000E+00 -0.00000000000E+00 -0.45593999997E+02  0.45594000000E+02  0.51100000000E-03 0. -1.
    9900012    2    1    2    0    0  0.82014062803E+01 -0.20653215252E+02  0.34049192981E+02  0.50528857020E+02  0.29999991397E+02 0.  0.
         12    1    1    2    0    0 -0.82014062803E+01  0.20653215252E+02 -0.34049192981E+02  0.40659142980E+02  0.00000000000E+00 0. -1.
         11    1    3    3    0    0 -0.48973654589E+01  0.25284632329E+01  0.39715784298E+01  0.67934343482E+01  0.51100000000E-03 0. -1.
        -11    1    3    3    0    0 -0.29097437556E+01 -0.73198716781E+00  0.75686574077E+01  0.81416822066E+01  0.51100000000E-03 0.  1.
        -12    1    3    3    0    0  0.16008515495E+02 -0.22449691318E+02  0.22508957143E+02  0.35593740465E+02  0.00000000000E+00 0.  1.
</event>
<event>
 7    1  0.2661323E-011  0.5052884E+02  0.7816164E-02  0.1300439E+00
        -11   -1    0    0    0    0  0.00000000000E+00  0.00000000000E+00  0.45593999997E+02  0.45594000000E+02  0.51100000000E-03 0.  1.
         11   -1    0    0    0    0 -0.00000000000E+00 -0.00000000000E+00 -0.45593999997E+02  0.45594000000E+02  0.51100000000E-03 0. -1.
    9900012    2    1    2    0    0 -0.57705339156E+01  0.33343837288E+02  0.22540110444E+02  0.50528842045E+02  0.29999945881E+02 0.  0.
         12    1    1    2    0    0  0.57705339156E+01 -0.33343837288E+02 -0.22540110444E+02  0.40659157955E+02  0.00000000000E+00 0. -1.
         11    1    3    3    0    0 -0.50438151947E+01  0.12370570390E+02  0.10521552034E+02  0.17005121022E+02  0.51100000000E-03 0. -1.
        -11    1    3    3    0    0 -0.10910618169E+02  0.10747732034E+02  0.11375601341E+02  0.19077726249E+02  0.51100000000E-03 0.  1.
         12    1    3    3    0    0  0.10183899449E+02  0.10225534864E+02  0.64295706889E+00  0.14445994774E+02  0.00000000000E+00 0. -1.
</event>
<event>
 7    1  0.2661323E-011  0.5052885E+02  0.7816164E-02  0.1300439E+00
        -11   -1    0    0    0    0  0.00000000000E+00  0.00000000000E+00  0.45593999997E+02  0.45594000000E+02  0.51100000000E-03 0.  1.
         11   -1    0    0    0    0 -0.00000000000E+00 -0.00000000000E+00 -0.45593999997E+02  0.45594000000E+02  0.51100000000E-03 0. -1.
    9900012    2    1    2    0    0  0.14109866672E+02 -0.33668738333E+02  0.17902342464E+02  0.50528854115E+02  0.29999982567E+02 0.  0.
         12    1    1    2    0    0 -0.14109866672E+02  0.33668738333E+02 -0.17902342464E+02  0.40659145885E+02  0.00000000000E+00 0. -1.
         11    1    3    3    0    0  0.15043351477E+02 -0.14980099510E+02 -0.21785466902E+01  0.21341318398E+02  0.51100000000E-03 0. -1.
        -11    1    3    3    0    0  0.21114038063E+01 -0.25011738531E+01  0.75854415799E-01  0.32740877859E+01  0.51100000000E-03 0.  1.
        -12    1    3    3    0    0 -0.30448886117E+01 -0.16187464969E+02  0.20005034738E+02  0.25913447931E+02  0.00000000000E+00 0.  1.
</event>
<event>
 7    1  0.2661323E-011  0.5052886E+02  0.7816164E-02  0.1300439E+00
        -11   -1    0    0    0    0  0.00000000000E+00  0.00000000000E+00  0.45593999997E+02  0.45594000000E+02  0.51100000000E-03 0. -1.
         11   -1    0    0    0    0 -0.00000000000E+00 -0.00000000000E+00 -0.45593999997E+02  0.45594000000E+02  0.51100000000E-03 0.  1.
    9900012    2    1    2    0    0 -0.37490552980E+02 -0.54961559007E+01 -0.14745047923E+02  0.50528859199E+02  0.29999998021E+02 0.  0.
         12    1    1    2    0    0  0.37490552980E+02  0.54961559007E+01  0.14745047923E+02  0.40659140801E+02  0.00000000000E+00 0. -1.
         11    1    3    3    0    0 -0.56281798820E+01 -0.99068999808E+01 -0.94356238580E+01  0.14793717378E+02  0.51100000000E-03 0. -1.
        -11    1    3    3    0    0 -0.95585285522E+01  0.45389666586E+01 -0.80054631576E+01  0.13268576677E+02  0.51100000000E-03 0.  1.
         12    1    3    3    0    0 -0.22303844546E+02 -0.12822257843E+00  0.26960390922E+01  0.22466565143E+02  0.00000000000E+00 0. -1.
</event>
<event>
 7    1  0.2661323E-011  0.5052886E+02  0.7816164E-02  0.1300439E+00
        -11   -1    0    0    0    0  0.00000000000E+00  0.00000000000E+00  0.45593999997E+02  0.45594000000E+02  0.51100000000E-03 0. -1.
         11   -1    0    0    0    0 -0.00000000000E+00 -0.00000000000E+00 -0.45593999997E+02  0.45594000000E+02  0.51100000000E-03 0.  1.
    9900012    2    1    2    0    0  0.37897646225E+02 -0.14720066789E+02  0.50403004308E+00  0.50528855863E+02  0.29999987882E+02 0.  0.
         12    1    1    2    0    0 -0.37897646225E+02  0.14720066789E+02 -0.50403004308E+00  0.40659144137E+02  0.00000000000E+00 0. -1.
         11    1    3    3    0    0  0.20550235967E+01  0.38730521008E+01  0.11201196140E-01  0.43844931619E+01  0.51100000000E-03 0. -1.
        -11    1    3    3    0    0  0.45029231369E+01  0.99405948369E+00  0.72326508734E+01  0.85776284573E+01  0.51100000000E-03 0.  1.
        -12    1    3    3    0    0  0.31339699491E+02 -0.19587178373E+02 -0.67398220264E+01  0.37566734244E+02  0.00000000000E+00 0.  1.
</event>
<event>
 7    1  0.2661323E-011  0.5052897E+02  0.7816164E-02  0.1300438E+00
        -11   -1    0    0    0    0  0.00000000000E+00  0.00000000000E+00  0.45593999997E+02  0.45594000000E+02  0.51100000000E-03 0. -1.
         11   -1    0    0    0    0 -0.00000000000E+00 -0.00000000000E+00 -0.45593999997E+02  0.45594000000E+02  0.51100000000E-03 0.  1.
    9900012    2    1    2    0    0 -0.15244089569E+02 -0.37648131284E+02  0.18419341576E+01  0.50528969301E+02  0.30000332685E+02 0.  0.
         12    1    1    2    0    0  0.15244089569E+02  0.37648131284E+02 -0.18419341576E+01  0.40659030699E+02  0.00000000000E+00 0. -1.
         11    1    3    3    0    0  0.52371218852E+01 -0.10409529305E+02 -0.15108396623E+01  0.11750250326E+02  0.51100000000E-03 0. -1.
        -11    1    3    3    0    0  0.30844776787E+01 -0.28292829277E+01  0.24250810565E+01  0.48373404705E+01  0.51100000000E-03 0.  1.
        -12    1    3    3    0    0 -0.23565689133E+02 -0.24409319052E+02  0.92769276332E+00  0.33941378504E+02  0.00000000000E+00 0.  1.
</event>
<event>
 7    1  0.2661323E-011  0.5052887E+02  0.7816164E-02  0.1300439E+00
        -11   -1    0    0    0    0  0.00000000000E+00  0.00000000000E+00  0.45593999997E+02  0.45594000000E+02  0.51100000000E-03 0.  1.
         11   -1    0    0    0    0 -0.00000000000E+00 -0.00000000000E+00 -0.45593999997E+02  0.45594000000E+02  0.51100000000E-03 0. -1.
    9900012    2    1    2    0    0  0.39091489456E+02 -0.11181225944E+02 -0.13826889708E-01  0.50528873686E+02  0.30000042054E+02 0.  0.
         12    1    1    2    0    0 -0.39091489456E+02  0.11181225944E+02  0.13826889708E-01  0.40659126314E+02  0.00000000000E+00 0. -1.
         11    1    3    3    0    0  0.95360957749E+01  0.36972258827E+01 -0.58550532099E+01  0.11785085923E+02  0.51100000000E-03 0. -1.
        -11    1    3    3    0    0  0.12860323249E+02  0.30132062644E+01 -0.12453959052E+01  0.13267190256E+02  0.51100000000E-03 0.  1.
         12    1    3    3    0    0  0.16695070432E+02 -0.17891658091E+02  0.70866222254E+01  0.25476597507E+02  0.00000000000E+00 0. -1.
</event>
<event>
 7    1  0.2661323E-011  0.5052886E+02  0.7816164E-02  0.1300439E+00
        -11   -1    0    0    0    0  0.00000000000E+00  0.00000000000E+00  0.45593999997E+02  0.45594000000E+02  0.51100000000E-03 0.  1.
         11   -1    0    0    0    0 -0.00000000000E+00 -0.00000000000E+00 -0.45593999997E+02  0.45594000000E+02  0.51100000000E-03 0. -1.
    9900012    2    1    2    0    0 -0.12632192626E+02 -0.36573287714E+02 -0.12489523145E+02  0.50528857693E+02  0.29999993445E+02 0.  0.
         12    1    1    2    0    0  0.12632192626E+02  0.36573287714E+02  0.12489523145E+02  0.40659142307E+02  0.00000000000E+00 0. -1.
         11    1    3    3    0    0  0.54257557316E+01  0.61318043159E-01 -0.24894543290E+01  0.59699219659E+01  0.51100000000E-03 0. -1.
        -11    1    3    3    0    0 -0.13723251399E+00  0.18216781770E+00  0.19035280343E+01  0.19171429564E+01  0.51100000000E-03 0.  1.
        -12    1    3    3    0    0 -0.17920715843E+02 -0.36816773574E+02 -0.11903596850E+02  0.42641792771E+02  0.00000000000E+00 0.  1.
</event>
<event>
 7    1  0.2661323E-011  0.5052886E+02  0.7816164E-02  0.1300439E+00
        -11   -1    0    0    0    0  0.00000000000E+00  0.00000000000E+00  0.45593999997E+02  0.45594000000E+02  0.51100000000E-03 0. -1.
         11   -1    0    0    0    0 -0.00000000000E+00 -0.00000000000E+00 -0.45593999997E+02  0.45594000000E+02  0.51100000000E-03 0.  1.
    9900012    2    1    2    0    0  0.22609367925E+02 -0.31368960334E+02 -0.12568615988E+02  0.50528864517E+02  0.30000014185E+02 0.  0.
         12    1    1    2    0    0 -0.22609367925E+02  0.31368960334E+02  0.12568615988E+02  0.40659135483E+02  0.00000000000E+00 0. -1.
         11    1    3    3    0    0  0.49115423256E+01  0.25077717113E+01 -0.55575609704E+01  0.78293455137E+01  0.51100000000E-03 0. -1.
        -11    1    3    3    0    0  0.20503749607E+02 -0.25591540029E+02 -0.25793536035E+01  0.32893521159E+02  0.51100000000E-03 0.  1.
         12    1    3    3    0    0 -0.28059240075E+01 -0.82851920170E+01 -0.44317014140E+01  0.98059978440E+01  0.00000000000E+00 0. -1.
</event>
<event>
 7    1  0.2661323E-011  0.5052885E+02  0.7816164E-02  0.1300439E+00
        -11   -1    0    0    0    0  0.00000000000E+00  0.00000000000E+00  0.45593999997E+02  0.45594000000E+02  0.51100000000E-03 0.  1.
         11   -1    0    0    0    0 -0.00000000000E+00 -0.00000000000E+00 -0.45593999997E+02  0.45594000000E+02  0.51100000000E-03 0. -1.
    9900012    2    1    2    0    0  0.14927544926E+02  0.33035192206E+02  0.18412253479E+02  0.50528848511E+02  0.29999965535E+02 0.  0.
         12    1    1    2    0    0 -0.14927544926E+02 -0.33035192206E+02 -0.18412253479E+02  0.40659151489E+02  0.00000000000E+00 0. -1.
         11    1    3    3    0    0 -0.70481696911E+00 -0.19040304898E+01  0.88431076725E+00  0.22145213614E+01  0.51100000000E-03 0. -1.
        -11    1    3    3    0    0  0.39687599684E+00  0.36874470628E+01  0.12678783655E+02  0.13210084467E+02  0.51100000000E-03 0.  1.
        -12    1    3    3    0    0  0.15235485898E+02  0.31251775633E+02  0.48491590568E+01  0.35104242683E+02  0.00000000000E+00 0.  1.
</event>
<event>
 7    1  0.2661323E-011  0.5052886E+02  0.7816164E-02  0.1300439E+00
        -11   -1    0    0    0    0  0.00000000000E+00  0.00000000000E+00  0.45593999997E+02  0.45594000000E+02  0.51100000000E-03 0.  1.
         11   -1    0    0    0    0 -0.00000000000E+00 -0.00000000000E+00 -0.45593999997E+02  0.45594000000E+02  0.51100000000E-03 0. -1.
    9900012    2    1    2    0    0 -0.94363019460E+01 -0.11633022337E+02  0.37799395012E+02  0.50528864908E+02  0.30000015375E+02 0.  0.
         12    1    1    2    0    0  0.94363019460E+01  0.11633022337E+02 -0.37799395012E+02  0.40659135092E+02  0.00000000000E+00 0. -1.
         11    1    3    3    0    0 -0.35685822218E+01 -0.48413384616E+01  0.89798471440E+01  0.10807913405E+02  0.51100000000E-03 0. -1.
        -11    1    3    3    0    0 -0.97302536903E+01 -0.15010798074E+02  0.15929731302E+02  0.23953251039E+02  0.51100000000E-03 0.  1.
         12    1    3    3    0    0  0.38625339661E+01  0.82191141985E+01  0.12889816566E+02  0.15767700465E+02  0.00000000000E+00 0. -1.
</event>
<event>
 7    1  0.2661323E-011  0.5052887E+02  0.7816164E-02  0.1300439E+00
        -11   -1    0    0    0    0  0.00000000000E+00  0.00000000000E+00  0.45593999997E+02  0.45594000000E+02  0.51100000000E-03 0.  1.
         11   -1    0    0    0    0 -0.00000000000E+00 -0.00000000000E+00 -0.45593999997E+02  0.45594000000E+02  0.51100000000E-03 0. -1.
    9900012    2    1    2    0    0 -0.29562497354E+02  0.27687138588E+02 -0.35561641807E+01  0.50528865766E+02  0.30000017982E+02 0.  0.
         12    1    1    2    0    0  0.29562497354E+02 -0.27687138588E+02  0.35561641807E+01  0.40659134234E+02  0.00000000000E+00 0. -1.
         11    1    3    3    0    0 -0.18420288588E+02  0.87515281242E+00  0.65916440945E+00  0.18452843198E+02  0.51100000000E-03 0. -1.
        -11    1    3    3    0    0 -0.40197029566E+01  0.12635146534E+02  0.44655541137E+01  0.13990929690E+02  0.51100000000E-03 0.  1.
         12    1    3    3    0    0 -0.71225058100E+01  0.14176839242E+02 -0.86808827039E+01  0.18085092878E+02  0.00000000000E+00 0. -1.
</event>
<event>
 7    1  0.2661323E-011  0.5052886E+02  0.7816164E-02  0.1300439E+00
        -11   -1    0    0    0    0  0.00000000000E+00  0.00000000000E+00  0.45593999997E+02  0.45594000000E+02  0.51100000000E-03 0.  1.
         11   -1    0    0    0    0 -0.00000000000E+00 -0.00000000000E+00 -0.45593999997E+02  0.45594000000E+02  0.51100000000E-03 0. -1.
    9900012    2    1    2    0    0  0.17574495858E+02  0.12785173757E+02  0.34363381997E+02  0.50528860869E+02  0.30000003096E+02 0.  0.
         12    1    1    2    0    0 -0.17574495858E+02 -0.12785173757E+02 -0.34363381997E+02  0.40659139131E+02  0.00000000000E+00 0. -1.
         11    1    3    3    0    0 -0.21714143353E+01 -0.16321795352E+01  0.76928241529E+01  0.81583450503E+01  0.51100000000E-03 0. -1.
        -11    1    3    3    0    0  0.46700315874E+01 -0.22219953742E+01  0.17271805975E+02  0.18029468666E+02  0.51100000000E-03 0.  1.
         12    1    3    3    0    0  0.15075878605E+02  0.16639348667E+02  0.93987518687E+01  0.24341047152E+02  0.00000000000E+00 0. -1.
</event>
<event>
 7    1  0.2661323E-011  0.5052886E+02  0.7816164E-02  0.1300439E+00
        -11   -1    0    0    0    0  0.00000000000E+00  0.00000000000E+00  0.45593999997E+02  0.45594000000E+02  0.51100000000E-03 0. -1.
         11   -1    0    0    0    0 -0.00000000000E+00 -0.00000000000E+00 -0.45593999997E+02  0.45594000000E+02  0.51100000000E-03 0.  1.
    9900012    2    1    2    0    0  0.29377256854E+02  0.16756875536E+02  0.22568775085E+02  0.50528859492E+02  0.29999998912E+02 0.  0.
         12    1    1    2    0    0 -0.29377256854E+02 -0.16756875536E+02 -0.22568775085E+02  0.40659140508E+02  0.00000000000E+00 0. -1.
         11    1    3    3    0    0 -0.50525535950E-01  0.97691730026E+01  0.53582550204E+01  0.11142270465E+02  0.51100000000E-03 0. -1.
        -11    1    3    3    0    0  0.41849339938E+01  0.88488089840E+01  0.72711979076E+01  0.12193662790E+02  0.51100000000E-03 0.  1.
        -12    1    3    3    0    0  0.25242848396E+02 -0.18611064510E+01  0.99393221575E+01  0.27192926237E+02  0.00000000000E+00 0.  1.
</event>
<event>
 7    1  0.2661323E-011  0.5052887E+02  0.7816164E-02  0.1300439E+00
        -11   -1    0    0    0    0  0.00000000000E+00  0.00000000000E+00  0.45593999997E+02  0.45594000000E+02  0.51100000000E-03 0.  1.
         11   -1    0    0    0    0 -0.00000000000E+00 -0.00000000000E+00 -0.45593999997E+02  0.45594000000E+02  0.51100000000E-03 0. -1.
    9900012    2    1    2    0    0  0.39379593557E+02  0.99887519745E+01 -0.16240770922E+01  0.50528865957E+02  0.30000018563E+02 0.  0.
         12    1    1    2    0    0 -0.39379593557E+02 -0.99887519745E+01  0.16240770922E+01  0.40659134043E+02  0.00000000000E+00 0. -1.
         11    1    3    3    0    0 -0.33612364963E+01  0.19860721070E+00 -0.10309242041E+01  0.35213861737E+01  0.51100000000E-03 0. -1.
        -11    1    3    3    0    0  0.36600545197E+01 -0.32301288379E+01 -0.30254350710E+01  0.57430818405E+01  0.51100000000E-03 0.  1.
        -12    1    3    3    0    0  0.39080775534E+02  0.13020273602E+02  0.24322821829E+01  0.41264397943E+02  0.00000000000E+00 0.  1.
</event>
<event>
 7    1  0.2661323E-011  0.5052884E+02  0.7816164E-02  0.1300439E+00
        -11   -1    0    0    0    0  0.00000000000E+00  0.00000000000E+00  0.45593999997E+02  0.45594000000E+02  0.51100000000E-03 0.  1.
         11   -1    0    0    0    0 -0.00000000000E+00 -0.00000000000E+00 -0.45593999997E+02  0.45594000000E+02  0.51100000000E-03 0. -1.
    9900012    2    1    2    0    0 -0.27270666306E+01 -0.31909466047E+02  0.25050272875E+02  0.50528842520E+02  0.29999947325E+02 0.  0.
         12    1    1    2    0    0  0.27270666306E+01  0.31909466047E+02 -0.25050272875E+02  0.40659157480E+02  0.00000000000E+00 0. -1.
         11    1    3    3    0    0 -0.79807845654E+00 -0.16080922947E+02  0.69110563221E+01  0.17521293097E+02  0.51100000000E-03 0.  1.
        -11    1    3    3    0    0  0.53561236931E+01 -0.98488943213E+00 -0.29621940080E+01  0.61994081823E+01  0.51100000000E-03 0. -1.
         12    1    3    3    0    0 -0.72851118672E+01 -0.14843653669E+02  0.21101410561E+02  0.26808141241E+02  0.00000000000E+00 0. -1.
</event>
<event>
 7    1  0.2661323E-011  0.5052887E+02  0.7816164E-02  0.1300439E+00
        -11   -1    0    0    0    0  0.00000000000E+00  0.00000000000E+00  0.45593999997E+02  0.45594000000E+02  0.51100000000E-03 0.  1.
         11   -1    0    0    0    0 -0.00000000000E+00 -0.00000000000E+00 -0.45593999997E+02  0.45594000000E+02  0.51100000000E-03 0. -1.
    9900012    2    1    2    0    0 -0.32050266921E+02 -0.21445162482E+02  0.12886062997E+02  0.50528865440E+02  0.30000016991E+02 0.  0.
         12    1    1    2    0    0  0.32050266921E+02  0.21445162482E+02 -0.12886062997E+02  0.40659134560E+02  0.00000000000E+00 0. -1.
         11    1    3    3    0    0  0.14208423232E+01  0.87317154017E+00  0.11600384185E+01  0.20314799629E+01  0.51100000000E-03 0. -1.
        -11    1    3    3    0    0 -0.78288471551E+01  0.44321657784E+01 -0.15626862361E+01  0.91310968563E+01  0.51100000000E-03 0.  1.
        -12    1    3    3    0    0 -0.25642262090E+02 -0.26750499801E+02  0.13288710815E+02  0.39366288621E+02  0.00000000000E+00 0.  1.
</event>
<event>
 7    1  0.2661323E-011  0.5052885E+02  0.7816164E-02  0.1300439E+00
        -11   -1    0    0    0    0  0.00000000000E+00  0.00000000000E+00  0.45593999997E+02  0.45594000000E+02  0.51100000000E-03 0. -1.
         11   -1    0    0    0    0 -0.00000000000E+00 -0.00000000000E+00 -0.45593999997E+02  0.45594000000E+02  0.51100000000E-03 0.  1.
    9900012    2    1    2    0    0 -0.20417147498E+02  0.31819344426E+02 -0.14961134221E+02  0.50528854303E+02  0.29999983139E+02 0.  0.
         12    1    1    2    0    0  0.20417147498E+02 -0.31819344426E+02  0.14961134221E+02  0.40659145697E+02  0.00000000000E+00 0. -1.
         11    1    3    3    0    0 -0.20771962627E+01  0.95219680194E+01  0.66952629309E+01  0.11824092576E+02  0.51100000000E-03 0. -1.
        -11    1    3    3    0    0  0.83031031337E+00  0.70467378547E+01 -0.22217757267E+01  0.74352012246E+01  0.51100000000E-03 0.  1.
         12    1    3    3    0    0 -0.19170261549E+02  0.15250638552E+02 -0.19434621425E+02  0.31269560502E+02  0.00000000000E+00 0. -1.
</event>
<event>
 7    1  0.2661323E-011  0.5052886E+02  0.7816164E-02  0.1300439E+00
        -11   -1    0    0    0    0  0.00000000000E+00  0.00000000000E+00  0.45593999997E+02  0.45594000000E+02  0.51100000000E-03 0. -1.
         11   -1    0    0    0    0 -0.00000000000E+00 -0.00000000000E+00 -0.45593999997E+02  0.45594000000E+02  0.51100000000E-03 0.  1.
    9900012    2    1    2    0    0 -0.39449912483E+02  0.81360484294E+01  0.55384488379E+01  0.50528864563E+02  0.30000014325E+02 0.  0.
         12    1    1    2    0    0  0.39449912483E+02 -0.81360484294E+01 -0.55384488379E+01  0.40659135437E+02  0.00000000000E+00 0. -1.
         11    1    3    3    0    0 -0.22104920025E+02 -0.12937602908E+01  0.20027080539E+01  0.22233131691E+02  0.51100000000E-03 0. -1.
        -11    1    3    3    0    0 -0.19579255075E+02  0.12787092716E+01  0.25923832313E+01  0.19791482456E+02  0.51100000000E-03 0.  1.
         12    1    3    3    0    0  0.22342626169E+01  0.81510994487E+01  0.94335755276E+00  0.85042504158E+01  0.00000000000E+00 0. -1.
</event>
<event>
 7    1  0.2661323E-011  0.5052886E+02  0.7816164E-02  0.1300439E+00
        -11   -1    0    0    0    0  0.00000000000E+00  0.00000000000E+00  0.45593999997E+02  0.45594000000E+02  0.51100000000E-03 0. -1.
         11   -1    0    0    0    0 -0.00000000000E+00 -0.00000000000E+00 -0.45593999997E+02  0.45594000000E+02  0.51100000000E-03 0.  1.
    9900012    2    1    2    0    0  0.49798093413E+01  0.97173264849E+01 -0.39165555440E+02  0.50528859969E+02  0.30000000363E+02 0.  0.
         12    1    1    2    0    0 -0.49798093413E+01 -0.97173264849E+01  0.39165555440E+02  0.40659140031E+02  0.00000000000E+00 0. -1.
         11    1    3    3    0    0  0.51201726186E+01  0.75005214814E+01 -0.91382394158E+01  0.12883377275E+02  0.51100000000E-03 0. -1.
        -11    1    3    3    0    0  0.28514683149E+01  0.10803417493E+02 -0.24693197557E+02  0.27103481454E+02  0.51100000000E-03 0.  1.
         12    1    3    3    0    0 -0.29918315922E+01 -0.85866124896E+01 -0.53341184677E+01  0.10542001240E+02  0.00000000000E+00 0. -1.
</event>
<event>
 7    1  0.2661323E-011  0.5052886E+02  0.7816164E-02  0.1300439E+00
        -11   -1    0    0    0    0  0.00000000000E+00  0.00000000000E+00  0.45593999997E+02  0.45594000000E+02  0.51100000000E-03 0.  1.
         11   -1    0    0    0    0 -0.00000000000E+00 -0.00000000000E+00 -0.45593999997E+02  0.45594000000E+02  0.51100000000E-03 0. -1.
    9900012    2    1    2    0    0  0.15592818604E+02 -0.26236184172E+02  0.26864326600E+02  0.50528863320E+02  0.30000010547E+02 0.  0.
         12    1    1    2    0    0 -0.15592818604E+02  0.26236184172E+02 -0.26864326600E+02  0.40659136680E+02  0.00000000000E+00 0. -1.
         11    1    3    3    0    0  0.11461627089E+02 -0.18935984525E+02  0.15176685997E+02  0.26837887465E+02  0.51100000000E-03 0. -1.
        -11    1    3    3    0    0  0.61545815014E+01 -0.83643226785E+01  0.15845999561E+02  0.18945618746E+02  0.51100000000E-03 0.  1.
        -12    1    3    3    0    0 -0.20233899862E+01  0.10641230309E+01 -0.41583589588E+01  0.47453571090E+01  0.00000000000E+00 0.  1.
</event>
<event>
 7    1  0.2661323E-011  0.5052886E+02  0.7816164E-02  0.1300439E+00
        -11   -1    0    0    0    0  0.00000000000E+00  0.00000000000E+00  0.45593999997E+02  0.45594000000E+02  0.51100000000E-03 0.  1.
         11   -1    0    0    0    0 -0.00000000000E+00 -0.00000000000E+00 -0.45593999997E+02  0.45594000000E+02  0.51100000000E-03 0. -1.
    9900012    2    1    2    0    0 -0.22237158916E+02  0.32094067492E+02  0.11342181174E+02  0.50528862298E+02  0.30000007442E+02 0.  0.
         12    1    1    2    0    0  0.22237158916E+02 -0.32094067492E+02 -0.11342181174E+02  0.40659137702E+02  0.00000000000E+00 0. -1.
         11    1    3    3    0    0 -0.20454454243E+01  0.19478015684E+02  0.12474840718E+02  0.23220650145E+02  0.51100000000E-03 0. -1.
        -11    1    3    3    0    0 -0.59836229817E+01  0.95293124881E+01  0.39204928739E+01  0.11915611823E+02  0.51100000000E-03 0.  1.
        -12    1    3    3    0    0 -0.14208090510E+02  0.30867393204E+01 -0.50531524178E+01  0.15392600330E+02  0.00000000000E+00 0.  1.
</event>
<event>
 7    1  0.2661323E-011  0.5052885E+02  0.7816164E-02  0.1300439E+00
        -11   -1    0    0    0    0  0.00000000000E+00  0.00000000000E+00  0.45593999997E+02  0.45594000000E+02  0.51100000000E-03 0. -1.
         11   -1    0    0    0    0 -0.00000000000E+00 -0.00000000000E+00 -0.45593999997E+02  0.45594000000E+02  0.51100000000E-03 0.  1.
    9900012    2    1    2    0    0 -0.39142365419E+02 -0.58974226728E+01 -0.92877302819E+01  0.50528852215E+02  0.29999976794E+02 0.  0.
         12    1    1    2    0    0  0.39142365419E+02  0.58974226728E+01  0.92877302819E+01  0.40659147785E+02  0.00000000000E+00 0. -1.
         11    1    3    3    0    0 -0.16241826885E+02 -0.99321087104E+01  0.42135824846E+01  0.19498666663E+02  0.51100000000E-03 0. -1.
        -11    1    3    3    0    0 -0.12622459166E+02  0.57394895475E+00  0.12765918717E+01  0.12699825978E+02  0.51100000000E-03 0.  1.
        -12    1    3    3    0    0 -0.10278079368E+02  0.34607370828E+01 -0.14777904638E+02  0.18330359575E+02  0.00000000000E+00 0.  1.
</event>
<event>
 7    1  0.2661323E-011  0.5052887E+02  0.7816164E-02  0.1300439E+00
        -11   -1    0    0    0    0  0.00000000000E+00  0.00000000000E+00  0.45593999997E+02  0.45594000000E+02  0.51100000000E-03 0.  1.
         11   -1    0    0    0    0 -0.00000000000E+00 -0.00000000000E+00 -0.45593999997E+02  0.45594000000E+02  0.51100000000E-03 0. -1.
    9900012    2    1    2    0    0  0.63946550123E+01 -0.83922355979E+01  0.39266319309E+02  0.50528867408E+02  0.30000022973E+02 0.  0.
         12    1    1    2    0    0 -0.63946550123E+01  0.83922355979E+01 -0.39266319309E+02  0.40659132592E+02  0.00000000000E+00 0. -1.
         11    1    3    3    0    0  0.10973931212E+01 -0.17737189274E+01  0.21484325169E+02  0.21585332491E+02  0.51100000000E-03 0.  1.
        -11    1    3    3    0    0 -0.21115164895E+01 -0.92626473350E+01  0.18748290680E+02  0.21017933800E+02  0.51100000000E-03 0. -1.
         12    1    3    3    0    0  0.74087783806E+01  0.26441306646E+01 -0.96629654001E+00  0.79256011171E+01  0.00000000000E+00 0. -1.
</event>
<event>
 7    1  0.2661323E-011  0.5052886E+02  0.7816164E-02  0.1300439E+00
        -11   -1    0    0    0    0  0.00000000000E+00  0.00000000000E+00  0.45593999997E+02  0.45594000000E+02  0.51100000000E-03 0.  1.
         11   -1    0    0    0    0 -0.00000000000E+00 -0.00000000000E+00 -0.45593999997E+02  0.45594000000E+02  0.51100000000E-03 0. -1.
    9900012    2    1    2    0    0 -0.40389855086E+02 -0.50777516687E+00 -0.46440790003E+01  0.50528859585E+02  0.29999999195E+02 0.  0.
         12    1    1    2    0    0  0.40389855086E+02  0.50777516687E+00  0.46440790003E+01  0.40659140415E+02  0.00000000000E+00 0. -1.
         11    1    3    3    0    0 -0.37530738212E+01  0.21199470886E+01 -0.85021991846E+01  0.95324251899E+01  0.51100000000E-03 0. -1.
        -11    1    3    3    0    0 -0.24197897260E+02 -0.69207046851E+01 -0.42726852464E+01  0.25528224079E+02  0.51100000000E-03 0.  1.
        -12    1    3    3    0    0 -0.12438884005E+02  0.42929824296E+01  0.81308054307E+01  0.15468210316E+02  0.00000000000E+00 0.  1.
</event>
<event>
 7    1  0.2661323E-011  0.5052886E+02  0.7816164E-02  0.1300439E+00
        -11   -1    0    0    0    0  0.00000000000E+00  0.00000000000E+00  0.45593999997E+02  0.45594000000E+02  0.51100000000E-03 0. -1.
         11   -1    0    0    0    0 -0.00000000000E+00 -0.00000000000E+00 -0.45593999997E+02  0.45594000000E+02  0.51100000000E-03 0.  1.
    9900012    2    1    2    0    0 -0.27583213226E+01  0.31283769781E+02 -0.25824084012E+02  0.50528857077E+02  0.29999991570E+02 0.  0.
         12    1    1    2    0    0  0.27583213226E+01 -0.31283769781E+02  0.25824084012E+02  0.40659142923E+02  0.00000000000E+00 0. -1.
         11    1    3    3    0    0  0.15247944874E+01  0.10232593460E+01 -0.26457310788E+01  0.32205513690E+01  0.51100000000E-03 0. -1.
        -11    1    3    3    0    0  0.11201188615E+02  0.68093056030E+01 -0.82292849522E+01  0.15477545034E+02  0.51100000000E-03 0.  1.
         12    1    3    3    0    0 -0.15484304425E+02  0.23451204832E+02 -0.14949067981E+02  0.31830760674E+02  0.00000000000E+00 0. -1.
</event>
<event>
 7    1  0.2661323E-011  0.5052885E+02  0.7816164E-02  0.1300439E+00
        -11   -1    0    0    0    0  0.00000000000E+00  0.00000000000E+00  0.45593999997E+02  0.45594000000E+02  0.51100000000E-03 0.  1.
         11   -1    0    0    0    0 -0.00000000000E+00 -0.00000000000E+00 -0.45593999997E+02  0.45594000000E+02  0.51100000000E-03 0. -1.
    9900012    2    1    2    0    0  0.25671522890E+02  0.44753624453E+01  0.31210737257E+02  0.50528854945E+02  0.29999985089E+02 0.  0.
         12    1    1    2    0    0 -0.25671522890E+02 -0.44753624453E+01 -0.31210737257E+02  0.40659145055E+02  0.00000000000E+00 0. -1.
         11    1    3    3    0    0 -0.34282727049E+01  0.85994437966E+01  0.50644682188E+01  0.10552361155E+02  0.51100000000E-03 0. -1.
        -11    1    3    3    0    0  0.36023606421E+01  0.18311051308E+01  0.30644406829E+01  0.50715623979E+01  0.51100000000E-03 0.  1.
         12    1    3    3    0    0  0.25497434952E+02 -0.59551864822E+01  0.23081828356E+02  0.34904931391E+02  0.00000000000E+00 0. -1.
</event>
<event>
 7    1  0.2671777E-011  0.5052886E+02  0.7816164E-02  0.1300439E+00
        -11   -1    0    0    0    0  0.00000000000E+00  0.00000000000E+00  0.45593999997E+02  0.45594000000E+02  0.51100000000E-03 0. -1.
         11   -1    0    0    0    0 -0.00000000000E+00 -0.00000000000E+00 -0.45593999997E+02  0.45594000000E+02  0.51100000000E-03 0.  1.
    9900012    2    1    2    0    0  0.14194305084E+02 -0.16473467434E+02 -0.34355669433E+02  0.50528862671E+02  0.30000008574E+02 0.  0.
         12    1    1    2    0    0 -0.14194305084E+02  0.16473467434E+02  0.34355669433E+02  0.40659137329E+02  0.00000000000E+00 0. -1.
         11    1    3    3    0    0 -0.57355741860E+01 -0.18889210777E+01 -0.49957053770E+01  0.78372129329E+01  0.51100000000E-03 0. -1.
        -11    1    3    3    0    0  0.93775542127E+01 -0.80807713442E+01 -0.27499454523E+02  0.30157211208E+02  0.51100000000E-03 0.  1.
         12    1    3    3    0    0  0.10552325058E+02 -0.65037750125E+01 -0.18605095333E+01  0.12534438530E+02  0.00000000000E+00 0. -1.
</event>
<event>
 7    1  0.2661323E-011  0.5052886E+02  0.7816164E-02  0.1300439E+00
        -11   -1    0    0    0    0  0.00000000000E+00  0.00000000000E+00  0.45593999997E+02  0.45594000000E+02  0.51100000000E-03 0. -1.
         11   -1    0    0    0    0 -0.00000000000E+00 -0.00000000000E+00 -0.45593999997E+02  0.45594000000E+02  0.51100000000E-03 0.  1.
    9900012    2    1    2    0    0  0.11747295557E+02  0.33208452119E+02 -0.20306781501E+02  0.50528860560E+02  0.30000002159E+02 0.  0.
         12    1    1    2    0    0 -0.11747295557E+02 -0.33208452119E+02  0.20306781501E+02  0.40659139440E+02  0.00000000000E+00 0. -1.
         11    1    3    3    0    0  0.50544315495E+01  0.13404965894E+02 -0.26825754374E+01  0.14575204978E+02  0.51100000000E-03 0. -1.
        -11    1    3    3    0    0  0.50160318014E+00  0.99623058797E+01  0.45134468715E+01  0.10948531733E+02  0.51100000000E-03 0.  1.
        -12    1    3    3    0    0  0.61912608271E+01  0.98411803452E+01 -0.22137652935E+02  0.25005123849E+02  0.00000000000E+00 0.  1.
</event>
<event>
 7    1  0.2661323E-011  0.5052886E+02  0.7816164E-02  0.1300439E+00
        -11   -1    0    0    0    0  0.00000000000E+00  0.00000000000E+00  0.45593999997E+02  0.45594000000E+02  0.51100000000E-03 0.  1.
         11   -1    0    0    0    0 -0.00000000000E+00 -0.00000000000E+00 -0.45593999997E+02  0.45594000000E+02  0.51100000000E-03 0. -1.
    9900012    2    1    2    0    0  0.26283956276E+02 -0.27712214625E+02  0.13941046328E+02  0.50528856260E+02  0.29999989087E+02 0.  0.
         12    1    1    2    0    0 -0.26283956276E+02  0.27712214625E+02 -0.13941046328E+02  0.40659143740E+02  0.00000000000E+00 0. -1.
         11    1    3    3    0    0  0.10082460274E+01  0.25042960981E+01  0.35442357829E+01  0.44552964598E+01  0.51100000000E-03 0. -1.
        -11    1    3    3    0    0  0.24673138264E+02 -0.14735679586E+02  0.29662222023E+01  0.28891218027E+02  0.51100000000E-03 0.  1.
         12    1    3    3    0    0  0.60257198519E+00 -0.15480831137E+02  0.74305883424E+01  0.17182341773E+02  0.00000000000E+00 0. -1.
</event>
<event>
 7    1  0.2661323E-011  0.5052884E+02  0.7816164E-02  0.1300439E+00
        -11   -1    0    0    0    0  0.00000000000E+00  0.00000000000E+00  0.45593999997E+02  0.45594000000E+02  0.51100000000E-03 0.  1.
         11   -1    0    0    0    0 -0.00000000000E+00 -0.00000000000E+00 -0.45593999997E+02  0.45594000000E+02  0.51100000000E-03 0. -1.
    9900012    2    1    2    0    0 -0.29903945205E+02 -0.10007431871E+02  0.25666571737E+02  0.50528836995E+02  0.29999930530E+02 0.  0.
         12    1    1    2    0    0  0.29903945205E+02  0.10007431871E+02 -0.25666571737E+02  0.40659163005E+02  0.00000000000E+00 0. -1.
         11    1    3    3    0    0 -0.27613085842E+00 -0.68818600832E+00 -0.31982566952E+01  0.32830921983E+01  0.51100000000E-03 0.  1.
        -11    1    3    3    0    0 -0.14544980525E+02 -0.64844661660E+00  0.12571865025E+01  0.14613605293E+02  0.51100000000E-03 0. -1.
        -12    1    3    3    0    0 -0.15082833822E+02 -0.86707992465E+01  0.27607641930E+02  0.32632139504E+02  0.00000000000E+00 0.  1.
</event>
<event>
 7    1  0.2661323E-011  0.5052886E+02  0.7816164E-02  0.1300439E+00
        -11   -1    0    0    0    0  0.00000000000E+00  0.00000000000E+00  0.45593999997E+02  0.45594000000E+02  0.51100000000E-03 0. -1.
         11   -1    0    0    0    0 -0.00000000000E+00 -0.00000000000E+00 -0.45593999997E+02  0.45594000000E+02  0.51100000000E-03 0.  1.
    9900012    2    1    2    0    0 -0.23202442813E+02 -0.12046448805E+02 -0.31139932151E+02  0.50528860122E+02  0.30000000827E+02 0.  0.
         12    1    1    2    0    0  0.23202442813E+02  0.12046448805E+02  0.31139932151E+02  0.40659139878E+02  0.00000000000E+00 0. -1.
         11    1    3    3    0    0 -0.59403937901E+01 -0.12952046515E+02 -0.19373338658E+02  0.24049325112E+02  0.51100000000E-03 0. -1.
        -11    1    3    3    0    0  0.74802021726E+00 -0.30794829153E+01 -0.66040220452E+01  0.73250158161E+01  0.51100000000E-03 0.  1.
        -12    1    3    3    0    0 -0.18010069240E+02  0.39850806252E+01 -0.51625714473E+01  0.19154519194E+02  0.00000000000E+00 0.  1.
</event>
<event>
 7    1  0.2661323E-011  0.5052887E+02  0.7816164E-02  0.1300439E+00
        -11   -1    0    0    0    0  0.00000000000E+00  0.00000000000E+00  0.45593999997E+02  0.45594000000E+02  0.51100000000E-03 0.  1.
         11   -1    0    0    0    0 -0.00000000000E+00 -0.00000000000E+00 -0.45593999997E+02  0.45594000000E+02  0.51100000000E-03 0. -1.
    9900012    2    1    2    0    0 -0.29347193340E+02 -0.26639469164E+02  0.90689659228E+01  0.50528865513E+02  0.30000017214E+02 0.  0.
         12    1    1    2    0    0  0.29347193340E+02  0.26639469164E+02 -0.90689659228E+01  0.40659134487E+02  0.00000000000E+00 0. -1.
         11    1    3    3    0    0 -0.63394283836E+01 -0.19377185390E+01  0.87166748462E+01  0.10950960049E+02  0.51100000000E-03 0. -1.
        -11    1    3    3    0    0 -0.13222362144E+02 -0.11579738123E+02  0.10350149677E+02  0.20397225160E+02  0.51100000000E-03 0.  1.
         12    1    3    3    0    0 -0.97854028127E+01 -0.13122012503E+02 -0.99978585998E+01  0.19180680304E+02  0.00000000000E+00 0. -1.
</event>
<event>
 7    1  0.2661323E-011  0.5052886E+02  0.7816164E-02  0.1300439E+00
        -11   -1    0    0    0    0  0.00000000000E+00  0.00000000000E+00  0.45593999997E+02  0.45594000000E+02  0.51100000000E-03 0. -1.
         11   -1    0    0    0    0 -0.00000000000E+00 -0.00000000000E+00 -0.45593999997E+02  0.45594000000E+02  0.51100000000E-03 0.  1.
    9900012    2    1    2    0    0  0.65117470969E+00 -0.40454153603E+02 -0.40253242230E+01  0.50528858257E+02  0.29999995156E+02 0.  0.
         12    1    1    2    0    0 -0.65117470969E+00  0.40454153603E+02  0.40253242230E+01  0.40659141743E+02  0.00000000000E+00 0. -1.
         11    1    3    3    0    0  0.10062572586E+02 -0.23780759387E+02  0.40805763352E+01  0.26142513031E+02  0.51100000000E-03 0.  1.
        -11    1    3    3    0    0  0.85253571485E+00 -0.11055353074E+02 -0.22999568312E+01  0.11324197562E+02  0.51100000000E-03 0. -1.
         12    1    3    3    0    0 -0.10263933591E+02 -0.56180411411E+01 -0.58059437270E+01  0.13062147663E+02  0.00000000000E+00 0. -1.
</event>
<event>
 7    1  0.2661323E-011  0.5052886E+02  0.7816164E-02  0.1300439E+00
        -11   -1    0    0    0    0  0.00000000000E+00  0.00000000000E+00  0.45593999997E+02  0.45594000000E+02  0.51100000000E-03 0.  1.
         11   -1    0    0    0    0 -0.00000000000E+00 -0.00000000000E+00 -0.45593999997E+02  0.45594000000E+02  0.51100000000E-03 0. -1.
    9900012    2    1    2    0    0 -0.28938870873E+02 -0.12215248142E+02  0.25816567139E+02  0.50528859904E+02  0.30000000163E+02 0.  0.
         12    1    1    2    0    0  0.28938870873E+02  0.12215248142E+02 -0.25816567139E+02  0.40659140096E+02  0.00000000000E+00 0. -1.
         11    1    3    3    0    0 -0.15226211157E+02 -0.14311973063E+02  0.20654644014E+01  0.20998481436E+02  0.51100000000E-03 0. -1.
        -11    1    3    3    0    0 -0.28777717874E+01 -0.24413658452E+01  0.96610535924E+00  0.38955355827E+01  0.51100000000E-03 0.  1.
        -12    1    3    3    0    0 -0.10834887928E+02  0.45380907661E+01  0.22784997378E+02  0.25634842885E+02  0.00000000000E+00 0.  1.
</event>
<event>
 7    1  0.2661323E-011  0.5052887E+02  0.7816164E-02  0.1300439E+00
        -11   -1    0    0    0    0  0.00000000000E+00  0.00000000000E+00  0.45593999997E+02  0.45594000000E+02  0.51100000000E-03 0. -1.
         11   -1    0    0    0    0 -0.00000000000E+00 -0.00000000000E+00 -0.45593999997E+02  0.45594000000E+02  0.51100000000E-03 0.  1.
    9900012    2    1    2    0    0  0.11746465846E+02  0.69378954287E+01 -0.38302100341E+02  0.50528871341E+02  0.30000034927E+02 0.  0.
         12    1    1    2    0    0 -0.11746465846E+02 -0.69378954287E+01  0.38302100341E+02  0.40659128659E+02  0.00000000000E+00 0. -1.
         11    1    3    3    0    0 -0.77534728377E+00 -0.29003428590E+00  0.38150393847E+01  0.39038198044E+01  0.51100000000E-03 0. -1.
        -11    1    3    3    0    0  0.31107608461E+01  0.87630236089E+00 -0.24526401171E+00  0.32411253549E+01  0.51100000000E-03 0.  1.
        -12    1    3    3    0    0  0.94110522833E+01  0.63516273537E+01 -0.41871875714E+02  0.43383926181E+02  0.00000000000E+00 0.  1.
</event>
<event>
 7    1  0.2661323E-011  0.5052887E+02  0.7816164E-02  0.1300439E+00
        -11   -1    0    0    0    0  0.00000000000E+00  0.00000000000E+00  0.45593999997E+02  0.45594000000E+02  0.51100000000E-03 0. -1.
         11   -1    0    0    0    0 -0.00000000000E+00 -0.00000000000E+00 -0.45593999997E+02  0.45594000000E+02  0.51100000000E-03 0.  1.
    9900012    2    1    2    0    0  0.40484769556E+02  0.30758780767E+00  0.37488269097E+01  0.50528869667E+02  0.30000029839E+02 0.  0.
         12    1    1    2    0    0 -0.40484769556E+02 -0.30758780767E+00 -0.37488269097E+01  0.40659130333E+02  0.00000000000E+00 0. -1.
         11    1    3    3    0    0  0.13456700392E+02  0.10275389628E+02 -0.21842193147E+01  0.17071532788E+02  0.51100000000E-03 0. -1.
        -11    1    3    3    0    0  0.60532389238E+01 -0.83790275625E+01 -0.27568296219E+01  0.10698126667E+02  0.51100000000E-03 0.  1.
        -12    1    3    3    0    0  0.20974830240E+02 -0.15887742580E+01  0.86898758463E+01  0.22759210212E+02  0.00000000000E+00 0.  1.
</event>
<event>
 7    1  0.2661323E-011  0.5052886E+02  0.7816164E-02  0.1300439E+00
        -11   -1    0    0    0    0  0.00000000000E+00  0.00000000000E+00  0.45593999997E+02  0.45594000000E+02  0.51100000000E-03 0.  1.
         11   -1    0    0    0    0 -0.00000000000E+00 -0.00000000000E+00 -0.45593999997E+02  0.45594000000E+02  0.51100000000E-03 0. -1.
    9900012    2    1    2    0    0  0.39479930431E+02  0.93764461857E+01  0.25657254267E+01  0.50528860844E+02  0.30000003022E+02 0.  0.
         12    1    1    2    0    0 -0.39479930431E+02 -0.93764461857E+01 -0.25657254267E+01  0.40659139156E+02  0.00000000000E+00 0. -1.
         11    1    3    3    0    0  0.22589833949E+02  0.31616677250E+00  0.48246815113E+01  0.23101474222E+02  0.51100000000E-03 0.  1.
        -11    1    3    3    0    0  0.18587789780E+02  0.74007183727E+01 -0.77418493792E+01  0.21452570788E+02  0.51100000000E-03 0. -1.
         12    1    3    3    0    0 -0.16976932974E+01  0.16595610405E+01  0.54828932946E+01  0.59748158348E+01  0.00000000000E+00 0. -1.
</event>
<event>
 7    1  0.2661323E-011  0.5052886E+02  0.7816164E-02  0.1300439E+00
        -11   -1    0    0    0    0  0.00000000000E+00  0.00000000000E+00  0.45593999997E+02  0.45594000000E+02  0.51100000000E-03 0.  1.
         11   -1    0    0    0    0 -0.00000000000E+00 -0.00000000000E+00 -0.45593999997E+02  0.45594000000E+02  0.51100000000E-03 0. -1.
    9900012    2    1    2    0    0  0.14421312595E+02  0.35455688500E+02 -0.13714434357E+02  0.50528858178E+02  0.29999994919E+02 0.  0.
         12    1    1    2    0    0 -0.14421312595E+02 -0.35455688500E+02  0.13714434357E+02  0.40659141822E+02  0.00000000000E+00 0. -1.
         11    1    3    3    0    0 -0.12848206083E+01  0.19672613115E+02 -0.70087549603E+01  0.20923315157E+02  0.51100000000E-03 0. -1.
        -11    1    3    3    0    0 -0.11065602936E+01 -0.32479446812E+01 -0.53492878829E+00  0.34727178700E+01  0.51100000000E-03 0.  1.
        -12    1    3    3    0    0  0.16812693496E+02  0.19031020065E+02 -0.61707506087E+01  0.26132825152E+02  0.00000000000E+00 0.  1.
</event>
<event>
 7    1  0.2661323E-011  0.5052886E+02  0.7816164E-02  0.1300439E+00
        -11   -1    0    0    0    0  0.00000000000E+00  0.00000000000E+00  0.45593999997E+02  0.45594000000E+02  0.51100000000E-03 0.  1.
         11   -1    0    0    0    0 -0.00000000000E+00 -0.00000000000E+00 -0.45593999997E+02  0.45594000000E+02  0.51100000000E-03 0. -1.
    9900012    2    1    2    0    0  0.39111995915E+02  0.11082212139E+02  0.77592051629E+00  0.50528859539E+02  0.29999999055E+02 0.  0.
         12    1    1    2    0    0 -0.39111995915E+02 -0.11082212139E+02 -0.77592051629E+00  0.40659140461E+02  0.00000000000E+00 0. -1.
         11    1    3    3    0    0  0.10026496202E+02 -0.38004973111E+01  0.12071709963E-01  0.10722618705E+02  0.51100000000E-03 0. -1.
        -11    1    3    3    0    0  0.27907759484E+02  0.15262029585E+02  0.77274552624E+01  0.32733563075E+02  0.51100000000E-03 0.  1.
         12    1    3    3    0    0  0.11777402292E+01 -0.37932013468E+00 -0.69636064560E+01  0.70726777593E+01  0.00000000000E+00 0. -1.
</event>
<event>
 7    1  0.2661323E-011  0.5052885E+02  0.7816164E-02  0.1300439E+00
        -11   -1    0    0    0    0  0.00000000000E+00  0.00000000000E+00  0.45593999997E+02  0.45594000000E+02  0.51100000000E-03 0.  1.
         11   -1    0    0    0    0 -0.00000000000E+00 -0.00000000000E+00 -0.45593999997E+02  0.45594000000E+02  0.51100000000E-03 0. -1.
    9900012    2    1    2    0    0 -0.59422816479E+01  0.29606238549E+02  0.27227312869E+02  0.50528848038E+02  0.29999964096E+02 0.  0.
         12    1    1    2    0    0  0.59422816479E+01 -0.29606238549E+02 -0.27227312869E+02  0.40659151962E+02  0.00000000000E+00 0. -1.
         11    1    3    3    0    0  0.90137744768E+01  0.12161871721E+02  0.11860899801E+02  0.19231229769E+02  0.51100000000E-03 0. -1.
        -11    1    3    3    0    0 -0.14785618908E+01  0.11101045375E+02  0.11181018042E+02  0.15825123014E+02  0.51100000000E-03 0.  1.
         12    1    3    3    0    0 -0.13477494234E+02  0.63433214531E+01  0.41853950255E+01  0.15472495255E+02  0.00000000000E+00 0. -1.
</event>
<event>
 7    1  0.2661323E-011  0.5052885E+02  0.7816164E-02  0.1300439E+00
        -11   -1    0    0    0    0  0.00000000000E+00  0.00000000000E+00  0.45593999997E+02  0.45594000000E+02  0.51100000000E-03 0.  1.
         11   -1    0    0    0    0 -0.00000000000E+00 -0.00000000000E+00 -0.45593999997E+02  0.45594000000E+02  0.51100000000E-03 0. -1.
    9900012    2    1    2    0    0  0.17002837926E+02  0.60380073227E+01  0.36436416192E+02  0.50528850293E+02  0.29999970951E+02 0.  0.
         12    1    1    2    0    0 -0.17002837926E+02 -0.60380073227E+01 -0.36436416192E+02  0.40659149707E+02  0.00000000000E+00 0. -1.
         11    1    3    3    0    0  0.95290502188E+01  0.58642128977E+01  0.21971764609E+01  0.11402603898E+02  0.51100000000E-03 0. -1.
        -11    1    3    3    0    0  0.58708621794E+01  0.59197744659E+01  0.60204110261E+01  0.10283778568E+02  0.51100000000E-03 0.  1.
        -12    1    3    3    0    0  0.16029255276E+01 -0.57459800409E+01  0.28218828705E+02  0.28842467827E+02  0.00000000000E+00 0.  1.
</event>
<event>
 7    1  0.2661323E-011  0.5052884E+02  0.7816164E-02  0.1300439E+00
        -11   -1    0    0    0    0  0.00000000000E+00  0.00000000000E+00  0.45593999997E+02  0.45594000000E+02  0.51100000000E-03 0.  1.
         11   -1    0    0    0    0 -0.00000000000E+00 -0.00000000000E+00 -0.45593999997E+02  0.45594000000E+02  0.51100000000E-03 0. -1.
    9900012    2    1    2    0    0  0.34222477695E+02 -0.10528828600E+02  0.19264806508E+02  0.50528843822E+02  0.29999951283E+02 0.  0.
         12    1    1    2    0    0 -0.34222477695E+02  0.10528828600E+02 -0.19264806508E+02  0.40659156178E+02  0.00000000000E+00 0. -1.
         11    1    3    3    0    0  0.38088212968E+01  0.16784507667E+01 -0.33905989239E+01  0.53684707293E+01  0.51100000000E-03 0. -1.
        -11    1    3    3    0    0  0.27603514275E+02 -0.10327348393E+02  0.85959965180E+01  0.30700151165E+02  0.51100000000E-03 0.  1.
        -12    1    3    3    0    0  0.28101421240E+01 -0.18799309735E+01  0.14059408914E+02  0.14460221929E+02  0.00000000000E+00 0.  1.
</event>
<event>
 7    1  0.2661323E-011  0.5052886E+02  0.7816164E-02  0.1300439E+00
        -11   -1    0    0    0    0  0.00000000000E+00  0.00000000000E+00  0.45593999997E+02  0.45594000000E+02  0.51100000000E-03 0.  1.
         11   -1    0    0    0    0 -0.00000000000E+00 -0.00000000000E+00 -0.45593999997E+02  0.45594000000E+02  0.51100000000E-03 0. -1.
    9900012    2    1    2    0    0  0.76808623165E+01 -0.24066061318E+02  0.31858984643E+02  0.50528857661E+02  0.29999993346E+02 0.  0.
         12    1    1    2    0    0 -0.76808623165E+01  0.24066061318E+02 -0.31858984643E+02  0.40659142339E+02  0.00000000000E+00 0. -1.
         11    1    3    3    0    0  0.66969249415E+01 -0.19192548419E+01 -0.12824910621E+01  0.70835814675E+01  0.51100000000E-03 0. -1.
        -11    1    3    3    0    0  0.30187363229E+01  0.14943728430E+01  0.10386108588E+01  0.35248591402E+01  0.51100000000E-03 0.  1.
        -12    1    3    3    0    0 -0.20347989480E+01 -0.23641179319E+02  0.32102864846E+02  0.39920417053E+02  0.00000000000E+00 0.  1.
</event>
<event>
 7    1  0.2661323E-011  0.5052889E+02  0.7816164E-02  0.1300439E+00
        -11   -1    0    0    0    0  0.00000000000E+00  0.00000000000E+00  0.45593999997E+02  0.45594000000E+02  0.51100000000E-03 0. -1.
         11   -1    0    0    0    0 -0.00000000000E+00 -0.00000000000E+00 -0.45593999997E+02  0.45594000000E+02  0.51100000000E-03 0.  1.
    9900012    2    1    2    0    0  0.34136785658E+02  0.17877023268E+02  0.12971324387E+02  0.50528888446E+02  0.30000086921E+02 0.  0.
         12    1    1    2    0    0 -0.34136785658E+02 -0.17877023268E+02 -0.12971324387E+02  0.40659111554E+02  0.00000000000E+00 0. -1.
         11    1    3    3    0    0  0.44468203560E+01 -0.28840949925E+01 -0.10371554143E+01  0.54007320632E+01  0.51100000000E-03 0. -1.
        -11    1    3    3    0    0  0.13887605254E+02 -0.19568819468E+01  0.98635378034E+01  0.17145971681E+02  0.51100000000E-03 0.  1.
         12    1    3    3    0    0  0.15802360048E+02  0.22718000207E+02  0.41449419978E+01  0.27982184702E+02  0.00000000000E+00 0. -1.
</event>
<event>
 7    1  0.2661323E-011  0.5052885E+02  0.7816164E-02  0.1300439E+00
        -11   -1    0    0    0    0  0.00000000000E+00  0.00000000000E+00  0.45593999997E+02  0.45594000000E+02  0.51100000000E-03 0.  1.
         11   -1    0    0    0    0 -0.00000000000E+00 -0.00000000000E+00 -0.45593999997E+02  0.45594000000E+02  0.51100000000E-03 0. -1.
    9900012    2    1    2    0    0 -0.18392504813E+01  0.41049796865E+01  0.40409559503E+02  0.50528853430E+02  0.29999980487E+02 0.  0.
         12    1    1    2    0    0  0.18392504813E+01 -0.41049796865E+01 -0.40409559503E+02  0.40659146570E+02  0.00000000000E+00 0. -1.
         11    1    3    3    0    0  0.93223138695E+01  0.13559745819E+01  0.10616582304E+02  0.14193520459E+02  0.51100000000E-03 0. -1.
        -11    1    3    3    0    0 -0.16506857865E+01  0.90275417386E+01  0.15981935250E+02  0.18429420176E+02  0.51100000000E-03 0.  1.
         12    1    3    3    0    0 -0.95108785642E+01 -0.62785366341E+01  0.13811041948E+02  0.17905912795E+02  0.00000000000E+00 0. -1.
</event>
<event>
 7    1  0.2661323E-011  0.5052887E+02  0.7816164E-02  0.1300439E+00
        -11   -1    0    0    0    0  0.00000000000E+00  0.00000000000E+00  0.45593999997E+02  0.45594000000E+02  0.51100000000E-03 0.  1.
         11   -1    0    0    0    0 -0.00000000000E+00 -0.00000000000E+00 -0.45593999997E+02  0.45594000000E+02  0.51100000000E-03 0. -1.
    9900012    2    1    2    0    0  0.30324682187E+02  0.19164144138E+02  0.19139335441E+02  0.50528869027E+02  0.30000027896E+02 0.  0.
         12    1    1    2    0    0 -0.30324682187E+02 -0.19164144138E+02 -0.19139335441E+02  0.40659130973E+02  0.00000000000E+00 0. -1.
         11    1    3    3    0    0  0.47762074968E+01  0.16545766860E+02  0.57332258360E+01  0.18150604337E+02  0.51100000000E-03 0. -1.
        -11    1    3    3    0    0 -0.15341995893E+01  0.18167954687E+01  0.10968054658E+01  0.26186822346E+01  0.51100000000E-03 0.  1.
        -12    1    3    3    0    0  0.27082674280E+02  0.80158180860E+00  0.12309304140E+02  0.29759582456E+02  0.00000000000E+00 0.  1.
</event>
<event>
 7    1  0.2661323E-011  0.5052886E+02  0.7816164E-02  0.1300439E+00
        -11   -1    0    0    0    0  0.00000000000E+00  0.00000000000E+00  0.45593999997E+02  0.45594000000E+02  0.51100000000E-03 0. -1.
         11   -1    0    0    0    0 -0.00000000000E+00 -0.00000000000E+00 -0.45593999997E+02  0.45594000000E+02  0.51100000000E-03 0.  1.
    9900012    2    1    2    0    0  0.30932430993E+02 -0.23966885313E+02  0.11042597800E+02  0.50528857794E+02  0.29999993751E+02 0.  0.
         12    1    1    2    0    0 -0.30932430993E+02  0.23966885313E+02 -0.11042597800E+02  0.40659142206E+02  0.00000000000E+00 0. -1.
         11    1    3    3    0    0  0.11002960524E+02 -0.68100255399E+01 -0.51515955239E+01  0.13927689143E+02  0.51100000000E-03 0. -1.
        -11    1    3    3    0    0  0.27252129396E+01  0.25288314068E+00 -0.40156578372E+01  0.48596546765E+01  0.51100000000E-03 0.  1.
         12    1    3    3    0    0  0.17204257529E+02 -0.17409742914E+02  0.20209851161E+02  0.31741513975E+02  0.00000000000E+00 0. -1.
</event>
<event>
 7    1  0.2661323E-011  0.5052886E+02  0.7816164E-02  0.1300439E+00
        -11   -1    0    0    0    0  0.00000000000E+00  0.00000000000E+00  0.45593999997E+02  0.45594000000E+02  0.51100000000E-03 0. -1.
         11   -1    0    0    0    0 -0.00000000000E+00 -0.00000000000E+00 -0.45593999997E+02  0.45594000000E+02  0.51100000000E-03 0.  1.
    9900012    2    1    2    0    0 -0.17196073204E+02 -0.32930934118E+02  0.16523145442E+02  0.50528859689E+02  0.29999999512E+02 0.  0.
         12    1    1    2    0    0  0.17196073204E+02  0.32930934118E+02 -0.16523145442E+02  0.40659140311E+02  0.00000000000E+00 0. -1.
         11    1    3    3    0    0 -0.14506584222E+02 -0.13884597660E+02  0.11408391709E+02  0.23094900728E+02  0.51100000000E-03 0. -1.
        -11    1    3    3    0    0 -0.55025798911E+01 -0.16242089132E+01  0.76951523915E+01  0.95985316920E+01  0.51100000000E-03 0.  1.
         12    1    3    3    0    0  0.28130909093E+01 -0.17422127545E+02 -0.25803986589E+01  0.17835427270E+02  0.00000000000E+00 0. -1.
</event>
<event>
 7    1  0.2661323E-011  0.5052898E+02  0.7816164E-02  0.1300438E+00
        -11   -1    0    0    0    0  0.00000000000E+00  0.00000000000E+00  0.45593999997E+02  0.45594000000E+02  0.51100000000E-03 0.  1.
         11   -1    0    0    0    0 -0.00000000000E+00 -0.00000000000E+00 -0.45593999997E+02  0.45594000000E+02  0.51100000000E-03 0. -1.
    9900012    2    1    2    0    0 -0.38079644245E+02  0.13566052859E+02  0.43655993603E+01  0.50528984348E+02  0.30000378423E+02 0.  0.
         12    1    1    2    0    0  0.38079644245E+02 -0.13566052859E+02 -0.43655993603E+01  0.40659015652E+02  0.00000000000E+00 0. -1.
         11    1    3    3    0    0 -0.27821193426E+02  0.15453451655E+02  0.72149086294E+01  0.32632543243E+02  0.51100000000E-03 0.  1.
        -11    1    3    3    0    0 -0.95517823914E+01  0.30284437865E+01 -0.63114586556E+01  0.11842403863E+02  0.51100000000E-03 0. -1.
        -12    1    3    3    0    0 -0.70666842750E+00 -0.49158425826E+01  0.34621493866E+01  0.60540372429E+01  0.00000000000E+00 0.  1.
</event>
<event>
 7    1  0.2661323E-011  0.5052887E+02  0.7816164E-02  0.1300439E+00
        -11   -1    0    0    0    0  0.00000000000E+00  0.00000000000E+00  0.45593999997E+02  0.45594000000E+02  0.51100000000E-03 0. -1.
         11   -1    0    0    0    0 -0.00000000000E+00 -0.00000000000E+00 -0.45593999997E+02  0.45594000000E+02  0.51100000000E-03 0.  1.
    9900012    2    1    2    0    0  0.24804883799E+02 -0.20205240158E+02 -0.25092445197E+02  0.50528870692E+02  0.30000032955E+02 0.  0.
         12    1    1    2    0    0 -0.24804883799E+02  0.20205240158E+02  0.25092445197E+02  0.40659129308E+02  0.00000000000E+00 0. -1.
         11    1    3    3    0    0  0.70881945216E+01 -0.81305563717E+01 -0.18997642553E+01  0.10952513546E+02  0.51100000000E-03 0. -1.
        -11    1    3    3    0    0  0.22653299476E+02 -0.61783500607E+01 -0.21193206874E+02  0.31630618149E+02  0.51100000000E-03 0.  1.
         12    1    3    3    0    0 -0.49366101983E+01 -0.58963337259E+01 -0.19994740677E+01  0.79457389968E+01  0.00000000000E+00 0. -1.
</event>
<event>
 7    1  0.2661323E-011  0.5052882E+02  0.7816164E-02  0.1300439E+00
        -11   -1    0    0    0    0  0.00000000000E+00  0.00000000000E+00  0.45593999997E+02  0.45594000000E+02  0.51100000000E-03 0.  1.
         11   -1    0    0    0    0 -0.00000000000E+00 -0.00000000000E+00 -0.45593999997E+02  0.45594000000E+02  0.51100000000E-03 0. -1.
    9900012    2    1    2    0    0  0.30727673508E+02  0.25899095746E+02 -0.61818712617E+01  0.50528823766E+02  0.29999890319E+02 0.  0.
         12    1    1    2    0    0 -0.30727673508E+02 -0.25899095746E+02  0.61818712617E+01  0.40659176234E+02  0.00000000000E+00 0. -1.
         11    1    3    3    0    0 -0.97998662843E+00 -0.25985901839E+01  0.40572811256E+01  0.49167647015E+01  0.51100000000E-03 0. -1.
        -11    1    3    3    0    0  0.16423111432E+02  0.72712077868E+01 -0.14548842074E+01  0.18019593228E+02  0.51100000000E-03 0.  1.
        -12    1    3    3    0    0  0.15284548705E+02  0.21226478143E+02 -0.87842681800E+01  0.27592465837E+02  0.00000000000E+00 0.  1.
</event>
<event>
 7    1  0.2661323E-011  0.5052886E+02  0.7816164E-02  0.1300439E+00
        -11   -1    0    0    0    0  0.00000000000E+00  0.00000000000E+00  0.45593999997E+02  0.45594000000E+02  0.51100000000E-03 0.  1.
         11   -1    0    0    0    0 -0.00000000000E+00 -0.00000000000E+00 -0.45593999997E+02  0.45594000000E+02  0.51100000000E-03 0. -1.
    9900012    2    1    2    0    0 -0.20933575779E+02 -0.26508332581E+02 -0.22633151671E+02  0.50528857785E+02  0.29999993723E+02 0.  0.
         12    1    1    2    0    0  0.20933575779E+02  0.26508332581E+02  0.22633151671E+02  0.40659142215E+02  0.00000000000E+00 0. -1.
         11    1    3    3    0    0 -0.51842884518E+01  0.16761610285E+01 -0.70584083320E+01  0.89166973139E+01  0.51100000000E-03 0. -1.
        -11    1    3    3    0    0 -0.98511869918E+00  0.86607601140E+00  0.35797814779E+01  0.38125296326E+01  0.51100000000E-03 0.  1.
        -12    1    3    3    0    0 -0.14764168628E+02 -0.29050569621E+02 -0.19154524816E+02  0.37799630838E+02  0.00000000000E+00 0.  1.
</event>
<event>
 7    1  0.2661323E-011  0.5052886E+02  0.7816164E-02  0.1300439E+00
        -11   -1    0    0    0    0  0.00000000000E+00  0.00000000000E+00  0.45593999997E+02  0.45594000000E+02  0.51100000000E-03 0. -1.
         11   -1    0    0    0    0 -0.00000000000E+00 -0.00000000000E+00 -0.45593999997E+02  0.45594000000E+02  0.51100000000E-03 0.  1.
    9900012    2    1    2    0    0  0.40344118936E+02 -0.46221165697E+01 -0.20380101154E+01  0.50528863517E+02  0.30000011147E+02 0.  0.
         12    1    1    2    0    0 -0.40344118936E+02  0.46221165697E+01  0.20380101154E+01  0.40659136483E+02  0.00000000000E+00 0. -1.
         11    1    3    3    0    0 -0.28275477895E+01  0.23078487135E+00 -0.20611898732E+01  0.35066782164E+01  0.51100000000E-03 0. -1.
        -11    1    3    3    0    0  0.43251819630E+01 -0.66604876577E+01 -0.15942081364E+01  0.81000490551E+01  0.51100000000E-03 0.  1.
        -12    1    3    3    0    0  0.38846484762E+02  0.18075862166E+01  0.16173878942E+01  0.38922136246E+02  0.00000000000E+00 0.  1.
</event>
<event>
 7    1  0.2661323E-011  0.5052886E+02  0.7816164E-02  0.1300439E+00
        -11   -1    0    0    0    0  0.00000000000E+00  0.00000000000E+00  0.45593999997E+02  0.45594000000E+02  0.51100000000E-03 0.  1.
         11   -1    0    0    0    0 -0.00000000000E+00 -0.00000000000E+00 -0.45593999997E+02  0.45594000000E+02  0.51100000000E-03 0. -1.
    9900012    2    1    2    0    0  0.18287302092E+02 -0.30207428282E+02 -0.20155679209E+02  0.50528861475E+02  0.30000004940E+02 0.  0.
         12    1    1    2    0    0 -0.18287302092E+02  0.30207428282E+02  0.20155679209E+02  0.40659138525E+02  0.00000000000E+00 0. -1.
         11    1    3    3    0    0  0.12631630415E+02 -0.81071959788E+01  0.28030450684E+01  0.15268980827E+02  0.51100000000E-03 0. -1.
        -11    1    3    3    0    0  0.22132481953E+00  0.77641809990E+00  0.12652057057E+01  0.15008515851E+01  0.51100000000E-03 0.  1.
        -12    1    3    3    0    0  0.54343468570E+01 -0.22876650403E+02 -0.24223929984E+02  0.33759029063E+02  0.00000000000E+00 0.  1.
</event>
<event>
 7    1  0.2661323E-011  0.5052887E+02  0.7816164E-02  0.1300439E+00
        -11   -1    0    0    0    0  0.00000000000E+00  0.00000000000E+00  0.45593999997E+02  0.45594000000E+02  0.51100000000E-03 0.  1.
         11   -1    0    0    0    0 -0.00000000000E+00 -0.00000000000E+00 -0.45593999997E+02  0.45594000000E+02  0.51100000000E-03 0. -1.
    9900012    2    1    2    0    0  0.17898823099E+02  0.33543331775E+02  0.14409781262E+02  0.50528871002E+02  0.30000033897E+02 0.  0.
         12    1    1    2    0    0 -0.17898823099E+02 -0.33543331775E+02 -0.14409781262E+02  0.40659128998E+02  0.00000000000E+00 0. -1.
         11    1    3    3    0    0  0.35829919132E+01  0.29028472629E+01 -0.56403792796E+01  0.72854809011E+01  0.51100000000E-03 0. -1.
        -11    1    3    3    0    0  0.49408705116E+01  0.30577995651E+01 -0.25766068736E+01  0.63561971992E+01  0.51100000000E-03 0.  1.
        -12    1    3    3    0    0  0.93749606740E+01  0.27582684947E+02  0.22626767415E+02  0.36887192902E+02  0.00000000000E+00 0.  1.
</event>
<event>
 7    1  0.2661323E-011  0.5052886E+02  0.7816164E-02  0.1300439E+00
        -11   -1    0    0    0    0  0.00000000000E+00  0.00000000000E+00  0.45593999997E+02  0.45594000000E+02  0.51100000000E-03 0.  1.
         11   -1    0    0    0    0 -0.00000000000E+00 -0.00000000000E+00 -0.45593999997E+02  0.45594000000E+02  0.51100000000E-03 0. -1.
    9900012    2    1    2    0    0  0.12620204162E+02  0.12577048203E+02  0.36547422653E+02  0.50528858381E+02  0.29999995536E+02 0.  0.
         12    1    1    2    0    0 -0.12620204162E+02 -0.12577048203E+02 -0.36547422653E+02  0.40659141619E+02  0.00000000000E+00 0. -1.
         11    1    3    3    0    0  0.17544913699E+01 -0.56457535356E+00  0.15349082296E+01  0.23985263875E+01  0.51100000000E-03 0. -1.
        -11    1    3    3    0    0  0.12473618803E+02  0.19864355518E+02  0.17385860840E+02  0.29196779678E+02  0.51100000000E-03 0.  1.
        -12    1    3    3    0    0 -0.16079060102E+01 -0.67227319612E+01  0.17626653583E+02  0.18933552316E+02  0.00000000000E+00 0.  1.
</event>
<event>
 7    1  0.2661323E-011  0.5052884E+02  0.7816164E-02  0.1300439E+00
        -11   -1    0    0    0    0  0.00000000000E+00  0.00000000000E+00  0.45593999997E+02  0.45594000000E+02  0.51100000000E-03 0.  1.
         11   -1    0    0    0    0 -0.00000000000E+00 -0.00000000000E+00 -0.45593999997E+02  0.45594000000E+02  0.51100000000E-03 0. -1.
    9900012    2    1    2    0    0 -0.51496857420E+01 -0.25921296202E+02  0.30898771028E+02  0.50528844683E+02  0.29999953899E+02 0.  0.
         12    1    1    2    0    0  0.51496857420E+01  0.25921296202E+02 -0.30898771028E+02  0.40659155317E+02  0.00000000000E+00 0. -1.
         11    1    3    3    0    0 -0.55431002810E+01 -0.13391412624E+01  0.17311015484E+02  0.18226094409E+02  0.51100000000E-03 0.  1.
        -11    1    3    3    0    0 -0.61375551399E+01 -0.85698117061E+01  0.10225736516E+02  0.14685943733E+02  0.51100000000E-03 0. -1.
         12    1    3    3    0    0  0.65309696789E+01 -0.16012343233E+02  0.33620190281E+01  0.17616806541E+02  0.00000000000E+00 0. -1.
</event>
<event>
 7    1  0.2661323E-011  0.5052886E+02  0.7816164E-02  0.1300439E+00
        -11   -1    0    0    0    0  0.00000000000E+00  0.00000000000E+00  0.45593999997E+02  0.45594000000E+02  0.51100000000E-03 0. -1.
         11   -1    0    0    0    0 -0.00000000000E+00 -0.00000000000E+00 -0.45593999997E+02  0.45594000000E+02  0.51100000000E-03 0.  1.
    9900012    2    1    2    0    0 -0.34770460407E+02 -0.19817095184E+02 -0.71738093286E+01  0.50528859346E+02  0.29999998467E+02 0.  0.
         12    1    1    2    0    0  0.34770460407E+02  0.19817095184E+02  0.71738093286E+01  0.40659140654E+02  0.00000000000E+00 0. -1.
         11    1    3    3    0    0 -0.14106944071E+02  0.20030548003E+01 -0.45450996980E+01  0.14955802589E+02  0.51100000000E-03 0. -1.
        -11    1    3    3    0    0 -0.89305209035E+01 -0.28052023329E+01 -0.83115624019E+01  0.12518204087E+02  0.51100000000E-03 0.  1.
         12    1    3    3    0    0 -0.11732995432E+02 -0.19014947651E+02  0.56828527713E+01  0.23054852670E+02  0.00000000000E+00 0. -1.
</event>
<event>
 7    1  0.2661323E-011  0.5052885E+02  0.7816164E-02  0.1300439E+00
        -11   -1    0    0    0    0  0.00000000000E+00  0.00000000000E+00  0.45593999997E+02  0.45594000000E+02  0.51100000000E-03 0.  1.
         11   -1    0    0    0    0 -0.00000000000E+00 -0.00000000000E+00 -0.45593999997E+02  0.45594000000E+02  0.51100000000E-03 0. -1.
    9900012    2    1    2    0    0 -0.36063360226E+02 -0.45116440631E+01  0.18227604086E+02  0.50528850554E+02  0.29999971745E+02 0.  0.
         12    1    1    2    0    0  0.36063360226E+02  0.45116440631E+01 -0.18227604086E+02  0.40659149446E+02  0.00000000000E+00 0. -1.
         11    1    3    3    0    0 -0.14941131588E+02 -0.90684569267E+01  0.34572165860E+01  0.17816471900E+02  0.51100000000E-03 0. -1.
        -11    1    3    3    0    0 -0.16577946807E+02 -0.22543300346E+01  0.10863572839E+01  0.16765753686E+02  0.51100000000E-03 0.  1.
        -12    1    3    3    0    0 -0.45442818300E+01  0.68111428982E+01  0.13684030216E+02  0.15946624969E+02  0.00000000000E+00 0.  1.
</event>
<event>
 7    1  0.2661323E-011  0.5052886E+02  0.7816164E-02  0.1300439E+00
        -11   -1    0    0    0    0  0.00000000000E+00  0.00000000000E+00  0.45593999997E+02  0.45594000000E+02  0.51100000000E-03 0.  1.
         11   -1    0    0    0    0 -0.00000000000E+00 -0.00000000000E+00 -0.45593999997E+02  0.45594000000E+02  0.51100000000E-03 0. -1.
    9900012    2    1    2    0    0 -0.36431605807E+01 -0.13797965910E+02  0.38072421669E+02  0.50528858666E+02  0.29999996402E+02 0.  0.
         12    1    1    2    0    0  0.36431605807E+01  0.13797965910E+02 -0.38072421669E+02  0.40659141334E+02  0.00000000000E+00 0. -1.
         11    1    3    3    0    0  0.33745267329E+01 -0.11554451439E+02  0.39355033161E+02  0.41154725295E+02  0.51100000000E-03 0.  1.
        -11    1    3    3    0    0  0.11549393351E-01  0.97395769382E+00 -0.13236657415E+01  0.16434166344E+01  0.51100000000E-03 0. -1.
        -12    1    3    3    0    0 -0.70292367070E+01 -0.32174721652E+01  0.41054248866E-01  0.77307167371E+01  0.00000000000E+00 0.  1.
</event>
<event>
 7    1  0.2661323E-011  0.5052892E+02  0.7816164E-02  0.1300439E+00
        -11   -1    0    0    0    0  0.00000000000E+00  0.00000000000E+00  0.45593999997E+02  0.45594000000E+02  0.51100000000E-03 0.  1.
         11   -1    0    0    0    0 -0.00000000000E+00 -0.00000000000E+00 -0.45593999997E+02  0.45594000000E+02  0.51100000000E-03 0. -1.
    9900012    2    1    2    0    0 -0.14390556670E+02  0.16134551338E+02  0.34434708199E+02  0.50528917412E+02  0.30000174965E+02 0.  0.
         12    1    1    2    0    0  0.14390556670E+02 -0.16134551338E+02 -0.34434708199E+02  0.40659082588E+02  0.00000000000E+00 0. -1.
         11    1    3    3    0    0  0.45186108203E+01 -0.28872280630E+01  0.12934826048E+02  0.14002273200E+02  0.51100000000E-03 0. -1.
        -11    1    3    3    0    0 -0.62985859704E+01  0.10840330206E+02  0.33834368349E+01  0.12985861130E+02  0.51100000000E-03 0.  1.
        -12    1    3    3    0    0 -0.12610581520E+02  0.81814491948E+01  0.18116445316E+02  0.23540783082E+02  0.00000000000E+00 0.  1.
</event>
<event>
 7    1  0.2661323E-011  0.5052883E+02  0.7816164E-02  0.1300439E+00
        -11   -1    0    0    0    0  0.00000000000E+00  0.00000000000E+00  0.45593999997E+02  0.45594000000E+02  0.51100000000E-03 0.  1.
         11   -1    0    0    0    0 -0.00000000000E+00 -0.00000000000E+00 -0.45593999997E+02  0.45594000000E+02  0.51100000000E-03 0. -1.
    9900012    2    1    2    0    0  0.37989016492E+01 -0.18265246638E+02  0.36126400508E+02  0.50528834955E+02  0.29999924330E+02 0.  0.
         12    1    1    2    0    0 -0.37989016492E+01  0.18265246638E+02 -0.36126400508E+02  0.40659165045E+02  0.00000000000E+00 0. -1.
         11    1    3    3    0    0  0.26363736304E+01  0.36218161851E+01  0.39891308290E+01  0.59984317475E+01  0.51100000000E-03 0. -1.
        -11    1    3    3    0    0 -0.88531438928E+00  0.32628388121E+01  0.11333690140E+02  0.11827190332E+02  0.51100000000E-03 0.  1.
        -12    1    3    3    0    0  0.20478424081E+01 -0.25149901635E+02  0.20803579538E+02  0.32703212876E+02  0.00000000000E+00 0.  1.
</event>
<event>
 7    1  0.2661323E-011  0.5052886E+02  0.7816164E-02  0.1300439E+00
        -11   -1    0    0    0    0  0.00000000000E+00  0.00000000000E+00  0.45593999997E+02  0.45594000000E+02  0.51100000000E-03 0. -1.
         11   -1    0    0    0    0 -0.00000000000E+00 -0.00000000000E+00 -0.45593999997E+02  0.45594000000E+02  0.51100000000E-03 0.  1.
    9900012    2    1    2    0    0 -0.80493124563E+01  0.16861264022E+02 -0.36111934810E+02  0.50528862144E+02  0.30000006973E+02 0.  0.
         12    1    1    2    0    0  0.80493124563E+01 -0.16861264022E+02  0.36111934810E+02  0.40659137856E+02  0.00000000000E+00 0. -1.
         11    1    3    3    0    0 -0.15462358749E+01  0.57177924848E+01  0.10096369592E+01  0.60086074368E+01  0.51100000000E-03 0. -1.
        -11    1    3    3    0    0 -0.10102970794E+00  0.43570239748E+01  0.16363377533E+01  0.46552622292E+01  0.51100000000E-03 0.  1.
        -12    1    3    3    0    0 -0.64020468734E+01  0.67864475624E+01 -0.38757909523E+02  0.39864992478E+02  0.00000000000E+00 0.  1.
</event>
<event>
 7    1  0.2661323E-011  0.5052886E+02  0.7816164E-02  0.1300439E+00
        -11   -1    0    0    0    0  0.00000000000E+00  0.00000000000E+00  0.45593999997E+02  0.45594000000E+02  0.51100000000E-03 0. -1.
         11   -1    0    0    0    0 -0.00000000000E+00 -0.00000000000E+00 -0.45593999997E+02  0.45594000000E+02  0.51100000000E-03 0.  1.
    9900012    2    1    2    0    0  0.49612498674E+01  0.38137545133E+02  0.13193920351E+02  0.50528857323E+02  0.29999992318E+02 0.  0.
         12    1    1    2    0    0 -0.49612498674E+01 -0.38137545133E+02 -0.13193920351E+02  0.40659142677E+02  0.00000000000E+00 0. -1.
         11    1    3    3    0    0 -0.25675052910E+01 -0.12320586924E+01  0.30877843949E+01  0.42005314868E+01  0.51100000000E-03 0. -1.
        -11    1    3    3    0    0 -0.21064459840E+01  0.47223217923E+01 -0.51190058209E+01  0.72761018855E+01  0.51100000000E-03 0.  1.
        -12    1    3    3    0    0  0.96352011424E+01  0.34647282033E+02  0.15225141777E+02  0.39052223950E+02  0.00000000000E+00 0.  1.
</event>
<event>
 7    1  0.2661323E-011  0.5052886E+02  0.7816164E-02  0.1300439E+00
        -11   -1    0    0    0    0  0.00000000000E+00  0.00000000000E+00  0.45593999997E+02  0.45594000000E+02  0.51100000000E-03 0. -1.
         11   -1    0    0    0    0 -0.00000000000E+00 -0.00000000000E+00 -0.45593999997E+02  0.45594000000E+02  0.51100000000E-03 0.  1.
    9900012    2    1    2    0    0 -0.21729795180E+02  0.23827571444E+01 -0.34282707047E+02  0.50528861634E+02  0.30000005423E+02 0.  0.
         12    1    1    2    0    0  0.21729795180E+02 -0.23827571444E+01  0.34282707047E+02  0.40659138366E+02  0.00000000000E+00 0. -1.
         11    1    3    3    0    0 -0.18696491077E+02  0.37739262525E+01 -0.31905848378E+02  0.37172361493E+02  0.51100000000E-03 0. -1.
        -11    1    3    3    0    0 -0.58342850236E+01 -0.52061004655E+00 -0.62055591387E+01  0.85333979775E+01  0.51100000000E-03 0.  1.
         12    1    3    3    0    0  0.28009809201E+01 -0.87055906160E+00  0.38287004700E+01  0.48231021639E+01  0.00000000000E+00 0. -1.
</event>
<event>
 7    1  0.2661323E-011  0.5052883E+02  0.7816164E-02  0.1300439E+00
        -11   -1    0    0    0    0  0.00000000000E+00  0.00000000000E+00  0.45593999997E+02  0.45594000000E+02  0.51100000000E-03 0.  1.
         11   -1    0    0    0    0 -0.00000000000E+00 -0.00000000000E+00 -0.45593999997E+02  0.45594000000E+02  0.51100000000E-03 0. -1.
    9900012    2    1    2    0    0  0.66859902925E+00  0.40569467097E+02  0.26151800730E+01  0.50528833112E+02  0.29999918727E+02 0.  0.
         12    1    1    2    0    0 -0.66859902925E+00 -0.40569467097E+02 -0.26151800730E+01  0.40659166888E+02  0.00000000000E+00 0. -1.
         11    1    3    3    0    0  0.49578742577E+01  0.52310272099E+01 -0.17260730163E+01  0.74110384660E+01  0.51100000000E-03 0. -1.
        -11    1    3    3    0    0  0.47304845824E+01  0.28651327289E+02 -0.37466090680E+01  0.29279909828E+02  0.51100000000E-03 0.  1.
         12    1    3    3    0    0 -0.90197598109E+01  0.66871125985E+01  0.80878621573E+01  0.13837884818E+02  0.00000000000E+00 0. -1.
</event>
<event>
 7    1  0.2661323E-011  0.5052887E+02  0.7816164E-02  0.1300439E+00
        -11   -1    0    0    0    0  0.00000000000E+00  0.00000000000E+00  0.45593999997E+02  0.45594000000E+02  0.51100000000E-03 0. -1.
         11   -1    0    0    0    0 -0.00000000000E+00 -0.00000000000E+00 -0.45593999997E+02  0.45594000000E+02  0.51100000000E-03 0.  1.
    9900012    2    1    2    0    0 -0.60656579061E+01  0.19782160975E+02 -0.35000551033E+02  0.50528872226E+02  0.30000037619E+02 0.  0.
         12    1    1    2    0    0  0.60656579061E+01 -0.19782160975E+02  0.35000551033E+02  0.40659127774E+02  0.00000000000E+00 0. -1.
         11    1    3    3    0    0 -0.93288882751E+01  0.13654912811E+01 -0.94160135476E+01  0.13324940310E+02  0.51100000000E-03 0. -1.
        -11    1    3    3    0    0 -0.70562604383E+01  0.78034272578E+01 -0.45021456505E+01  0.11443496147E+02  0.51100000000E-03 0.  1.
        -12    1    3    3    0    0  0.10319490807E+02  0.10613242437E+02 -0.21082391835E+02  0.25760435769E+02  0.00000000000E+00 0.  1.
</event>
<event>
 7    1  0.2661323E-011  0.5052887E+02  0.7816164E-02  0.1300439E+00
        -11   -1    0    0    0    0  0.00000000000E+00  0.00000000000E+00  0.45593999997E+02  0.45594000000E+02  0.51100000000E-03 0.  1.
         11   -1    0    0    0    0 -0.00000000000E+00 -0.00000000000E+00 -0.45593999997E+02  0.45594000000E+02  0.51100000000E-03 0. -1.
    9900012    2    1    2    0    0  0.30902013338E+02  0.24564711302E+02 -0.97367956983E+01  0.50528872364E+02  0.30000038036E+02 0.  0.
         12    1    1    2    0    0 -0.30902013338E+02 -0.24564711302E+02  0.97367956983E+01  0.40659127636E+02  0.00000000000E+00 0. -1.
         11    1    3    3    0    0  0.18951324853E+02  0.16813215879E+02 -0.81189216764E+01  0.26603643196E+02  0.51100000000E-03 0. -1.
        -11    1    3    3    0    0  0.84226047278E+01  0.12990413912E+02 -0.55942059959E+01  0.16461660457E+02  0.51100000000E-03 0.  1.
         12    1    3    3    0    0  0.35280837572E+01 -0.52389184888E+01  0.39763319740E+01  0.74635687106E+01  0.00000000000E+00 0. -1.
</event>
<event>
 7    1  0.2661323E-011  0.5052886E+02  0.7816164E-02  0.1300439E+00
        -11   -1    0    0    0    0  0.00000000000E+00  0.00000000000E+00  0.45593999997E+02  0.45594000000E+02  0.51100000000E-03 0. -1.
         11   -1    0    0    0    0 -0.00000000000E+00 -0.00000000000E+00 -0.45593999997E+02  0.45594000000E+02  0.51100000000E-03 0.  1.
    9900012    2    1    2    0    0  0.89912721142E+01  0.39428724754E+02 -0.42069821369E+01  0.50528855780E+02  0.29999987630E+02 0.  0.
         12    1    1    2    0    0 -0.89912721142E+01 -0.39428724754E+02  0.42069821369E+01  0.40659144220E+02  0.00000000000E+00 0. -1.
         11    1    3    3    0    0 -0.50009518445E+01 -0.13509321934E+01  0.21770767114E+01  0.56190924899E+01  0.51100000000E-03 0. -1.
        -11    1    3    3    0    0  0.80205800231E+01  0.18733865791E+02 -0.82679068254E+01  0.21991946592E+02  0.51100000000E-03 0.  1.
        -12    1    3    3    0    0  0.59716439356E+01  0.22045791157E+02  0.18838479771E+01  0.22917816699E+02  0.00000000000E+00 0.  1.
</event>
<event>
 7    1  0.2661323E-011  0.5052886E+02  0.7816164E-02  0.1300439E+00
        -11   -1    0    0    0    0  0.00000000000E+00  0.00000000000E+00  0.45593999997E+02  0.45594000000E+02  0.51100000000E-03 0. -1.
         11   -1    0    0    0    0 -0.00000000000E+00 -0.00000000000E+00 -0.45593999997E+02  0.45594000000E+02  0.51100000000E-03 0.  1.
    9900012    2    1    2    0    0  0.31218523655E+01  0.26219699922E+02 -0.30918391359E+02  0.50528861416E+02  0.30000004760E+02 0.  0.
         12    1    1    2    0    0 -0.31218523655E+01 -0.26219699922E+02  0.30918391359E+02  0.40659138584E+02  0.00000000000E+00 0. -1.
         11    1    3    3    0    0  0.36130545438E+01 -0.22222833184E+01 -0.35217846127E+01  0.55132271315E+01  0.51100000000E-03 0. -1.
        -11    1    3    3    0    0 -0.91036987911E+01  0.45219856248E+01 -0.96070318456E+01  0.13986448685E+02  0.51100000000E-03 0.  1.
         12    1    3    3    0    0  0.86124966128E+01  0.23919997616E+02 -0.17789574900E+02  0.31029185600E+02  0.00000000000E+00 0. -1.
</event>
<event>
 7    1  0.2661323E-011  0.5052886E+02  0.7816164E-02  0.1300439E+00
        -11   -1    0    0    0    0  0.00000000000E+00  0.00000000000E+00  0.45593999997E+02  0.45594000000E+02  0.51100000000E-03 0. -1.
         11   -1    0    0    0    0 -0.00000000000E+00 -0.00000000000E+00 -0.45593999997E+02  0.45594000000E+02  0.51100000000E-03 0.  1.
    9900012    2    1    2    0    0  0.32886393520E+02  0.72924019578E+01 -0.22769971915E+02  0.50528860485E+02  0.30000001931E+02 0.  0.
         12    1    1    2    0    0 -0.32886393520E+02 -0.72924019578E+01  0.22769971915E+02  0.40659139515E+02  0.00000000000E+00 0. -1.
         11    1    3    3    0    0  0.17030842499E+02  0.69043603137E+01 -0.12485112913E+02  0.22217061738E+02  0.51100000000E-03 0. -1.
        -11    1    3    3    0    0  0.20435451684E+02 -0.10998125591E+01 -0.11318721714E+02  0.23386550295E+02  0.51100000000E-03 0.  1.
         12    1    3    3    0    0 -0.45799006628E+01  0.14878542032E+01  0.10338627119E+01  0.49252484525E+01  0.00000000000E+00 0. -1.
</event>
<event>
 7    1  0.2817535E-011  0.5052886E+02  0.7816164E-02  0.1300439E+00
        -11   -1    0    0    0    0  0.00000000000E+00  0.00000000000E+00  0.45593999997E+02  0.45594000000E+02  0.51100000000E-03 0. -1.
         11   -1    0    0    0    0 -0.00000000000E+00 -0.00000000000E+00 -0.45593999997E+02  0.45594000000E+02  0.51100000000E-03 0.  1.
    9900012    2    1    2    0    0 -0.20116396492E+02  0.12480741889E+02 -0.33056429380E+02  0.50528857741E+02  0.29999993589E+02 0.  0.
         12    1    1    2    0    0  0.20116396492E+02 -0.12480741889E+02  0.33056429380E+02  0.40659142259E+02  0.00000000000E+00 0. -1.
         11    1    3    3    0    0 -0.48375816645E+01  0.31960350888E+01  0.23239497223E+01  0.62464053041E+01  0.51100000000E-03 0. -1.
        -11    1    3    3    0    0 -0.18523435023E+02  0.20463303930E+01 -0.23404881129E+02  0.29918114480E+02  0.51100000000E-03 0.  1.
         12    1    3    3    0    0  0.32446201956E+01  0.72383764075E+01 -0.11975497973E+02  0.14364337956E+02  0.00000000000E+00 0. -1.
</event>
<event>
 7    1  0.2661323E-011  0.5052886E+02  0.7816164E-02  0.1300439E+00
        -11   -1    0    0    0    0  0.00000000000E+00  0.00000000000E+00  0.45593999997E+02  0.45594000000E+02  0.51100000000E-03 0. -1.
         11   -1    0    0    0    0 -0.00000000000E+00 -0.00000000000E+00 -0.45593999997E+02  0.45594000000E+02  0.51100000000E-03 0.  1.
    9900012    2    1    2    0    0 -0.33841380639E+02 -0.19909644314E+02  0.10560886987E+02  0.50528864320E+02  0.30000013587E+02 0.  0.
         12    1    1    2    0    0  0.33841380639E+02  0.19909644314E+02 -0.10560886987E+02  0.40659135680E+02  0.00000000000E+00 0. -1.
         11    1    3    3    0    0 -0.21677021373E+01 -0.63437390512E+01 -0.77863532543E+01  0.10274690018E+02  0.51100000000E-03 0. -1.
        -11    1    3    3    0    0 -0.57094334464E+01 -0.70275704374E+01  0.47272447393E+01  0.10214265496E+02  0.51100000000E-03 0.  1.
        -12    1    3    3    0    0 -0.25964245056E+02 -0.65383348253E+01  0.13619995502E+02  0.30039908806E+02  0.00000000000E+00 0.  1.
</event>
<event>
 7    1  0.2661323E-011  0.5052886E+02  0.7816164E-02  0.1300439E+00
        -11   -1    0    0    0    0  0.00000000000E+00  0.00000000000E+00  0.45593999997E+02  0.45594000000E+02  0.51100000000E-03 0.  1.
         11   -1    0    0    0    0 -0.00000000000E+00 -0.00000000000E+00 -0.45593999997E+02  0.45594000000E+02  0.51100000000E-03 0. -1.
    9900012    2    1    2    0    0 -0.14443540382E+02  0.31315457099E+02  0.21538152159E+02  0.50528859447E+02  0.29999998775E+02 0.  0.
         12    1    1    2    0    0  0.14443540382E+02 -0.31315457099E+02 -0.21538152159E+02  0.40659140553E+02  0.00000000000E+00 0. -1.
         11    1    3    3    0    0  0.12473663519E+01 -0.13429594315E+01 -0.15272791511E+01  0.23858006448E+01  0.51100000000E-03 0. -1.
        -11    1    3    3    0    0 -0.17161631202E+02  0.20565574699E+02  0.64689537178E+01  0.27555613052E+02  0.51100000000E-03 0.  1.
         12    1    3    3    0    0  0.14707244685E+01  0.12092841832E+02  0.16596477592E+02  0.20587445750E+02  0.00000000000E+00 0. -1.
</event>
<event>
 7    1  0.2661323E-011  0.5052887E+02  0.7816164E-02  0.1300439E+00
        -11   -1    0    0    0    0  0.00000000000E+00  0.00000000000E+00  0.45593999997E+02  0.45594000000E+02  0.51100000000E-03 0.  1.
         11   -1    0    0    0    0 -0.00000000000E+00 -0.00000000000E+00 -0.45593999997E+02  0.45594000000E+02  0.51100000000E-03 0. -1.
    9900012    2    1    2    0    0  0.75435896316E+01  0.78511051927E+01  0.39174216302E+02  0.50528870396E+02  0.30000032057E+02 0.  0.
         12    1    1    2    0    0 -0.75435896316E+01 -0.78511051927E+01 -0.39174216302E+02  0.40659129604E+02  0.00000000000E+00 0. -1.
         11    1    3    3    0    0  0.44016539362E+01  0.11986053474E+02  0.43636829214E+01  0.13493767604E+02  0.51100000000E-03 0.  1.
        -11    1    3    3    0    0  0.52399945180E+00  0.16336217025E+01  0.65029955493E-01  0.17168355916E+01  0.51100000000E-03 0. -1.
        -12    1    3    3    0    0  0.26179362436E+01 -0.57685699837E+01  0.34745503425E+02  0.35318267201E+02  0.00000000000E+00 0.  1.
</event>
<event>
 7    1  0.2661323E-011  0.5052889E+02  0.7816164E-02  0.1300439E+00
        -11   -1    0    0    0    0  0.00000000000E+00  0.00000000000E+00  0.45593999997E+02  0.45594000000E+02  0.51100000000E-03 0.  1.
         11   -1    0    0    0    0 -0.00000000000E+00 -0.00000000000E+00 -0.45593999997E+02  0.45594000000E+02  0.51100000000E-03 0. -1.
    9900012    2    1    2    0    0 -0.53540982841E+01  0.80953830729E+01  0.39483689546E+02  0.50528888650E+02  0.30000087542E+02 0.  0.
         12    1    1    2    0    0  0.53540982841E+01 -0.80953830729E+01 -0.39483689546E+02  0.40659111350E+02  0.00000000000E+00 0. -1.
         11    1    3    3    0    0  0.56556564457E+01  0.50043600350E+00  0.23255821182E+02  0.23938882705E+02  0.51100000000E-03 0. -1.
        -11    1    3    3    0    0 -0.90979670505E+01  0.11953631284E+02  0.15815480421E+02  0.21812650608E+02  0.51100000000E-03 0.  1.
         12    1    3    3    0    0 -0.19117876794E+01 -0.43586842142E+01  0.41238794288E+00  0.47773553380E+01  0.00000000000E+00 0. -1.
</event>
<event>
 7    1  0.2661323E-011  0.5052887E+02  0.7816164E-02  0.1300439E+00
        -11   -1    0    0    0    0  0.00000000000E+00  0.00000000000E+00  0.45593999997E+02  0.45594000000E+02  0.51100000000E-03 0. -1.
         11   -1    0    0    0    0 -0.00000000000E+00 -0.00000000000E+00 -0.45593999997E+02  0.45594000000E+02  0.51100000000E-03 0.  1.
    9900012    2    1    2    0    0  0.25528092872E+02 -0.22295777950E+02 -0.22458402432E+02  0.50528867202E+02  0.30000022347E+02 0.  0.
         12    1    1    2    0    0 -0.25528092872E+02  0.22295777950E+02  0.22458402432E+02  0.40659132798E+02  0.00000000000E+00 0. -1.
         11    1    3    3    0    0  0.82745520884E+01 -0.93326034664E+01  0.13790122960E+01  0.12548600515E+02  0.51100000000E-03 0. -1.
        -11    1    3    3    0    0  0.20806551449E+02 -0.13535336030E+02 -0.16493271338E+02  0.29801776865E+02  0.51100000000E-03 0.  1.
        -12    1    3    3    0    0 -0.35530106654E+01  0.57216154585E+00 -0.73441433903E+01  0.81784898215E+01  0.00000000000E+00 0.  1.
</event>
<event>
 7    1  0.2661323E-011  0.5052886E+02  0.7816164E-02  0.1300439E+00
        -11   -1    0    0    0    0  0.00000000000E+00  0.00000000000E+00  0.45593999997E+02  0.45594000000E+02  0.51100000000E-03 0.  1.
         11   -1    0    0    0    0 -0.00000000000E+00 -0.00000000000E+00 -0.45593999997E+02  0.45594000000E+02  0.51100000000E-03 0. -1.
    9900012    2    1    2    0    0 -0.25265615844E+02  0.12014520661E+02  0.29503650324E+02  0.50528862858E+02  0.30000009143E+02 0.  0.
         12    1    1    2    0    0  0.25265615844E+02 -0.12014520661E+02 -0.29503650324E+02  0.40659137142E+02  0.00000000000E+00 0. -1.
         11    1    3    3    0    0  0.22983911338E+01  0.39765993293E+01  0.38896029376E+01  0.60187170811E+01  0.51100000000E-03 0. -1.
        -11    1    3    3    0    0 -0.22414887287E+01  0.54381085484E+01  0.16425526695E+02  0.17446925911E+02  0.51100000000E-03 0.  1.
        -12    1    3    3    0    0 -0.25322518249E+02  0.25998127833E+01  0.91885206919E+01  0.27063219866E+02  0.00000000000E+00 0.  1.
</event>
<event>
 7    1  0.2661323E-011  0.5052886E+02  0.7816164E-02  0.1300439E+00
        -11   -1    0    0    0    0  0.00000000000E+00  0.00000000000E+00  0.45593999997E+02  0.45594000000E+02  0.51100000000E-03 0.  1.
         11   -1    0    0    0    0 -0.00000000000E+00 -0.00000000000E+00 -0.45593999997E+02  0.45594000000E+02  0.51100000000E-03 0. -1.
    9900012    2    1    2    0    0 -0.32087043947E+02  0.15770831216E+02  0.19361511865E+02  0.50528860213E+02  0.30000001103E+02 0.  0.
         12    1    1    2    0    0  0.32087043947E+02 -0.15770831216E+02 -0.19361511865E+02  0.40659139787E+02  0.00000000000E+00 0. -1.
         11    1    3    3    0    0 -0.13954756234E+01  0.13641119519E+02  0.12314746892E+02  0.18430422818E+02  0.51100000000E-03 0. -1.
        -11    1    3    3    0    0 -0.44216593891E+01  0.22528139689E+01  0.19864839771E+01  0.53453120942E+01  0.51100000000E-03 0.  1.
         12    1    3    3    0    0 -0.26269908935E+02 -0.12310227248E+00  0.50602809956E+01  0.26753125301E+02  0.00000000000E+00 0. -1.
</event>
<event>
 7    1  0.2661323E-011  0.5052885E+02  0.7816164E-02  0.1300439E+00
        -11   -1    0    0    0    0  0.00000000000E+00  0.00000000000E+00  0.45593999997E+02  0.45594000000E+02  0.51100000000E-03 0. -1.
         11   -1    0    0    0    0 -0.00000000000E+00 -0.00000000000E+00 -0.45593999997E+02  0.45594000000E+02  0.51100000000E-03 0.  1.
    9900012    2    1    2    0    0  0.12839232509E+00 -0.59489404845E+01 -0.40221391345E+02  0.50528847288E+02  0.29999961818E+02 0.  0.
         12    1    1    2    0    0 -0.12839232509E+00  0.59489404845E+01  0.40221391345E+02  0.40659152712E+02  0.00000000000E+00 0. -1.
         11    1    3    3    0    0  0.64654475489E+01  0.35581237330E+01 -0.73251181209E+01  0.10398058100E+02  0.51100000000E-03 0. -1.
        -11    1    3    3    0    0  0.56526670618E+01 -0.60759804872E+01 -0.52983301422E+01  0.98459375556E+01  0.51100000000E-03 0.  1.
        -12    1    3    3    0    0 -0.11989722286E+02 -0.34310837303E+01 -0.27597943082E+02  0.30284851633E+02  0.00000000000E+00 0.  1.
</event>
<event>
 7    1  0.2661323E-011  0.5052886E+02  0.7816164E-02  0.1300439E+00
        -11   -1    0    0    0    0  0.00000000000E+00  0.00000000000E+00  0.45593999997E+02  0.45594000000E+02  0.51100000000E-03 0.  1.
         11   -1    0    0    0    0 -0.00000000000E+00 -0.00000000000E+00 -0.45593999997E+02  0.45594000000E+02  0.51100000000E-03 0. -1.
    9900012    2    1    2    0    0 -0.33760024835E+02  0.96679800760E+01  0.20492843820E+02  0.50528858796E+02  0.29999996797E+02 0.  0.
         12    1    1    2    0    0  0.33760024835E+02 -0.96679800760E+01 -0.20492843820E+02  0.40659141204E+02  0.00000000000E+00 0. -1.
         11    1    3    3    0    0 -0.10930904831E+02  0.64119442102E+01  0.42907451386E+01  0.13379394720E+02  0.51100000000E-03 0. -1.
        -11    1    3    3    0    0 -0.17309465664E+02  0.10018361253E+02  0.15057393665E+01  0.20056231328E+02  0.51100000000E-03 0.  1.
        -12    1    3    3    0    0 -0.55196543399E+01 -0.67623253874E+01  0.14696359315E+02  0.17093232748E+02  0.00000000000E+00 0.  1.
</event>
<event>
 7    1  0.2661323E-011  0.5052886E+02  0.7816164E-02  0.1300439E+00
        -11   -1    0    0    0    0  0.00000000000E+00  0.00000000000E+00  0.45593999997E+02  0.45594000000E+02  0.51100000000E-03 0.  1.
         11   -1    0    0    0    0 -0.00000000000E+00 -0.00000000000E+00 -0.45593999997E+02  0.45594000000E+02  0.51100000000E-03 0. -1.
    9900012    2    1    2    0    0 -0.10319319108E+01 -0.27707387979E+02  0.29738887102E+02  0.50528860336E+02  0.30000001479E+02 0.  0.
         12    1    1    2    0    0  0.10319319108E+01  0.27707387979E+02 -0.29738887102E+02  0.40659139664E+02  0.00000000000E+00 0. -1.
         11    1    3    3    0    0 -0.64974763995E+00 -0.12199179359E+02 -0.21742016420E+01  0.12408436729E+02  0.51100000000E-03 0. -1.
        -11    1    3    3    0    0  0.39125482795E+01  0.29039336106E+00  0.31795474437E+01  0.50499390641E+01  0.51100000000E-03 0.  1.
        -12    1    3    3    0    0 -0.42947325503E+01 -0.15798601982E+02  0.28733541301E+02  0.33070484543E+02  0.00000000000E+00 0.  1.
</event>
<event>
 7    1  0.2661323E-011  0.5052886E+02  0.7816164E-02  0.1300439E+00
        -11   -1    0    0    0    0  0.00000000000E+00  0.00000000000E+00  0.45593999997E+02  0.45594000000E+02  0.51100000000E-03 0. -1.
         11   -1    0    0    0    0 -0.00000000000E+00 -0.00000000000E+00 -0.45593999997E+02  0.45594000000E+02  0.51100000000E-03 0.  1.
    9900012    2    1    2    0    0  0.36348068669E+02  0.15540967186E+02 -0.95111599815E+01  0.50528856855E+02  0.29999990898E+02 0.  0.
         12    1    1    2    0    0 -0.36348068669E+02 -0.15540967186E+02  0.95111599815E+01  0.40659143145E+02  0.00000000000E+00 0. -1.
         11    1    3    3    0    0  0.24801943382E+01  0.25722462172E+01  0.29862447245E+01  0.46567663000E+01  0.51100000000E-03 0. -1.
        -11    1    3    3    0    0  0.26821042103E+01 -0.51335402269E+01  0.31172404351E+01  0.65775456249E+01  0.51100000000E-03 0.  1.
        -12    1    3    3    0    0  0.31185770121E+02  0.18102261195E+02 -0.15614645141E+02  0.39294544931E+02  0.00000000000E+00 0.  1.
</event>
<event>
 7    1  0.2661323E-011  0.5052886E+02  0.7816164E-02  0.1300439E+00
        -11   -1    0    0    0    0  0.00000000000E+00  0.00000000000E+00  0.45593999997E+02  0.45594000000E+02  0.51100000000E-03 0.  1.
         11   -1    0    0    0    0 -0.00000000000E+00 -0.00000000000E+00 -0.45593999997E+02  0.45594000000E+02  0.51100000000E-03 0. -1.
    9900012    2    1    2    0    0  0.48458548345E+01  0.34099223851E+02  0.21608468924E+02  0.50528864427E+02  0.30000013911E+02 0.  0.
         12    1    1    2    0    0 -0.48458548345E+01 -0.34099223851E+02 -0.21608468924E+02  0.40659135573E+02  0.00000000000E+00 0. -1.
         11    1    3    3    0    0  0.90350836100E+01  0.81520633655E+01 -0.86471920392E+00  0.12199861168E+02  0.51100000000E-03 0. -1.
        -11    1    3    3    0    0  0.62794436347E+01  0.12337549637E+02  0.91214818671E+01  0.16578539596E+02  0.51100000000E-03 0.  1.
         12    1    3    3    0    0 -0.10468672410E+02  0.13609610849E+02  0.13351706261E+02  0.21750463663E+02  0.00000000000E+00 0. -1.
</event>
<event>
 7    1  0.2661323E-011  0.5052885E+02  0.7816164E-02  0.1300439E+00
        -11   -1    0    0    0    0  0.00000000000E+00  0.00000000000E+00  0.45593999997E+02  0.45594000000E+02  0.51100000000E-03 0.  1.
         11   -1    0    0    0    0 -0.00000000000E+00 -0.00000000000E+00 -0.45593999997E+02  0.45594000000E+02  0.51100000000E-03 0. -1.
    9900012    2    1    2    0    0  0.18400873240E+02  0.24052305613E+02  0.27130441380E+02  0.50528851082E+02  0.29999973348E+02 0.  0.
         12    1    1    2    0    0 -0.18400873240E+02 -0.24052305613E+02 -0.27130441380E+02  0.40659148918E+02  0.00000000000E+00 0. -1.
         11    1    3    3    0    0  0.77851022288E+01 -0.39474325636E+01  0.17928895819E+01  0.89109199228E+01  0.51100000000E-03 0. -1.
        -11    1    3    3    0    0  0.41650737287E+01  0.12127714033E+01  0.78946222634E+01  0.90079806053E+01  0.51100000000E-03 0.  1.
        -12    1    3    3    0    0  0.64506972823E+01  0.26786966774E+02  0.17442929535E+02  0.32609950554E+02  0.00000000000E+00 0.  1.
</event>
<event>
 7    1  0.2661323E-011  0.5052886E+02  0.7816164E-02  0.1300439E+00
        -11   -1    0    0    0    0  0.00000000000E+00  0.00000000000E+00  0.45593999997E+02  0.45594000000E+02  0.51100000000E-03 0.  1.
         11   -1    0    0    0    0 -0.00000000000E+00 -0.00000000000E+00 -0.45593999997E+02  0.45594000000E+02  0.51100000000E-03 0. -1.
    9900012    2    1    2    0    0 -0.19709700961E+02 -0.34253036358E+02 -0.95615231027E+01  0.50528861596E+02  0.30000005306E+02 0.  0.
         12    1    1    2    0    0  0.19709700961E+02  0.34253036358E+02  0.95615231027E+01  0.40659138404E+02  0.00000000000E+00 0. -1.
         11    1    3    3    0    0 -0.47007704000E+01 -0.29917662711E+01  0.86182727865E+01  0.10262676739E+02  0.51100000000E-03 0. -1.
        -11    1    3    3    0    0 -0.11247933787E+02 -0.17286518501E+02 -0.63642244396E+01  0.21583398466E+02  0.51100000000E-03 0.  1.
        -12    1    3    3    0    0 -0.37609967739E+01 -0.13974751586E+02 -0.11815571450E+02  0.18682786390E+02  0.00000000000E+00 0.  1.
</event>
<event>
 7    1  0.2661323E-011  0.5052886E+02  0.7816164E-02  0.1300439E+00
        -11   -1    0    0    0    0  0.00000000000E+00  0.00000000000E+00  0.45593999997E+02  0.45594000000E+02  0.51100000000E-03 0. -1.
         11   -1    0    0    0    0 -0.00000000000E+00 -0.00000000000E+00 -0.45593999997E+02  0.45594000000E+02  0.51100000000E-03 0.  1.
    9900012    2    1    2    0    0 -0.38600146744E+02  0.10321440893E+02 -0.75274457475E+01  0.50528856990E+02  0.29999991308E+02 0.  0.
         12    1    1    2    0    0  0.38600146744E+02 -0.10321440893E+02  0.75274457475E+01  0.40659143010E+02  0.00000000000E+00 0. -1.
         11    1    3    3    0    0 -0.42945209431E+01  0.34288399441E+01 -0.10212734905E+02  0.11597405227E+02  0.51100000000E-03 0. -1.
        -11    1    3    3    0    0 -0.14507636328E+02  0.57710424868E+01 -0.67032476340E+01  0.16991467633E+02  0.51100000000E-03 0.  1.
         12    1    3    3    0    0 -0.19797989473E+02  0.11215584620E+01  0.93885367916E+01  0.21939984130E+02  0.00000000000E+00 0. -1.
</event>
<event>
 7    1  0.2661323E-011  0.5052885E+02  0.7816164E-02  0.1300439E+00
        -11   -1    0    0    0    0  0.00000000000E+00  0.00000000000E+00  0.45593999997E+02  0.45594000000E+02  0.51100000000E-03 0.  1.
         11   -1    0    0    0    0 -0.00000000000E+00 -0.00000000000E+00 -0.45593999997E+02  0.45594000000E+02  0.51100000000E-03 0. -1.
    9900012    2    1    2    0    0  0.18800433099E+02 -0.35304279629E+02  0.73019368661E+01  0.50528846949E+02  0.29999960786E+02 0.  0.
         12    1    1    2    0    0 -0.18800433099E+02  0.35304279629E+02 -0.73019368661E+01  0.40659153051E+02  0.00000000000E+00 0. -1.
         11    1    3    3    0    0  0.55100753392E+01 -0.23833338470E+02 -0.13985942975E+01  0.24501939089E+02  0.51100000000E-03 0. -1.
        -11    1    3    3    0    0  0.90500047895E+01 -0.11186455869E+02 -0.19869834202E+01  0.14525408255E+02  0.51100000000E-03 0.  1.
        -12    1    3    3    0    0  0.42403529698E+01 -0.28448529057E+00  0.10687514584E+02  0.11501499605E+02  0.00000000000E+00 0.  1.
</event>
<event>
 7    1  0.2661323E-011  0.5052886E+02  0.7816164E-02  0.1300439E+00
        -11   -1    0    0    0    0  0.00000000000E+00  0.00000000000E+00  0.45593999997E+02  0.45594000000E+02  0.51100000000E-03 0.  1.
         11   -1    0    0    0    0 -0.00000000000E+00 -0.00000000000E+00 -0.45593999997E+02  0.45594000000E+02  0.51100000000E-03 0. -1.
    9900012    2    1    2    0    0 -0.31633879888E+02  0.29675729990E+01  0.25370393101E+02  0.50528859670E+02  0.29999999454E+02 0.  0.
         12    1    1    2    0    0  0.31633879888E+02 -0.29675729990E+01 -0.25370393101E+02  0.40659140330E+02  0.00000000000E+00 0. -1.
         11    1    3    3    0    0 -0.81816018944E+01  0.14550040602E+01  0.22098639897E+02  0.23609437349E+02  0.51100000000E-03 0. -1.
        -11    1    3    3    0    0 -0.11810109820E+02 -0.19946229315E+01  0.73997464884E+01  0.14078830312E+02  0.51100000000E-03 0.  1.
         12    1    3    3    0    0 -0.11642168173E+02  0.35071918704E+01 -0.41279932847E+01  0.12840592009E+02  0.00000000000E+00 0. -1.
</event>
<event>
 7    1  0.2661323E-011  0.5052887E+02  0.7816164E-02  0.1300439E+00
        -11   -1    0    0    0    0  0.00000000000E+00  0.00000000000E+00  0.45593999997E+02  0.45594000000E+02  0.51100000000E-03 0. -1.
         11   -1    0    0    0    0 -0.00000000000E+00 -0.00000000000E+00 -0.45593999997E+02  0.45594000000E+02  0.51100000000E-03 0.  1.
    9900012    2    1    2    0    0 -0.19431982096E+02 -0.25152471146E+02  0.25355793434E+02  0.50528868263E+02  0.30000025571E+02 0.  0.
         12    1    1    2    0    0  0.19431982096E+02  0.25152471146E+02 -0.25355793434E+02  0.40659131737E+02  0.00000000000E+00 0. -1.
         11    1    3    3    0    0 -0.46735993048E+01  0.87848248750E+00  0.41245867985E+01  0.62949565894E+01  0.51100000000E-03 0. -1.
        -11    1    3    3    0    0 -0.19993900192E+02 -0.17068169667E+02  0.21330358324E+02  0.33853547039E+02  0.51100000000E-03 0.  1.
         12    1    3    3    0    0  0.52355174000E+01 -0.89627839669E+01 -0.99151687983E-01  0.10380364634E+02  0.00000000000E+00 0. -1.
</event>
<event>
 7    1  0.2661323E-011  0.5052887E+02  0.7816164E-02  0.1300439E+00
        -11   -1    0    0    0    0  0.00000000000E+00  0.00000000000E+00  0.45593999997E+02  0.45594000000E+02  0.51100000000E-03 0. -1.
         11   -1    0    0    0    0 -0.00000000000E+00 -0.00000000000E+00 -0.45593999997E+02  0.45594000000E+02  0.51100000000E-03 0.  1.
    9900012    2    1    2    0    0 -0.23959117587E+00  0.33670925198E+02  0.22789823600E+02  0.50528872276E+02  0.30000037769E+02 0.  0.
         12    1    1    2    0    0  0.23959117587E+00 -0.33670925198E+02 -0.22789823600E+02  0.40659127724E+02  0.00000000000E+00 0. -1.
         11    1    3    3    0    0  0.13592798878E+02  0.24639846353E+02  0.12485860755E+02  0.30786083361E+02  0.51100000000E-03 0. -1.
        -11    1    3    3    0    0 -0.27931272995E+01  0.27300646086E+01  0.11264256951E+01  0.40649290260E+01  0.51100000000E-03 0.  1.
         12    1    3    3    0    0 -0.11039262755E+02  0.63010142361E+01  0.91775371496E+01  0.15677859889E+02  0.00000000000E+00 0. -1.
</event>
<event>
 7    1  0.2661323E-011  0.5052886E+02  0.7816164E-02  0.1300439E+00
        -11   -1    0    0    0    0  0.00000000000E+00  0.00000000000E+00  0.45593999997E+02  0.45594000000E+02  0.51100000000E-03 0. -1.
         11   -1    0    0    0    0 -0.00000000000E+00 -0.00000000000E+00 -0.45593999997E+02  0.45594000000E+02  0.51100000000E-03 0.  1.
    9900012    2    1    2    0    0 -0.36160439346E+02 -0.18165973036E+02  0.39479076655E+01  0.50528856809E+02  0.29999990758E+02 0.  0.
         12    1    1    2    0    0  0.36160439346E+02  0.18165973036E+02 -0.39479076655E+01  0.40659143191E+02  0.00000000000E+00 0. -1.
         11    1    3    3    0    0 -0.30831036079E+01  0.55991087258E+01 -0.31179667394E+01  0.71117693459E+01  0.51100000000E-03 0. -1.
        -11    1    3    3    0    0 -0.36152297728E+00  0.65818700302E+00 -0.15217748586E+01  0.16969702341E+01  0.51100000000E-03 0.  1.
        -12    1    3    3    0    0 -0.32715812761E+02 -0.24423268765E+02  0.85876492635E+01  0.41720117230E+02  0.00000000000E+00 0.  1.
</event>
<event>
 7    1  0.2661323E-011  0.5052887E+02  0.7816164E-02  0.1300439E+00
        -11   -1    0    0    0    0  0.00000000000E+00  0.00000000000E+00  0.45593999997E+02  0.45594000000E+02  0.51100000000E-03 0.  1.
         11   -1    0    0    0    0 -0.00000000000E+00 -0.00000000000E+00 -0.45593999997E+02  0.45594000000E+02  0.51100000000E-03 0. -1.
    9900012    2    1    2    0    0 -0.26080035198E+02 -0.16152109844E+02  0.26685317138E+02  0.50528867704E+02  0.30000023872E+02 0.  0.
         12    1    1    2    0    0  0.26080035198E+02  0.16152109844E+02 -0.26685317138E+02  0.40659132296E+02  0.00000000000E+00 0. -1.
         11    1    3    3    0    0 -0.78956095352E+01 -0.46756894568E+01 -0.76255933646E+00  0.92078346440E+01  0.51100000000E-03 0. -1.
        -11    1    3    3    0    0  0.10960633177E+01 -0.81833845255E+01  0.84238784733E+00  0.82993225407E+01  0.51100000000E-03 0.  1.
        -12    1    3    3    0    0 -0.19280488980E+02 -0.32930358616E+01  0.26605488627E+02  0.33021710519E+02  0.00000000000E+00 0.  1.
</event>
<event>
 7    1  0.2661323E-011  0.5052886E+02  0.7816164E-02  0.1300439E+00
        -11   -1    0    0    0    0  0.00000000000E+00  0.00000000000E+00  0.45593999997E+02  0.45594000000E+02  0.51100000000E-03 0.  1.
         11   -1    0    0    0    0 -0.00000000000E+00 -0.00000000000E+00 -0.45593999997E+02  0.45594000000E+02  0.51100000000E-03 0. -1.
    9900012    2    1    2    0    0 -0.62221820015E+01 -0.15977963913E+02  0.36866718657E+02  0.50528858049E+02  0.29999994526E+02 0.  0.
         12    1    1    2    0    0  0.62221820015E+01  0.15977963913E+02 -0.36866718657E+02  0.40659141951E+02  0.00000000000E+00 0. -1.
         11    1    3    3    0    0 -0.19997121108E+01 -0.13608491675E+02  0.20986766502E+02  0.25092514076E+02  0.51100000000E-03 0. -1.
        -11    1    3    3    0    0 -0.99612392192E+01 -0.11425279053E+01  0.16732157006E+02  0.19506325516E+02  0.51100000000E-03 0.  1.
        -12    1    3    3    0    0  0.57387693285E+01 -0.12269443324E+01 -0.85220485023E+00  0.59300184575E+01  0.00000000000E+00 0.  1.
</event>
<event>
 7    1  0.2661323E-011  0.5052886E+02  0.7816164E-02  0.1300439E+00
        -11   -1    0    0    0    0  0.00000000000E+00  0.00000000000E+00  0.45593999997E+02  0.45594000000E+02  0.51100000000E-03 0.  1.
         11   -1    0    0    0    0 -0.00000000000E+00 -0.00000000000E+00 -0.45593999997E+02  0.45594000000E+02  0.51100000000E-03 0. -1.
    9900012    2    1    2    0    0  0.30049202999E+02  0.12414530383E+02  0.24414961697E+02  0.50528861787E+02  0.30000005889E+02 0.  0.
         12    1    1    2    0    0 -0.30049202999E+02 -0.12414530383E+02 -0.24414961697E+02  0.40659138213E+02  0.00000000000E+00 0. -1.
         11    1    3    3    0    0 -0.19223626655E+01 -0.34192907443E+01 -0.12700744276E+01  0.41231197805E+01  0.51100000000E-03 0. -1.
        -11    1    3    3    0    0  0.38613309400E+01 -0.12842951039E+01  0.81601616914E+01  0.91185267249E+01  0.51100000000E-03 0.  1.
         12    1    3    3    0    0  0.28110234725E+02  0.17118116231E+02  0.17524874433E+02  0.37287215282E+02  0.00000000000E+00 0. -1.
</event>
<event>
 7    1  0.2661323E-011  0.5052887E+02  0.7816164E-02  0.1300439E+00
        -11   -1    0    0    0    0  0.00000000000E+00  0.00000000000E+00  0.45593999997E+02  0.45594000000E+02  0.51100000000E-03 0. -1.
         11   -1    0    0    0    0 -0.00000000000E+00 -0.00000000000E+00 -0.45593999997E+02  0.45594000000E+02  0.51100000000E-03 0.  1.
    9900012    2    1    2    0    0  0.38976119362E+02  0.97939357003E+01  0.61730084866E+01  0.50528867068E+02  0.30000021940E+02 0.  0.
         12    1    1    2    0    0 -0.38976119362E+02 -0.97939357003E+01 -0.61730084866E+01  0.40659132932E+02  0.00000000000E+00 0. -1.
         11    1    3    3    0    0  0.30133147152E+02  0.32128837776E+01  0.10210630432E+02  0.31977901019E+02  0.51100000000E-03 0. -1.
        -11    1    3    3    0    0  0.10475428011E+02  0.21647775759E+01  0.20127190542E+01  0.10884479419E+02  0.51100000000E-03 0.  1.
        -12    1    3    3    0    0 -0.16324558014E+01  0.44162743469E+01 -0.60503409996E+01  0.76664866309E+01  0.00000000000E+00 0.  1.
</event>
<event>
 7    1  0.2661323E-011  0.5052880E+02  0.7816164E-02  0.1300439E+00
        -11   -1    0    0    0    0  0.00000000000E+00  0.00000000000E+00  0.45593999997E+02  0.45594000000E+02  0.51100000000E-03 0.  1.
         11   -1    0    0    0    0 -0.00000000000E+00 -0.00000000000E+00 -0.45593999997E+02  0.45594000000E+02  0.51100000000E-03 0. -1.
    9900012    2    1    2    0    0  0.18775549991E+02 -0.20642490402E+02  0.29572571961E+02  0.50528798091E+02  0.29999812277E+02 0.  0.
         12    1    1    2    0    0 -0.18775549991E+02  0.20642490402E+02 -0.29572571961E+02  0.40659201909E+02  0.00000000000E+00 0. -1.
         11    1    3    3    0    0  0.11349192281E+02 -0.18996703958E+01  0.12801745293E+01  0.11578072384E+02  0.51100000000E-03 0.  1.
        -11    1    3    3    0    0  0.12834101963E+02 -0.93275203083E+01  0.17931177458E+02  0.23942513101E+02  0.51100000000E-03 0. -1.
         12    1    3    3    0    0 -0.54077442520E+01 -0.94152996984E+01  0.10361219973E+02  0.15008212606E+02  0.00000000000E+00 0. -1.
</event>
<event>
 7    1  0.2661323E-011  0.5052888E+02  0.7816164E-02  0.1300439E+00
        -11   -1    0    0    0    0  0.00000000000E+00  0.00000000000E+00  0.45593999997E+02  0.45594000000E+02  0.51100000000E-03 0.  1.
         11   -1    0    0    0    0 -0.00000000000E+00 -0.00000000000E+00 -0.45593999997E+02  0.45594000000E+02  0.51100000000E-03 0. -1.
    9900012    2    1    2    0    0 -0.24898955213E+02  0.26795397276E+02  0.17754235345E+02  0.50528878532E+02  0.30000056785E+02 0.  0.
         12    1    1    2    0    0  0.24898955213E+02 -0.26795397276E+02 -0.17754235345E+02  0.40659121468E+02  0.00000000000E+00 0. -1.
         11    1    3    3    0    0 -0.10488890723E+02 -0.30479402944E+01  0.34488576065E+00  0.10928207314E+02  0.51100000000E-03 0. -1.
        -11    1    3    3    0    0  0.25764117509E+00  0.93424894462E+00 -0.17097828984E+01  0.19653391276E+01  0.51100000000E-03 0.  1.
        -12    1    3    3    0    0 -0.14667705665E+02  0.28909088626E+02  0.19119132483E+02  0.37635332090E+02  0.00000000000E+00 0.  1.
</event>
<event>
 7    1  0.2661323E-011  0.5052882E+02  0.7816164E-02  0.1300439E+00
        -11   -1    0    0    0    0  0.00000000000E+00  0.00000000000E+00  0.45593999997E+02  0.45594000000E+02  0.51100000000E-03 0.  1.
         11   -1    0    0    0    0 -0.00000000000E+00 -0.00000000000E+00 -0.45593999997E+02  0.45594000000E+02  0.51100000000E-03 0. -1.
    9900012    2    1    2    0    0  0.39251592587E+00 -0.69318084718E+01  0.40062012482E+02  0.50528820452E+02  0.29999880245E+02 0.  0.
         12    1    1    2    0    0 -0.39251592587E+00  0.69318084718E+01 -0.40062012482E+02  0.40659179548E+02  0.00000000000E+00 0. -1.
         11    1    3    3    0    0  0.64721742051E+01  0.83075378504E+00  0.12431683517E+02  0.14040154775E+02  0.51100000000E-03 0. -1.
        -11    1    3    3    0    0  0.71467498651E+01  0.14143650312E+01  0.12077183460E+02  0.14104425641E+02  0.51100000000E-03 0.  1.
        -12    1    3    3    0    0 -0.13226408144E+02 -0.91769272880E+01  0.15553145505E+02  0.22384240035E+02  0.00000000000E+00 0.  1.
</event>
<event>
 7    1  0.2661323E-011  0.5052877E+02  0.7816164E-02  0.1300439E+00
        -11   -1    0    0    0    0  0.00000000000E+00  0.00000000000E+00  0.45593999997E+02  0.45594000000E+02  0.51100000000E-03 0.  1.
         11   -1    0    0    0    0 -0.00000000000E+00 -0.00000000000E+00 -0.45593999997E+02  0.45594000000E+02  0.51100000000E-03 0. -1.
    9900012    2    1    2    0    0  0.34779334865E+02  0.19713603285E+02  0.74124726385E+01  0.50528769329E+02  0.29999724853E+02 0.  0.
         12    1    1    2    0    0 -0.34779334865E+02 -0.19713603285E+02 -0.74124726385E+01  0.40659230671E+02  0.00000000000E+00 0. -1.
         11    1    3    3    0    0  0.56433164206E+01 -0.25934492482E+01  0.82220892689E+01  0.10304161850E+02  0.51100000000E-03 0. -1.
        -11    1    3    3    0    0  0.11075014416E+02 -0.44821663823E+00  0.91474757405E+00  0.11121762713E+02  0.51100000000E-03 0.  1.
         12    1    3    3    0    0  0.18061004028E+02  0.22755269171E+02 -0.17243642044E+01  0.29102844766E+02  0.00000000000E+00 0. -1.
</event>
<event>
 7    1  0.2661323E-011  0.5052886E+02  0.7816164E-02  0.1300439E+00
        -11   -1    0    0    0    0  0.00000000000E+00  0.00000000000E+00  0.45593999997E+02  0.45594000000E+02  0.51100000000E-03 0.  1.
         11   -1    0    0    0    0 -0.00000000000E+00 -0.00000000000E+00 -0.45593999997E+02  0.45594000000E+02  0.51100000000E-03 0. -1.
    9900012    2    1    2    0    0 -0.24397330759E+02 -0.31100517360E+02  0.95233166525E+01  0.50528862180E+02  0.30000007081E+02 0.  0.
         12    1    1    2    0    0  0.24397330759E+02  0.31100517360E+02 -0.95233166525E+01  0.40659137820E+02  0.00000000000E+00 0. -1.
         11    1    3    3    0    0 -0.14800408276E+01 -0.83218071780E+01  0.94414918736E+01  0.12672204410E+02  0.51100000000E-03 0. -1.
        -11    1    3    3    0    0 -0.71774999098E+01 -0.67889770260E+01  0.93297566474E+01  0.13588637657E+02  0.51100000000E-03 0.  1.
         12    1    3    3    0    0 -0.15739790021E+02 -0.15989733156E+02 -0.92479318684E+01  0.24268020112E+02  0.00000000000E+00 0. -1.
</event>
<event>
 7    1  0.2661323E-011  0.5052885E+02  0.7816164E-02  0.1300439E+00
        -11   -1    0    0    0    0  0.00000000000E+00  0.00000000000E+00  0.45593999997E+02  0.45594000000E+02  0.51100000000E-03 0.  1.
         11   -1    0    0    0    0 -0.00000000000E+00 -0.00000000000E+00 -0.45593999997E+02  0.45594000000E+02  0.51100000000E-03 0. -1.
    9900012    2    1    2    0    0 -0.45054009097E+01  0.40368224263E+02  0.18094285395E+01  0.50528853438E+02  0.29999980511E+02 0.  0.
         12    1    1    2    0    0  0.45054009097E+01 -0.40368224263E+02 -0.18094285395E+01  0.40659146562E+02  0.00000000000E+00 0. -1.
         11    1    3    3    0    0 -0.42971493682E+00  0.15789350018E+01  0.79756902533E+01  0.81418257132E+01  0.51100000000E-03 0. -1.
        -11    1    3    3    0    0  0.23024726205E+01  0.51252818946E+01  0.37052410361E+01  0.67304313431E+01  0.51100000000E-03 0.  1.
        -12    1    3    3    0    0 -0.63781585933E+01  0.33664007366E+02 -0.98715027499E+01  0.35656596382E+02  0.00000000000E+00 0.  1.
</event>
<event>
 7    1  0.2661323E-011  0.5052883E+02  0.7816164E-02  0.1300439E+00
        -11   -1    0    0    0    0  0.00000000000E+00  0.00000000000E+00  0.45593999997E+02  0.45594000000E+02  0.51100000000E-03 0. -1.
         11   -1    0    0    0    0 -0.00000000000E+00 -0.00000000000E+00 -0.45593999997E+02  0.45594000000E+02  0.51100000000E-03 0.  1.
    9900012    2    1    2    0    0  0.20821664093E+02  0.22307721045E+02 -0.26869902229E+02  0.50528834249E+02  0.29999922182E+02 0.  0.
         12    1    1    2    0    0 -0.20821664093E+02 -0.22307721045E+02  0.26869902229E+02  0.40659165751E+02  0.00000000000E+00 0. -1.
         11    1    3    3    0    0  0.93106740851E+01 -0.20001645880E-01 -0.19932693580E+01  0.95216687077E+01  0.51100000000E-03 0. -1.
        -11    1    3    3    0    0  0.13442958097E+02  0.42274785669E+01 -0.81102522870E+01  0.16259178634E+02  0.51100000000E-03 0.  1.
        -12    1    3    3    0    0 -0.19319680894E+01  0.18100244124E+02 -0.16766380584E+02  0.24747986907E+02  0.00000000000E+00 0.  1.
</event>
<event>
 7    1  0.2661323E-011  0.5052886E+02  0.7816164E-02  0.1300439E+00
        -11   -1    0    0    0    0  0.00000000000E+00  0.00000000000E+00  0.45593999997E+02  0.45594000000E+02  0.51100000000E-03 0.  1.
         11   -1    0    0    0    0 -0.00000000000E+00 -0.00000000000E+00 -0.45593999997E+02  0.45594000000E+02  0.51100000000E-03 0. -1.
    9900012    2    1    2    0    0  0.29391142123E+02  0.55661610623E+01  0.27538050284E+02  0.50528860834E+02  0.30000002991E+02 0.  0.
         12    1    1    2    0    0 -0.29391142123E+02 -0.55661610623E+01 -0.27538050284E+02  0.40659139166E+02  0.00000000000E+00 0. -1.
         11    1    3    3    0    0  0.98869798489E+01  0.75530162715E+01  0.10692014840E+02  0.16404865343E+02  0.51100000000E-03 0. -1.
        -11    1    3    3    0    0  0.93136494000E+00  0.50661028661E+01  0.12870846175E+02  0.13863315636E+02  0.51100000000E-03 0.  1.
         12    1    3    3    0    0  0.18572797334E+02 -0.70529580753E+01  0.39751892684E+01  0.20260679854E+02  0.00000000000E+00 0. -1.
</event>
<event>
 7    1  0.2661323E-011  0.5052886E+02  0.7816164E-02  0.1300439E+00
        -11   -1    0    0    0    0  0.00000000000E+00  0.00000000000E+00  0.45593999997E+02  0.45594000000E+02  0.51100000000E-03 0. -1.
         11   -1    0    0    0    0 -0.00000000000E+00 -0.00000000000E+00 -0.45593999997E+02  0.45594000000E+02  0.51100000000E-03 0.  1.
    9900012    2    1    2    0    0 -0.11544823109E+01  0.37600174189E+02  0.15429195132E+02  0.50528855999E+02  0.29999988294E+02 0.  0.
         12    1    1    2    0    0  0.11544823109E+01 -0.37600174189E+02 -0.15429195132E+02  0.40659144001E+02  0.00000000000E+00 0. -1.
         11    1    3    3    0    0 -0.59229545720E+01  0.14911912636E+02  0.21380536056E+01  0.16186963978E+02  0.51100000000E-03 0. -1.
        -11    1    3    3    0    0  0.39601315038E+00  0.19437854013E+02 -0.56812751505E+00  0.19450186739E+02  0.51100000000E-03 0.  1.
         12    1    3    3    0    0  0.43724591107E+01  0.32504075402E+01  0.13859269041E+02  0.14891705282E+02  0.00000000000E+00 0. -1.
</event>
<event>
 7    1  0.2661323E-011  0.5052886E+02  0.7816164E-02  0.1300439E+00
        -11   -1    0    0    0    0  0.00000000000E+00  0.00000000000E+00  0.45593999997E+02  0.45594000000E+02  0.51100000000E-03 0.  1.
         11   -1    0    0    0    0 -0.00000000000E+00 -0.00000000000E+00 -0.45593999997E+02  0.45594000000E+02  0.51100000000E-03 0. -1.
    9900012    2    1    2    0    0  0.21139726018E+02 -0.30317554369E+02  0.16944730665E+02  0.50528855687E+02  0.29999987345E+02 0.  0.
         12    1    1    2    0    0 -0.21139726018E+02  0.30317554369E+02 -0.16944730665E+02  0.40659144313E+02  0.00000000000E+00 0. -1.
         11    1    3    3    0    0  0.14302094111E+01 -0.24029406998E+01 -0.25058768298E+01  0.37548690941E+01  0.51100000000E-03 0. -1.
        -11    1    3    3    0    0 -0.45233746319E+01 -0.12037711540E+02  0.21715597677E+01  0.13041590749E+02  0.51100000000E-03 0.  1.
        -12    1    3    3    0    0  0.24232891238E+02 -0.15876902128E+02  0.17279047727E+02  0.33732395843E+02  0.00000000000E+00 0.  1.
</event>
<event>
 7    1  0.2661323E-011  0.5052886E+02  0.7816164E-02  0.1300439E+00
        -11   -1    0    0    0    0  0.00000000000E+00  0.00000000000E+00  0.45593999997E+02  0.45594000000E+02  0.51100000000E-03 0.  1.
         11   -1    0    0    0    0 -0.00000000000E+00 -0.00000000000E+00 -0.45593999997E+02  0.45594000000E+02  0.51100000000E-03 0. -1.
    9900012    2    1    2    0    0  0.31723628384E+02  0.31155694244E+01  0.25240253248E+02  0.50528858904E+02  0.29999997124E+02 0.  0.
         12    1    1    2    0    0 -0.31723628384E+02 -0.31155694244E+01 -0.25240253248E+02  0.40659141096E+02  0.00000000000E+00 0. -1.
         11    1    3    3    0    0  0.95236817373E+01 -0.67410606957E+01  0.74745617569E+01  0.13856820951E+02  0.51100000000E-03 0. -1.
        -11    1    3    3    0    0  0.24908935159E+02  0.10378123605E+02  0.19606720236E+02  0.33355419034E+02  0.51100000000E-03 0.  1.
        -12    1    3    3    0    0 -0.27089885119E+01 -0.52149348462E+00 -0.18410287452E+01  0.33166189188E+01  0.00000000000E+00 0.  1.
</event>
<event>
 7    1  0.2661323E-011  0.5052886E+02  0.7816164E-02  0.1300439E+00
        -11   -1    0    0    0    0  0.00000000000E+00  0.00000000000E+00  0.45593999997E+02  0.45594000000E+02  0.51100000000E-03 0. -1.
         11   -1    0    0    0    0 -0.00000000000E+00 -0.00000000000E+00 -0.45593999997E+02  0.45594000000E+02  0.51100000000E-03 0.  1.
    9900012    2    1    2    0    0  0.23000389739E+02  0.29637689801E+02 -0.15676574479E+02  0.50528861146E+02  0.30000003940E+02 0.  0.
         12    1    1    2    0    0 -0.23000389739E+02 -0.29637689801E+02  0.15676574479E+02  0.40659138854E+02  0.00000000000E+00 0. -1.
         11    1    3    3    0    0 -0.39469582405E+01  0.46367132821E+01  0.19701280012E+01  0.63999214069E+01  0.51100000000E-03 0. -1.
        -11    1    3    3    0    0 -0.81137927247E+00  0.57548671560E+01 -0.61160235970E+01  0.84369767813E+01  0.51100000000E-03 0.  1.
        -12    1    3    3    0    0  0.27758727252E+02  0.19246109363E+02 -0.11530678884E+02  0.35691962958E+02  0.00000000000E+00 0.  1.
</event>
<event>
 7    1  0.2661323E-011  0.5052886E+02  0.7816164E-02  0.1300439E+00
        -11   -1    0    0    0    0  0.00000000000E+00  0.00000000000E+00  0.45593999997E+02  0.45594000000E+02  0.51100000000E-03 0.  1.
         11   -1    0    0    0    0 -0.00000000000E+00 -0.00000000000E+00 -0.45593999997E+02  0.45594000000E+02  0.51100000000E-03 0. -1.
    9900012    2    1    2    0    0 -0.30460274943E+02  0.12168709587E+02  0.24026232598E+02  0.50528859632E+02  0.29999999337E+02 0.  0.
         12    1    1    2    0    0  0.30460274943E+02 -0.12168709587E+02 -0.24026232598E+02  0.40659140368E+02  0.00000000000E+00 0. -1.
         11    1    3    3    0    0 -0.18140218108E+02 -0.38454514693E+01  0.10193625926E+02  0.21160458875E+02  0.51100000000E-03 0. -1.
        -11    1    3    3    0    0 -0.84484346286E+00 -0.14599152308E+00 -0.31520007035E+01  0.32665245595E+01  0.51100000000E-03 0.  1.
        -12    1    3    3    0    0 -0.11475213372E+02  0.16160152580E+02  0.16984607375E+02  0.26101876197E+02  0.00000000000E+00 0.  1.
</event>
<event>
 7    1  0.2661323E-011  0.5052888E+02  0.7816164E-02  0.1300439E+00
        -11   -1    0    0    0    0  0.00000000000E+00  0.00000000000E+00  0.45593999997E+02  0.45594000000E+02  0.51100000000E-03 0.  1.
         11   -1    0    0    0    0 -0.00000000000E+00 -0.00000000000E+00 -0.45593999997E+02  0.45594000000E+02  0.51100000000E-03 0. -1.
    9900012    2    1    2    0    0  0.12166378724E+02  0.35591715073E+02  0.15439330916E+02  0.50528881807E+02  0.30000066741E+02 0.  0.
         12    1    1    2    0    0 -0.12166378724E+02 -0.35591715073E+02 -0.15439330916E+02  0.40659118193E+02  0.00000000000E+00 0. -1.
         11    1    3    3    0    0 -0.20017315876E+01  0.39322851209E+01 -0.56929701320E+01  0.72027567504E+01  0.51100000000E-03 0. -1.
        -11    1    3    3    0    0  0.11643774010E+01  0.58294634996E+00 -0.20529761023E+01  0.24311133904E+01  0.51100000000E-03 0.  1.
        -12    1    3    3    0    0  0.13003732911E+02  0.31076483602E+02  0.23185277150E+02  0.40895011667E+02  0.00000000000E+00 0.  1.
</event>
<event>
 7    1  0.2661323E-011  0.5052887E+02  0.7816164E-02  0.1300439E+00
        -11   -1    0    0    0    0  0.00000000000E+00  0.00000000000E+00  0.45593999997E+02  0.45594000000E+02  0.51100000000E-03 0.  1.
         11   -1    0    0    0    0 -0.00000000000E+00 -0.00000000000E+00 -0.45593999997E+02  0.45594000000E+02  0.51100000000E-03 0. -1.
    9900012    2    1    2    0    0 -0.11529149381E+02 -0.41276696930E+01  0.38771202418E+02  0.50528867207E+02  0.30000022364E+02 0.  0.
         12    1    1    2    0    0  0.11529149381E+02  0.41276696930E+01 -0.38771202418E+02  0.40659132793E+02  0.00000000000E+00 0. -1.
         11    1    3    3    0    0 -0.10969912841E+02 -0.57335443642E+01  0.13383169624E+02  0.18229694132E+02  0.51100000000E-03 0. -1.
        -11    1    3    3    0    0 -0.31823827504E+01 -0.86957293795E+01  0.10412604033E+02  0.13934331431E+02  0.51100000000E-03 0.  1.
         12    1    3    3    0    0  0.26231462105E+01  0.10301604051E+02  0.14975428760E+02  0.18364841644E+02  0.00000000000E+00 0. -1.
</event>
<event>
 7    1  0.2661323E-011  0.5052888E+02  0.7816164E-02  0.1300439E+00
        -11   -1    0    0    0    0  0.00000000000E+00  0.00000000000E+00  0.45593999997E+02  0.45594000000E+02  0.51100000000E-03 0.  1.
         11   -1    0    0    0    0 -0.00000000000E+00 -0.00000000000E+00 -0.45593999997E+02  0.45594000000E+02  0.51100000000E-03 0. -1.
    9900012    2    1    2    0    0  0.12395635987E+02 -0.38378658056E+02  0.51566387271E+01  0.50528879145E+02  0.30000058650E+02 0.  0.
         12    1    1    2    0    0 -0.12395635987E+02  0.38378658056E+02 -0.51566387271E+01  0.40659120855E+02  0.00000000000E+00 0. -1.
         11    1    3    3    0    0  0.60650848053E+01 -0.55521803170E+01 -0.17820842739E+01  0.84135476815E+01  0.51100000000E-03 0. -1.
        -11    1    3    3    0    0  0.12516766379E+02 -0.11527971435E+02  0.99828421132E+01  0.19728677171E+02  0.51100000000E-03 0.  1.
        -12    1    3    3    0    0 -0.61862151976E+01 -0.21298506304E+02 -0.30441191122E+01  0.22386654293E+02  0.00000000000E+00 0.  1.
</event>
<event>
 7    1  0.2661323E-011  0.5052886E+02  0.7816164E-02  0.1300439E+00
        -11   -1    0    0    0    0  0.00000000000E+00  0.00000000000E+00  0.45593999997E+02  0.45594000000E+02  0.51100000000E-03 0.  1.
         11   -1    0    0    0    0 -0.00000000000E+00 -0.00000000000E+00 -0.45593999997E+02  0.45594000000E+02  0.51100000000E-03 0. -1.
    9900012    2    1    2    0    0 -0.29237258981E+02  0.55910674294E+01  0.27696359041E+02  0.50528860169E+02  0.30000000968E+02 0.  0.
         12    1    1    2    0    0  0.29237258981E+02 -0.55910674294E+01 -0.27696359041E+02  0.40659139831E+02  0.00000000000E+00 0. -1.
         11    1    3    3    0    0 -0.13287585384E+02  0.11472841482E+01 -0.12715100154E+01  0.13397496939E+02  0.51100000000E-03 0. -1.
        -11    1    3    3    0    0 -0.76313192583E+01 -0.60907507034E+01  0.11097107805E+02  0.14781071668E+02  0.51100000000E-03 0.  1.
         12    1    3    3    0    0 -0.83183543379E+01  0.10534533985E+02  0.17870761251E+02  0.22350291561E+02  0.00000000000E+00 0. -1.
</event>
<event>
 7    1  0.2661323E-011  0.5052885E+02  0.7816164E-02  0.1300439E+00
        -11   -1    0    0    0    0  0.00000000000E+00  0.00000000000E+00  0.45593999997E+02  0.45594000000E+02  0.51100000000E-03 0.  1.
         11   -1    0    0    0    0 -0.00000000000E+00 -0.00000000000E+00 -0.45593999997E+02  0.45594000000E+02  0.51100000000E-03 0. -1.
    9900012    2    1    2    0    0  0.39293288557E+02  0.89908362429E+01 -0.53262543615E+01  0.50528847925E+02  0.29999963752E+02 0.  0.
         12    1    1    2    0    0 -0.39293288557E+02 -0.89908362429E+01  0.53262543615E+01  0.40659152075E+02  0.00000000000E+00 0. -1.
         11    1    3    3    0    0 -0.61825250118E+00  0.32111150357E+01 -0.17197651844E+01  0.36947379445E+01  0.51100000000E-03 0. -1.
        -11    1    3    3    0    0  0.10382214271E+02  0.11694071759E+02  0.31925091939E+01  0.15960382285E+02  0.51100000000E-03 0.  1.
        -12    1    3    3    0    0  0.29529326787E+02 -0.59143505521E+01 -0.67989983709E+01  0.30873727695E+02  0.00000000000E+00 0.  1.
</event>
<event>
 7    1  0.2661323E-011  0.5052886E+02  0.7816164E-02  0.1300439E+00
        -11   -1    0    0    0    0  0.00000000000E+00  0.00000000000E+00  0.45593999997E+02  0.45594000000E+02  0.51100000000E-03 0. -1.
         11   -1    0    0    0    0 -0.00000000000E+00 -0.00000000000E+00 -0.45593999997E+02  0.45594000000E+02  0.51100000000E-03 0.  1.
    9900012    2    1    2    0    0 -0.16905344578E+02  0.67878340186E+01 -0.36349692760E+02  0.50528861671E+02  0.30000005534E+02 0.  0.
         12    1    1    2    0    0  0.16905344578E+02 -0.67878340186E+01  0.36349692760E+02  0.40659138329E+02  0.00000000000E+00 0. -1.
         11    1    3    3    0    0  0.55616695937E+01  0.84408101918E+01 -0.14210769830E+02  0.17439192206E+02  0.51100000000E-03 0. -1.
        -11    1    3    3    0    0  0.69909016518E+00 -0.11868918653E+01 -0.81773198985E+00  0.16019129899E+01  0.51100000000E-03 0.  1.
        -12    1    3    3    0    0 -0.23166104337E+02 -0.46608430779E+00 -0.21321190940E+02  0.31487756475E+02  0.00000000000E+00 0.  1.
</event>
<event>
 7    1  0.2661323E-011  0.5052885E+02  0.7816164E-02  0.1300439E+00
        -11   -1    0    0    0    0  0.00000000000E+00  0.00000000000E+00  0.45593999997E+02  0.45594000000E+02  0.51100000000E-03 0.  1.
         11   -1    0    0    0    0 -0.00000000000E+00 -0.00000000000E+00 -0.45593999997E+02  0.45594000000E+02  0.51100000000E-03 0. -1.
    9900012    2    1    2    0    0  0.14472664916E+02 -0.32648512828E+02  0.19436646257E+02  0.50528848049E+02  0.29999964129E+02 0.  0.
         12    1    1    2    0    0 -0.14472664916E+02  0.32648512828E+02 -0.19436646257E+02  0.40659151951E+02  0.00000000000E+00 0. -1.
         11    1    3    3    0    0  0.11511529680E+02 -0.17297412685E+02 -0.23367250115E+00  0.20779085741E+02  0.51100000000E-03 0. -1.
        -11    1    3    3    0    0  0.30152980158E+01 -0.18263058914E+02  0.13448399361E+02  0.22879921081E+02  0.51100000000E-03 0.  1.
        -12    1    3    3    0    0 -0.54162779403E-01  0.29119587709E+01  0.62219193976E+01  0.68698412268E+01  0.00000000000E+00 0.  1.
</event>
<event>
 7    1  0.2661323E-011  0.5052888E+02  0.7816164E-02  0.1300439E+00
        -11   -1    0    0    0    0  0.00000000000E+00  0.00000000000E+00  0.45593999997E+02  0.45594000000E+02  0.51100000000E-03 0.  1.
         11   -1    0    0    0    0 -0.00000000000E+00 -0.00000000000E+00 -0.45593999997E+02  0.45594000000E+02  0.51100000000E-03 0. -1.
    9900012    2    1    2    0    0  0.16337637458E+00  0.37145104134E+02  0.16534175161E+02  0.50528875548E+02  0.30000047715E+02 0.  0.
         12    1    1    2    0    0 -0.16337637458E+00 -0.37145104134E+02 -0.16534175161E+02  0.40659124452E+02  0.00000000000E+00 0. -1.
         11    1    3    3    0    0 -0.71796390382E+01  0.30643023339E+02  0.19333568842E+02  0.36936824180E+02  0.51100000000E-03 0.  1.
        -11    1    3    3    0    0  0.52280760874E+01  0.83316277855E+01 -0.29881027607E+00  0.98406345818E+01  0.51100000000E-03 0. -1.
        -12    1    3    3    0    0  0.21149393255E+01 -0.18295469901E+01 -0.25005834050E+01  0.37514167863E+01  0.00000000000E+00 0.  1.
</event>
<event>
 7    1  0.2661323E-011  0.5052886E+02  0.7816164E-02  0.1300439E+00
        -11   -1    0    0    0    0  0.00000000000E+00  0.00000000000E+00  0.45593999997E+02  0.45594000000E+02  0.51100000000E-03 0. -1.
         11   -1    0    0    0    0 -0.00000000000E+00 -0.00000000000E+00 -0.45593999997E+02  0.45594000000E+02  0.51100000000E-03 0.  1.
    9900012    2    1    2    0    0  0.82840540613E+01  0.34621089749E+02  0.19644858921E+02  0.50528857250E+02  0.29999992098E+02 0.  0.
         12    1    1    2    0    0 -0.82840540613E+01 -0.34621089749E+02 -0.19644858921E+02  0.40659142750E+02  0.00000000000E+00 0. -1.
         11    1    3    3    0    0 -0.78002350291E-01  0.15341174941E+02  0.11635185167E+02  0.19254486934E+02  0.51100000000E-03 0. -1.
        -11    1    3    3    0    0 -0.57711983371E+01  0.83645569839E+01  0.87372644402E+01  0.13401952617E+02  0.51100000000E-03 0.  1.
         12    1    3    3    0    0  0.14133254749E+02  0.10915357824E+02 -0.72759068645E+00  0.17872417700E+02  0.00000000000E+00 0. -1.
</event>
<event>
 7    1  0.2661323E-011  0.5052884E+02  0.7816164E-02  0.1300439E+00
        -11   -1    0    0    0    0  0.00000000000E+00  0.00000000000E+00  0.45593999997E+02  0.45594000000E+02  0.51100000000E-03 0.  1.
         11   -1    0    0    0    0 -0.00000000000E+00 -0.00000000000E+00 -0.45593999997E+02  0.45594000000E+02  0.51100000000E-03 0. -1.
    9900012    2    1    2    0    0  0.30599810905E+02  0.26758116171E+02  0.90664659010E+00  0.50528840927E+02  0.29999942483E+02 0.  0.
         12    1    1    2    0    0 -0.30599810905E+02 -0.26758116171E+02 -0.90664659010E+00  0.40659159073E+02  0.00000000000E+00 0. -1.
         11    1    3    3    0    0 -0.23640615042E-01  0.10043104318E+02  0.16099418995E+01  0.10171352732E+02  0.51100000000E-03 0. -1.
        -11    1    3    3    0    0  0.17579228685E+01  0.10705783755E+02 -0.72106424152E+00  0.10873087534E+02  0.51100000000E-03 0.  1.
        -12    1    3    3    0    0  0.28865528651E+02  0.60092280993E+01  0.17768932083E-01  0.29484400662E+02  0.00000000000E+00 0.  1.
</event>
<event>
 7    1  0.2661323E-011  0.5052886E+02  0.7816164E-02  0.1300439E+00
        -11   -1    0    0    0    0  0.00000000000E+00  0.00000000000E+00  0.45593999997E+02  0.45594000000E+02  0.51100000000E-03 0.  1.
         11   -1    0    0    0    0 -0.00000000000E+00 -0.00000000000E+00 -0.45593999997E+02  0.45594000000E+02  0.51100000000E-03 0. -1.
    9900012    2    1    2    0    0  0.32377318935E+02  0.73514029617E+01 -0.23469802815E+02  0.50528861407E+02  0.30000004734E+02 0.  0.
         12    1    1    2    0    0 -0.32377318935E+02 -0.73514029617E+01  0.23469802815E+02  0.40659138593E+02  0.00000000000E+00 0. -1.
         11    1    3    3    0    0  0.44823525821E+01 -0.25683999912E+01  0.11040805625E+01  0.52827225305E+01  0.51100000000E-03 0. -1.
        -11    1    3    3    0    0  0.16682397667E+02  0.35286394881E+01  0.48562796411E+00  0.17058415030E+02  0.51100000000E-03 0.  1.
        -12    1    3    3    0    0  0.11212568686E+02  0.63911634648E+01 -0.25059511342E+02  0.28187723846E+02  0.00000000000E+00 0.  1.
</event>
<event>
 7    1  0.2661323E-011  0.5052886E+02  0.7816164E-02  0.1300439E+00
        -11   -1    0    0    0    0  0.00000000000E+00  0.00000000000E+00  0.45593999997E+02  0.45594000000E+02  0.51100000000E-03 0. -1.
         11   -1    0    0    0    0 -0.00000000000E+00 -0.00000000000E+00 -0.45593999997E+02  0.45594000000E+02  0.51100000000E-03 0.  1.
    9900012    2    1    2    0    0  0.36463114639E+02 -0.17797025718E+02 -0.26215621954E+01  0.50528862750E+02  0.30000008814E+02 0.  0.
         12    1    1    2    0    0 -0.36463114639E+02  0.17797025718E+02  0.26215621954E+01  0.40659137250E+02  0.00000000000E+00 0. -1.
         11    1    3    3    0    0  0.28268139772E+01  0.30295884023E+01 -0.34922139511E+01  0.54189336304E+01  0.51100000000E-03 0. -1.
        -11    1    3    3    0    0  0.17753117427E+01  0.42164845302E+01  0.19928025000E+00  0.45793216153E+01  0.51100000000E-03 0.  1.
         12    1    3    3    0    0  0.31860988919E+02 -0.25043098650E+02  0.67137150571E+00  0.40530607504E+02  0.00000000000E+00 0. -1.
</event>
<event>
 7    1  0.2661323E-011  0.5052888E+02  0.7816164E-02  0.1300439E+00
        -11   -1    0    0    0    0  0.00000000000E+00  0.00000000000E+00  0.45593999997E+02  0.45594000000E+02  0.51100000000E-03 0.  1.
         11   -1    0    0    0    0 -0.00000000000E+00 -0.00000000000E+00 -0.45593999997E+02  0.45594000000E+02  0.51100000000E-03 0. -1.
    9900012    2    1    2    0    0  0.64712631725E+01  0.22814113382E+02  0.33027304257E+02  0.50528882413E+02  0.30000068584E+02 0.  0.
         12    1    1    2    0    0 -0.64712631725E+01 -0.22814113382E+02 -0.33027304257E+02  0.40659117587E+02  0.00000000000E+00 0. -1.
         11    1    3    3    0    0  0.73684914232E+01 -0.44005195007E+01  0.59495578049E+01  0.10443010872E+02  0.51100000000E-03 0. -1.
        -11    1    3    3    0    0 -0.53063213626E+00  0.13960377571E+02  0.60443070272E+01  0.15221936805E+02  0.51100000000E-03 0.  1.
         12    1    3    3    0    0 -0.36659611443E+00  0.13254255312E+02  0.21033439425E+02  0.24863934737E+02  0.00000000000E+00 0. -1.
</event>
<event>
 7    1  0.2661323E-011  0.5052885E+02  0.7816164E-02  0.1300439E+00
        -11   -1    0    0    0    0  0.00000000000E+00  0.00000000000E+00  0.45593999997E+02  0.45594000000E+02  0.51100000000E-03 0.  1.
         11   -1    0    0    0    0 -0.00000000000E+00 -0.00000000000E+00 -0.45593999997E+02  0.45594000000E+02  0.51100000000E-03 0. -1.
    9900012    2    1    2    0    0  0.39685534787E+01 -0.38985106834E+02 -0.10843352690E+02  0.50528852578E+02  0.29999977895E+02 0.  0.
         12    1    1    2    0    0 -0.39685534787E+01  0.38985106834E+02  0.10843352690E+02  0.40659147422E+02  0.00000000000E+00 0. -1.
         11    1    3    3    0    0  0.69011569876E+00 -0.46250757233E+01 -0.12484998403E+01  0.48400761602E+01  0.51100000000E-03 0.  1.
        -11    1    3    3    0    0  0.76848184042E+01 -0.21776887487E+01 -0.10500986601E+02  0.13193539406E+02  0.51100000000E-03 0. -1.
         12    1    3    3    0    0 -0.44063806242E+01 -0.32182342362E+02  0.90613375176E+00  0.32495237012E+02  0.00000000000E+00 0. -1.
</event>
<event>
 7    1  0.2661323E-011  0.5052887E+02  0.7816164E-02  0.1300439E+00
        -11   -1    0    0    0    0  0.00000000000E+00  0.00000000000E+00  0.45593999997E+02  0.45594000000E+02  0.51100000000E-03 0.  1.
         11   -1    0    0    0    0 -0.00000000000E+00 -0.00000000000E+00 -0.45593999997E+02  0.45594000000E+02  0.51100000000E-03 0. -1.
    9900012    2    1    2    0    0  0.16715976454E+02  0.10697906704E+01  0.37048565796E+02  0.50528873737E+02  0.30000042212E+02 0.  0.
         12    1    1    2    0    0 -0.16715976454E+02 -0.10697906704E+01 -0.37048565796E+02  0.40659126263E+02  0.00000000000E+00 0. -1.
         11    1    3    3    0    0 -0.30301587816E+01 -0.63442635216E+01  0.50428940062E+00  0.70488190454E+01  0.51100000000E-03 0. -1.
        -11    1    3    3    0    0  0.14594287409E+01  0.38251932049E+01  0.11889657921E+02  0.12574816144E+02  0.51100000000E-03 0.  1.
        -12    1    3    3    0    0  0.18286706495E+02  0.35888609871E+01  0.24654618474E+02  0.30905238548E+02  0.00000000000E+00 0.  1.
</event>
<event>
 7    1  0.2661323E-011  0.5052888E+02  0.7816164E-02  0.1300439E+00
        -11   -1    0    0    0    0  0.00000000000E+00  0.00000000000E+00  0.45593999997E+02  0.45594000000E+02  0.51100000000E-03 0. -1.
         11   -1    0    0    0    0 -0.00000000000E+00 -0.00000000000E+00 -0.45593999997E+02  0.45594000000E+02  0.51100000000E-03 0.  1.
    9900012    2    1    2    0    0  0.27828950565E+02  0.17645154690E+02 -0.23819371486E+02  0.50528875175E+02  0.30000046581E+02 0.  0.
         12    1    1    2    0    0 -0.27828950565E+02 -0.17645154690E+02  0.23819371486E+02  0.40659124825E+02  0.00000000000E+00 0. -1.
         11    1    3    3    0    0 -0.29037770201E+00  0.13371868375E+01 -0.15008313931E+02  0.15070563200E+02  0.51100000000E-03 0. -1.
        -11    1    3    3    0    0  0.68668875042E+01  0.48623854384E+01 -0.75207732562E+01  0.11285343007E+02  0.51100000000E-03 0.  1.
         12    1    3    3    0    0  0.21252440762E+02  0.11445582414E+02 -0.12902842989E+01  0.24172968968E+02  0.00000000000E+00 0. -1.
</event>
<event>
 7    1  0.2661323E-011  0.5052886E+02  0.7816164E-02  0.1300439E+00
        -11   -1    0    0    0    0  0.00000000000E+00  0.00000000000E+00  0.45593999997E+02  0.45594000000E+02  0.51100000000E-03 0.  1.
         11   -1    0    0    0    0 -0.00000000000E+00 -0.00000000000E+00 -0.45593999997E+02  0.45594000000E+02  0.51100000000E-03 0. -1.
    9900012    2    1    2    0    0  0.27279066974E+02 -0.16787007078E+02  0.25044256343E+02  0.50528857395E+02  0.29999992538E+02 0.  0.
         12    1    1    2    0    0 -0.27279066974E+02  0.16787007078E+02 -0.25044256343E+02  0.40659142605E+02  0.00000000000E+00 0. -1.
         11    1    3    3    0    0  0.10527585397E+02 -0.38493576942E+01  0.16743078459E+02  0.20148902836E+02  0.51100000000E-03 0. -1.
        -11    1    3    3    0    0  0.10428598421E+02  0.26746990256E+01  0.82037548658E+01  0.13535555920E+02  0.51100000000E-03 0.  1.
        -12    1    3    3    0    0  0.63228831553E+01 -0.15612348410E+02  0.97423018002E-01  0.16844398639E+02  0.00000000000E+00 0.  1.
</event>
<event>
 7    1  0.2661323E-011  0.5052885E+02  0.7816164E-02  0.1300439E+00
        -11   -1    0    0    0    0  0.00000000000E+00  0.00000000000E+00  0.45593999997E+02  0.45594000000E+02  0.51100000000E-03 0.  1.
         11   -1    0    0    0    0 -0.00000000000E+00 -0.00000000000E+00 -0.45593999997E+02  0.45594000000E+02  0.51100000000E-03 0. -1.
    9900012    2    1    2    0    0  0.12965559997E+02 -0.50853822847E+01  0.38199470125E+02  0.50528851253E+02  0.29999973867E+02 0.  0.
         12    1    1    2    0    0 -0.12965559997E+02  0.50853822847E+01 -0.38199470125E+02  0.40659148747E+02  0.00000000000E+00 0. -1.
         11    1    3    3    0    0  0.56470653913E+01  0.59865138528E+01  0.39022415302E+01  0.91079736969E+01  0.51100000000E-03 0. -1.
        -11    1    3    3    0    0  0.31758359464E+01  0.52443924891E+01  0.65930013885E+01  0.90031802219E+01  0.51100000000E-03 0.  1.
        -12    1    3    3    0    0  0.41426586596E+01 -0.16316288626E+02  0.27704227206E+02  0.32417697334E+02  0.00000000000E+00 0.  1.
</event>
<event>
 7    1  0.2661323E-011  0.5052886E+02  0.7816164E-02  0.1300439E+00
        -11   -1    0    0    0    0  0.00000000000E+00  0.00000000000E+00  0.45593999997E+02  0.45594000000E+02  0.51100000000E-03 0. -1.
         11   -1    0    0    0    0 -0.00000000000E+00 -0.00000000000E+00 -0.45593999997E+02  0.45594000000E+02  0.51100000000E-03 0.  1.
    9900012    2    1    2    0    0  0.10051407885E+02 -0.18135818833E+02 -0.34974664249E+02  0.50528857553E+02  0.29999993017E+02 0.  0.
         12    1    1    2    0    0 -0.10051407885E+02  0.18135818833E+02  0.34974664249E+02  0.40659142447E+02  0.00000000000E+00 0. -1.
         11    1    3    3    0    0  0.96679709350E+01  0.26348572037E+01 -0.19249327318E+02  0.21701353344E+02  0.51100000000E-03 0. -1.
        -11    1    3    3    0    0  0.20348599720E+01  0.71147697216E+00 -0.33416980705E+01  0.39766569934E+01  0.51100000000E-03 0.  1.
         12    1    3    3    0    0 -0.16514230221E+01 -0.21482153009E+02 -0.12383638860E+02  0.24850847215E+02  0.00000000000E+00 0. -1.
</event>
<event>
 7    1  0.2661323E-011  0.5052884E+02  0.7816164E-02  0.1300439E+00
        -11   -1    0    0    0    0  0.00000000000E+00  0.00000000000E+00  0.45593999997E+02  0.45594000000E+02  0.51100000000E-03 0.  1.
         11   -1    0    0    0    0 -0.00000000000E+00 -0.00000000000E+00 -0.45593999997E+02  0.45594000000E+02  0.51100000000E-03 0. -1.
    9900012    2    1    2    0    0  0.60746001863E+01 -0.85138721434E+01  0.39290976954E+02  0.50528835519E+02  0.29999926044E+02 0.  0.
         12    1    1    2    0    0 -0.60746001863E+01  0.85138721434E+01 -0.39290976954E+02  0.40659164481E+02  0.00000000000E+00 0. -1.
         11    1    3    3    0    0 -0.72868039293E+00 -0.26580574829E+01  0.80893888196E+01  0.85460199177E+01  0.51100000000E-03 0. -1.
        -11    1    3    3    0    0  0.12425337902E+02 -0.12888614005E+02  0.26052395464E+02  0.31610642236E+02  0.51100000000E-03 0.  1.
         12    1    3    3    0    0 -0.56220573224E+01  0.70327993448E+01  0.51491926704E+01  0.10372173365E+02  0.00000000000E+00 0. -1.
</event>
<event>
 7    1  0.2661323E-011  0.5052888E+02  0.7816164E-02  0.1300439E+00
        -11   -1    0    0    0    0  0.00000000000E+00  0.00000000000E+00  0.45593999997E+02  0.45594000000E+02  0.51100000000E-03 0. -1.
         11   -1    0    0    0    0 -0.00000000000E+00 -0.00000000000E+00 -0.45593999997E+02  0.45594000000E+02  0.51100000000E-03 0.  1.
    9900012    2    1    2    0    0 -0.72272721875E+01  0.37775576255E+02 -0.13188485116E+02  0.50528883380E+02  0.30000071521E+02 0.  0.
         12    1    1    2    0    0  0.72272721875E+01 -0.37775576255E+02  0.13188485116E+02  0.40659116620E+02  0.00000000000E+00 0. -1.
         11    1    3    3    0    0  0.32752562049E+01  0.26241530855E+01 -0.54186856226E+01  0.68538774983E+01  0.51100000000E-03 0.  1.
        -11    1    3    3    0    0 -0.11150360759E+02  0.19172742275E+02  0.55493251350E+01  0.22863061936E+02  0.51100000000E-03 0. -1.
         12    1    3    3    0    0  0.64783236662E+00  0.15978680895E+02 -0.13319124628E+02  0.20811943945E+02  0.00000000000E+00 0. -1.
</event>
<event>
 7    1  0.2661323E-011  0.5052886E+02  0.7816164E-02  0.1300439E+00
        -11   -1    0    0    0    0  0.00000000000E+00  0.00000000000E+00  0.45593999997E+02  0.45594000000E+02  0.51100000000E-03 0.  1.
         11   -1    0    0    0    0 -0.00000000000E+00 -0.00000000000E+00 -0.45593999997E+02  0.45594000000E+02  0.51100000000E-03 0. -1.
    9900012    2    1    2    0    0 -0.41039516285E+01 -0.22047248871E+02  0.33915218250E+02  0.50528860429E+02  0.30000001759E+02 0.  0.
         12    1    1    2    0    0  0.41039516285E+01  0.22047248871E+02 -0.33915218250E+02  0.40659139571E+02  0.00000000000E+00 0. -1.
         11    1    3    3    0    0 -0.19387968370E+01 -0.19481203525E+02  0.15348022306E+02  0.24876454991E+02  0.51100000000E-03 0. -1.
        -11    1    3    3    0    0  0.15391266693E+01 -0.55028879323E+01  0.19929751576E+02  0.20732720146E+02  0.51100000000E-03 0.  1.
         12    1    3    3    0    0 -0.37042814608E+01  0.29368425865E+01 -0.13625556321E+01  0.49196852917E+01  0.00000000000E+00 0. -1.
</event>
<event>
 7    1  0.2661323E-011  0.5052886E+02  0.7816164E-02  0.1300439E+00
        -11   -1    0    0    0    0  0.00000000000E+00  0.00000000000E+00  0.45593999997E+02  0.45594000000E+02  0.51100000000E-03 0.  1.
         11   -1    0    0    0    0 -0.00000000000E+00 -0.00000000000E+00 -0.45593999997E+02  0.45594000000E+02  0.51100000000E-03 0. -1.
    9900012    2    1    2    0    0  0.51960541073E+01  0.39790633243E+02  0.65476912210E+01  0.50528859176E+02  0.29999997953E+02 0.  0.
         12    1    1    2    0    0 -0.51960541073E+01 -0.39790633243E+02 -0.65476912210E+01  0.40659140824E+02  0.00000000000E+00 0. -1.
         11    1    3    3    0    0  0.22243187670E+01  0.35359185558E+01  0.46381224018E+01  0.62419943677E+01  0.51100000000E-03 0.  1.
        -11    1    3    3    0    0  0.49843487292E+01 -0.11063827400E+01  0.44674835588E+01  0.67842630131E+01  0.51100000000E-03 0. -1.
         12    1    3    3    0    0 -0.20126133889E+01  0.37361097427E+02 -0.25579147396E+01  0.37502601796E+02  0.00000000000E+00 0. -1.
</event>
<event>
 7    1  0.2661323E-011  0.5052884E+02  0.7816164E-02  0.1300439E+00
        -11   -1    0    0    0    0  0.00000000000E+00  0.00000000000E+00  0.45593999997E+02  0.45594000000E+02  0.51100000000E-03 0. -1.
         11   -1    0    0    0    0 -0.00000000000E+00 -0.00000000000E+00 -0.45593999997E+02  0.45594000000E+02  0.51100000000E-03 0.  1.
    9900012    2    1    2    0    0  0.36106332799E+02  0.17254303775E+02 -0.71964356278E+01  0.50528844171E+02  0.29999952342E+02 0.  0.
         12    1    1    2    0    0 -0.36106332799E+02 -0.17254303775E+02  0.71964356278E+01  0.40659155829E+02  0.00000000000E+00 0. -1.
         11    1    3    3    0    0  0.19179472971E+02 -0.14852106114E+01 -0.68636917215E+01  0.20424698243E+02  0.51100000000E-03 0.  1.
        -11    1    3    3    0    0  0.17922463309E+01  0.94320780126E+01 -0.61580485906E+01  0.11406042489E+02  0.51100000000E-03 0. -1.
         12    1    3    3    0    0  0.15134613497E+02  0.93074363740E+01  0.58253046843E+01  0.18698103439E+02  0.00000000000E+00 0. -1.
</event>
<event>
 7    1  0.2661323E-011  0.5052886E+02  0.7816164E-02  0.1300439E+00
        -11   -1    0    0    0    0  0.00000000000E+00  0.00000000000E+00  0.45593999997E+02  0.45594000000E+02  0.51100000000E-03 0.  1.
         11   -1    0    0    0    0 -0.00000000000E+00 -0.00000000000E+00 -0.45593999997E+02  0.45594000000E+02  0.51100000000E-03 0. -1.
    9900012    2    1    2    0    0 -0.36315275460E+02 -0.17609543125E+02  0.49265257072E+01  0.50528857161E+02  0.29999991828E+02 0.  0.
         12    1    1    2    0    0  0.36315275460E+02  0.17609543125E+02 -0.49265257072E+01  0.40659142839E+02  0.00000000000E+00 0. -1.
         11    1    3    3    0    0 -0.22192796764E+02 -0.78856318440E+01 -0.86573552725E+00  0.23568048627E+02  0.51100000000E-03 0. -1.
        -11    1    3    3    0    0 -0.18550916294E+02 -0.80784589294E+01  0.10406456285E+01  0.20260329159E+02  0.51100000000E-03 0.  1.
         12    1    3    3    0    0  0.44284375984E+01 -0.16454523514E+01  0.47516156059E+01  0.67004793761E+01  0.00000000000E+00 0. -1.
</event>
<event>
 7    1  0.2661323E-011  0.5052886E+02  0.7816164E-02  0.1300439E+00
        -11   -1    0    0    0    0  0.00000000000E+00  0.00000000000E+00  0.45593999997E+02  0.45594000000E+02  0.51100000000E-03 0.  1.
         11   -1    0    0    0    0 -0.00000000000E+00 -0.00000000000E+00 -0.45593999997E+02  0.45594000000E+02  0.51100000000E-03 0. -1.
    9900012    2    1    2    0    0  0.11292513882E+02  0.39057041164E+02 -0.43842756867E+00  0.50528861384E+02  0.30000004664E+02 0.  0.
         12    1    1    2    0    0 -0.11292513882E+02 -0.39057041164E+02  0.43842756867E+00  0.40659138616E+02  0.00000000000E+00 0. -1.
         11    1    3    3    0    0  0.40497978954E+00  0.96662514087E+01  0.28308414539E+01  0.10080381368E+02  0.51100000000E-03 0. -1.
        -11    1    3    3    0    0 -0.50509984322E+01  0.32411564064E+01  0.59657512105E+01  0.84621432143E+01  0.51100000000E-03 0.  1.
        -12    1    3    3    0    0  0.15938532525E+02  0.26149633349E+02 -0.92350202331E+01  0.31986336802E+02  0.00000000000E+00 0.  1.
</event>
<event>
 7    1  0.2661323E-011  0.5052886E+02  0.7816164E-02  0.1300439E+00
        -11   -1    0    0    0    0  0.00000000000E+00  0.00000000000E+00  0.45593999997E+02  0.45594000000E+02  0.51100000000E-03 0. -1.
         11   -1    0    0    0    0 -0.00000000000E+00 -0.00000000000E+00 -0.45593999997E+02  0.45594000000E+02  0.51100000000E-03 0.  1.
    9900012    2    1    2    0    0 -0.30873150734E+02 -0.23658486666E+02 -0.11844413904E+02  0.50528861196E+02  0.30000004092E+02 0.  0.
         12    1    1    2    0    0  0.30873150734E+02  0.23658486666E+02  0.11844413904E+02  0.40659138804E+02  0.00000000000E+00 0. -1.
         11    1    3    3    0    0 -0.28958910490E+02 -0.11132852554E+02 -0.23961609895E+01  0.31117527063E+02  0.51100000000E-03 0. -1.
        -11    1    3    3    0    0 -0.54571512731E+01 -0.77388043804E+01 -0.16707796836E+01  0.96156694134E+01  0.51100000000E-03 0.  1.
         12    1    3    3    0    0  0.35429110297E+01 -0.47868297312E+01 -0.77774732309E+01  0.97956647195E+01  0.00000000000E+00 0. -1.
</event>
<event>
 7    1  0.2661323E-011  0.5052885E+02  0.7816164E-02  0.1300439E+00
        -11   -1    0    0    0    0  0.00000000000E+00  0.00000000000E+00  0.45593999997E+02  0.45594000000E+02  0.51100000000E-03 0.  1.
         11   -1    0    0    0    0 -0.00000000000E+00 -0.00000000000E+00 -0.45593999997E+02  0.45594000000E+02  0.51100000000E-03 0. -1.
    9900012    2    1    2    0    0  0.34440942800E+02  0.21553575521E+02 -0.15592252376E+01  0.50528851681E+02  0.29999975170E+02 0.  0.
         12    1    1    2    0    0 -0.34440942800E+02 -0.21553575521E+02  0.15592252376E+01  0.40659148319E+02  0.00000000000E+00 0. -1.
         11    1    3    3    0    0  0.92329631215E+01 -0.70487175001E+00 -0.41948378199E+01  0.10165683291E+02  0.51100000000E-03 0. -1.
        -11    1    3    3    0    0  0.82943809416E+01 -0.35401008081E+01 -0.18035011803E+01  0.91968301987E+01  0.51100000000E-03 0.  1.
        -12    1    3    3    0    0  0.16913598737E+02  0.25798548079E+02  0.44391137625E+01  0.31166338191E+02  0.00000000000E+00 0.  1.
</event>
<event>
 7    1  0.2661323E-011  0.5052883E+02  0.7816164E-02  0.1300439E+00
        -11   -1    0    0    0    0  0.00000000000E+00  0.00000000000E+00  0.45593999997E+02  0.45594000000E+02  0.51100000000E-03 0.  1.
         11   -1    0    0    0    0 -0.00000000000E+00 -0.00000000000E+00 -0.45593999997E+02  0.45594000000E+02  0.51100000000E-03 0. -1.
    9900012    2    1    2    0    0 -0.40011608230E+02 -0.22520851239E+01  0.68678623229E+01  0.50528828668E+02  0.29999905218E+02 0.  0.
         12    1    1    2    0    0  0.40011608230E+02  0.22520851239E+01 -0.68678623229E+01  0.40659171332E+02  0.00000000000E+00 0. -1.
         11    1    3    3    0    0 -0.80455145270E+01  0.52512680239E+01  0.20242393294E+01  0.98185368048E+01  0.51100000000E-03 0. -1.
        -11    1    3    3    0    0  0.28696479893E+01  0.23391212737E+01  0.24340684468E+01  0.44306949094E+01  0.51100000000E-03 0.  1.
        -12    1    3    3    0    0 -0.34835741692E+02 -0.98424744214E+01  0.24095545467E+01  0.36279596953E+02  0.00000000000E+00 0.  1.
</event>
<event>
 7    1  0.2661323E-011  0.5052886E+02  0.7816164E-02  0.1300439E+00
        -11   -1    0    0    0    0  0.00000000000E+00  0.00000000000E+00  0.45593999997E+02  0.45594000000E+02  0.51100000000E-03 0.  1.
         11   -1    0    0    0    0 -0.00000000000E+00 -0.00000000000E+00 -0.45593999997E+02  0.45594000000E+02  0.51100000000E-03 0. -1.
    9900012    2    1    2    0    0 -0.61957875890E+01  0.36976151703E+02 -0.15733465650E+02  0.50528861790E+02  0.30000005897E+02 0.  0.
         12    1    1    2    0    0  0.61957875890E+01 -0.36976151703E+02  0.15733465650E+02  0.40659138210E+02  0.00000000000E+00 0. -1.
         11    1    3    3    0    0 -0.94544191644E+01  0.30822801685E+02 -0.18638190590E+02  0.37239942188E+02  0.51100000000E-03 0. -1.
        -11    1    3    3    0    0 -0.95484406477E-01  0.81567979553E+01 -0.40664664199E+00  0.81674862661E+01  0.51100000000E-03 0.  1.
        -12    1    3    3    0    0  0.33541159819E+01 -0.20034479373E+01  0.33113715821E+01  0.51214333357E+01  0.00000000000E+00 0.  1.
</event>
<event>
 7    1  0.2661323E-011  0.5052886E+02  0.7816164E-02  0.1300439E+00
        -11   -1    0    0    0    0  0.00000000000E+00  0.00000000000E+00  0.45593999997E+02  0.45594000000E+02  0.51100000000E-03 0. -1.
         11   -1    0    0    0    0 -0.00000000000E+00 -0.00000000000E+00 -0.45593999997E+02  0.45594000000E+02  0.51100000000E-03 0.  1.
    9900012    2    1    2    0    0 -0.12861922110E+02 -0.93260530039E+01 -0.37426749207E+02  0.50528857594E+02  0.29999993143E+02 0.  0.
         12    1    1    2    0    0  0.12861922110E+02  0.93260530039E+01  0.37426749207E+02  0.40659142406E+02  0.00000000000E+00 0. -1.
         11    1    3    3    0    0  0.19856591583E+00  0.20152557155E+01  0.18968660356E+01  0.27746684558E+01  0.51100000000E-03 0. -1.
        -11    1    3    3    0    0  0.18020350542E+01  0.11770383534E+01  0.14442376959E+01  0.25920209115E+01  0.51100000000E-03 0.  1.
        -12    1    3    3    0    0 -0.14862523080E+02 -0.12518347073E+02 -0.40767852938E+02  0.45162168227E+02  0.00000000000E+00 0.  1.
</event>
<event>
 7    1  0.2661323E-011  0.5052887E+02  0.7816164E-02  0.1300439E+00
        -11   -1    0    0    0    0  0.00000000000E+00  0.00000000000E+00  0.45593999997E+02  0.45594000000E+02  0.51100000000E-03 0.  1.
         11   -1    0    0    0    0 -0.00000000000E+00 -0.00000000000E+00 -0.45593999997E+02  0.45594000000E+02  0.51100000000E-03 0. -1.
    9900012    2    1    2    0    0  0.20049204004E+02  0.27973766456E+02  0.21648625694E+02  0.50528865905E+02  0.30000018404E+02 0.  0.
         12    1    1    2    0    0 -0.20049204004E+02 -0.27973766456E+02 -0.21648625694E+02  0.40659134095E+02  0.00000000000E+00 0. -1.
         11    1    3    3    0    0  0.48266956837E+01  0.28718108695E+01 -0.48341037311E+01  0.74103203735E+01  0.51100000000E-03 0. -1.
        -11    1    3    3    0    0  0.86929818242E+01  0.12696914235E+01  0.37859469393E+01  0.95662659275E+01  0.51100000000E-03 0.  1.
        -12    1    3    3    0    0  0.65295264961E+01  0.23832264163E+02  0.22696782486E+02  0.33552279604E+02  0.00000000000E+00 0.  1.
</event>
<event>
 7    1  0.2661323E-011  0.5052886E+02  0.7816164E-02  0.1300439E+00
        -11   -1    0    0    0    0  0.00000000000E+00  0.00000000000E+00  0.45593999997E+02  0.45594000000E+02  0.51100000000E-03 0. -1.
         11   -1    0    0    0    0 -0.00000000000E+00 -0.00000000000E+00 -0.45593999997E+02  0.45594000000E+02  0.51100000000E-03 0.  1.
    9900012    2    1    2    0    0  0.45088673270E+00 -0.38527821825E+02 -0.12983417653E+02  0.50528862191E+02  0.30000007116E+02 0.  0.
         12    1    1    2    0    0 -0.45088673270E+00  0.38527821825E+02  0.12983417653E+02  0.40659137809E+02  0.00000000000E+00 0. -1.
         11    1    3    3    0    0  0.10883331544E+02 -0.14338593082E+02 -0.10679359875E+01  0.18032821316E+02  0.51100000000E-03 0. -1.
        -11    1    3    3    0    0  0.34439552057E+01 -0.19681400641E+01 -0.84810832477E+00  0.40563149240E+01  0.51100000000E-03 0.  1.
         12    1    3    3    0    0 -0.13876400017E+02 -0.22221088679E+02 -0.11067373341E+02  0.28439725951E+02  0.00000000000E+00 0. -1.
</event>
<event>
 7    1  0.2661323E-011  0.5052886E+02  0.7816164E-02  0.1300439E+00
        -11   -1    0    0    0    0  0.00000000000E+00  0.00000000000E+00  0.45593999997E+02  0.45594000000E+02  0.51100000000E-03 0.  1.
         11   -1    0    0    0    0 -0.00000000000E+00 -0.00000000000E+00 -0.45593999997E+02  0.45594000000E+02  0.51100000000E-03 0. -1.
    9900012    2    1    2    0    0  0.60431742275E+01  0.13944474765E+02  0.37712027354E+02  0.50528864024E+02  0.30000012687E+02 0.  0.
         12    1    1    2    0    0 -0.60431742275E+01 -0.13944474765E+02 -0.37712027354E+02  0.40659135976E+02  0.00000000000E+00 0. -1.
         11    1    3    3    0    0  0.55492700571E+01  0.42643302113E+01  0.10076878178E+02  0.12268756432E+02  0.51100000000E-03 0. -1.
        -11    1    3    3    0    0  0.12539370904E+02  0.45247313294E+01  0.14799857529E+02  0.19918453741E+02  0.51100000000E-03 0.  1.
         12    1    3    3    0    0 -0.12045466734E+02  0.51554132243E+01  0.12835291646E+02  0.18341653851E+02  0.00000000000E+00 0. -1.
</event>
<event>
 7    1  0.2661323E-011  0.5052886E+02  0.7816164E-02  0.1300439E+00
        -11   -1    0    0    0    0  0.00000000000E+00  0.00000000000E+00  0.45593999997E+02  0.45594000000E+02  0.51100000000E-03 0.  1.
         11   -1    0    0    0    0 -0.00000000000E+00 -0.00000000000E+00 -0.45593999997E+02  0.45594000000E+02  0.51100000000E-03 0. -1.
    9900012    2    1    2    0    0 -0.84910888449E+01 -0.21192314465E+01  0.39706122354E+02  0.50528857312E+02  0.29999992286E+02 0.  0.
         12    1    1    2    0    0  0.84910888449E+01  0.21192314465E+01 -0.39706122354E+02  0.40659142688E+02  0.00000000000E+00 0. -1.
         11    1    3    3    0    0  0.42743634812E+01 -0.18317697933E+01  0.21878683525E+02  0.22367439657E+02  0.51100000000E-03 0. -1.
        -11    1    3    3    0    0  0.29648725079E+01 -0.45009054292E+01  0.31769590197E+01  0.62563317963E+01  0.51100000000E-03 0.  1.
         12    1    3    3    0    0 -0.15730324834E+02  0.42134437761E+01  0.14650479809E+02  0.21905085859E+02  0.00000000000E+00 0. -1.
</event>
<event>
 7    1  0.2661323E-011  0.5052886E+02  0.7816164E-02  0.1300439E+00
        -11   -1    0    0    0    0  0.00000000000E+00  0.00000000000E+00  0.45593999997E+02  0.45594000000E+02  0.51100000000E-03 0.  1.
         11   -1    0    0    0    0 -0.00000000000E+00 -0.00000000000E+00 -0.45593999997E+02  0.45594000000E+02  0.51100000000E-03 0. -1.
    9900012    2    1    2    0    0  0.20601566822E+01 -0.15202729369E+01  0.40578445973E+02  0.50528858926E+02  0.29999997190E+02 0.  0.
         12    1    1    2    0    0 -0.20601566822E+01  0.15202729369E+01 -0.40578445973E+02  0.40659141074E+02  0.00000000000E+00 0. -1.
         11    1    3    3    0    0 -0.97619816666E+01  0.57692895503E+01  0.25688337367E+02  0.28079737622E+02  0.51100000000E-03 0.  1.
        -11    1    3    3    0    0  0.41130724706E+01 -0.23114606163E+01 -0.27235787905E+00  0.47259278882E+01  0.51100000000E-03 0. -1.
        -12    1    3    3    0    0  0.77090658781E+01 -0.49781018708E+01  0.15162466485E+02  0.17723193416E+02  0.00000000000E+00 0.  1.
</event>
<event>
 7    1  0.2661323E-011  0.5052885E+02  0.7816164E-02  0.1300439E+00
        -11   -1    0    0    0    0  0.00000000000E+00  0.00000000000E+00  0.45593999997E+02  0.45594000000E+02  0.51100000000E-03 0. -1.
         11   -1    0    0    0    0 -0.00000000000E+00 -0.00000000000E+00 -0.45593999997E+02  0.45594000000E+02  0.51100000000E-03 0.  1.
    9900012    2    1    2    0    0  0.29259609143E+02 -0.60018326043E+01 -0.27586588707E+02  0.50528848530E+02  0.29999965592E+02 0.  0.
         12    1    1    2    0    0 -0.29259609143E+02  0.60018326043E+01  0.27586588707E+02  0.40659151470E+02  0.00000000000E+00 0. -1.
         11    1    3    3    0    0  0.14316150135E+02  0.82489762830E+01 -0.65895858064E+01  0.17788209741E+02  0.51100000000E-03 0. -1.
        -11    1    3    3    0    0  0.53781353890E+01  0.12547806307E+01 -0.86669309366E+00  0.55901674281E+01  0.51100000000E-03 0.  1.
        -12    1    3    3    0    0  0.95653236182E+01 -0.15505589518E+02 -0.20130309807E+02  0.27150471361E+02  0.00000000000E+00 0.  1.
</event>
<event>
 7    1  0.2661323E-011  0.5052886E+02  0.7816164E-02  0.1300439E+00
        -11   -1    0    0    0    0  0.00000000000E+00  0.00000000000E+00  0.45593999997E+02  0.45594000000E+02  0.51100000000E-03 0.  1.
         11   -1    0    0    0    0 -0.00000000000E+00 -0.00000000000E+00 -0.45593999997E+02  0.45594000000E+02  0.51100000000E-03 0. -1.
    9900012    2    1    2    0    0 -0.92055346311E+01  0.35764306809E+02  0.17009937304E+02  0.50528862325E+02  0.30000007524E+02 0.  0.
         12    1    1    2    0    0  0.92055346311E+01 -0.35764306809E+02 -0.17009937304E+02  0.40659137675E+02  0.00000000000E+00 0. -1.
         11    1    3    3    0    0 -0.14488586579E+02  0.14529655785E+02  0.45174214868E+01  0.21010405409E+02  0.51100000000E-03 0. -1.
        -11    1    3    3    0    0 -0.52704217835E+01  0.83386796122E+01  0.28596703649E+01  0.10270766199E+02  0.51100000000E-03 0.  1.
         12    1    3    3    0    0  0.10553473732E+02  0.12895971412E+02  0.96328454521E+01  0.19247690718E+02  0.00000000000E+00 0. -1.
</event>
<event>
 7    1  0.2661323E-011  0.5052886E+02  0.7816164E-02  0.1300439E+00
        -11   -1    0    0    0    0  0.00000000000E+00  0.00000000000E+00  0.45593999997E+02  0.45594000000E+02  0.51100000000E-03 0.  1.
         11   -1    0    0    0    0 -0.00000000000E+00 -0.00000000000E+00 -0.45593999997E+02  0.45594000000E+02  0.51100000000E-03 0. -1.
    9900012    2    1    2    0    0  0.38755986434E+01 -0.39731881251E+02  0.77151199864E+01  0.50528859220E+02  0.29999998084E+02 0.  0.
         12    1    1    2    0    0 -0.38755986434E+01  0.39731881251E+02 -0.77151199864E+01  0.40659140780E+02  0.00000000000E+00 0. -1.
         11    1    3    3    0    0  0.28567652168E+01  0.59179559494E+00 -0.51405156916E+00  0.29623603439E+01  0.51100000000E-03 0. -1.
        -11    1    3    3    0    0 -0.57114632056E+01 -0.69133069489E+01 -0.58333187319E+01  0.10697767646E+02  0.51100000000E-03 0.  1.
        -12    1    3    3    0    0  0.67302966321E+01 -0.33410369897E+02  0.14062490288E+02  0.36868731230E+02  0.00000000000E+00 0.  1.
</event>
<event>
 7    1  0.2661323E-011  0.5052886E+02  0.7816164E-02  0.1300439E+00
        -11   -1    0    0    0    0  0.00000000000E+00  0.00000000000E+00  0.45593999997E+02  0.45594000000E+02  0.51100000000E-03 0. -1.
         11   -1    0    0    0    0 -0.00000000000E+00 -0.00000000000E+00 -0.45593999997E+02  0.45594000000E+02  0.51100000000E-03 0.  1.
    9900012    2    1    2    0    0 -0.63623125443E+01 -0.35910346720E+02  0.17975921336E+02  0.50528858712E+02  0.29999996540E+02 0.  0.
         12    1    1    2    0    0  0.63623125443E+01  0.35910346720E+02 -0.17975921336E+02  0.40659141288E+02  0.00000000000E+00 0. -1.
         11    1    3    3    0    0 -0.87199053309E+00 -0.42523950663E+01  0.90340018384E+01  0.10022795058E+02  0.51100000000E-03 0. -1.
        -11    1    3    3    0    0 -0.11031734036E+02 -0.13150870147E+02  0.12003830839E+02  0.20946037729E+02  0.51100000000E-03 0.  1.
        -12    1    3    3    0    0  0.55414120248E+01 -0.18507081507E+02 -0.30619113420E+01  0.19560025925E+02  0.00000000000E+00 0.  1.
</event>
<event>
 7    1  0.2661323E-011  0.5052888E+02  0.7816164E-02  0.1300439E+00
        -11   -1    0    0    0    0  0.00000000000E+00  0.00000000000E+00  0.45593999997E+02  0.45594000000E+02  0.51100000000E-03 0. -1.
         11   -1    0    0    0    0 -0.00000000000E+00 -0.00000000000E+00 -0.45593999997E+02  0.45594000000E+02  0.51100000000E-03 0.  1.
    9900012    2    1    2    0    0  0.18680326778E+02  0.35512088332E+02 -0.65651374181E+01  0.50528879798E+02  0.30000060635E+02 0.  0.
         12    1    1    2    0    0 -0.18680326778E+02 -0.35512088332E+02  0.65651374181E+01  0.40659120202E+02  0.00000000000E+00 0. -1.
         11    1    3    3    0    0 -0.42633590040E+00  0.38034351537E+01 -0.44166240272E+01  0.58441808089E+01  0.51100000000E-03 0. -1.
        -11    1    3    3    0    0 -0.39499436728E+01  0.16488554753E+02  0.21718662948E+00  0.16956463757E+02  0.51100000000E-03 0.  1.
         12    1    3    3    0    0  0.23056606351E+02  0.15220098426E+02 -0.23657000204E+01  0.27728235232E+02  0.00000000000E+00 0. -1.
</event>
<event>
 7    1  0.2661323E-011  0.5052886E+02  0.7816164E-02  0.1300439E+00
        -11   -1    0    0    0    0  0.00000000000E+00  0.00000000000E+00  0.45593999997E+02  0.45594000000E+02  0.51100000000E-03 0.  1.
         11   -1    0    0    0    0 -0.00000000000E+00 -0.00000000000E+00 -0.45593999997E+02  0.45594000000E+02  0.51100000000E-03 0. -1.
    9900012    2    1    2    0    0  0.12748887744E+02  0.97778218380E+01  0.37350043070E+02  0.50528860118E+02  0.30000000813E+02 0.  0.
         12    1    1    2    0    0 -0.12748887744E+02 -0.97778218380E+01 -0.37350043070E+02  0.40659139882E+02  0.00000000000E+00 0. -1.
         11    1    3    3    0    0 -0.50813198340E+01  0.13499305646E+01  0.60010551204E+01  0.79783949892E+01  0.51100000000E-03 0. -1.
        -11    1    3    3    0    0 -0.13223229837E+01 -0.40474974546E+01  0.69750894122E+00  0.43147760895E+01  0.51100000000E-03 0.  1.
        -12    1    3    3    0    0  0.19152530562E+02  0.12475388728E+02  0.30651479009E+02  0.38235689039E+02  0.00000000000E+00 0.  1.
</event>
<event>
 7    1  0.2661323E-011  0.5052885E+02  0.7816164E-02  0.1300439E+00
        -11   -1    0    0    0    0  0.00000000000E+00  0.00000000000E+00  0.45593999997E+02  0.45594000000E+02  0.51100000000E-03 0. -1.
         11   -1    0    0    0    0 -0.00000000000E+00 -0.00000000000E+00 -0.45593999997E+02  0.45594000000E+02  0.51100000000E-03 0.  1.
    9900012    2    1    2    0    0  0.12851757073E+02 -0.13834036813E+02 -0.36008583452E+02  0.50528851994E+02  0.29999976120E+02 0.  0.
         12    1    1    2    0    0 -0.12851757073E+02  0.13834036813E+02  0.36008583452E+02  0.40659148006E+02  0.00000000000E+00 0. -1.
         11    1    3    3    0    0  0.13204826469E+02 -0.36422080267E+01 -0.14496724853E+02  0.19944627175E+02  0.51100000000E-03 0. -1.
        -11    1    3    3    0    0  0.68499910719E+01 -0.54497614477E+00 -0.15859195073E+02  0.17283907119E+02  0.51100000000E-03 0.  1.
        -12    1    3    3    0    0 -0.72030604683E+01 -0.96468526412E+01 -0.56526635258E+01  0.13300317700E+02  0.00000000000E+00 0.  1.
</event>
<event>
 7    1  0.2661323E-011  0.5052886E+02  0.7816164E-02  0.1300439E+00
        -11   -1    0    0    0    0  0.00000000000E+00  0.00000000000E+00  0.45593999997E+02  0.45594000000E+02  0.51100000000E-03 0.  1.
         11   -1    0    0    0    0 -0.00000000000E+00 -0.00000000000E+00 -0.45593999997E+02  0.45594000000E+02  0.51100000000E-03 0. -1.
    9900012    2    1    2    0    0  0.27814610235E+02  0.87012412343E+00  0.29643817549E+02  0.50528861084E+02  0.30000003751E+02 0.  0.
         12    1    1    2    0    0 -0.27814610235E+02 -0.87012412343E+00 -0.29643817549E+02  0.40659138916E+02  0.00000000000E+00 0. -1.
         11    1    3    3    0    0  0.10757625417E+02 -0.40878432797E+01  0.34460756053E+01  0.12013009808E+02  0.51100000000E-03 0. -1.
        -11    1    3    3    0    0  0.51652807045E+01 -0.64135982031E+01  0.82640568833E+00  0.82763103669E+01  0.51100000000E-03 0.  1.
         12    1    3    3    0    0  0.11891704113E+02  0.11371565606E+02  0.25371336255E+02  0.30239540910E+02  0.00000000000E+00 0. -1.
</event>
<event>
 7    1  0.2661323E-011  0.5052887E+02  0.7816164E-02  0.1300439E+00
        -11   -1    0    0    0    0  0.00000000000E+00  0.00000000000E+00  0.45593999997E+02  0.45594000000E+02  0.51100000000E-03 0. -1.
         11   -1    0    0    0    0 -0.00000000000E+00 -0.00000000000E+00 -0.45593999997E+02  0.45594000000E+02  0.51100000000E-03 0.  1.
    9900012    2    1    2    0    0 -0.15858888193E+02 -0.24898631572E+02 -0.27959239294E+02  0.50528865100E+02  0.30000015958E+02 0.  0.
         12    1    1    2    0    0  0.15858888193E+02  0.24898631572E+02  0.27959239294E+02  0.40659134900E+02  0.00000000000E+00 0. -1.
         11    1    3    3    0    0  0.65841381653E+01 -0.87183812772E+01 -0.72984722072E+01  0.13138825834E+02  0.51100000000E-03 0. -1.
        -11    1    3    3    0    0  0.59417560232E+00  0.21061716483E+00  0.13954848387E+01  0.15312682432E+01  0.51100000000E-03 0.  1.
         12    1    3    3    0    0 -0.23037201961E+02 -0.16390867460E+02 -0.22056251926E+02  0.35858771023E+02  0.00000000000E+00 0. -1.
</event>
<event>
 7    1  0.2661323E-011  0.5052886E+02  0.7816164E-02  0.1300439E+00
        -11   -1    0    0    0    0  0.00000000000E+00  0.00000000000E+00  0.45593999997E+02  0.45594000000E+02  0.51100000000E-03 0.  1.
         11   -1    0    0    0    0 -0.00000000000E+00 -0.00000000000E+00 -0.45593999997E+02  0.45594000000E+02  0.51100000000E-03 0. -1.
    9900012    2    1    2    0    0 -0.36605253632E+02 -0.86035310072E+01 -0.15466093650E+02  0.50528863363E+02  0.30000010679E+02 0.  0.
         12    1    1    2    0    0  0.36605253632E+02  0.86035310072E+01  0.15466093650E+02  0.40659136637E+02  0.00000000000E+00 0. -1.
         11    1    3    3    0    0 -0.56662695899E+01 -0.12979387368E+01 -0.11761136324E+02  0.13119282904E+02  0.51100000000E-03 0. -1.
        -11    1    3    3    0    0 -0.68000739761E+01 -0.10039318865E+01  0.74015782857E+01  0.10101101261E+02  0.51100000000E-03 0.  1.
         12    1    3    3    0    0 -0.24138910066E+02 -0.63016603839E+01 -0.11106535611E+02  0.27308479197E+02  0.00000000000E+00 0. -1.
</event>
<event>
 7    1  0.2661323E-011  0.5052886E+02  0.7816164E-02  0.1300439E+00
        -11   -1    0    0    0    0  0.00000000000E+00  0.00000000000E+00  0.45593999997E+02  0.45594000000E+02  0.51100000000E-03 0.  1.
         11   -1    0    0    0    0 -0.00000000000E+00 -0.00000000000E+00 -0.45593999997E+02  0.45594000000E+02  0.51100000000E-03 0. -1.
    9900012    2    1    2    0    0 -0.17559450177E+02 -0.19239487149E+02  0.31219764010E+02  0.50528858087E+02  0.29999994641E+02 0.  0.
         12    1    1    2    0    0  0.17559450177E+02  0.19239487149E+02 -0.31219764010E+02  0.40659141913E+02  0.00000000000E+00 0. -1.
         11    1    3    3    0    0  0.60790024707E+01 -0.41385081693E+01  0.59275116695E+01  0.94454706479E+01  0.51100000000E-03 0.  1.
        -11    1    3    3    0    0 -0.15593415824E+02 -0.49037794065E+01  0.22478219275E+02  0.27793380715E+02  0.51100000000E-03 0. -1.
         12    1    3    3    0    0 -0.80450368239E+01 -0.10197199573E+02  0.28140330648E+01  0.13290006724E+02  0.00000000000E+00 0. -1.
</event>
<event>
 7    1  0.2661323E-011  0.5052888E+02  0.7816164E-02  0.1300439E+00
        -11   -1    0    0    0    0  0.00000000000E+00  0.00000000000E+00  0.45593999997E+02  0.45594000000E+02  0.51100000000E-03 0.  1.
         11   -1    0    0    0    0 -0.00000000000E+00 -0.00000000000E+00 -0.45593999997E+02  0.45594000000E+02  0.51100000000E-03 0. -1.
    9900012    2    1    2    0    0 -0.40543186004E+01 -0.31765947508E+02  0.25052970641E+02  0.50528877305E+02  0.30000053056E+02 0.  0.
         12    1    1    2    0    0  0.40543186004E+01  0.31765947508E+02 -0.25052970641E+02  0.40659122695E+02  0.00000000000E+00 0. -1.
         11    1    3    3    0    0 -0.66594553835E+01 -0.84577568053E+01  0.16038957952E+02  0.19316577560E+02  0.51100000000E-03 0. -1.
        -11    1    3    3    0    0  0.12856122949E+01 -0.13584904137E+01  0.90313238844E+01  0.92229662551E+01  0.51100000000E-03 0.  1.
         12    1    3    3    0    0  0.13195244882E+01 -0.21949700289E+02 -0.17311195600E-01  0.21989333490E+02  0.00000000000E+00 0. -1.
</event>
<event>
 7    1  0.2661323E-011  0.5052886E+02  0.7816164E-02  0.1300439E+00
        -11   -1    0    0    0    0  0.00000000000E+00  0.00000000000E+00  0.45593999997E+02  0.45594000000E+02  0.51100000000E-03 0.  1.
         11   -1    0    0    0    0 -0.00000000000E+00 -0.00000000000E+00 -0.45593999997E+02  0.45594000000E+02  0.51100000000E-03 0. -1.
    9900012    2    1    2    0    0 -0.34062274547E+02  0.14949685749E+02 -0.16414441530E+02  0.50528861518E+02  0.30000005072E+02 0.  0.
         12    1    1    2    0    0  0.34062274547E+02 -0.14949685749E+02  0.16414441530E+02  0.40659138482E+02  0.00000000000E+00 0. -1.
         11    1    3    3    0    0 -0.71713053997E+01  0.14490579620E+02 -0.12511876102E+02  0.20443863694E+02  0.51100000000E-03 0. -1.
        -11    1    3    3    0    0 -0.11069883796E+02  0.64136518336E+01 -0.28019508352E+00  0.12796709212E+02  0.51100000000E-03 0.  1.
        -12    1    3    3    0    0 -0.15821085351E+02 -0.59545457054E+01 -0.36223703445E+01  0.17288288613E+02  0.00000000000E+00 0.  1.
</event>
<event>
 7    1  0.2661323E-011  0.5052886E+02  0.7816164E-02  0.1300439E+00
        -11   -1    0    0    0    0  0.00000000000E+00  0.00000000000E+00  0.45593999997E+02  0.45594000000E+02  0.51100000000E-03 0.  1.
         11   -1    0    0    0    0 -0.00000000000E+00 -0.00000000000E+00 -0.45593999997E+02  0.45594000000E+02  0.51100000000E-03 0. -1.
    9900012    2    1    2    0    0 -0.22306843198E+02 -0.27907375010E+02  0.19410014699E+02  0.50528861986E+02  0.30000006493E+02 0.  0.
         12    1    1    2    0    0  0.22306843198E+02  0.27907375010E+02 -0.19410014699E+02  0.40659138014E+02  0.00000000000E+00 0. -1.
         11    1    3    3    0    0 -0.31054587055E+01 -0.22683867405E+01 -0.16801959620E+01  0.41967262131E+01  0.51100000000E-03 0. -1.
        -11    1    3    3    0    0 -0.20902763263E+02 -0.89052266237E+01  0.54523367251E+01  0.23365713113E+02  0.51100000000E-03 0.  1.
         12    1    3    3    0    0  0.17013787709E+01 -0.16733761646E+02  0.15637873936E+02  0.22966422660E+02  0.00000000000E+00 0. -1.
</event>
<event>
 7    1  0.2661323E-011  0.5052887E+02  0.7816164E-02  0.1300439E+00
        -11   -1    0    0    0    0  0.00000000000E+00  0.00000000000E+00  0.45593999997E+02  0.45594000000E+02  0.51100000000E-03 0. -1.
         11   -1    0    0    0    0 -0.00000000000E+00 -0.00000000000E+00 -0.45593999997E+02  0.45594000000E+02  0.51100000000E-03 0.  1.
    9900012    2    1    2    0    0  0.18998121053E+02  0.34373139028E+02 -0.10522530807E+02  0.50528868864E+02  0.30000027398E+02 0.  0.
         12    1    1    2    0    0 -0.18998121053E+02 -0.34373139028E+02  0.10522530807E+02  0.40659131136E+02  0.00000000000E+00 0. -1.
         11    1    3    3    0    0 -0.22200342331E+01  0.20981597244E+01 -0.24375637320E+00  0.30643504460E+01  0.51100000000E-03 0.  1.
        -11    1    3    3    0    0  0.17256645985E+02  0.30301986091E+02 -0.17483833840E+02  0.39008802055E+02  0.51100000000E-03 0. -1.
         12    1    3    3    0    0  0.39615093018E+01  0.19729932120E+01  0.72050594062E+01  0.84557163629E+01  0.00000000000E+00 0. -1.
</event>
<event>
 7    1  0.2661323E-011  0.5052886E+02  0.7816164E-02  0.1300439E+00
        -11   -1    0    0    0    0  0.00000000000E+00  0.00000000000E+00  0.45593999997E+02  0.45594000000E+02  0.51100000000E-03 0.  1.
         11   -1    0    0    0    0 -0.00000000000E+00 -0.00000000000E+00 -0.45593999997E+02  0.45594000000E+02  0.51100000000E-03 0. -1.
    9900012    2    1    2    0    0 -0.35760810701E+02 -0.63344533533E+01  0.18281265771E+02  0.50528861304E+02  0.30000004420E+02 0.  0.
         12    1    1    2    0    0  0.35760810701E+02  0.63344533533E+01 -0.18281265771E+02  0.40659138696E+02  0.00000000000E+00 0. -1.
         11    1    3    3    0    0 -0.15278408243E+02 -0.90746901588E+01  0.10402081768E+02  0.20590849067E+02  0.51100000000E-03 0. -1.
        -11    1    3    3    0    0 -0.21064468535E+02 -0.20253441599E+01  0.11350529147E+02  0.24013503822E+02  0.51100000000E-03 0.  1.
        -12    1    3    3    0    0  0.58206607686E+00  0.47655809654E+01 -0.34713451439E+01  0.59245084154E+01  0.00000000000E+00 0.  1.
</event>
<event>
 7    1  0.2661323E-011  0.5052886E+02  0.7816164E-02  0.1300439E+00
        -11   -1    0    0    0    0  0.00000000000E+00  0.00000000000E+00  0.45593999997E+02  0.45594000000E+02  0.51100000000E-03 0.  1.
         11   -1    0    0    0    0 -0.00000000000E+00 -0.00000000000E+00 -0.45593999997E+02  0.45594000000E+02  0.51100000000E-03 0. -1.
    9900012    2    1    2    0    0  0.23318373683E+02 -0.19973207729E+02  0.26655022251E+02  0.50528858477E+02  0.29999995828E+02 0.  0.
         12    1    1    2    0    0 -0.23318373683E+02  0.19973207729E+02 -0.26655022251E+02  0.40659141523E+02  0.00000000000E+00 0. -1.
         11    1    3    3    0    0  0.77050343927E+01  0.20606309800E+01  0.11682706736E+02  0.14145649224E+02  0.51100000000E-03 0. -1.
        -11    1    3    3    0    0  0.11949542061E+02 -0.77991484996E+01  0.16253842578E+02  0.21628815769E+02  0.51100000000E-03 0.  1.
        -12    1    3    3    0    0  0.36637972294E+01 -0.14234690209E+02 -0.12815270626E+01  0.14754393484E+02  0.00000000000E+00 0.  1.
</event>
<event>
 7    1  0.2661323E-011  0.5052886E+02  0.7816164E-02  0.1300439E+00
        -11   -1    0    0    0    0  0.00000000000E+00  0.00000000000E+00  0.45593999997E+02  0.45594000000E+02  0.51100000000E-03 0.  1.
         11   -1    0    0    0    0 -0.00000000000E+00 -0.00000000000E+00 -0.45593999997E+02  0.45594000000E+02  0.51100000000E-03 0. -1.
    9900012    2    1    2    0    0  0.39481894366E+02 -0.89249015959E+01  0.38330005363E+01  0.50528859031E+02  0.29999997511E+02 0.  0.
         12    1    1    2    0    0 -0.39481894366E+02  0.89249015959E+01 -0.38330005363E+01  0.40659140969E+02  0.00000000000E+00 0. -1.
         11    1    3    3    0    0  0.74527833810E+00 -0.44788317163E+01 -0.63142470883E+01  0.77772160763E+01  0.51100000000E-03 0. -1.
        -11    1    3    3    0    0  0.14914498431E+02  0.27793908797E+01 -0.15431322289E+01  0.15249542107E+02  0.51100000000E-03 0.  1.
        -12    1    3    3    0    0  0.23822117596E+02 -0.72254607593E+01  0.11690379853E+02  0.27502100848E+02  0.00000000000E+00 0.  1.
</event>
<event>
 7    1  0.2661323E-011  0.5052886E+02  0.7816164E-02  0.1300439E+00
        -11   -1    0    0    0    0  0.00000000000E+00  0.00000000000E+00  0.45593999997E+02  0.45594000000E+02  0.51100000000E-03 0. -1.
         11   -1    0    0    0    0 -0.00000000000E+00 -0.00000000000E+00 -0.45593999997E+02  0.45594000000E+02  0.51100000000E-03 0.  1.
    9900012    2    1    2    0    0 -0.31936523292E+01 -0.21222842368E+02 -0.34533423059E+02  0.50528858819E+02  0.29999996866E+02 0.  0.
         12    1    1    2    0    0  0.31936523292E+01  0.21222842368E+02  0.34533423059E+02  0.40659141181E+02  0.00000000000E+00 0. -1.
         11    1    3    3    0    0 -0.47020267167E+01  0.37434073638E+01 -0.14634778826E+02  0.15820837699E+02  0.51100000000E-03 0. -1.
        -11    1    3    3    0    0 -0.38209441607E+01 -0.33060451631E+01 -0.79051491770E+01  0.93819471684E+01  0.51100000000E-03 0.  1.
         12    1    3    3    0    0  0.53293185482E+01 -0.21660204569E+02 -0.11993495056E+02  0.25326073952E+02  0.00000000000E+00 0. -1.
</event>
<event>
 7    1  0.2661323E-011  0.5052883E+02  0.7816164E-02  0.1300439E+00
        -11   -1    0    0    0    0  0.00000000000E+00  0.00000000000E+00  0.45593999997E+02  0.45594000000E+02  0.51100000000E-03 0.  1.
         11   -1    0    0    0    0 -0.00000000000E+00 -0.00000000000E+00 -0.45593999997E+02  0.45594000000E+02  0.51100000000E-03 0. -1.
    9900012    2    1    2    0    0 -0.32568897792E+02  0.61990160082E+01  0.23537358001E+02  0.50528829761E+02  0.29999908542E+02 0.  0.
         12    1    1    2    0    0  0.32568897792E+02 -0.61990160082E+01 -0.23537358001E+02  0.40659170239E+02  0.00000000000E+00 0. -1.
         11    1    3    3    0    0 -0.12035965838E+02 -0.81742483872E+01  0.27841940277E+01  0.14813323294E+02  0.51100000000E-03 0. -1.
        -11    1    3    3    0    0 -0.45377718770E+01  0.28538723098E+01  0.13815081952E+02  0.14818652111E+02  0.51100000000E-03 0.  1.
        -12    1    3    3    0    0 -0.15995160076E+02  0.11519392086E+02  0.69380820210E+01  0.20896854357E+02  0.00000000000E+00 0.  1.
</event>
<event>
 7    1  0.2661323E-011  0.5052887E+02  0.7816164E-02  0.1300439E+00
        -11   -1    0    0    0    0  0.00000000000E+00  0.00000000000E+00  0.45593999997E+02  0.45594000000E+02  0.51100000000E-03 0.  1.
         11   -1    0    0    0    0 -0.00000000000E+00 -0.00000000000E+00 -0.45593999997E+02  0.45594000000E+02  0.51100000000E-03 0. -1.
    9900012    2    1    2    0    0 -0.19894277588E+02 -0.68416725553E+01  0.34793305186E+02  0.50528870030E+02  0.30000030945E+02 0.  0.
         12    1    1    2    0    0  0.19894277588E+02  0.68416725553E+01 -0.34793305186E+02  0.40659129970E+02  0.00000000000E+00 0. -1.
         11    1    3    3    0    0 -0.63208623802E+01  0.29960042310E+01  0.13285767965E+02  0.15014691913E+02  0.51100000000E-03 0. -1.
        -11    1    3    3    0    0 -0.85398429419E+01  0.16181797073E+01  0.21293799021E+02  0.22999419559E+02  0.51100000000E-03 0.  1.
         12    1    3    3    0    0 -0.50335722654E+01 -0.11455856494E+02  0.21373820088E+00  0.12514758558E+02  0.00000000000E+00 0. -1.
</event>
<event>
 7    1  0.2661323E-011  0.5052883E+02  0.7816164E-02  0.1300439E+00
        -11   -1    0    0    0    0  0.00000000000E+00  0.00000000000E+00  0.45593999997E+02  0.45594000000E+02  0.51100000000E-03 0.  1.
         11   -1    0    0    0    0 -0.00000000000E+00 -0.00000000000E+00 -0.45593999997E+02  0.45594000000E+02  0.51100000000E-03 0. -1.
    9900012    2    1    2    0    0  0.82257867300E+01  0.32561987395E+02 -0.22917711837E+02  0.50528829985E+02  0.29999909224E+02 0.  0.
         12    1    1    2    0    0 -0.82257867300E+01 -0.32561987395E+02  0.22917711837E+02  0.40659170015E+02  0.00000000000E+00 0. -1.
         11    1    3    3    0    0  0.37665287636E+00  0.27888634110E+01 -0.74676045946E+01  0.79802722483E+01  0.51100000000E-03 0. -1.
        -11    1    3    3    0    0 -0.43578197404E+01 -0.23160312156E+01 -0.40142529693E+01  0.63615108775E+01  0.51100000000E-03 0.  1.
         12    1    3    3    0    0  0.12206953594E+02  0.32089155200E+02 -0.11435854273E+02  0.36187046860E+02  0.00000000000E+00 0. -1.
</event>
<event>
 7    1  0.2661323E-011  0.5052886E+02  0.7816164E-02  0.1300439E+00
        -11   -1    0    0    0    0  0.00000000000E+00  0.00000000000E+00  0.45593999997E+02  0.45594000000E+02  0.51100000000E-03 0.  1.
         11   -1    0    0    0    0 -0.00000000000E+00 -0.00000000000E+00 -0.45593999997E+02  0.45594000000E+02  0.51100000000E-03 0. -1.
    9900012    2    1    2    0    0 -0.33512802726E+02 -0.37699144582E+01  0.22712237174E+02  0.50528856883E+02  0.29999990980E+02 0.  0.
         12    1    1    2    0    0  0.33512802726E+02  0.37699144582E+01 -0.22712237174E+02  0.40659143117E+02  0.00000000000E+00 0. -1.
         11    1    3    3    0    0 -0.25976844100E+00 -0.28590952851E+01 -0.22889528699E+01  0.36716768640E+01  0.51100000000E-03 0. -1.
        -11    1    3    3    0    0 -0.18180287274E+02 -0.50298822084E+01  0.18875630918E+01  0.18957464363E+02  0.51100000000E-03 0.  1.
        -12    1    3    3    0    0 -0.15072747011E+02  0.41190630352E+01  0.23113626952E+02  0.27899715655E+02  0.00000000000E+00 0.  1.
</event>
<event>
 7    1  0.2661323E-011  0.5052886E+02  0.7816164E-02  0.1300439E+00
        -11   -1    0    0    0    0  0.00000000000E+00  0.00000000000E+00  0.45593999997E+02  0.45594000000E+02  0.51100000000E-03 0.  1.
         11   -1    0    0    0    0 -0.00000000000E+00 -0.00000000000E+00 -0.45593999997E+02  0.45594000000E+02  0.51100000000E-03 0. -1.
    9900012    2    1    2    0    0 -0.39280231468E+02  0.25848543471E+01  0.10175826884E+02  0.50528861925E+02  0.30000006308E+02 0.  0.
         12    1    1    2    0    0  0.39280231468E+02 -0.25848543471E+01 -0.10175826884E+02  0.40659138075E+02  0.00000000000E+00 0. -1.
         11    1    3    3    0    0 -0.28155815353E+01  0.86725286877E+00 -0.24447344349E+01  0.38283617435E+01  0.51100000000E-03 0. -1.
        -11    1    3    3    0    0 -0.16991299139E+01 -0.78861889041E+01 -0.10372064914E+01  0.81335610566E+01  0.51100000000E-03 0.  1.
        -12    1    3    3    0    0 -0.34765520019E+02  0.96037903825E+01  0.13657767810E+02  0.38566939125E+02  0.00000000000E+00 0.  1.
</event>
<event>
 7    1  0.2661323E-011  0.5052885E+02  0.7816164E-02  0.1300439E+00
        -11   -1    0    0    0    0  0.00000000000E+00  0.00000000000E+00  0.45593999997E+02  0.45594000000E+02  0.51100000000E-03 0. -1.
         11   -1    0    0    0    0 -0.00000000000E+00 -0.00000000000E+00 -0.45593999997E+02  0.45594000000E+02  0.51100000000E-03 0.  1.
    9900012    2    1    2    0    0  0.25712483592E+02  0.10189791078E+02 -0.29802733655E+02  0.50528848656E+02  0.29999965975E+02 0.  0.
         12    1    1    2    0    0 -0.25712483592E+02 -0.10189791078E+02  0.29802733655E+02  0.40659151344E+02  0.00000000000E+00 0. -1.
         11    1    3    3    0    0  0.40875036896E+01 -0.15231336558E+01 -0.12835848530E+01  0.45470004269E+01  0.51100000000E-03 0. -1.
        -11    1    3    3    0    0  0.16640346819E+02 -0.53263394516E+01 -0.19094704226E+02  0.25882016227E+02  0.51100000000E-03 0.  1.
        -12    1    3    3    0    0  0.49846330832E+01  0.17039264186E+02 -0.94244445759E+01  0.20099832003E+02  0.00000000000E+00 0.  1.
</event>
<event>
 7    1  0.2661323E-011  0.5052885E+02  0.7816164E-02  0.1300439E+00
        -11   -1    0    0    0    0  0.00000000000E+00  0.00000000000E+00  0.45593999997E+02  0.45594000000E+02  0.51100000000E-03 0. -1.
         11   -1    0    0    0    0 -0.00000000000E+00 -0.00000000000E+00 -0.45593999997E+02  0.45594000000E+02  0.51100000000E-03 0.  1.
    9900012    2    1    2    0    0  0.12408920188E+02  0.40289373527E+01 -0.38509121545E+02  0.50528854920E+02  0.29999985015E+02 0.  0.
         12    1    1    2    0    0 -0.12408920188E+02 -0.40289373527E+01  0.38509121545E+02  0.40659145080E+02  0.00000000000E+00 0. -1.
         11    1    3    3    0    0  0.14228434428E+02 -0.42748514772E+01 -0.30942547008E+02  0.34324392450E+02  0.51100000000E-03 0.  1.
        -11    1    3    3    0    0  0.47518253812E+01  0.18763165895E+01 -0.31963130281E+01  0.60263443008E+01  0.51100000000E-03 0. -1.
         12    1    3    3    0    0 -0.65713396212E+01  0.64274722404E+01 -0.43702615092E+01  0.10178118170E+02  0.00000000000E+00 0. -1.
</event>
<event>
 7    1  0.2661323E-011  0.5052885E+02  0.7816164E-02  0.1300439E+00
        -11   -1    0    0    0    0  0.00000000000E+00  0.00000000000E+00  0.45593999997E+02  0.45594000000E+02  0.51100000000E-03 0.  1.
         11   -1    0    0    0    0 -0.00000000000E+00 -0.00000000000E+00 -0.45593999997E+02  0.45594000000E+02  0.51100000000E-03 0. -1.
    9900012    2    1    2    0    0 -0.66348401845E+01 -0.11955977976E+02  0.38290986965E+02  0.50528853472E+02  0.29999980613E+02 0.  0.
         12    1    1    2    0    0  0.66348401845E+01  0.11955977976E+02 -0.38290986965E+02  0.40659146528E+02  0.00000000000E+00 0. -1.
         11    1    3    3    0    0 -0.38456703829E+01  0.49999209783E+00  0.87083203008E+01  0.95327863458E+01  0.51100000000E-03 0. -1.
        -11    1    3    3    0    0 -0.36726529691E+01 -0.61565686818E+01  0.33003789023E+02  0.33773389050E+02  0.51100000000E-03 0.  1.
        -12    1    3    3    0    0  0.88348316749E+00 -0.62994013918E+01 -0.34211223585E+01  0.72226780764E+01  0.00000000000E+00 0.  1.
</event>
<event>
 7    1  0.2661323E-011  0.5052885E+02  0.7816164E-02  0.1300439E+00
        -11   -1    0    0    0    0  0.00000000000E+00  0.00000000000E+00  0.45593999997E+02  0.45594000000E+02  0.51100000000E-03 0. -1.
         11   -1    0    0    0    0 -0.00000000000E+00 -0.00000000000E+00 -0.45593999997E+02  0.45594000000E+02  0.51100000000E-03 0.  1.
    9900012    2    1    2    0    0 -0.15792654602E+02  0.35746925656E+02 -0.11221227612E+02  0.50528848726E+02  0.29999966187E+02 0.  0.
         12    1    1    2    0    0  0.15792654602E+02 -0.35746925656E+02  0.11221227612E+02  0.40659151274E+02  0.00000000000E+00 0. -1.
         11    1    3    3    0    0 -0.53396007846E+01  0.30468700780E+01 -0.28721294590E+01  0.67855642139E+01  0.51100000000E-03 0. -1.
        -11    1    3    3    0    0 -0.17597591782E+02  0.30025821120E+02 -0.93819444745E+01  0.36045055872E+02  0.51100000000E-03 0.  1.
        -12    1    3    3    0    0  0.71445379645E+01  0.26742344578E+01  0.10328463217E+01  0.76982286395E+01  0.00000000000E+00 0.  1.
</event>
<event>
 7    1  0.2661323E-011  0.5052890E+02  0.7816164E-02  0.1300439E+00
        -11   -1    0    0    0    0  0.00000000000E+00  0.00000000000E+00  0.45593999997E+02  0.45594000000E+02  0.51100000000E-03 0.  1.
         11   -1    0    0    0    0 -0.00000000000E+00 -0.00000000000E+00 -0.45593999997E+02  0.45594000000E+02  0.51100000000E-03 0. -1.
    9900012    2    1    2    0    0 -0.21747660668E+02  0.83529497014E+00  0.34343911572E+02  0.50528896170E+02  0.30000110398E+02 0.  0.
         12    1    1    2    0    0  0.21747660668E+02 -0.83529497014E+00 -0.34343911572E+02  0.40659103830E+02  0.00000000000E+00 0. -1.
         11    1    3    3    0    0 -0.22519196559E+01  0.62165900734E+01 -0.13317744947E+01  0.67446836727E+01  0.51100000000E-03 0. -1.
        -11    1    3    3    0    0 -0.38145151795E+00 -0.56479735924E+01  0.45755314478E+01  0.72787773185E+01  0.51100000000E-03 0.  1.
        -12    1    3    3    0    0 -0.19114289494E+02  0.26667848909E+00  0.31100154619E+02  0.36505435179E+02  0.00000000000E+00 0.  1.
</event>
<event>
 7    1  0.2661323E-011  0.5052886E+02  0.7816164E-02  0.1300439E+00
        -11   -1    0    0    0    0  0.00000000000E+00  0.00000000000E+00  0.45593999997E+02  0.45594000000E+02  0.51100000000E-03 0.  1.
         11   -1    0    0    0    0 -0.00000000000E+00 -0.00000000000E+00 -0.45593999997E+02  0.45594000000E+02  0.51100000000E-03 0. -1.
    9900012    2    1    2    0    0  0.30319025565E+01  0.20216877091E+02  0.35146134200E+02  0.50528864475E+02  0.30000014060E+02 0.  0.
         12    1    1    2    0    0 -0.30319025565E+01 -0.20216877091E+02 -0.35146134200E+02  0.40659135525E+02  0.00000000000E+00 0. -1.
         11    1    3    3    0    0  0.27541282469E+01  0.93943435415E+01  0.19333768875E+02  0.21671029790E+02  0.51100000000E-03 0. -1.
        -11    1    3    3    0    0  0.79949279415E+01  0.34076787505E+01  0.15939660169E+02  0.18154996938E+02  0.51100000000E-03 0.  1.
         12    1    3    3    0    0 -0.77171536319E+01  0.74148547985E+01 -0.12729484476E+00  0.10702837747E+02  0.00000000000E+00 0. -1.
</event>
<event>
 7    1  0.2661323E-011  0.5052887E+02  0.7816164E-02  0.1300439E+00
        -11   -1    0    0    0    0  0.00000000000E+00  0.00000000000E+00  0.45593999997E+02  0.45594000000E+02  0.51100000000E-03 0.  1.
         11   -1    0    0    0    0 -0.00000000000E+00 -0.00000000000E+00 -0.45593999997E+02  0.45594000000E+02  0.51100000000E-03 0. -1.
    9900012    2    1    2    0    0 -0.36980278628E+02  0.11899615960E+02  0.12000960834E+02  0.50528869066E+02  0.30000028012E+02 0.  0.
         12    1    1    2    0    0  0.36980278628E+02 -0.11899615960E+02 -0.12000960834E+02  0.40659130934E+02  0.00000000000E+00 0. -1.
         11    1    3    3    0    0 -0.76172543637E+01 -0.38779275005E+01  0.45657512367E+01  0.96905608896E+01  0.51100000000E-03 0. -1.
        -11    1    3    3    0    0  0.25833878475E+01  0.89373852447E-01  0.44197675141E+01  0.51201782778E+01  0.51100000000E-03 0.  1.
        -12    1    3    3    0    0 -0.31946412112E+02  0.15688169608E+02  0.30154420827E+01  0.35718129898E+02  0.00000000000E+00 0.  1.
</event>
<event>
 7    1  0.2661323E-011  0.5052886E+02  0.7816164E-02  0.1300439E+00
        -11   -1    0    0    0    0  0.00000000000E+00  0.00000000000E+00  0.45593999997E+02  0.45594000000E+02  0.51100000000E-03 0.  1.
         11   -1    0    0    0    0 -0.00000000000E+00 -0.00000000000E+00 -0.45593999997E+02  0.45594000000E+02  0.51100000000E-03 0. -1.
    9900012    2    1    2    0    0 -0.11968153058E+02 -0.35273074339E+02  0.16301497710E+02  0.50528864636E+02  0.30000014549E+02 0.  0.
         12    1    1    2    0    0  0.11968153058E+02  0.35273074339E+02 -0.16301497710E+02  0.40659135364E+02  0.00000000000E+00 0. -1.
         11    1    3    3    0    0 -0.10023678961E+02 -0.15679682343E+02 -0.18932673917E+01  0.18705909226E+02  0.51100000000E-03 0. -1.
        -11    1    3    3    0    0  0.15753935190E+01 -0.68640050872E+01 -0.23284690134E+01  0.74174253474E+01  0.51100000000E-03 0.  1.
        -12    1    3    3    0    0 -0.35198676160E+01 -0.12729386908E+02  0.20523234115E+02  0.24405530063E+02  0.00000000000E+00 0.  1.
</event>
<event>
 7    1  0.2661323E-011  0.5052886E+02  0.7816164E-02  0.1300439E+00
        -11   -1    0    0    0    0  0.00000000000E+00  0.00000000000E+00  0.45593999997E+02  0.45594000000E+02  0.51100000000E-03 0.  1.
         11   -1    0    0    0    0 -0.00000000000E+00 -0.00000000000E+00 -0.45593999997E+02  0.45594000000E+02  0.51100000000E-03 0. -1.
    9900012    2    1    2    0    0  0.36060431131E+02  0.14059121004E+02  0.12456002231E+02  0.50528861195E+02  0.30000004088E+02 0.  0.
         12    1    1    2    0    0 -0.36060431131E+02 -0.14059121004E+02 -0.12456002231E+02  0.40659138805E+02  0.00000000000E+00 0. -1.
         11    1    3    3    0    0  0.18206146742E+02  0.14847269105E+02  0.43187946202E+01  0.23886338487E+02  0.51100000000E-03 0. -1.
        -11    1    3    3    0    0  0.84685599288E+01  0.81525998519E+01  0.88305648013E+00  0.11788179699E+02  0.51100000000E-03 0.  1.
         12    1    3    3    0    0  0.93857244602E+01 -0.89407479524E+01  0.72541511308E+01  0.14854343009E+02  0.00000000000E+00 0. -1.
</event>
<event>
 7    1  0.2661323E-011  0.5052886E+02  0.7816164E-02  0.1300439E+00
        -11   -1    0    0    0    0  0.00000000000E+00  0.00000000000E+00  0.45593999997E+02  0.45594000000E+02  0.51100000000E-03 0.  1.
         11   -1    0    0    0    0 -0.00000000000E+00 -0.00000000000E+00 -0.45593999997E+02  0.45594000000E+02  0.51100000000E-03 0. -1.
    9900012    2    1    2    0    0  0.22779164526E+02 -0.31566486765E+02  0.11740210432E+02  0.50528856328E+02  0.29999989294E+02 0.  0.
         12    1    1    2    0    0 -0.22779164526E+02  0.31566486765E+02 -0.11740210432E+02  0.40659143672E+02  0.00000000000E+00 0. -1.
         11    1    3    3    0    0  0.29485184109E+01 -0.63141281952E+01  0.25294667889E-01  0.69686882386E+01  0.51100000000E-03 0. -1.
        -11    1    3    3    0    0  0.26536587127E+02 -0.22080083578E+02  0.10093191663E+02  0.35966554816E+02  0.51100000000E-03 0.  1.
         12    1    3    3    0    0 -0.67059410120E+01 -0.31722749922E+01  0.16217241005E+01  0.75936132731E+01  0.00000000000E+00 0. -1.
</event>
<event>
 7    1  0.2661323E-011  0.5052886E+02  0.7816164E-02  0.1300439E+00
        -11   -1    0    0    0    0  0.00000000000E+00  0.00000000000E+00  0.45593999997E+02  0.45594000000E+02  0.51100000000E-03 0.  1.
         11   -1    0    0    0    0 -0.00000000000E+00 -0.00000000000E+00 -0.45593999997E+02  0.45594000000E+02  0.51100000000E-03 0. -1.
    9900012    2    1    2    0    0  0.27307318064E+02 -0.82918837086E+01  0.28960673619E+02  0.50528861153E+02  0.30000003960E+02 0.  0.
         12    1    1    2    0    0 -0.27307318064E+02  0.82918837086E+01 -0.28960673619E+02  0.40659138847E+02  0.00000000000E+00 0. -1.
         11    1    3    3    0    0  0.11269736779E+02 -0.54659174064E+01  0.52430906369E+01  0.13578410063E+02  0.51100000000E-03 0. -1.
        -11    1    3    3    0    0  0.17725892250E+02  0.54913999779E+01  0.21032847783E+02  0.28048946788E+02  0.51100000000E-03 0.  1.
         12    1    3    3    0    0 -0.16883109641E+01 -0.83173662801E+01  0.26847351991E+01  0.89015043019E+01  0.00000000000E+00 0. -1.
</event>
<event>
 7    1  0.2661323E-011  0.5052885E+02  0.7816164E-02  0.1300439E+00
        -11   -1    0    0    0    0  0.00000000000E+00  0.00000000000E+00  0.45593999997E+02  0.45594000000E+02  0.51100000000E-03 0.  1.
         11   -1    0    0    0    0 -0.00000000000E+00 -0.00000000000E+00 -0.45593999997E+02  0.45594000000E+02  0.51100000000E-03 0. -1.
    9900012    2    1    2    0    0  0.53563562204E+01  0.38355490220E+02  0.12382743656E+02  0.50528849463E+02  0.29999968427E+02 0.  0.
         12    1    1    2    0    0 -0.53563562204E+01 -0.38355490220E+02 -0.12382743656E+02  0.40659150537E+02  0.00000000000E+00 0. -1.
         11    1    3    3    0    0  0.64838022074E+00 -0.19376093576E+00 -0.65331961544E+00  0.94062053555E+00  0.51100000000E-03 0. -1.
        -11    1    3    3    0    0 -0.56398093640E+01  0.29348346028E+02  0.17989614602E+02  0.34882074165E+02  0.51100000000E-03 0.  1.
        -12    1    3    3    0    0  0.10347785364E+02  0.92009051274E+01 -0.49535513310E+01  0.14706154762E+02  0.00000000000E+00 0.  1.
</event>
<event>
 7    1  0.2661323E-011  0.5052886E+02  0.7816164E-02  0.1300439E+00
        -11   -1    0    0    0    0  0.00000000000E+00  0.00000000000E+00  0.45593999997E+02  0.45594000000E+02  0.51100000000E-03 0.  1.
         11   -1    0    0    0    0 -0.00000000000E+00 -0.00000000000E+00 -0.45593999997E+02  0.45594000000E+02  0.51100000000E-03 0. -1.
    9900012    2    1    2    0    0  0.33411727083E+01  0.33935223933E+02  0.22145041676E+02  0.50528859216E+02  0.29999998074E+02 0.  0.
         12    1    1    2    0    0 -0.33411727083E+01 -0.33935223933E+02 -0.22145041676E+02  0.40659140784E+02  0.00000000000E+00 0. -1.
         11    1    3    3    0    0  0.74924231229E+01  0.32717729361E+01 -0.15246487766E+01  0.83165772137E+01  0.51100000000E-03 0. -1.
        -11    1    3    3    0    0 -0.74644968414E+01  0.49493771684E+01  0.49429047314E+01  0.10229728975E+02  0.51100000000E-03 0.  1.
        -12    1    3    3    0    0  0.33132464268E+01  0.25714073828E+02  0.18726785721E+02  0.31982553028E+02  0.00000000000E+00 0.  1.
</event>
<event>
 7    1  0.2661323E-011  0.5052889E+02  0.7816164E-02  0.1300439E+00
        -11   -1    0    0    0    0  0.00000000000E+00  0.00000000000E+00  0.45593999997E+02  0.45594000000E+02  0.51100000000E-03 0.  1.
         11   -1    0    0    0    0 -0.00000000000E+00 -0.00000000000E+00 -0.45593999997E+02  0.45594000000E+02  0.51100000000E-03 0. -1.
    9900012    2    1    2    0    0 -0.11043583148E+01  0.20809220614E+02  0.34913034051E+02  0.50528890117E+02  0.30000091998E+02 0.  0.
         12    1    1    2    0    0  0.11043583148E+01 -0.20809220614E+02 -0.34913034051E+02  0.40659109883E+02  0.00000000000E+00 0. -1.
         11    1    3    3    0    0  0.30371331424E+01  0.13805123585E+02  0.29922553817E+02  0.33093274877E+02  0.51100000000E-03 0. -1.
        -11    1    3    3    0    0 -0.73975009341E+01  0.69859810504E+01  0.80450032007E+01  0.12971084306E+02  0.51100000000E-03 0.  1.
         12    1    3    3    0    0  0.32560094769E+01  0.18115978836E-01 -0.30545229666E+01  0.44645309335E+01  0.00000000000E+00 0. -1.
</event>
<event>
 7    1  0.2661323E-011  0.5052886E+02  0.7816164E-02  0.1300439E+00
        -11   -1    0    0    0    0  0.00000000000E+00  0.00000000000E+00  0.45593999997E+02  0.45594000000E+02  0.51100000000E-03 0. -1.
         11   -1    0    0    0    0 -0.00000000000E+00 -0.00000000000E+00 -0.45593999997E+02  0.45594000000E+02  0.51100000000E-03 0.  1.
    9900012    2    1    2    0    0 -0.31943346259E+01  0.39759588285E+01 -0.40337995069E+02  0.50528857504E+02  0.29999992869E+02 0.  0.
         12    1    1    2    0    0  0.31943346259E+01 -0.39759588285E+01  0.40337995069E+02  0.40659142496E+02  0.00000000000E+00 0. -1.
         11    1    3    3    0    0 -0.59091740324E+01  0.73996813341E+01 -0.56517230888E+01  0.11027946125E+02  0.51100000000E-03 0. -1.
        -11    1    3    3    0    0 -0.26553303271E+01  0.29021539303E+01 -0.29400491611E+02  0.29662470966E+02  0.51100000000E-03 0.  1.
         12    1    3    3    0    0  0.53701697337E+01 -0.63258764360E+01 -0.52857803692E+01  0.98384404131E+01  0.00000000000E+00 0. -1.
</event>
<event>
 7    1  0.2661323E-011  0.5052890E+02  0.7816164E-02  0.1300439E+00
        -11   -1    0    0    0    0  0.00000000000E+00  0.00000000000E+00  0.45593999997E+02  0.45594000000E+02  0.51100000000E-03 0. -1.
         11   -1    0    0    0    0 -0.00000000000E+00 -0.00000000000E+00 -0.45593999997E+02  0.45594000000E+02  0.51100000000E-03 0.  1.
    9900012    2    1    2    0    0 -0.19533535468E+02 -0.32717901167E+02 -0.14182475211E+02  0.50528896865E+02  0.30000112509E+02 0.  0.
         12    1    1    2    0    0  0.19533535468E+02  0.32717901167E+02  0.14182475211E+02  0.40659103135E+02  0.00000000000E+00 0. -1.
         11    1    3    3    0    0  0.72175866044E+00 -0.37381395745E+01 -0.25230801441E+01  0.45673358446E+01  0.51100000000E-03 0. -1.
        -11    1    3    3    0    0 -0.23276260079E+02 -0.32075468487E+02 -0.12499080988E+02  0.41555348485E+02  0.51100000000E-03 0.  1.
         12    1    3    3    0    0  0.30209659511E+01  0.30957068943E+01  0.83968592076E+00  0.44062125345E+01  0.00000000000E+00 0. -1.
</event>
<event>
 7    1  0.2661323E-011  0.5052886E+02  0.7816164E-02  0.1300439E+00
        -11   -1    0    0    0    0  0.00000000000E+00  0.00000000000E+00  0.45593999997E+02  0.45594000000E+02  0.51100000000E-03 0. -1.
         11   -1    0    0    0    0 -0.00000000000E+00 -0.00000000000E+00 -0.45593999997E+02  0.45594000000E+02  0.51100000000E-03 0.  1.
    9900012    2    1    2    0    0 -0.33160539489E+02 -0.82696581438E+01 -0.22026277939E+02  0.50528861484E+02  0.30000004967E+02 0.  0.
         12    1    1    2    0    0  0.33160539489E+02  0.82696581438E+01  0.22026277939E+02  0.40659138516E+02  0.00000000000E+00 0. -1.
         11    1    3    3    0    0 -0.18837744380E+02  0.62956790073E+01 -0.18836825622E+02  0.27373749967E+02  0.51100000000E-03 0. -1.
        -11    1    3    3    0    0  0.32230099182E+00 -0.51061865210E+01  0.10265229195E+01  0.52183108649E+01  0.51100000000E-03 0.  1.
        -12    1    3    3    0    0 -0.14645096100E+02 -0.94591506301E+01 -0.42159752367E+01  0.17936800652E+02  0.00000000000E+00 0.  1.
</event>
<event>
 7    1  0.2661323E-011  0.5052886E+02  0.7816164E-02  0.1300439E+00
        -11   -1    0    0    0    0  0.00000000000E+00  0.00000000000E+00  0.45593999997E+02  0.45594000000E+02  0.51100000000E-03 0. -1.
         11   -1    0    0    0    0 -0.00000000000E+00 -0.00000000000E+00 -0.45593999997E+02  0.45594000000E+02  0.51100000000E-03 0.  1.
    9900012    2    1    2    0    0  0.22113463828E+02  0.33512799149E+02 -0.64072047866E+01  0.50528864957E+02  0.30000015523E+02 0.  0.
         12    1    1    2    0    0 -0.22113463828E+02 -0.33512799149E+02  0.64072047866E+01  0.40659135043E+02  0.00000000000E+00 0. -1.
         11    1    3    3    0    0  0.47891194623E+01  0.65158576310E+01  0.20153453627E+01  0.83338876333E+01  0.51100000000E-03 0. -1.
        -11    1    3    3    0    0  0.13836181590E+02  0.18784678862E+01  0.31590027983E+01  0.14316000193E+02  0.51100000000E-03 0.  1.
        -12    1    3    3    0    0  0.34881627755E+01  0.25118473632E+02 -0.11581552948E+02  0.27878977130E+02  0.00000000000E+00 0.  1.
</event>
<event>
 7    1  0.2661323E-011  0.5052886E+02  0.7816164E-02  0.1300439E+00
        -11   -1    0    0    0    0  0.00000000000E+00  0.00000000000E+00  0.45593999997E+02  0.45594000000E+02  0.51100000000E-03 0.  1.
         11   -1    0    0    0    0 -0.00000000000E+00 -0.00000000000E+00 -0.45593999997E+02  0.45594000000E+02  0.51100000000E-03 0. -1.
    9900012    2    1    2    0    0  0.11937182519E+02 -0.13091936765E+02  0.36596044536E+02  0.50528860678E+02  0.30000002515E+02 0.  0.
         12    1    1    2    0    0 -0.11937182519E+02  0.13091936765E+02 -0.36596044536E+02  0.40659139322E+02  0.00000000000E+00 0. -1.
         11    1    3    3    0    0 -0.43817650270E+01 -0.57083869581E+01 -0.10654792662E+01  0.72746678786E+01  0.51100000000E-03 0.  1.
        -11    1    3    3    0    0  0.24431429559E+01  0.17908288693E+01  0.14041487343E+02  0.14364518182E+02  0.51100000000E-03 0. -1.
        -12    1    3    3    0    0  0.13875804590E+02 -0.91743786766E+01  0.23620036460E+02  0.28889674617E+02  0.00000000000E+00 0.  1.
</event>
<event>
 7    1  0.2661323E-011  0.5052885E+02  0.7816164E-02  0.1300439E+00
        -11   -1    0    0    0    0  0.00000000000E+00  0.00000000000E+00  0.45593999997E+02  0.45594000000E+02  0.51100000000E-03 0.  1.
         11   -1    0    0    0    0 -0.00000000000E+00 -0.00000000000E+00 -0.45593999997E+02  0.45594000000E+02  0.51100000000E-03 0. -1.
    9900012    2    1    2    0    0  0.43810195958E+01  0.32209589273E+02  0.24423660031E+02  0.50528854126E+02  0.29999982602E+02 0.  0.
         12    1    1    2    0    0 -0.43810195958E+01 -0.32209589273E+02 -0.24423660031E+02  0.40659145874E+02  0.00000000000E+00 0. -1.
         11    1    3    3    0    0 -0.20116719073E+01  0.27422825618E+02  0.23108497486E+02  0.35917417016E+02  0.51100000000E-03 0. -1.
        -11    1    3    3    0    0 -0.28910015931E+01  0.31886932361E+01  0.27133348821E+01  0.50880095527E+01  0.51100000000E-03 0.  1.
         12    1    3    3    0    0  0.92836930961E+01  0.15980704192E+01 -0.13981723368E+01  0.95234275579E+01  0.00000000000E+00 0. -1.
</event>
<event>
 7    1  0.2661323E-011  0.5052887E+02  0.7816164E-02  0.1300439E+00
        -11   -1    0    0    0    0  0.00000000000E+00  0.00000000000E+00  0.45593999997E+02  0.45594000000E+02  0.51100000000E-03 0. -1.
         11   -1    0    0    0    0 -0.00000000000E+00 -0.00000000000E+00 -0.45593999997E+02  0.45594000000E+02  0.51100000000E-03 0.  1.
    9900012    2    1    2    0    0 -0.25702947719E+02  0.31503148363E+02  0.27418239459E+00  0.50528867518E+02  0.30000023307E+02 0.  0.
         12    1    1    2    0    0  0.25702947719E+02 -0.31503148363E+02 -0.27418239459E+00  0.40659132482E+02  0.00000000000E+00 0. -1.
         11    1    3    3    0    0 -0.14179326259E+02  0.18075914056E+02  0.58934950485E+01  0.23717614683E+02  0.51100000000E-03 0. -1.
        -11    1    3    3    0    0 -0.93336733344E+01  0.18067414630E+02 -0.18011489032E+01  0.20415510450E+02  0.51100000000E-03 0.  1.
        -12    1    3    3    0    0 -0.21899481255E+01 -0.46401803227E+01 -0.38181637507E+01  0.63957423843E+01  0.00000000000E+00 0.  1.
</event>
<event>
 7    1  0.2661323E-011  0.5052886E+02  0.7816164E-02  0.1300439E+00
        -11   -1    0    0    0    0  0.00000000000E+00  0.00000000000E+00  0.45593999997E+02  0.45594000000E+02  0.51100000000E-03 0. -1.
         11   -1    0    0    0    0 -0.00000000000E+00 -0.00000000000E+00 -0.45593999997E+02  0.45594000000E+02  0.51100000000E-03 0.  1.
    9900012    2    1    2    0    0 -0.29795012658E+02  0.27342100392E+02 -0.42228231843E+01  0.50528862420E+02  0.30000007811E+02 0.  0.
         12    1    1    2    0    0  0.29795012658E+02 -0.27342100392E+02  0.42228231843E+01  0.40659137580E+02  0.00000000000E+00 0. -1.
         11    1    3    3    0    0 -0.16539134464E+02  0.20389653029E+02 -0.74137701366E+01  0.27280852394E+02  0.51100000000E-03 0. -1.
        -11    1    3    3    0    0 -0.12213490002E+02 -0.23027387222E+01 -0.19951175172E+01  0.12587789235E+02  0.51100000000E-03 0.  1.
        -12    1    3    3    0    0 -0.10423881917E+01  0.92551860854E+01  0.51860644696E+01  0.10660220790E+02  0.00000000000E+00 0.  1.
</event>
<event>
 7    1  0.2661323E-011  0.5052885E+02  0.7816164E-02  0.1300439E+00
        -11   -1    0    0    0    0  0.00000000000E+00  0.00000000000E+00  0.45593999997E+02  0.45594000000E+02  0.51100000000E-03 0. -1.
         11   -1    0    0    0    0 -0.00000000000E+00 -0.00000000000E+00 -0.45593999997E+02  0.45594000000E+02  0.51100000000E-03 0.  1.
    9900012    2    1    2    0    0  0.23372082111E+01 -0.35176950467E+02 -0.20255510503E+02  0.50528854754E+02  0.29999984510E+02 0.  0.
         12    1    1    2    0    0 -0.23372082111E+01  0.35176950467E+02  0.20255510503E+02  0.40659145246E+02  0.00000000000E+00 0. -1.
         11    1    3    3    0    0 -0.28563147413E+01 -0.76209921918E+01 -0.26225278677E+01  0.85507723959E+01  0.51100000000E-03 0. -1.
        -11    1    3    3    0    0 -0.10183540906E+02 -0.12396436779E+02 -0.43337806361E+01  0.16617996422E+02  0.51100000000E-03 0.  1.
        -12    1    3    3    0    0  0.15377063858E+02 -0.15159521496E+02 -0.13299201999E+02  0.25360085936E+02  0.00000000000E+00 0.  1.
</event>
<event>
 7    1  0.2661323E-011  0.5052889E+02  0.7816164E-02  0.1300439E+00
        -11   -1    0    0    0    0  0.00000000000E+00  0.00000000000E+00  0.45593999997E+02  0.45594000000E+02  0.51100000000E-03 0.  1.
         11   -1    0    0    0    0 -0.00000000000E+00 -0.00000000000E+00 -0.45593999997E+02  0.45594000000E+02  0.51100000000E-03 0. -1.
    9900012    2    1    2    0    0 -0.75871897740E+01 -0.30927779678E+02  0.25279833037E+02  0.50528893236E+02  0.30000101479E+02 0.  0.
         12    1    1    2    0    0  0.75871897740E+01  0.30927779678E+02 -0.25279833037E+02  0.40659106764E+02  0.00000000000E+00 0. -1.
         11    1    3    3    0    0 -0.59316596790E+01 -0.66059571733E+01 -0.48540981218E+00  0.88915060406E+01  0.51100000000E-03 0. -1.
        -11    1    3    3    0    0  0.19888372280E+01 -0.31135568702E+01 -0.36484560324E+01  0.51923926647E+01  0.51100000000E-03 0.  1.
        -12    1    3    3    0    0 -0.36443673231E+01 -0.21208265634E+02  0.29413698882E+02  0.36444994530E+02  0.00000000000E+00 0.  1.
</event>
<event>
 7    1  0.2661323E-011  0.5052886E+02  0.7816164E-02  0.1300439E+00
        -11   -1    0    0    0    0  0.00000000000E+00  0.00000000000E+00  0.45593999997E+02  0.45594000000E+02  0.51100000000E-03 0.  1.
         11   -1    0    0    0    0 -0.00000000000E+00 -0.00000000000E+00 -0.45593999997E+02  0.45594000000E+02  0.51100000000E-03 0. -1.
    9900012    2    1    2    0    0 -0.40030205743E+02 -0.15710129132E+01 -0.69484152628E+01  0.50528856772E+02  0.29999990644E+02 0.  0.
         12    1    1    2    0    0  0.40030205743E+02  0.15710129132E+01  0.69484152628E+01  0.40659143228E+02  0.00000000000E+00 0. -1.
         11    1    3    3    0    0  0.37768396804E+01  0.11522094849E+01 -0.10052900727E+01  0.40746426911E+01  0.51100000000E-03 0. -1.
        -11    1    3    3    0    0 -0.13188852018E+02 -0.69462687380E+01 -0.42478575699E+01  0.15499701969E+02  0.51100000000E-03 0.  1.
        -12    1    3    3    0    0 -0.30618193405E+02  0.42230463399E+01 -0.16952676203E+01  0.30954512112E+02  0.00000000000E+00 0.  1.
</event>
<event>
 7    1  0.2661323E-011  0.5052876E+02  0.7816164E-02  0.1300439E+00
        -11   -1    0    0    0    0  0.00000000000E+00  0.00000000000E+00  0.45593999997E+02  0.45594000000E+02  0.51100000000E-03 0.  1.
         11   -1    0    0    0    0 -0.00000000000E+00 -0.00000000000E+00 -0.45593999997E+02  0.45594000000E+02  0.51100000000E-03 0. -1.
    9900012    2    1    2    0    0  0.44488303905E+01 -0.14259398001E+02  0.37816017816E+02  0.50528760869E+02  0.29999699137E+02 0.  0.
         12    1    1    2    0    0 -0.44488303905E+01  0.14259398001E+02 -0.37816017816E+02  0.40659239131E+02  0.00000000000E+00 0. -1.
         11    1    3    3    0    0 -0.35397906670E+01 -0.83005134242E+00  0.34881005825E+00  0.36525021444E+01  0.51100000000E-03 0.  1.
        -11    1    3    3    0    0  0.11606730598E+02  0.30410760769E+00  0.78074113540E+01  0.13991581359E+02  0.51100000000E-03 0. -1.
         12    1    3    3    0    0 -0.36181095408E+01 -0.13733454266E+02  0.29659796404E+02  0.32884677366E+02  0.00000000000E+00 0. -1.
</event>
<event>
 7    1  0.2661323E-011  0.5052886E+02  0.7816164E-02  0.1300439E+00
        -11   -1    0    0    0    0  0.00000000000E+00  0.00000000000E+00  0.45593999997E+02  0.45594000000E+02  0.51100000000E-03 0.  1.
         11   -1    0    0    0    0 -0.00000000000E+00 -0.00000000000E+00 -0.45593999997E+02  0.45594000000E+02  0.51100000000E-03 0. -1.
    9900012    2    1    2    0    0 -0.16477612869E+02  0.36117327663E+01  0.36994718697E+02  0.50528861410E+02  0.30000004741E+02 0.  0.
         12    1    1    2    0    0  0.16477612869E+02 -0.36117327663E+01 -0.36994718697E+02  0.40659138590E+02  0.00000000000E+00 0. -1.
         11    1    3    3    0    0 -0.69019559050E+01 -0.55069469421E+01  0.11524539857E+02  0.14518211981E+02  0.51100000000E-03 0. -1.
        -11    1    3    3    0    0 -0.15238756911E+02  0.31818047835E+01  0.22340235518E+02  0.27229207060E+02  0.51100000000E-03 0.  1.
         12    1    3    3    0    0  0.56630999462E+01  0.59368749250E+01  0.31299433211E+01  0.87814423684E+01  0.00000000000E+00 0. -1.
</event>
<event>
 7    1  0.2661323E-011  0.5052887E+02  0.7816164E-02  0.1300439E+00
        -11   -1    0    0    0    0  0.00000000000E+00  0.00000000000E+00  0.45593999997E+02  0.45594000000E+02  0.51100000000E-03 0.  1.
         11   -1    0    0    0    0 -0.00000000000E+00 -0.00000000000E+00 -0.45593999997E+02  0.45594000000E+02  0.51100000000E-03 0. -1.
    9900012    2    1    2    0    0  0.37251776056E+01  0.40298160738E+02 -0.39174200485E+01  0.50528869575E+02  0.30000029561E+02 0.  0.
         12    1    1    2    0    0 -0.37251776056E+01 -0.40298160738E+02  0.39174200485E+01  0.40659130425E+02  0.00000000000E+00 0. -1.
         11    1    3    3    0    0  0.38919810470E+01  0.69694846095E+01  0.66536820292E+00  0.80102401524E+01  0.51100000000E-03 0. -1.
        -11    1    3    3    0    0  0.11793338649E+02  0.21246207206E+02 -0.71384533059E+01  0.25326698817E+02  0.51100000000E-03 0.  1.
         12    1    3    3    0    0 -0.11960142090E+02  0.12082468922E+02  0.25556650544E+01  0.17191930605E+02  0.00000000000E+00 0. -1.
</event>
<event>
 7    1  0.2661323E-011  0.5052900E+02  0.7816164E-02  0.1300438E+00
        -11   -1    0    0    0    0  0.00000000000E+00  0.00000000000E+00  0.45593999997E+02  0.45594000000E+02  0.51100000000E-03 0. -1.
         11   -1    0    0    0    0 -0.00000000000E+00 -0.00000000000E+00 -0.45593999997E+02  0.45594000000E+02  0.51100000000E-03 0.  1.
    9900012    2    1    2    0    0 -0.12737526955E+02  0.35646677934E+02 -0.14839953470E+02  0.50528997803E+02  0.30000419320E+02 0.  0.
         12    1    1    2    0    0  0.12737526955E+02 -0.35646677934E+02  0.14839953470E+02  0.40659002197E+02  0.00000000000E+00 0. -1.
         11    1    3    3    0    0  0.11384454667E+01 -0.17021293736E+00  0.25273109325E+01  0.27771084486E+01  0.51100000000E-03 0. -1.
        -11    1    3    3    0    0  0.27100654647E+01  0.23586903131E+02 -0.74595527505E+01  0.24886369394E+02  0.51100000000E-03 0.  1.
        -12    1    3    3    0    0 -0.16586037886E+02  0.12229987741E+02 -0.99077116521E+01  0.22865519961E+02  0.00000000000E+00 0.  1.
</event>
<event>
 7    1  0.2760460E-011  0.5052885E+02  0.7816164E-02  0.1300439E+00
        -11   -1    0    0    0    0  0.00000000000E+00  0.00000000000E+00  0.45593999997E+02  0.45594000000E+02  0.51100000000E-03 0. -1.
         11   -1    0    0    0    0 -0.00000000000E+00 -0.00000000000E+00 -0.45593999997E+02  0.45594000000E+02  0.51100000000E-03 0.  1.
    9900012    2    1    2    0    0 -0.26813936936E+02 -0.74896160763E+01 -0.29632494441E+02  0.50528852324E+02  0.29999977123E+02 0.  0.
         12    1    1    2    0    0  0.26813936936E+02  0.74896160763E+01  0.29632494441E+02  0.40659147676E+02  0.00000000000E+00 0. -1.
         11    1    3    3    0    0 -0.11603132066E+02  0.35600408844E+01 -0.99090184837E+01  0.15668286837E+02  0.51100000000E-03 0. -1.
        -11    1    3    3    0    0 -0.19278982355E+02 -0.41917335324E+01 -0.17991160798E+02  0.26700780097E+02  0.51100000000E-03 0.  1.
         12    1    3    3    0    0  0.40681774846E+01 -0.68579234283E+01 -0.17323151587E+01  0.81597853896E+01  0.00000000000E+00 0. -1.
</event>
<event>
 7    1  0.2661323E-011  0.5052886E+02  0.7816164E-02  0.1300439E+00
        -11   -1    0    0    0    0  0.00000000000E+00  0.00000000000E+00  0.45593999997E+02  0.45594000000E+02  0.51100000000E-03 0. -1.
         11   -1    0    0    0    0 -0.00000000000E+00 -0.00000000000E+00 -0.45593999997E+02  0.45594000000E+02  0.51100000000E-03 0.  1.
    9900012    2    1    2    0    0 -0.35269975708E+02  0.30837258195E+01 -0.19992127331E+02  0.50528859495E+02  0.29999998922E+02 0.  0.
         12    1    1    2    0    0  0.35269975708E+02 -0.30837258195E+01  0.19992127331E+02  0.40659140505E+02  0.00000000000E+00 0. -1.
         11    1    3    3    0    0  0.16876731963E+01 -0.50387821151E+01 -0.59494757473E+01  0.79770814180E+01  0.51100000000E-03 0. -1.
        -11    1    3    3    0    0 -0.17574466445E+02  0.25346687399E+01 -0.13613950909E+02  0.22374674882E+02  0.51100000000E-03 0.  1.
        -12    1    3    3    0    0 -0.19383182459E+02  0.55878391947E+01 -0.42870067497E+00  0.20177103195E+02  0.00000000000E+00 0.  1.
</event>
<event>
 7    1  0.2661323E-011  0.5052886E+02  0.7816164E-02  0.1300439E+00
        -11   -1    0    0    0    0  0.00000000000E+00  0.00000000000E+00  0.45593999997E+02  0.45594000000E+02  0.51100000000E-03 0. -1.
         11   -1    0    0    0    0 -0.00000000000E+00 -0.00000000000E+00 -0.45593999997E+02  0.45594000000E+02  0.51100000000E-03 0.  1.
    9900012    2    1    2    0    0  0.34496921109E+01 -0.27968747490E+02 -0.29308954752E+02  0.50528855390E+02  0.29999986442E+02 0.  0.
         12    1    1    2    0    0 -0.34496921109E+01  0.27968747490E+02  0.29308954752E+02  0.40659144610E+02  0.00000000000E+00 0. -1.
         11    1    3    3    0    0  0.98170897893E+01 -0.10762870386E+02 -0.47191819905E+01  0.15312913171E+02  0.51100000000E-03 0. -1.
        -11    1    3    3    0    0  0.20939955026E+01 -0.11314555544E+02 -0.39879047140E+01  0.12178151280E+02  0.51100000000E-03 0.  1.
        -12    1    3    3    0    0 -0.84613931810E+01 -0.58913215595E+01 -0.20601868047E+02  0.23037790938E+02  0.00000000000E+00 0.  1.
</event>
<event>
 7    1  0.2661323E-011  0.5052885E+02  0.7816164E-02  0.1300439E+00
        -11   -1    0    0    0    0  0.00000000000E+00  0.00000000000E+00  0.45593999997E+02  0.45594000000E+02  0.51100000000E-03 0.  1.
         11   -1    0    0    0    0 -0.00000000000E+00 -0.00000000000E+00 -0.45593999997E+02  0.45594000000E+02  0.51100000000E-03 0. -1.
    9900012    2    1    2    0    0  0.38319348549E+02 -0.13592796194E+02  0.17206566713E+00  0.50528853573E+02  0.29999980920E+02 0.  0.
         12    1    1    2    0    0 -0.38319348549E+02  0.13592796194E+02 -0.17206566713E+00  0.40659146427E+02  0.00000000000E+00 0. -1.
         11    1    3    3    0    0  0.38370152650E+01 -0.64437892430E+01 -0.13832234619E+00  0.75009492255E+01  0.51100000000E-03 0. -1.
        -11    1    3    3    0    0 -0.20494152617E+01 -0.46902886527E+01 -0.35224864513E+01  0.62134387919E+01  0.51100000000E-03 0.  1.
        -12    1    3    3    0    0  0.36531748546E+02 -0.24587182986E+01  0.38328744646E+01  0.36814465555E+02  0.00000000000E+00 0.  1.
</event>
<event>
 7    1  0.2661323E-011  0.5052886E+02  0.7816164E-02  0.1300439E+00
        -11   -1    0    0    0    0  0.00000000000E+00  0.00000000000E+00  0.45593999997E+02  0.45594000000E+02  0.51100000000E-03 0.  1.
         11   -1    0    0    0    0 -0.00000000000E+00 -0.00000000000E+00 -0.45593999997E+02  0.45594000000E+02  0.51100000000E-03 0. -1.
    9900012    2    1    2    0    0  0.21944282418E+02 -0.16041441009E+02  0.30237162029E+02  0.50528864150E+02  0.30000013070E+02 0.  0.
         12    1    1    2    0    0 -0.21944282418E+02  0.16041441009E+02 -0.30237162029E+02  0.40659135850E+02  0.00000000000E+00 0. -1.
         11    1    3    3    0    0  0.40695891646E+00  0.32663781537E+01  0.36095327758E+01  0.48850352018E+01  0.51100000000E-03 0. -1.
        -11    1    3    3    0    0  0.13865948073E+02  0.31439597148E+00  0.33912896649E+01  0.14278102347E+02  0.51100000000E-03 0.  1.
        -12    1    3    3    0    0  0.76713754290E+01 -0.19622215134E+02  0.23236339588E+02  0.31365726601E+02  0.00000000000E+00 0.  1.
</event>
<event>
 7    1  0.2661323E-011  0.5052886E+02  0.7816164E-02  0.1300439E+00
        -11   -1    0    0    0    0  0.00000000000E+00  0.00000000000E+00  0.45593999997E+02  0.45594000000E+02  0.51100000000E-03 0. -1.
         11   -1    0    0    0    0 -0.00000000000E+00 -0.00000000000E+00 -0.45593999997E+02  0.45594000000E+02  0.51100000000E-03 0.  1.
    9900012    2    1    2    0    0  0.15578580921E+02  0.34824190170E+02 -0.14062334267E+02  0.50528860197E+02  0.30000001054E+02 0.  0.
         12    1    1    2    0    0 -0.15578580921E+02 -0.34824190170E+02  0.14062334267E+02  0.40659139803E+02  0.00000000000E+00 0. -1.
         11    1    3    3    0    0  0.18039207251E+01  0.86443966515E+01 -0.11284342104E+02  0.14328855517E+02  0.51100000000E-03 0. -1.
        -11    1    3    3    0    0  0.35790490815E+01  0.33950478835E+01 -0.91877079792E+01  0.10428323002E+02  0.51100000000E-03 0.  1.
        -12    1    3    3    0    0  0.10195611114E+02  0.22784745635E+02  0.64097158163E+01  0.25771681678E+02  0.00000000000E+00 0.  1.
</event>
<event>
 7    1  0.2661323E-011  0.5052891E+02  0.7816164E-02  0.1300439E+00
        -11   -1    0    0    0    0  0.00000000000E+00  0.00000000000E+00  0.45593999997E+02  0.45594000000E+02  0.51100000000E-03 0. -1.
         11   -1    0    0    0    0 -0.00000000000E+00 -0.00000000000E+00 -0.45593999997E+02  0.45594000000E+02  0.51100000000E-03 0.  1.
    9900012    2    1    2    0    0 -0.73583108952E+01 -0.39890583623E+02 -0.27853327887E+01  0.50528911474E+02  0.30000156916E+02 0.  0.
         12    1    1    2    0    0  0.73583108952E+01  0.39890583623E+02  0.27853327887E+01  0.40659088526E+02  0.00000000000E+00 0. -1.
         11    1    3    3    0    0 -0.74258186230E+01 -0.11923605433E+02 -0.14291003107E+01  0.14119400720E+02  0.51100000000E-03 0. -1.
        -11    1    3    3    0    0 -0.96899024197E+01 -0.12255787282E+02 -0.69324422745E+01  0.17092609132E+02  0.51100000000E-03 0.  1.
         12    1    3    3    0    0  0.97574101475E+01 -0.15711190909E+02  0.55762097965E+01  0.19316901621E+02  0.00000000000E+00 0. -1.
</event>
<event>
 7    1  0.2661323E-011  0.5052888E+02  0.7816164E-02  0.1300439E+00
        -11   -1    0    0    0    0  0.00000000000E+00  0.00000000000E+00  0.45593999997E+02  0.45594000000E+02  0.51100000000E-03 0. -1.
         11   -1    0    0    0    0 -0.00000000000E+00 -0.00000000000E+00 -0.45593999997E+02  0.45594000000E+02  0.51100000000E-03 0.  1.
    9900012    2    1    2    0    0 -0.40283157339E+01  0.28371264144E+01 -0.40359475428E+02  0.50528882071E+02  0.30000067544E+02 0.  0.
         12    1    1    2    0    0  0.40283157339E+01 -0.28371264144E+01  0.40359475428E+02  0.40659117929E+02  0.00000000000E+00 0. -1.
         11    1    3    3    0    0 -0.52482610947E+01  0.63186346328E+01 -0.29309543131E+02  0.30438769800E+02  0.51100000000E-03 0. -1.
        -11    1    3    3    0    0  0.51596306882E+00  0.57484543579E+01 -0.88662076299E+01  0.10579252497E+02  0.51100000000E-03 0.  1.
         12    1    3    3    0    0  0.70398229206E+00 -0.92299625762E+01 -0.21837246667E+01  0.95108597743E+01  0.00000000000E+00 0. -1.
</event>
<event>
 7    1  0.2661323E-011  0.5052886E+02  0.7816164E-02  0.1300439E+00
        -11   -1    0    0    0    0  0.00000000000E+00  0.00000000000E+00  0.45593999997E+02  0.45594000000E+02  0.51100000000E-03 0. -1.
         11   -1    0    0    0    0 -0.00000000000E+00 -0.00000000000E+00 -0.45593999997E+02  0.45594000000E+02  0.51100000000E-03 0.  1.
    9900012    2    1    2    0    0  0.33829562114E+02  0.74412054618E+01 -0.21292135012E+02  0.50528858040E+02  0.29999994499E+02 0.  0.
         12    1    1    2    0    0 -0.33829562114E+02 -0.74412054618E+01  0.21292135012E+02  0.40659141960E+02  0.00000000000E+00 0. -1.
         11    1    3    3    0    0 -0.35423842622E+01 -0.19584284829E+01 -0.37616386255E+01  0.55257446371E+01  0.51100000000E-03 0. -1.
        -11    1    3    3    0    0  0.12002688225E+02  0.19750426304E+01 -0.13654777770E+02  0.18287106776E+02  0.51100000000E-03 0.  1.
         12    1    3    3    0    0  0.25369258151E+02  0.74245913143E+01 -0.38757186162E+01  0.26716006627E+02  0.00000000000E+00 0. -1.
</event>
<event>
 7    1  0.2661323E-011  0.5052888E+02  0.7816164E-02  0.1300439E+00
        -11   -1    0    0    0    0  0.00000000000E+00  0.00000000000E+00  0.45593999997E+02  0.45594000000E+02  0.51100000000E-03 0. -1.
         11   -1    0    0    0    0 -0.00000000000E+00 -0.00000000000E+00 -0.45593999997E+02  0.45594000000E+02  0.51100000000E-03 0.  1.
    9900012    2    1    2    0    0  0.25985362218E+01 -0.31532623308E+02 -0.25536359890E+02  0.50528875567E+02  0.30000047775E+02 0.  0.
         12    1    1    2    0    0 -0.25985362218E+01  0.31532623308E+02  0.25536359890E+02  0.40659124433E+02  0.00000000000E+00 0. -1.
         11    1    3    3    0    0 -0.67458081304E+01 -0.19902613055E+02 -0.69943167042E+01  0.22148146653E+02  0.51100000000E-03 0. -1.
        -11    1    3    3    0    0 -0.43285928087E+00 -0.11659461909E+02 -0.10963137956E+02  0.16010022275E+02  0.51100000000E-03 0.  1.
        -12    1    3    3    0    0  0.97772036331E+01  0.29451654624E-01 -0.75789052297E+01  0.12370706640E+02  0.00000000000E+00 0.  1.
</event>
<event>
 7    1  0.2661323E-011  0.5052886E+02  0.7816164E-02  0.1300439E+00
        -11   -1    0    0    0    0  0.00000000000E+00  0.00000000000E+00  0.45593999997E+02  0.45594000000E+02  0.51100000000E-03 0. -1.
         11   -1    0    0    0    0 -0.00000000000E+00 -0.00000000000E+00 -0.45593999997E+02  0.45594000000E+02  0.51100000000E-03 0.  1.
    9900012    2    1    2    0    0 -0.45492781708E+01  0.44353727004E+00 -0.40401400473E+02  0.50528858133E+02  0.29999994781E+02 0.  0.
         12    1    1    2    0    0  0.45492781708E+01 -0.44353727004E+00  0.40401400473E+02  0.40659141867E+02  0.00000000000E+00 0. -1.
         11    1    3    3    0    0  0.30999133449E+01  0.80011829924E+01 -0.39134727918E+01  0.94309947289E+01  0.51100000000E-03 0. -1.
        -11    1    3    3    0    0 -0.17374209501E+01  0.97284896432E+00  0.97977725414E+00  0.22192409500E+01  0.51100000000E-03 0.  1.
        -12    1    3    3    0    0 -0.59117705656E+01 -0.85304946867E+01 -0.37467704935E+02  0.38878622454E+02  0.00000000000E+00 0.  1.
</event>
<event>
 7    1  0.2661323E-011  0.5052886E+02  0.7816164E-02  0.1300439E+00
        -11   -1    0    0    0    0  0.00000000000E+00  0.00000000000E+00  0.45593999997E+02  0.45594000000E+02  0.51100000000E-03 0. -1.
         11   -1    0    0    0    0 -0.00000000000E+00 -0.00000000000E+00 -0.45593999997E+02  0.45594000000E+02  0.51100000000E-03 0.  1.
    9900012    2    1    2    0    0  0.25241702376E+02 -0.52648704797E+01 -0.31437297231E+02  0.50528855184E+02  0.29999985816E+02 0.  0.
         12    1    1    2    0    0 -0.25241702376E+02  0.52648704797E+01  0.31437297231E+02  0.40659144816E+02  0.00000000000E+00 0. -1.
         11    1    3    3    0    0  0.51427648238E+01  0.33703130989E+01 -0.56390247905E+01  0.83429995365E+01  0.51100000000E-03 0. -1.
        -11    1    3    3    0    0  0.24589149039E+02 -0.51110068921E+01 -0.13239404344E+02  0.28390675750E+02  0.51100000000E-03 0.  1.
        -12    1    3    3    0    0 -0.44902114867E+01 -0.35241766866E+01 -0.12558868097E+02  0.13795179897E+02  0.00000000000E+00 0.  1.
</event>
<event>
 7    1  0.2661323E-011  0.5052886E+02  0.7816164E-02  0.1300439E+00
        -11   -1    0    0    0    0  0.00000000000E+00  0.00000000000E+00  0.45593999997E+02  0.45594000000E+02  0.51100000000E-03 0. -1.
         11   -1    0    0    0    0 -0.00000000000E+00 -0.00000000000E+00 -0.45593999997E+02  0.45594000000E+02  0.51100000000E-03 0.  1.
    9900012    2    1    2    0    0 -0.13607564351E+02 -0.37652376731E+02 -0.70921131163E+01  0.50528863887E+02  0.30000012270E+02 0.  0.
         12    1    1    2    0    0  0.13607564351E+02  0.37652376731E+02  0.70921131163E+01  0.40659136113E+02  0.00000000000E+00 0. -1.
         11    1    3    3    0    0  0.52822821695E+01 -0.37215113956E+01  0.14484178505E+01  0.66219382749E+01  0.51100000000E-03 0. -1.
        -11    1    3    3    0    0 -0.28828702983E+00  0.67214428103E-01 -0.49807997060E+01  0.49895884764E+01  0.51100000000E-03 0.  1.
        -12    1    3    3    0    0 -0.18601559490E+02 -0.33998079763E+02 -0.35597312608E+01  0.38917337135E+02  0.00000000000E+00 0.  1.
</event>
<event>
 7    1  0.2661323E-011  0.5052886E+02  0.7816164E-02  0.1300439E+00
        -11   -1    0    0    0    0  0.00000000000E+00  0.00000000000E+00  0.45593999997E+02  0.45594000000E+02  0.51100000000E-03 0.  1.
         11   -1    0    0    0    0 -0.00000000000E+00 -0.00000000000E+00 -0.45593999997E+02  0.45594000000E+02  0.51100000000E-03 0. -1.
    9900012    2    1    2    0    0 -0.14131093391E+01  0.19508304729E+02  0.35645407014E+02  0.50528857453E+02  0.29999992715E+02 0.  0.
         12    1    1    2    0    0  0.14131093391E+01 -0.19508304729E+02 -0.35645407014E+02  0.40659142547E+02  0.00000000000E+00 0. -1.
         11    1    3    3    0    0 -0.61166704822E+00  0.11821334276E+02  0.20321817924E+01  0.12010322383E+02  0.51100000000E-03 0. -1.
        -11    1    3    3    0    0  0.10880794607E+01  0.11090156424E+02  0.11307124540E+02  0.15875344155E+02  0.51100000000E-03 0.  1.
        -12    1    3    3    0    0 -0.18895217516E+01 -0.34031859702E+01  0.22306100682E+02  0.22643190916E+02  0.00000000000E+00 0.  1.
</event>
<event>
 7    1  0.2661323E-011  0.5052886E+02  0.7816164E-02  0.1300439E+00
        -11   -1    0    0    0    0  0.00000000000E+00  0.00000000000E+00  0.45593999997E+02  0.45594000000E+02  0.51100000000E-03 0.  1.
         11   -1    0    0    0    0 -0.00000000000E+00 -0.00000000000E+00 -0.45593999997E+02  0.45594000000E+02  0.51100000000E-03 0. -1.
    9900012    2    1    2    0    0 -0.19181457011E+02  0.31557793979E+02  0.17010093515E+02  0.50528856683E+02  0.29999990372E+02 0.  0.
         12    1    1    2    0    0  0.19181457011E+02 -0.31557793979E+02 -0.17010093515E+02  0.40659143317E+02  0.00000000000E+00 0. -1.
         11    1    3    3    0    0 -0.15586713841E+02  0.21329653160E+02  0.16123873234E+02  0.30949621009E+02  0.51100000000E-03 0.  1.
        -11    1    3    3    0    0 -0.48779511261E+01  0.13300698267E+02 -0.29797935000E+01  0.14476952412E+02  0.51100000000E-03 0. -1.
        -12    1    3    3    0    0  0.12832079558E+01 -0.30725574473E+01  0.38660137810E+01  0.51022832614E+01  0.00000000000E+00 0.  1.
</event>
<event>
 7    1  0.2661323E-011  0.5052886E+02  0.7816164E-02  0.1300439E+00
        -11   -1    0    0    0    0  0.00000000000E+00  0.00000000000E+00  0.45593999997E+02  0.45594000000E+02  0.51100000000E-03 0. -1.
         11   -1    0    0    0    0 -0.00000000000E+00 -0.00000000000E+00 -0.45593999997E+02  0.45594000000E+02  0.51100000000E-03 0.  1.
    9900012    2    1    2    0    0 -0.11470140585E+02  0.25798418630E+02 -0.29258212941E+02  0.50528861380E+02  0.30000004650E+02 0.  0.
         12    1    1    2    0    0  0.11470140585E+02 -0.25798418630E+02  0.29258212941E+02  0.40659138620E+02  0.00000000000E+00 0. -1.
         11    1    3    3    0    0 -0.18375695211E+01 -0.39235025514E+01 -0.25720810953E+01  0.50384655836E+01  0.51100000000E-03 0. -1.
        -11    1    3    3    0    0  0.32742917845E+01 -0.58757926359E+00 -0.51546338133E+01  0.61348582780E+01  0.51100000000E-03 0.  1.
         12    1    3    3    0    0 -0.12906862848E+02  0.30309500445E+02 -0.21531498032E+02  0.39355537518E+02  0.00000000000E+00 0. -1.
</event>
<event>
 7    1  0.2661323E-011  0.5052886E+02  0.7816164E-02  0.1300439E+00
        -11   -1    0    0    0    0  0.00000000000E+00  0.00000000000E+00  0.45593999997E+02  0.45594000000E+02  0.51100000000E-03 0.  1.
         11   -1    0    0    0    0 -0.00000000000E+00 -0.00000000000E+00 -0.45593999997E+02  0.45594000000E+02  0.51100000000E-03 0. -1.
    9900012    2    1    2    0    0  0.25666361307E+02 -0.10166967116E+02  0.29850227334E+02  0.50528863327E+02  0.30000010568E+02 0.  0.
         12    1    1    2    0    0 -0.25666361307E+02  0.10166967116E+02 -0.29850227334E+02  0.40659136673E+02  0.00000000000E+00 0. -1.
         11    1    3    3    0    0  0.43337786582E+00 -0.47317345327E+01  0.91460442445E+01  0.10306660645E+02  0.51100000000E-03 0. -1.
        -11    1    3    3    0    0  0.12064441018E+01  0.62018579252E+00  0.14653630482E+02  0.14716284326E+02  0.51100000000E-03 0.  1.
        -12    1    3    3    0    0  0.24026539340E+02 -0.60554183761E+01  0.60505526077E+01  0.25505918356E+02  0.00000000000E+00 0.  1.
</event>
<event>
 7    1  0.2661323E-011  0.5052885E+02  0.7816164E-02  0.1300439E+00
        -11   -1    0    0    0    0  0.00000000000E+00  0.00000000000E+00  0.45593999997E+02  0.45594000000E+02  0.51100000000E-03 0.  1.
         11   -1    0    0    0    0 -0.00000000000E+00 -0.00000000000E+00 -0.45593999997E+02  0.45594000000E+02  0.51100000000E-03 0. -1.
    9900012    2    1    2    0    0  0.20294049432E+02  0.19326815016E+02  0.29458312518E+02  0.50528851000E+02  0.29999973100E+02 0.  0.
         12    1    1    2    0    0 -0.20294049432E+02 -0.19326815016E+02 -0.29458312518E+02  0.40659149000E+02  0.00000000000E+00 0. -1.
         11    1    3    3    0    0  0.99889570854E+01  0.81631028380E+00  0.12905462242E+02  0.16340030051E+02  0.51100000000E-03 0. -1.
        -11    1    3    3    0    0  0.15460743955E+02  0.83559055038E+01  0.57481109321E+01  0.18490444559E+02  0.51100000000E-03 0.  1.
         12    1    3    3    0    0 -0.51556516087E+01  0.10154599228E+02  0.10804739344E+02  0.15698376390E+02  0.00000000000E+00 0. -1.
</event>
<event>
 7    1  0.2661323E-011  0.5052886E+02  0.7816164E-02  0.1300439E+00
        -11   -1    0    0    0    0  0.00000000000E+00  0.00000000000E+00  0.45593999997E+02  0.45594000000E+02  0.51100000000E-03 0.  1.
         11   -1    0    0    0    0 -0.00000000000E+00 -0.00000000000E+00 -0.45593999997E+02  0.45594000000E+02  0.51100000000E-03 0. -1.
    9900012    2    1    2    0    0  0.34240416529E+01 -0.18390345754E+02  0.36100371669E+02  0.50528859418E+02  0.29999998688E+02 0.  0.
         12    1    1    2    0    0 -0.34240416529E+01  0.18390345754E+02 -0.36100371669E+02  0.40659140582E+02  0.00000000000E+00 0. -1.
         11    1    3    3    0    0 -0.86813288764E+01 -0.38293310072E+01  0.72031325152E+01  0.11912781594E+02  0.51100000000E-03 0. -1.
        -11    1    3    3    0    0 -0.38055627742E+01  0.15829313525E+00  0.58220236432E+01  0.69572497661E+01  0.51100000000E-03 0.  1.
        -12    1    3    3    0    0  0.15910933304E+02 -0.14719307882E+02  0.23075215511E+02  0.31658828058E+02  0.00000000000E+00 0.  1.
</event>
<event>
 7    1  0.2661323E-011  0.5052887E+02  0.7816164E-02  0.1300439E+00
        -11   -1    0    0    0    0  0.00000000000E+00  0.00000000000E+00  0.45593999997E+02  0.45594000000E+02  0.51100000000E-03 0.  1.
         11   -1    0    0    0    0 -0.00000000000E+00 -0.00000000000E+00 -0.45593999997E+02  0.45594000000E+02  0.51100000000E-03 0. -1.
    9900012    2    1    2    0    0 -0.37951012008E+02  0.10458751314E+02  0.10173508047E+02  0.50528867478E+02  0.30000023186E+02 0.  0.
         12    1    1    2    0    0  0.37951012008E+02 -0.10458751314E+02 -0.10173508047E+02  0.40659132522E+02  0.00000000000E+00 0. -1.
         11    1    3    3    0    0  0.31266289144E+00 -0.96700044916E+00  0.67012996885E+01  0.67779248836E+01  0.51100000000E-03 0. -1.
        -11    1    3    3    0    0 -0.22764176090E+02  0.76733025990E+01  0.10631866871E+02  0.26270208969E+02  0.51100000000E-03 0.  1.
        -12    1    3    3    0    0 -0.15499498809E+02  0.37524491637E+01 -0.71596585133E+01  0.17480733626E+02  0.00000000000E+00 0.  1.
</event>
<event>
 7    1  0.2661323E-011  0.5052887E+02  0.7816164E-02  0.1300439E+00
        -11   -1    0    0    0    0  0.00000000000E+00  0.00000000000E+00  0.45593999997E+02  0.45594000000E+02  0.51100000000E-03 0.  1.
         11   -1    0    0    0    0 -0.00000000000E+00 -0.00000000000E+00 -0.45593999997E+02  0.45594000000E+02  0.51100000000E-03 0. -1.
    9900012    2    1    2    0    0  0.10714300656E+02  0.41776936996E+01  0.38998919909E+02  0.50528866743E+02  0.30000020951E+02 0.  0.
         12    1    1    2    0    0 -0.10714300656E+02 -0.41776936996E+01 -0.38998919909E+02  0.40659133257E+02  0.00000000000E+00 0. -1.
         11    1    3    3    0    0  0.11687755441E+02  0.66968707943E+01  0.11250014744E+02  0.17550342950E+02  0.51100000000E-03 0. -1.
        -11    1    3    3    0    0  0.83151514678E+01 -0.15992198515E+01  0.13965223112E+02  0.16331769803E+02  0.51100000000E-03 0.  1.
         12    1    3    3    0    0 -0.92886062525E+01 -0.91995724322E+00  0.13783682053E+02  0.16646753989E+02  0.00000000000E+00 0. -1.
</event>
<event>
 7    1  0.2661323E-011  0.5052884E+02  0.7816164E-02  0.1300439E+00
        -11   -1    0    0    0    0  0.00000000000E+00  0.00000000000E+00  0.45593999997E+02  0.45594000000E+02  0.51100000000E-03 0. -1.
         11   -1    0    0    0    0 -0.00000000000E+00 -0.00000000000E+00 -0.45593999997E+02  0.45594000000E+02  0.51100000000E-03 0.  1.
    9900012    2    1    2    0    0  0.31150744512E+02 -0.26024504146E+02 -0.23502338477E+01  0.50528839915E+02  0.29999939407E+02 0.  0.
         12    1    1    2    0    0 -0.31150744512E+02  0.26024504146E+02  0.23502338477E+01  0.40659160085E+02  0.00000000000E+00 0. -1.
         11    1    3    3    0    0  0.16988518949E+02 -0.14851993693E+02  0.11006603780E+02  0.25106509510E+02  0.51100000000E-03 0. -1.
        -11    1    3    3    0    0  0.91536168599E+01 -0.49458862163E+01 -0.66658645155E+00  0.10425681265E+02  0.51100000000E-03 0.  1.
        -12    1    3    3    0    0  0.50086087021E+01 -0.62266242367E+01 -0.12690251176E+02  0.14996649140E+02  0.00000000000E+00 0.  1.
</event>
<event>
 7    1  0.2661323E-011  0.5052885E+02  0.7816164E-02  0.1300439E+00
        -11   -1    0    0    0    0  0.00000000000E+00  0.00000000000E+00  0.45593999997E+02  0.45594000000E+02  0.51100000000E-03 0.  1.
         11   -1    0    0    0    0 -0.00000000000E+00 -0.00000000000E+00 -0.45593999997E+02  0.45594000000E+02  0.51100000000E-03 0. -1.
    9900012    2    1    2    0    0  0.37143226053E+02  0.16054449649E+02  0.39751717509E+01  0.50528848685E+02  0.29999966064E+02 0.  0.
         12    1    1    2    0    0 -0.37143226053E+02 -0.16054449649E+02 -0.39751717509E+01  0.40659151315E+02  0.00000000000E+00 0. -1.
         11    1    3    3    0    0  0.34464402025E+01  0.73505227286E+01 -0.32646883853E+01  0.87502185669E+01  0.51100000000E-03 0. -1.
        -11    1    3    3    0    0  0.15318610629E+02 -0.22224126446E+01 -0.60328088994E+01  0.16613059111E+02  0.51100000000E-03 0.  1.
        -12    1    3    3    0    0  0.18378175222E+02  0.10926339565E+02  0.13272669036E+02  0.25165571007E+02  0.00000000000E+00 0.  1.
</event>
<event>
 7    1  0.2661323E-011  0.5052886E+02  0.7816164E-02  0.1300439E+00
        -11   -1    0    0    0    0  0.00000000000E+00  0.00000000000E+00  0.45593999997E+02  0.45594000000E+02  0.51100000000E-03 0.  1.
         11   -1    0    0    0    0 -0.00000000000E+00 -0.00000000000E+00 -0.45593999997E+02  0.45594000000E+02  0.51100000000E-03 0. -1.
    9900012    2    1    2    0    0  0.14133727359E+02 -0.36831076632E+02 -0.98425090649E+01  0.50528862778E+02  0.30000008901E+02 0.  0.
         12    1    1    2    0    0 -0.14133727359E+02  0.36831076632E+02  0.98425090649E+01  0.40659137222E+02  0.00000000000E+00 0. -1.
         11    1    3    3    0    0 -0.74952816066E+00 -0.20789398730E+02 -0.51412878135E+01  0.21428806141E+02  0.51100000000E-03 0. -1.
        -11    1    3    3    0    0  0.67700633697E+01 -0.73004618782E+01  0.71725492881E+01  0.12270939867E+02  0.51100000000E-03 0.  1.
         12    1    3    3    0    0  0.81131921503E+01 -0.87412160237E+01 -0.11873770539E+02  0.16829116770E+02  0.00000000000E+00 0. -1.
</event>
<event>
 7    1  0.2661323E-011  0.5052888E+02  0.7816164E-02  0.1300439E+00
        -11   -1    0    0    0    0  0.00000000000E+00  0.00000000000E+00  0.45593999997E+02  0.45594000000E+02  0.51100000000E-03 0.  1.
         11   -1    0    0    0    0 -0.00000000000E+00 -0.00000000000E+00 -0.45593999997E+02  0.45594000000E+02  0.51100000000E-03 0. -1.
    9900012    2    1    2    0    0  0.18076903884E+02 -0.33378851781E+02 -0.14568515694E+02  0.50528882329E+02  0.30000068328E+02 0.  0.
         12    1    1    2    0    0 -0.18076903884E+02  0.33378851781E+02  0.14568515694E+02  0.40659117671E+02  0.00000000000E+00 0. -1.
         11    1    3    3    0    0  0.44089573181E+01 -0.68667859243E+01  0.59987061624E+01  0.10127987433E+02  0.51100000000E-03 0.  1.
        -11    1    3    3    0    0  0.94937410072E+01 -0.13142732624E+02 -0.87595119330E+00  0.16236681616E+02  0.51100000000E-03 0. -1.
         12    1    3    3    0    0  0.41742055586E+01 -0.13369333233E+02 -0.19691270663E+02  0.24164213280E+02  0.00000000000E+00 0. -1.
</event>
<event>
 7    1  0.2661323E-011  0.5052880E+02  0.7816164E-02  0.1300439E+00
        -11   -1    0    0    0    0  0.00000000000E+00  0.00000000000E+00  0.45593999997E+02  0.45594000000E+02  0.51100000000E-03 0.  1.
         11   -1    0    0    0    0 -0.00000000000E+00 -0.00000000000E+00 -0.45593999997E+02  0.45594000000E+02  0.51100000000E-03 0. -1.
    9900012    2    1    2    0    0 -0.30549058107E+02  0.25740318047E+02 -0.75737378570E+01  0.50528801416E+02  0.29999822384E+02 0.  0.
         12    1    1    2    0    0  0.30549058107E+02 -0.25740318047E+02  0.75737378570E+01  0.40659198584E+02  0.00000000000E+00 0. -1.
         11    1    3    3    0    0 -0.79833725497E+01  0.50156067807E+01  0.14205161124E+00  0.94292485155E+01  0.51100000000E-03 0. -1.
        -11    1    3    3    0    0 -0.18129057478E+02  0.26358651049E+02 -0.10091445656E+02  0.33545170827E+02  0.51100000000E-03 0.  1.
         12    1    3    3    0    0 -0.44366280794E+01 -0.56339397828E+01  0.23756561876E+01  0.75543820735E+01  0.00000000000E+00 0. -1.
</event>
<event>
 7    1  0.2661323E-011  0.5052875E+02  0.7816164E-02  0.1300439E+00
        -11   -1    0    0    0    0  0.00000000000E+00  0.00000000000E+00  0.45593999997E+02  0.45594000000E+02  0.51100000000E-03 0. -1.
         11   -1    0    0    0    0 -0.00000000000E+00 -0.00000000000E+00 -0.45593999997E+02  0.45594000000E+02  0.51100000000E-03 0.  1.
    9900012    2    1    2    0    0 -0.35462408811E+02  0.18441532142E+02 -0.74499460577E+01  0.50528754523E+02  0.29999679848E+02 0.  0.
         12    1    1    2    0    0  0.35462408811E+02 -0.18441532142E+02  0.74499460577E+01  0.40659245477E+02  0.00000000000E+00 0. -1.
         11    1    3    3    0    0 -0.23226313538E+01 -0.12894723778E+01  0.87450527010E+00  0.27968044528E+01  0.51100000000E-03 0. -1.
        -11    1    3    3    0    0 -0.40067117789E+01  0.60335805328E+01  0.86958420607E+01  0.11317044788E+02  0.51100000000E-03 0.  1.
        -12    1    3    3    0    0 -0.29133065679E+02  0.13697423987E+02 -0.17020293388E+02  0.36414905283E+02  0.00000000000E+00 0.  1.
</event>
<event>
 7    1  0.2661323E-011  0.5052886E+02  0.7816164E-02  0.1300439E+00
        -11   -1    0    0    0    0  0.00000000000E+00  0.00000000000E+00  0.45593999997E+02  0.45594000000E+02  0.51100000000E-03 0. -1.
         11   -1    0    0    0    0 -0.00000000000E+00 -0.00000000000E+00 -0.45593999997E+02  0.45594000000E+02  0.51100000000E-03 0.  1.
    9900012    2    1    2    0    0 -0.21643028396E+02 -0.30095879349E+02 -0.16702784592E+02  0.50528860252E+02  0.30000001223E+02 0.  0.
         12    1    1    2    0    0  0.21643028396E+02  0.30095879349E+02  0.16702784592E+02  0.40659139748E+02  0.00000000000E+00 0. -1.
         11    1    3    3    0    0 -0.10748202857E+02 -0.56168405726E+01  0.54145710247E+01  0.13281202593E+02  0.51100000000E-03 0. -1.
        -11    1    3    3    0    0 -0.23762968312E+01  0.11016097048E+01 -0.44801024027E+00  0.26572625027E+01  0.51100000000E-03 0.  1.
        -12    1    3    3    0    0 -0.85185287073E+01 -0.25580648481E+02 -0.21669345376E+02  0.34590395156E+02  0.00000000000E+00 0.  1.
</event>
<event>
 7    1  0.2661323E-011  0.5052886E+02  0.7816164E-02  0.1300439E+00
        -11   -1    0    0    0    0  0.00000000000E+00  0.00000000000E+00  0.45593999997E+02  0.45594000000E+02  0.51100000000E-03 0. -1.
         11   -1    0    0    0    0 -0.00000000000E+00 -0.00000000000E+00 -0.45593999997E+02  0.45594000000E+02  0.51100000000E-03 0.  1.
    9900012    2    1    2    0    0  0.35911195990E+02 -0.10528659240E+02 -0.15896516042E+02  0.50528857300E+02  0.29999992249E+02 0.  0.
         12    1    1    2    0    0 -0.35911195990E+02  0.10528659240E+02  0.15896516042E+02  0.40659142700E+02  0.00000000000E+00 0. -1.
         11    1    3    3    0    0  0.17525296190E+01 -0.36334557878E+01  0.22595255459E+01  0.46237232812E+01  0.51100000000E-03 0. -1.
        -11    1    3    3    0    0  0.93532526138E+01  0.39316530717E+01 -0.15747374199E+02  0.18732886183E+02  0.51100000000E-03 0.  1.
         12    1    3    3    0    0  0.24805413757E+02 -0.10826856523E+02 -0.24086673896E+01  0.27172247836E+02  0.00000000000E+00 0. -1.
</event>
<event>
 7    1  0.2661323E-011  0.5052886E+02  0.7816164E-02  0.1300439E+00
        -11   -1    0    0    0    0  0.00000000000E+00  0.00000000000E+00  0.45593999997E+02  0.45594000000E+02  0.51100000000E-03 0.  1.
         11   -1    0    0    0    0 -0.00000000000E+00 -0.00000000000E+00 -0.45593999997E+02  0.45594000000E+02  0.51100000000E-03 0. -1.
    9900012    2    1    2    0    0 -0.34289679753E+02  0.20991434038E+02 -0.60616037344E+01  0.50528862277E+02  0.30000007377E+02 0.  0.
         12    1    1    2    0    0  0.34289679753E+02 -0.20991434038E+02  0.60616037344E+01  0.40659137723E+02  0.00000000000E+00 0. -1.
         11    1    3    3    0    0 -0.18697860572E+02  0.38956269821E+01 -0.39665421402E+01  0.19506905351E+02  0.51100000000E-03 0. -1.
        -11    1    3    3    0    0 -0.14860855435E+02  0.66451901463E+01 -0.88772213283E+01  0.18542077422E+02  0.51100000000E-03 0.  1.
        -12    1    3    3    0    0 -0.73096374609E+00  0.10450616909E+02  0.67821597341E+01  0.12479879504E+02  0.00000000000E+00 0.  1.
</event>
<event>
 7    1  0.2661323E-011  0.5052887E+02  0.7816164E-02  0.1300439E+00
        -11   -1    0    0    0    0  0.00000000000E+00  0.00000000000E+00  0.45593999997E+02  0.45594000000E+02  0.51100000000E-03 0.  1.
         11   -1    0    0    0    0 -0.00000000000E+00 -0.00000000000E+00 -0.45593999997E+02  0.45594000000E+02  0.51100000000E-03 0. -1.
    9900012    2    1    2    0    0  0.10166326285E+01 -0.35037913875E+02  0.20602820343E+02  0.50528866257E+02  0.30000019476E+02 0.  0.
         12    1    1    2    0    0 -0.10166326285E+01  0.35037913875E+02 -0.20602820343E+02  0.40659133743E+02  0.00000000000E+00 0. -1.
         11    1    3    3    0    0  0.45793175066E+01  0.40803189275E+01  0.11771480088E+01  0.62453846216E+01  0.51100000000E-03 0. -1.
        -11    1    3    3    0    0 -0.23952255426E+00 -0.19783756946E+00  0.10876575202E+01  0.11311542336E+01  0.51100000000E-03 0.  1.
        -12    1    3    3    0    0 -0.33231623238E+01 -0.38920395233E+02  0.18338014814E+02  0.43152327402E+02  0.00000000000E+00 0.  1.
</event>
<event>
 7    1  0.2661323E-011  0.5052884E+02  0.7816164E-02  0.1300439E+00
        -11   -1    0    0    0    0  0.00000000000E+00  0.00000000000E+00  0.45593999997E+02  0.45594000000E+02  0.51100000000E-03 0.  1.
         11   -1    0    0    0    0 -0.00000000000E+00 -0.00000000000E+00 -0.45593999997E+02  0.45594000000E+02  0.51100000000E-03 0. -1.
    9900012    2    1    2    0    0  0.26417303193E+02 -0.93766647319E+01  0.29451174678E+02  0.50528838187E+02  0.29999934153E+02 0.  0.
         12    1    1    2    0    0 -0.26417303193E+02  0.93766647319E+01 -0.29451174678E+02  0.40659161813E+02  0.00000000000E+00 0. -1.
         11    1    3    3    0    0  0.56913094304E+01  0.79899275989E+01  0.31023732453E+01  0.10288569681E+02  0.51100000000E-03 0. -1.
        -11    1    3    3    0    0  0.13227020079E+02 -0.26706993163E+01  0.85688339089E+01  0.15984730521E+02  0.51100000000E-03 0.  1.
        -12    1    3    3    0    0  0.74989736829E+01 -0.14695893014E+02  0.17779967523E+02  0.24255537985E+02  0.00000000000E+00 0.  1.
</event>
<event>
 7    1  0.2661323E-011  0.5052886E+02  0.7816164E-02  0.1300439E+00
        -11   -1    0    0    0    0  0.00000000000E+00  0.00000000000E+00  0.45593999997E+02  0.45594000000E+02  0.51100000000E-03 0. -1.
         11   -1    0    0    0    0 -0.00000000000E+00 -0.00000000000E+00 -0.45593999997E+02  0.45594000000E+02  0.51100000000E-03 0.  1.
    9900012    2    1    2    0    0 -0.10777325470E+02  0.30534546674E+02 -0.24589765127E+02  0.50528857930E+02  0.29999994165E+02 0.  0.
         12    1    1    2    0    0  0.10777325470E+02 -0.30534546674E+02  0.24589765127E+02  0.40659142070E+02  0.00000000000E+00 0. -1.
         11    1    3    3    0    0 -0.13346074729E+01 -0.13306395909E+01 -0.20872650235E+01  0.28121974267E+01  0.51100000000E-03 0. -1.
        -11    1    3    3    0    0 -0.84426075962E+01  0.33427470076E+01 -0.16074317474E+02  0.18461724272E+02  0.51100000000E-03 0.  1.
        -12    1    3    3    0    0 -0.10001104006E+01  0.28522439257E+02 -0.64281826295E+01  0.29254936232E+02  0.00000000000E+00 0.  1.
</event>
<event>
 7    1  0.2661323E-011  0.5052885E+02  0.7816164E-02  0.1300439E+00
        -11   -1    0    0    0    0  0.00000000000E+00  0.00000000000E+00  0.45593999997E+02  0.45594000000E+02  0.51100000000E-03 0.  1.
         11   -1    0    0    0    0 -0.00000000000E+00 -0.00000000000E+00 -0.45593999997E+02  0.45594000000E+02  0.51100000000E-03 0. -1.
    9900012    2    1    2    0    0  0.83507866600E+01 -0.18401584226E+02  0.35281899648E+02  0.50528851181E+02  0.29999973651E+02 0.  0.
         12    1    1    2    0    0 -0.83507866600E+01  0.18401584226E+02 -0.35281899648E+02  0.40659148819E+02  0.00000000000E+00 0. -1.
         11    1    3    3    0    0 -0.12889303322E+01 -0.35035669634E+01 -0.41705337457E+01  0.55972917428E+01  0.51100000000E-03 0. -1.
        -11    1    3    3    0    0  0.16691119190E+00 -0.98993027701E+00 -0.81265361084E+00  0.12915987967E+01  0.51100000000E-03 0.  1.
        -12    1    3    3    0    0  0.94728058002E+01 -0.13908086986E+02  0.40265087005E+02  0.43639960642E+02  0.00000000000E+00 0.  1.
</event>
<event>
 7    1  0.2661323E-011  0.5052885E+02  0.7816164E-02  0.1300439E+00
        -11   -1    0    0    0    0  0.00000000000E+00  0.00000000000E+00  0.45593999997E+02  0.45594000000E+02  0.51100000000E-03 0. -1.
         11   -1    0    0    0    0 -0.00000000000E+00 -0.00000000000E+00 -0.45593999997E+02  0.45594000000E+02  0.51100000000E-03 0.  1.
    9900012    2    1    2    0    0  0.18644039712E+02  0.18838200004E+02 -0.30833232191E+02  0.50528853384E+02  0.29999980347E+02 0.  0.
         12    1    1    2    0    0 -0.18644039712E+02 -0.18838200004E+02  0.30833232191E+02  0.40659146616E+02  0.00000000000E+00 0. -1.
         11    1    3    3    0    0  0.48686350756E+01 -0.63147713754E+01 -0.23620298814E+01  0.83161968739E+01  0.51100000000E-03 0. -1.
        -11    1    3    3    0    0  0.30003078615E+01 -0.54112687696E+00 -0.13640573722E+01  0.33399578346E+01  0.51100000000E-03 0.  1.
        -12    1    3    3    0    0  0.10775096775E+02  0.25694098256E+02 -0.27107144937E+02  0.38872698676E+02  0.00000000000E+00 0.  1.
</event>
<event>
 7    1  0.2661323E-011  0.5052879E+02  0.7816164E-02  0.1300439E+00
        -11   -1    0    0    0    0  0.00000000000E+00  0.00000000000E+00  0.45593999997E+02  0.45594000000E+02  0.51100000000E-03 0.  1.
         11   -1    0    0    0    0 -0.00000000000E+00 -0.00000000000E+00 -0.45593999997E+02  0.45594000000E+02  0.51100000000E-03 0. -1.
    9900012    2    1    2    0    0 -0.21230501159E+02 -0.31692934838E+02  0.14071057859E+02  0.50528794801E+02  0.29999802277E+02 0.  0.
         12    1    1    2    0    0  0.21230501159E+02  0.31692934838E+02 -0.14071057859E+02  0.40659205199E+02  0.00000000000E+00 0. -1.
         11    1    3    3    0    0 -0.33920564171E+01  0.17364023048E+01  0.83917018474E+01  0.92163875710E+01  0.51100000000E-03 0. -1.
        -11    1    3    3    0    0  0.13015926644E+00 -0.12854658738E+02 -0.18242616664E+01  0.12984110427E+02  0.51100000000E-03 0.  1.
        -12    1    3    3    0    0 -0.17968604008E+02 -0.20574678406E+02  0.75036176783E+01  0.28328296803E+02  0.00000000000E+00 0.  1.
</event>
<event>
 7    1  0.2661323E-011  0.5052886E+02  0.7816164E-02  0.1300439E+00
        -11   -1    0    0    0    0  0.00000000000E+00  0.00000000000E+00  0.45593999997E+02  0.45594000000E+02  0.51100000000E-03 0. -1.
         11   -1    0    0    0    0 -0.00000000000E+00 -0.00000000000E+00 -0.45593999997E+02  0.45594000000E+02  0.51100000000E-03 0.  1.
    9900012    2    1    2    0    0 -0.26533108260E+02 -0.30131855927E+02 -0.64211213085E+01  0.50528863580E+02  0.30000011337E+02 0.  0.
         12    1    1    2    0    0  0.26533108260E+02  0.30131855927E+02  0.64211213085E+01  0.40659136420E+02  0.00000000000E+00 0. -1.
         11    1    3    3    0    0 -0.45422410255E+01  0.79073669839E+00 -0.53173819770E+00  0.46411166579E+01  0.51100000000E-03 0. -1.
        -11    1    3    3    0    0 -0.26756620212E+02 -0.19432682010E+02 -0.41968663842E+01  0.33334059804E+02  0.51100000000E-03 0.  1.
        -12    1    3    3    0    0  0.47657529772E+01 -0.11489910615E+02 -0.16925167267E+01  0.12553687118E+02  0.00000000000E+00 0.  1.
</event>
<event>
 7    1  0.2661323E-011  0.5052886E+02  0.7816164E-02  0.1300439E+00
        -11   -1    0    0    0    0  0.00000000000E+00  0.00000000000E+00  0.45593999997E+02  0.45594000000E+02  0.51100000000E-03 0.  1.
         11   -1    0    0    0    0 -0.00000000000E+00 -0.00000000000E+00 -0.45593999997E+02  0.45594000000E+02  0.51100000000E-03 0. -1.
    9900012    2    1    2    0    0  0.28721300701E+01 -0.38118263655E+02  0.13853329384E+02  0.50528857237E+02  0.29999992056E+02 0.  0.
         12    1    1    2    0    0 -0.28721300701E+01  0.38118263655E+02 -0.13853329384E+02  0.40659142763E+02  0.00000000000E+00 0. -1.
         11    1    3    3    0    0  0.11350770524E+02 -0.18428943254E+02  0.17930787862E+02  0.28106566752E+02  0.51100000000E-03 0. -1.
        -11    1    3    3    0    0 -0.23244681374E+01 -0.24947955292E+01 -0.22122018770E+01  0.40646025956E+01  0.51100000000E-03 0.  1.
        -12    1    3    3    0    0 -0.61541723164E+01 -0.17194524872E+02 -0.18652566006E+01  0.18357687889E+02  0.00000000000E+00 0.  1.
</event>
<event>
 7    1  0.2661323E-011  0.5052886E+02  0.7816164E-02  0.1300439E+00
        -11   -1    0    0    0    0  0.00000000000E+00  0.00000000000E+00  0.45593999997E+02  0.45594000000E+02  0.51100000000E-03 0. -1.
         11   -1    0    0    0    0 -0.00000000000E+00 -0.00000000000E+00 -0.45593999997E+02  0.45594000000E+02  0.51100000000E-03 0.  1.
    9900012    2    1    2    0    0 -0.22485323171E+02  0.12782305661E+02 -0.31371777155E+02  0.50528862060E+02  0.30000006718E+02 0.  0.
         12    1    1    2    0    0  0.22485323171E+02 -0.12782305661E+02  0.31371777155E+02  0.40659137940E+02  0.00000000000E+00 0. -1.
         11    1    3    3    0    0 -0.10310226204E+02 -0.73589394986E+01 -0.44662616826E+01  0.13431390419E+02  0.51100000000E-03 0. -1.
        -11    1    3    3    0    0 -0.25394908084E+01  0.21308477794E+00 -0.65390352139E+01  0.70180766937E+01  0.51100000000E-03 0.  1.
         12    1    3    3    0    0 -0.96356061586E+01  0.19928160382E+02 -0.20366480259E+02  0.30079394947E+02  0.00000000000E+00 0. -1.
</event>
<event>
 7    1  0.2661323E-011  0.5052889E+02  0.7816164E-02  0.1300439E+00
        -11   -1    0    0    0    0  0.00000000000E+00  0.00000000000E+00  0.45593999997E+02  0.45594000000E+02  0.51100000000E-03 0.  1.
         11   -1    0    0    0    0 -0.00000000000E+00 -0.00000000000E+00 -0.45593999997E+02  0.45594000000E+02  0.51100000000E-03 0. -1.
    9900012    2    1    2    0    0 -0.54671104097E+01 -0.19804570633E+02  0.35086361312E+02  0.50528891988E+02  0.30000097688E+02 0.  0.
         12    1    1    2    0    0  0.54671104097E+01  0.19804570633E+02 -0.35086361312E+02  0.40659108012E+02  0.00000000000E+00 0. -1.
         11    1    3    3    0    0  0.36996125741E+01 -0.59023902373E+01 -0.73090956473E+00  0.70042539049E+01  0.51100000000E-03 0. -1.
        -11    1    3    3    0    0 -0.76730579070E+01  0.25362096044E+01  0.14027335909E+02  0.16188709948E+02  0.51100000000E-03 0.  1.
         12    1    3    3    0    0 -0.14936650769E+01 -0.16438390000E+02  0.21789934967E+02  0.27335928136E+02  0.00000000000E+00 0. -1.
</event>
<event>
 7    1  0.2661323E-011  0.5052884E+02  0.7816164E-02  0.1300439E+00
        -11   -1    0    0    0    0  0.00000000000E+00  0.00000000000E+00  0.45593999997E+02  0.45594000000E+02  0.51100000000E-03 0.  1.
         11   -1    0    0    0    0 -0.00000000000E+00 -0.00000000000E+00 -0.45593999997E+02  0.45594000000E+02  0.51100000000E-03 0. -1.
    9900012    2    1    2    0    0  0.21935423549E+02  0.32380625308E+02 -0.11113044794E+02  0.50528837856E+02  0.29999933148E+02 0.  0.
         12    1    1    2    0    0 -0.21935423549E+02 -0.32380625308E+02  0.11113044794E+02  0.40659162144E+02  0.00000000000E+00 0. -1.
         11    1    3    3    0    0  0.38023597951E+01  0.47912422855E+01  0.36811105605E+01  0.71389437503E+01  0.51100000000E-03 0.  1.
        -11    1    3    3    0    0  0.28882472564E+00  0.17366768422E+02  0.10921697336E+01  0.17403473795E+02  0.51100000000E-03 0. -1.
         12    1    3    3    0    0  0.17844239028E+02  0.10222614601E+02 -0.15886325088E+02  0.25986420311E+02  0.00000000000E+00 0. -1.
</event>
<event>
 7    1  0.2661323E-011  0.5052886E+02  0.7816164E-02  0.1300439E+00
        -11   -1    0    0    0    0  0.00000000000E+00  0.00000000000E+00  0.45593999997E+02  0.45594000000E+02  0.51100000000E-03 0. -1.
         11   -1    0    0    0    0 -0.00000000000E+00 -0.00000000000E+00 -0.45593999997E+02  0.45594000000E+02  0.51100000000E-03 0.  1.
    9900012    2    1    2    0    0  0.32915184904E+02 -0.19632485193E+02 -0.13576509897E+02  0.50528862120E+02  0.30000006900E+02 0.  0.
         12    1    1    2    0    0 -0.32915184904E+02  0.19632485193E+02  0.13576509897E+02  0.40659137880E+02  0.00000000000E+00 0. -1.
         11    1    3    3    0    0  0.11016671259E+02 -0.30199474167E+01 -0.17922368767E+01  0.11562838809E+02  0.51100000000E-03 0. -1.
        -11    1    3    3    0    0  0.23828217866E+02 -0.16001776151E+02 -0.17008363793E+02  0.33363531675E+02  0.51100000000E-03 0.  1.
         12    1    3    3    0    0 -0.19297042207E+01 -0.61076162576E+00  0.52240907720E+01  0.56024916365E+01  0.00000000000E+00 0. -1.
</event>
<event>
 7    1  0.2661323E-011  0.5052884E+02  0.7816164E-02  0.1300439E+00
        -11   -1    0    0    0    0  0.00000000000E+00  0.00000000000E+00  0.45593999997E+02  0.45594000000E+02  0.51100000000E-03 0.  1.
         11   -1    0    0    0    0 -0.00000000000E+00 -0.00000000000E+00 -0.45593999997E+02  0.45594000000E+02  0.51100000000E-03 0. -1.
    9900012    2    1    2    0    0  0.12481842203E+02  0.11823281727E+02  0.36845365630E+02  0.50528839360E+02  0.29999937717E+02 0.  0.
         12    1    1    2    0    0 -0.12481842203E+02 -0.11823281727E+02 -0.36845365630E+02  0.40659160640E+02  0.00000000000E+00 0. -1.
         11    1    3    3    0    0  0.95557513606E+01 -0.25132643622E+01  0.12054852498E+01  0.99539980293E+01  0.51100000000E-03 0. -1.
        -11    1    3    3    0    0 -0.20572095469E+01 -0.15106994962E+01  0.29120032580E+01  0.38722199477E+01  0.51100000000E-03 0.  1.
        -12    1    3    3    0    0  0.49833003889E+01  0.15847245586E+02  0.32727877122E+02  0.36702621383E+02  0.00000000000E+00 0.  1.
</event>
<event>
 7    1  0.2661323E-011  0.5052886E+02  0.7816164E-02  0.1300439E+00
        -11   -1    0    0    0    0  0.00000000000E+00  0.00000000000E+00  0.45593999997E+02  0.45594000000E+02  0.51100000000E-03 0. -1.
         11   -1    0    0    0    0 -0.00000000000E+00 -0.00000000000E+00 -0.45593999997E+02  0.45594000000E+02  0.51100000000E-03 0.  1.
    9900012    2    1    2    0    0 -0.67780275791E+01  0.25385475890E+02 -0.31029043925E+02  0.50528860671E+02  0.30000002497E+02 0.  0.
         12    1    1    2    0    0  0.67780275791E+01 -0.25385475890E+02  0.31029043925E+02  0.40659139329E+02  0.00000000000E+00 0. -1.
         11    1    3    3    0    0 -0.27838649747E+01  0.15300996911E+02 -0.16277047079E+02  0.22512500362E+02  0.51100000000E-03 0. -1.
        -11    1    3    3    0    0 -0.43855483357E+01  0.15992764281E+02 -0.14598105638E+02  0.22093126352E+02  0.51100000000E-03 0.  1.
         12    1    3    3    0    0  0.39138573138E+00 -0.59082853021E+01 -0.15389120790E+00  0.59232339566E+01  0.00000000000E+00 0. -1.
</event>
<event>
 7    1  0.2661323E-011  0.5052885E+02  0.7816164E-02  0.1300439E+00
        -11   -1    0    0    0    0  0.00000000000E+00  0.00000000000E+00  0.45593999997E+02  0.45594000000E+02  0.51100000000E-03 0.  1.
         11   -1    0    0    0    0 -0.00000000000E+00 -0.00000000000E+00 -0.45593999997E+02  0.45594000000E+02  0.51100000000E-03 0. -1.
    9900012    2    1    2    0    0 -0.15119641931E+02  0.19573407221E+01  0.37692591172E+02  0.50528853624E+02  0.29999981074E+02 0.  0.
         12    1    1    2    0    0  0.15119641931E+02 -0.19573407221E+01 -0.37692591172E+02  0.40659146376E+02  0.00000000000E+00 0. -1.
         11    1    3    3    0    0 -0.32560100027E+00 -0.82597389503E+01  0.14429970172E+02  0.16629893053E+02  0.51100000000E-03 0. -1.
        -11    1    3    3    0    0 -0.10724464339E+02  0.39961037391E+01  0.23837864099E+02  0.26442895936E+02  0.51100000000E-03 0.  1.
        -12    1    3    3    0    0 -0.40695765916E+01  0.62209759333E+01 -0.57524309924E+00  0.74560646336E+01  0.00000000000E+00 0.  1.
</event>
<event>
 7    1  0.2661323E-011  0.5052886E+02  0.7816164E-02  0.1300439E+00
        -11   -1    0    0    0    0  0.00000000000E+00  0.00000000000E+00  0.45593999997E+02  0.45594000000E+02  0.51100000000E-03 0.  1.
         11   -1    0    0    0    0 -0.00000000000E+00 -0.00000000000E+00 -0.45593999997E+02  0.45594000000E+02  0.51100000000E-03 0. -1.
    9900012    2    1    2    0    0  0.21259694159E+02 -0.27267370014E+02  0.21393503224E+02  0.50528855353E+02  0.29999986332E+02 0.  0.
         12    1    1    2    0    0 -0.21259694159E+02  0.27267370014E+02 -0.21393503224E+02  0.40659144647E+02  0.00000000000E+00 0. -1.
         11    1    3    3    0    0  0.46290483890E+01 -0.93985618219E+01 -0.39949148625E+01  0.11212510795E+02  0.51100000000E-03 0. -1.
        -11    1    3    3    0    0 -0.29817811173E+01 -0.22504881290E+01  0.79278109492E+01  0.87638976579E+01  0.51100000000E-03 0.  1.
         12    1    3    3    0    0  0.19612426888E+02 -0.15618320063E+02  0.17460607137E+02  0.30552446900E+02  0.00000000000E+00 0. -1.
</event>
<event>
 7    1  0.2661323E-011  0.5052886E+02  0.7816164E-02  0.1300439E+00
        -11   -1    0    0    0    0  0.00000000000E+00  0.00000000000E+00  0.45593999997E+02  0.45594000000E+02  0.51100000000E-03 0. -1.
         11   -1    0    0    0    0 -0.00000000000E+00 -0.00000000000E+00 -0.45593999997E+02  0.45594000000E+02  0.51100000000E-03 0.  1.
    9900012    2    1    2    0    0  0.33926342901E+02 -0.21795172645E+02 -0.52095788336E+01  0.50528855827E+02  0.29999987772E+02 0.  0.
         12    1    1    2    0    0 -0.33926342901E+02  0.21795172645E+02  0.52095788336E+01  0.40659144173E+02  0.00000000000E+00 0. -1.
         11    1    3    3    0    0  0.41265740892E+00 -0.53052884063E+01 -0.75804227798E+00  0.53750348434E+01  0.51100000000E-03 0. -1.
        -11    1    3    3    0    0 -0.13451997147E+01  0.61611763511E+00  0.49798374498E+01  0.51949922521E+01  0.51100000000E-03 0.  1.
        -12    1    3    3    0    0  0.34858885207E+02 -0.17106001874E+02 -0.94313740054E+01  0.39958828731E+02  0.00000000000E+00 0.  1.
</event>
<event>
 7    1  0.2661323E-011  0.5052884E+02  0.7816164E-02  0.1300439E+00
        -11   -1    0    0    0    0  0.00000000000E+00  0.00000000000E+00  0.45593999997E+02  0.45594000000E+02  0.51100000000E-03 0.  1.
         11   -1    0    0    0    0 -0.00000000000E+00 -0.00000000000E+00 -0.45593999997E+02  0.45594000000E+02  0.51100000000E-03 0. -1.
    9900012    2    1    2    0    0  0.22170419178E+01 -0.28742931371E+02  0.28672218824E+02  0.50528837307E+02  0.29999931478E+02 0.  0.
         12    1    1    2    0    0 -0.22170419178E+01  0.28742931371E+02 -0.28672218824E+02  0.40659162693E+02  0.00000000000E+00 0. -1.
         11    1    3    3    0    0  0.80967443657E+01 -0.21297397735E+02  0.17623135030E+02  0.28804709826E+02  0.51100000000E-03 0.  1.
        -11    1    3    3    0    0 -0.77244688978E+01 -0.11688000968E+02  0.90885005175E+01  0.16699629585E+02  0.51100000000E-03 0. -1.
        -12    1    3    3    0    0  0.18447664499E+01  0.42424673322E+01  0.19605832757E+01  0.50244978953E+01  0.00000000000E+00 0.  1.
</event>
<event>
 7    1  0.2661323E-011  0.5052887E+02  0.7816164E-02  0.1300439E+00
        -11   -1    0    0    0    0  0.00000000000E+00  0.00000000000E+00  0.45593999997E+02  0.45594000000E+02  0.51100000000E-03 0.  1.
         11   -1    0    0    0    0 -0.00000000000E+00 -0.00000000000E+00 -0.45593999997E+02  0.45594000000E+02  0.51100000000E-03 0. -1.
    9900012    2    1    2    0    0 -0.11913234036E+02 -0.23422841758E+02  0.31025963599E+02  0.50528867220E+02  0.30000022401E+02 0.  0.
         12    1    1    2    0    0  0.11913234036E+02  0.23422841758E+02 -0.31025963599E+02  0.40659132780E+02  0.00000000000E+00 0. -1.
         11    1    3    3    0    0 -0.59669715290E+01 -0.18328958567E+02  0.62679573417E+01  0.20269256545E+02  0.51100000000E-03 0. -1.
        -11    1    3    3    0    0 -0.13893178432E+01 -0.69923839298E+01  0.26476344099E+01  0.76048409136E+01  0.51100000000E-03 0.  1.
        -12    1    3    3    0    0 -0.45569446634E+01  0.18985007390E+01  0.22110371847E+02  0.22654769762E+02  0.00000000000E+00 0.  1.
</event>
<event>
 7    1  0.2661323E-011  0.5052892E+02  0.7816164E-02  0.1300439E+00
        -11   -1    0    0    0    0  0.00000000000E+00  0.00000000000E+00  0.45593999997E+02  0.45594000000E+02  0.51100000000E-03 0.  1.
         11   -1    0    0    0    0 -0.00000000000E+00 -0.00000000000E+00 -0.45593999997E+02  0.45594000000E+02  0.51100000000E-03 0. -1.
    9900012    2    1    2    0    0  0.75886741440E+01 -0.36315927403E+02  0.16635088324E+02  0.50528920793E+02  0.30000185241E+02 0.  0.
         12    1    1    2    0    0 -0.75886741440E+01  0.36315927403E+02 -0.16635088324E+02  0.40659079207E+02  0.00000000000E+00 0. -1.
         11    1    3    3    0    0  0.11307495051E+02 -0.88994463614E+01 -0.10105567068E+01  0.14425006585E+02  0.51100000000E-03 0. -1.
        -11    1    3    3    0    0  0.58223211267E+01 -0.94127267087E+01  0.72332134129E+01  0.13221884281E+02  0.51100000000E-03 0.  1.
         12    1    3    3    0    0 -0.95411420332E+01 -0.18003754333E+02  0.10412431618E+02  0.22882029927E+02  0.00000000000E+00 0. -1.
</event>
<event>
 7    1  0.2661323E-011  0.5052886E+02  0.7816164E-02  0.1300439E+00
        -11   -1    0    0    0    0  0.00000000000E+00  0.00000000000E+00  0.45593999997E+02  0.45594000000E+02  0.51100000000E-03 0.  1.
         11   -1    0    0    0    0 -0.00000000000E+00 -0.00000000000E+00 -0.45593999997E+02  0.45594000000E+02  0.51100000000E-03 0. -1.
    9900012    2    1    2    0    0  0.19919887145E+02 -0.13738956861E+02  0.32674220851E+02  0.50528861449E+02  0.30000004861E+02 0.  0.
         12    1    1    2    0    0 -0.19919887145E+02  0.13738956861E+02 -0.32674220851E+02  0.40659138551E+02  0.00000000000E+00 0. -1.
         11    1    3    3    0    0  0.10574114073E+02 -0.13274302245E+02  0.12867380200E+02  0.21297616345E+02  0.51100000000E-03 0. -1.
        -11    1    3    3    0    0 -0.76354269383E-02  0.15157023924E+01  0.19609971513E+02  0.19668461939E+02  0.51100000000E-03 0.  1.
         12    1    3    3    0    0  0.93534084983E+01 -0.19803570090E+01  0.19686913841E+00  0.95627831658E+01  0.00000000000E+00 0. -1.
</event>
<event>
 7    1  0.2661323E-011  0.5052881E+02  0.7816164E-02  0.1300439E+00
        -11   -1    0    0    0    0  0.00000000000E+00  0.00000000000E+00  0.45593999997E+02  0.45594000000E+02  0.51100000000E-03 0. -1.
         11   -1    0    0    0    0 -0.00000000000E+00 -0.00000000000E+00 -0.45593999997E+02  0.45594000000E+02  0.51100000000E-03 0.  1.
    9900012    2    1    2    0    0 -0.12571201969E+02  0.38396798331E+02  0.45629202400E+01  0.50528813066E+02  0.29999857795E+02 0.  0.
         12    1    1    2    0    0  0.12571201969E+02 -0.38396798331E+02 -0.45629202400E+01  0.40659186934E+02  0.00000000000E+00 0. -1.
         11    1    3    3    0    0 -0.47982919523E+01  0.34750270799E+01 -0.43839128353E+00  0.59406738712E+01  0.51100000000E-03 0. -1.
        -11    1    3    3    0    0 -0.71958531307E+01  0.89767421456E+01 -0.94463374360E+01  0.14886083872E+02  0.51100000000E-03 0.  1.
         12    1    3    3    0    0 -0.57705688575E+00  0.25945029106E+02  0.14447648960E+02  0.29702055323E+02  0.00000000000E+00 0. -1.
</event>
<event>
 7    1  0.2661323E-011  0.5052886E+02  0.7816164E-02  0.1300439E+00
        -11   -1    0    0    0    0  0.00000000000E+00  0.00000000000E+00  0.45593999997E+02  0.45594000000E+02  0.51100000000E-03 0.  1.
         11   -1    0    0    0    0 -0.00000000000E+00 -0.00000000000E+00 -0.45593999997E+02  0.45594000000E+02  0.51100000000E-03 0. -1.
    9900012    2    1    2    0    0 -0.15203466349E+02 -0.17181488265E+02  0.33568086647E+02  0.50528863644E+02  0.30000011533E+02 0.  0.
         12    1    1    2    0    0  0.15203466349E+02  0.17181488265E+02 -0.33568086647E+02  0.40659136356E+02  0.00000000000E+00 0. -1.
         11    1    3    3    0    0 -0.14722590710E+02 -0.10140123455E+02  0.16813922118E+02  0.24541490544E+02  0.51100000000E-03 0. -1.
        -11    1    3    3    0    0 -0.64898002659E+01 -0.50232433017E+01  0.17764543203E+02  0.19568583910E+02  0.51100000000E-03 0.  1.
        -12    1    3    3    0    0  0.60089246273E+01 -0.20181215089E+01 -0.10103786736E+01  0.64187891900E+01  0.00000000000E+00 0.  1.
</event>
<event>
 7    1  0.2661323E-011  0.5052887E+02  0.7816164E-02  0.1300439E+00
        -11   -1    0    0    0    0  0.00000000000E+00  0.00000000000E+00  0.45593999997E+02  0.45594000000E+02  0.51100000000E-03 0.  1.
         11   -1    0    0    0    0 -0.00000000000E+00 -0.00000000000E+00 -0.45593999997E+02  0.45594000000E+02  0.51100000000E-03 0. -1.
    9900012    2    1    2    0    0  0.36470838765E+01 -0.38795989022E+02  0.11607547698E+02  0.50528866358E+02  0.30000019780E+02 0.  0.
         12    1    1    2    0    0 -0.36470838765E+01  0.38795989022E+02 -0.11607547698E+02  0.40659133642E+02  0.00000000000E+00 0. -1.
         11    1    3    3    0    0  0.91348449124E+01 -0.14091156611E+01  0.22331807725E+01  0.95088429971E+01  0.51100000000E-03 0. -1.
        -11    1    3    3    0    0 -0.18894211674E+01 -0.16531194403E+01  0.39757632517E+01  0.47020644324E+01  0.51100000000E-03 0.  1.
         12    1    3    3    0    0 -0.35983398684E+01 -0.35733753921E+02  0.53986036734E+01  0.36317958928E+02  0.00000000000E+00 0. -1.
</event>
<event>
 7    1  0.2661323E-011  0.5052886E+02  0.7816164E-02  0.1300439E+00
        -11   -1    0    0    0    0  0.00000000000E+00  0.00000000000E+00  0.45593999997E+02  0.45594000000E+02  0.51100000000E-03 0.  1.
         11   -1    0    0    0    0 -0.00000000000E+00 -0.00000000000E+00 -0.45593999997E+02  0.45594000000E+02  0.51100000000E-03 0. -1.
    9900012    2    1    2    0    0  0.14644281217E+02  0.26650610479E+02  0.26989915282E+02  0.50528861566E+02  0.30000005217E+02 0.  0.
         12    1    1    2    0    0 -0.14644281217E+02 -0.26650610479E+02 -0.26989915282E+02  0.40659138434E+02  0.00000000000E+00 0. -1.
         11    1    3    3    0    0  0.16605206630E+02  0.86569356884E+01  0.68183693560E+01  0.19929013615E+02  0.51100000000E-03 0. -1.
        -11    1    3    3    0    0  0.32785886033E+01  0.48204099607E+01  0.13947375226E+02  0.15116705043E+02  0.51100000000E-03 0.  1.
        -12    1    3    3    0    0 -0.52395140163E+01  0.13173264829E+02  0.62241707003E+01  0.15483142908E+02  0.00000000000E+00 0.  1.
</event>
<event>
 7    1  0.2661323E-011  0.5052886E+02  0.7816164E-02  0.1300439E+00
        -11   -1    0    0    0    0  0.00000000000E+00  0.00000000000E+00  0.45593999997E+02  0.45594000000E+02  0.51100000000E-03 0.  1.
         11   -1    0    0    0    0 -0.00000000000E+00 -0.00000000000E+00 -0.45593999997E+02  0.45594000000E+02  0.51100000000E-03 0. -1.
    9900012    2    1    2    0    0 -0.28651700343E+02 -0.28753311952E+02  0.23437461821E+01  0.50528855556E+02  0.29999986948E+02 0.  0.
         12    1    1    2    0    0  0.28651700343E+02  0.28753311952E+02 -0.23437461821E+01  0.40659144444E+02  0.00000000000E+00 0. -1.
         11    1    3    3    0    0 -0.16003054240E+02 -0.13040250071E+02  0.71558218933E+01  0.21848378753E+02  0.51100000000E-03 0. -1.
        -11    1    3    3    0    0 -0.34093039565E+01 -0.53118027806E+01  0.77090713873E+01  0.99633520546E+01  0.51100000000E-03 0.  1.
         12    1    3    3    0    0 -0.92393421469E+01 -0.10401259100E+02 -0.12521147099E+02  0.18717124748E+02  0.00000000000E+00 0. -1.
</event>
<event>
 7    1  0.2661323E-011  0.5052886E+02  0.7816164E-02  0.1300439E+00
        -11   -1    0    0    0    0  0.00000000000E+00  0.00000000000E+00  0.45593999997E+02  0.45594000000E+02  0.51100000000E-03 0.  1.
         11   -1    0    0    0    0 -0.00000000000E+00 -0.00000000000E+00 -0.45593999997E+02  0.45594000000E+02  0.51100000000E-03 0. -1.
    9900012    2    1    2    0    0  0.29198711577E+02 -0.24696053690E+02  0.13809628008E+02  0.50528860174E+02  0.30000000986E+02 0.  0.
         12    1    1    2    0    0 -0.29198711577E+02  0.24696053690E+02 -0.13809628008E+02  0.40659139826E+02  0.00000000000E+00 0. -1.
         11    1    3    3    0    0  0.10251211214E+02 -0.64209678678E+01 -0.49901060491E+01  0.13085003568E+02  0.51100000000E-03 0. -1.
        -11    1    3    3    0    0  0.12948851802E+02 -0.12151927285E+02  0.11169575261E+01  0.17792967547E+02  0.51100000000E-03 0.  1.
        -12    1    3    3    0    0  0.59986485612E+01 -0.61231585371E+01  0.17682776531E+02  0.19650889060E+02  0.00000000000E+00 0.  1.
</event>
<event>
 7    1  0.2661323E-011  0.5052886E+02  0.7816164E-02  0.1300439E+00
        -11   -1    0    0    0    0  0.00000000000E+00  0.00000000000E+00  0.45593999997E+02  0.45594000000E+02  0.51100000000E-03 0.  1.
         11   -1    0    0    0    0 -0.00000000000E+00 -0.00000000000E+00 -0.45593999997E+02  0.45594000000E+02  0.51100000000E-03 0. -1.
    9900012    2    1    2    0    0 -0.39318669403E+02  0.60930578938E+01  0.83715091535E+01  0.50528864696E+02  0.30000014731E+02 0.  0.
         12    1    1    2    0    0  0.39318669403E+02 -0.60930578938E+01 -0.83715091535E+01  0.40659135304E+02  0.00000000000E+00 0. -1.
         11    1    3    3    0    0 -0.72980098078E+01 -0.90974799290E+01  0.75387432195E+01  0.13887322917E+02  0.51100000000E-03 0. -1.
        -11    1    3    3    0    0 -0.43599438303E+01  0.14243253870E+01  0.32935647532E+01  0.56467142708E+01  0.51100000000E-03 0.  1.
        -12    1    3    3    0    0 -0.27660715765E+02  0.13766212436E+02 -0.24607988191E+01  0.30994827509E+02  0.00000000000E+00 0.  1.
</event>
<event>
 7    1  0.2661323E-011  0.5052886E+02  0.7816164E-02  0.1300439E+00
        -11   -1    0    0    0    0  0.00000000000E+00  0.00000000000E+00  0.45593999997E+02  0.45594000000E+02  0.51100000000E-03 0. -1.
         11   -1    0    0    0    0 -0.00000000000E+00 -0.00000000000E+00 -0.45593999997E+02  0.45594000000E+02  0.51100000000E-03 0.  1.
    9900012    2    1    2    0    0  0.38449799657E+01  0.47991405352E+01 -0.40191420852E+02  0.50528856737E+02  0.29999990538E+02 0.  0.
         12    1    1    2    0    0 -0.38449799657E+01 -0.47991405352E+01  0.40191420852E+02  0.40659143263E+02  0.00000000000E+00 0. -1.
         11    1    3    3    0    0 -0.51136863735E+01 -0.38267142855E+01 -0.12494076568E+02  0.14031944986E+02  0.51100000000E-03 0. -1.
        -11    1    3    3    0    0 -0.31336901196E+01 -0.30769197639E+01 -0.14383644398E+02  0.15039171368E+02  0.51100000000E-03 0.  1.
        -12    1    3    3    0    0  0.12092356459E+02  0.11702774585E+02 -0.13313699886E+02  0.21457740383E+02  0.00000000000E+00 0.  1.
</event>
<event>
 7    1  0.2661323E-011  0.5052887E+02  0.7816164E-02  0.1300439E+00
        -11   -1    0    0    0    0  0.00000000000E+00  0.00000000000E+00  0.45593999997E+02  0.45594000000E+02  0.51100000000E-03 0.  1.
         11   -1    0    0    0    0 -0.00000000000E+00 -0.00000000000E+00 -0.45593999997E+02  0.45594000000E+02  0.51100000000E-03 0. -1.
    9900012    2    1    2    0    0 -0.10207171244E+02 -0.14286728282E+02  0.36672442578E+02  0.50528868253E+02  0.30000025541E+02 0.  0.
         12    1    1    2    0    0  0.10207171244E+02  0.14286728282E+02 -0.36672442578E+02  0.40659131747E+02  0.00000000000E+00 0. -1.
         11    1    3    3    0    0  0.33835734448E+01 -0.13066262768E+01  0.91493192882E+01  0.98420467985E+01  0.51100000000E-03 0. -1.
        -11    1    3    3    0    0  0.19172147001E+01 -0.13858360536E+02  0.16539248833E+02  0.21662793476E+02  0.51100000000E-03 0.  1.
         12    1    3    3    0    0 -0.15507959389E+02  0.87825853073E+00  0.10983874456E+02  0.19024027978E+02  0.00000000000E+00 0. -1.
</event>
<event>
 7    1  0.2661323E-011  0.5052886E+02  0.7816164E-02  0.1300439E+00
        -11   -1    0    0    0    0  0.00000000000E+00  0.00000000000E+00  0.45593999997E+02  0.45594000000E+02  0.51100000000E-03 0.  1.
         11   -1    0    0    0    0 -0.00000000000E+00 -0.00000000000E+00 -0.45593999997E+02  0.45594000000E+02  0.51100000000E-03 0. -1.
    9900012    2    1    2    0    0 -0.21809728231E+02 -0.24745374113E+02  0.23773260549E+02  0.50528859544E+02  0.29999999069E+02 0.  0.
         12    1    1    2    0    0  0.21809728231E+02  0.24745374113E+02 -0.23773260549E+02  0.40659140456E+02  0.00000000000E+00 0. -1.
         11    1    3    3    0    0  0.77607679085E+00  0.69130172135E-01 -0.12656005906E+01  0.14862097033E+01  0.51100000000E-03 0. -1.
        -11    1    3    3    0    0 -0.10240712471E+01  0.24454639112E+01  0.11402744968E+02  0.11706904318E+02  0.51100000000E-03 0.  1.
        -12    1    3    3    0    0 -0.21561733775E+02 -0.27259968196E+02  0.13636116172E+02  0.37335745522E+02  0.00000000000E+00 0.  1.
</event>
<event>
 7    1  0.2661323E-011  0.5052886E+02  0.7816164E-02  0.1300439E+00
        -11   -1    0    0    0    0  0.00000000000E+00  0.00000000000E+00  0.45593999997E+02  0.45594000000E+02  0.51100000000E-03 0.  1.
         11   -1    0    0    0    0 -0.00000000000E+00 -0.00000000000E+00 -0.45593999997E+02  0.45594000000E+02  0.51100000000E-03 0. -1.
    9900012    2    1    2    0    0  0.25940990931E+02 -0.29866011251E+02 -0.93942342143E+01  0.50528864802E+02  0.30000015054E+02 0.  0.
         12    1    1    2    0    0 -0.25940990931E+02  0.29866011251E+02  0.93942342143E+01  0.40659135198E+02  0.00000000000E+00 0. -1.
         11    1    3    3    0    0  0.19712700623E+01 -0.66407296410E+01  0.83625464165E+01  0.10858976869E+02  0.51100000000E-03 0. -1.
        -11    1    3    3    0    0  0.51819907368E+01 -0.88502422925E+00  0.43505248227E+00  0.52749944840E+01  0.51100000000E-03 0.  1.
         12    1    3    3    0    0  0.18787730132E+02 -0.22340257381E+02 -0.18191833113E+02  0.34394893449E+02  0.00000000000E+00 0. -1.
</event>
<event>
 7    1  0.2661323E-011  0.5052886E+02  0.7816164E-02  0.1300439E+00
        -11   -1    0    0    0    0  0.00000000000E+00  0.00000000000E+00  0.45593999997E+02  0.45594000000E+02  0.51100000000E-03 0.  1.
         11   -1    0    0    0    0 -0.00000000000E+00 -0.00000000000E+00 -0.45593999997E+02  0.45594000000E+02  0.51100000000E-03 0. -1.
    9900012    2    1    2    0    0  0.27428084163E+02  0.29791969587E+02  0.36475262794E+01  0.50528859568E+02  0.29999999141E+02 0.  0.
         12    1    1    2    0    0 -0.27428084163E+02 -0.29791969587E+02 -0.36475262794E+01  0.40659140432E+02  0.00000000000E+00 0. -1.
         11    1    3    3    0    0  0.11334121457E+02  0.20218458061E+01  0.18405940458E+01  0.11659243387E+02  0.51100000000E-03 0. -1.
        -11    1    3    3    0    0  0.16298298459E+02  0.11460390111E+02  0.79339346836E+01  0.21445801313E+02  0.51100000000E-03 0.  1.
         12    1    3    3    0    0 -0.20433575243E+00  0.16309733670E+02 -0.61270024500E+01  0.17423814867E+02  0.00000000000E+00 0. -1.
</event>
<event>
 7    1  0.2661323E-011  0.5052886E+02  0.7816164E-02  0.1300439E+00
        -11   -1    0    0    0    0  0.00000000000E+00  0.00000000000E+00  0.45593999997E+02  0.45594000000E+02  0.51100000000E-03 0.  1.
         11   -1    0    0    0    0 -0.00000000000E+00 -0.00000000000E+00 -0.45593999997E+02  0.45594000000E+02  0.51100000000E-03 0. -1.
    9900012    2    1    2    0    0  0.28570834165E+02  0.15748832983E+02  0.24266178225E+02  0.50528859443E+02  0.29999998762E+02 0.  0.
         12    1    1    2    0    0 -0.28570834165E+02 -0.15748832983E+02 -0.24266178225E+02  0.40659140557E+02  0.00000000000E+00 0. -1.
         11    1    3    3    0    0  0.39758495938E+01  0.10898376342E+02  0.31190347796E+01  0.12012924919E+02  0.51100000000E-03 0. -1.
        -11    1    3    3    0    0  0.86870257866E+01  0.43821588558E+01  0.20379013834E+02  0.22582558278E+02  0.51100000000E-03 0.  1.
         12    1    3    3    0    0  0.15907958785E+02  0.46829778482E+00  0.76812961181E+00  0.15933376246E+02  0.00000000000E+00 0. -1.
</event>
<event>
 7    1  0.2661323E-011  0.5052885E+02  0.7816164E-02  0.1300439E+00
        -11   -1    0    0    0    0  0.00000000000E+00  0.00000000000E+00  0.45593999997E+02  0.45594000000E+02  0.51100000000E-03 0. -1.
         11   -1    0    0    0    0 -0.00000000000E+00 -0.00000000000E+00 -0.45593999997E+02  0.45594000000E+02  0.51100000000E-03 0.  1.
    9900012    2    1    2    0    0 -0.28963911868E+02  0.26646974148E+02 -0.10207696384E+02  0.50528849893E+02  0.29999969736E+02 0.  0.
         12    1    1    2    0    0  0.28963911868E+02 -0.26646974148E+02  0.10207696384E+02  0.40659150107E+02  0.00000000000E+00 0. -1.
         11    1    3    3    0    0 -0.12110769783E+02  0.12017345383E+02  0.33143509436E+01  0.17380226041E+02  0.51100000000E-03 0. -1.
        -11    1    3    3    0    0 -0.65073203332E+01  0.14028388287E+02  0.78324173368E+00  0.15484003479E+02  0.51100000000E-03 0.  1.
         12    1    3    3    0    0 -0.10345821752E+02  0.60124047745E+00 -0.14305289061E+02  0.17664620374E+02  0.00000000000E+00 0. -1.
</event>
<event>
 7    1  0.2661323E-011  0.5052886E+02  0.7816164E-02  0.1300439E+00
        -11   -1    0    0    0    0  0.00000000000E+00  0.00000000000E+00  0.45593999997E+02  0.45594000000E+02  0.51100000000E-03 0. -1.
         11   -1    0    0    0    0 -0.00000000000E+00 -0.00000000000E+00 -0.45593999997E+02  0.45594000000E+02  0.51100000000E-03 0.  1.
    9900012    2    1    2    0    0 -0.33942331910E+02  0.21999050143E+02 -0.41382912411E+01  0.50528861333E+02  0.30000004509E+02 0.  0.
         12    1    1    2    0    0  0.33942331910E+02 -0.21999050143E+02  0.41382912411E+01  0.40659138667E+02  0.00000000000E+00 0. -1.
         11    1    3    3    0    0 -0.13000840401E+02  0.88494481016E+01  0.54562730766E+01  0.16646486085E+02  0.51100000000E-03 0. -1.
        -11    1    3    3    0    0 -0.17260023295E+02  0.12886360785E+02  0.20782807784E+01  0.21639915658E+02  0.51100000000E-03 0.  1.
         12    1    3    3    0    0 -0.36814682137E+01  0.26324125654E+00 -0.11672845096E+02  0.12242459590E+02  0.00000000000E+00 0. -1.
</event>
<event>
 7    1  0.2661323E-011  0.5052885E+02  0.7816164E-02  0.1300439E+00
        -11   -1    0    0    0    0  0.00000000000E+00  0.00000000000E+00  0.45593999997E+02  0.45594000000E+02  0.51100000000E-03 0.  1.
         11   -1    0    0    0    0 -0.00000000000E+00 -0.00000000000E+00 -0.45593999997E+02  0.45594000000E+02  0.51100000000E-03 0. -1.
    9900012    2    1    2    0    0  0.33686828567E+02  0.21369304973E+01  0.22667096808E+02  0.50528853814E+02  0.29999981653E+02 0.  0.
         12    1    1    2    0    0 -0.33686828567E+02 -0.21369304973E+01 -0.22667096808E+02  0.40659146186E+02  0.00000000000E+00 0. -1.
         11    1    3    3    0    0  0.64602048484E+01  0.91816747595E+01  0.11136966697E+00  0.11227190278E+02  0.51100000000E-03 0.  1.
        -11    1    3    3    0    0  0.11613974158E+01  0.37848205306E+01  0.27159792299E+01  0.48010679900E+01  0.51100000000E-03 0. -1.
        -12    1    3    3    0    0  0.26065226303E+02 -0.10829564793E+02  0.19839747911E+02  0.34500595546E+02  0.00000000000E+00 0.  1.
</event>
<event>
 7    1  0.2661323E-011  0.5052886E+02  0.7816164E-02  0.1300439E+00
        -11   -1    0    0    0    0  0.00000000000E+00  0.00000000000E+00  0.45593999997E+02  0.45594000000E+02  0.51100000000E-03 0.  1.
         11   -1    0    0    0    0 -0.00000000000E+00 -0.00000000000E+00 -0.45593999997E+02  0.45594000000E+02  0.51100000000E-03 0. -1.
    9900012    2    1    2    0    0  0.39697799376E+02 -0.87825024866E+01 -0.34359930834E+00  0.50528859752E+02  0.29999999703E+02 0.  0.
         12    1    1    2    0    0 -0.39697799376E+02  0.87825024866E+01  0.34359930834E+00  0.40659140248E+02  0.00000000000E+00 0. -1.
         11    1    3    3    0    0  0.87516601126E+01 -0.88849971241E+01  0.81346363229E+01  0.14889829985E+02  0.51100000000E-03 0. -1.
        -11    1    3    3    0    0  0.10914735748E+02 -0.50845436486E+01  0.23756398903E+01  0.12273047939E+02  0.51100000000E-03 0.  1.
         12    1    3    3    0    0  0.20031403515E+02  0.51870382861E+01 -0.10853875522E+02  0.23365981829E+02  0.00000000000E+00 0. -1.
</event>
<event>
 7    1  0.2661323E-011  0.5052886E+02  0.7816164E-02  0.1300439E+00
        -11   -1    0    0    0    0  0.00000000000E+00  0.00000000000E+00  0.45593999997E+02  0.45594000000E+02  0.51100000000E-03 0. -1.
         11   -1    0    0    0    0 -0.00000000000E+00 -0.00000000000E+00 -0.45593999997E+02  0.45594000000E+02  0.51100000000E-03 0.  1.
    9900012    2    1    2    0    0 -0.31345232835E+02  0.12936273234E+02 -0.22434227739E+02  0.50528863746E+02  0.30000011843E+02 0.  0.
         12    1    1    2    0    0  0.31345232835E+02 -0.12936273234E+02  0.22434227739E+02  0.40659136254E+02  0.00000000000E+00 0. -1.
         11    1    3    3    0    0 -0.12728895257E+02  0.13942353009E+02 -0.10304417680E+02  0.21508021896E+02  0.51100000000E-03 0. -1.
        -11    1    3    3    0    0 -0.10525578443E+02  0.17496911590E+01  0.34808560516E+01  0.11223438859E+02  0.51100000000E-03 0.  1.
        -12    1    3    3    0    0 -0.80907591343E+01 -0.27557709333E+01 -0.15610666110E+02  0.17797402990E+02  0.00000000000E+00 0.  1.
</event>
<event>
 7    1  0.2661323E-011  0.5052897E+02  0.7816164E-02  0.1300438E+00
        -11   -1    0    0    0    0  0.00000000000E+00  0.00000000000E+00  0.45593999997E+02  0.45594000000E+02  0.51100000000E-03 0.  1.
         11   -1    0    0    0    0 -0.00000000000E+00 -0.00000000000E+00 -0.45593999997E+02  0.45594000000E+02  0.51100000000E-03 0. -1.
    9900012    2    1    2    0    0  0.19287207520E+02 -0.36322049269E+01  0.35608535671E+02  0.50528965343E+02  0.30000320656E+02 0.  0.
         12    1    1    2    0    0 -0.19287207520E+02  0.36322049269E+01 -0.35608535671E+02  0.40659034657E+02  0.00000000000E+00 0. -1.
         11    1    3    3    0    0  0.59210402854E+01  0.32854245942E+01  0.43367195878E+01  0.80411361056E+01  0.51100000000E-03 0. -1.
        -11    1    3    3    0    0  0.15477036582E+02 -0.36614557993E+01  0.34139740786E+02  0.37662538697E+02  0.51100000000E-03 0.  1.
         12    1    3    3    0    0 -0.21108693467E+01 -0.32561737218E+01 -0.28679247022E+01  0.48252905408E+01  0.00000000000E+00 0. -1.
</event>
<event>
 7    1  0.2661323E-011  0.5052886E+02  0.7816164E-02  0.1300439E+00
        -11   -1    0    0    0    0  0.00000000000E+00  0.00000000000E+00  0.45593999997E+02  0.45594000000E+02  0.51100000000E-03 0.  1.
         11   -1    0    0    0    0 -0.00000000000E+00 -0.00000000000E+00 -0.45593999997E+02  0.45594000000E+02  0.51100000000E-03 0. -1.
    9900012    2    1    2    0    0  0.28441108064E+02  0.25847018454E+02 -0.13274070942E+02  0.50528856499E+02  0.29999989814E+02 0.  0.
         12    1    1    2    0    0 -0.28441108064E+02 -0.25847018454E+02  0.13274070942E+02  0.40659143501E+02  0.00000000000E+00 0. -1.
         11    1    3    3    0    0  0.64556608260E+01 -0.42089511662E+00 -0.43810981110E+01  0.78132407053E+01  0.51100000000E-03 0. -1.
        -11    1    3    3    0    0  0.84792615567E+01 -0.34034994165E+01 -0.27444616196E+01  0.95401129274E+01  0.51100000000E-03 0.  1.
        -12    1    3    3    0    0  0.13506185681E+02  0.29671412987E+02 -0.61485112114E+01  0.33175502866E+02  0.00000000000E+00 0.  1.
</event>
<event>
 7    1  0.2661323E-011  0.5052886E+02  0.7816164E-02  0.1300439E+00
        -11   -1    0    0    0    0  0.00000000000E+00  0.00000000000E+00  0.45593999997E+02  0.45594000000E+02  0.51100000000E-03 0.  1.
         11   -1    0    0    0    0 -0.00000000000E+00 -0.00000000000E+00 -0.45593999997E+02  0.45594000000E+02  0.51100000000E-03 0. -1.
    9900012    2    1    2    0    0 -0.35091659913E+01 -0.20447957076E+02  0.34967591928E+02  0.50528859825E+02  0.29999999924E+02 0.  0.
         12    1    1    2    0    0  0.35091659913E+01  0.20447957076E+02 -0.34967591928E+02  0.40659140175E+02  0.00000000000E+00 0. -1.
         11    1    3    3    0    0 -0.89805148124E+01 -0.44493065039E+01  0.10034851341E+02  0.14182532085E+02  0.51100000000E-03 0. -1.
        -11    1    3    3    0    0 -0.62325620836E+01 -0.86001625431E+01  0.42135093497E+01  0.11426341812E+02  0.51100000000E-03 0.  1.
        -12    1    3    3    0    0  0.11703910905E+02 -0.73984880288E+01  0.20719231238E+02  0.24919985928E+02  0.00000000000E+00 0.  1.
</event>
<event>
 7    1  0.3193926E-011  0.5052883E+02  0.7816164E-02  0.1300439E+00
        -11   -1    0    0    0    0  0.00000000000E+00  0.00000000000E+00  0.45593999997E+02  0.45594000000E+02  0.51100000000E-03 0. -1.
         11   -1    0    0    0    0 -0.00000000000E+00 -0.00000000000E+00 -0.45593999997E+02  0.45594000000E+02  0.51100000000E-03 0.  1.
    9900012    2    1    2    0    0 -0.33666576839E+02 -0.22606668933E+02  0.29441271193E+01  0.50528834234E+02  0.29999922137E+02 0.  0.
         12    1    1    2    0    0  0.33666576839E+02  0.22606668933E+02 -0.29441271193E+01  0.40659165766E+02  0.00000000000E+00 0. -1.
         11    1    3    3    0    0 -0.39320535846E+01  0.24063911003E+01  0.41342216717E+01  0.61922170999E+01  0.51100000000E-03 0. -1.
        -11    1    3    3    0    0 -0.18877238907E+02 -0.15652593487E+02  0.96616668155E+01  0.26357193279E+02  0.51100000000E-03 0.  1.
         12    1    3    3    0    0 -0.10857284348E+02 -0.93604665463E+01 -0.10851761368E+02  0.17979423855E+02  0.00000000000E+00 0. -1.
</event>
<event>
 7    1  0.2661323E-011  0.5052886E+02  0.7816164E-02  0.1300439E+00
        -11   -1    0    0    0    0  0.00000000000E+00  0.00000000000E+00  0.45593999997E+02  0.45594000000E+02  0.51100000000E-03 0. -1.
         11   -1    0    0    0    0 -0.00000000000E+00 -0.00000000000E+00 -0.45593999997E+02  0.45594000000E+02  0.51100000000E-03 0.  1.
    9900012    2    1    2    0    0  0.28063426618E+02 -0.29141326369E+02 -0.40488445829E+01  0.50528856397E+02  0.29999989504E+02 0.  0.
         12    1    1    2    0    0 -0.28063426618E+02  0.29141326369E+02  0.40488445829E+01  0.40659143603E+02  0.00000000000E+00 0. -1.
         11    1    3    3    0    0  0.16641157736E+02 -0.24278497064E-01 -0.23779642958E-01  0.16641192445E+02  0.51100000000E-03 0. -1.
        -11    1    3    3    0    0  0.13072512961E+02 -0.23566823102E+02 -0.20453827790E+00  0.26950465347E+02  0.51100000000E-03 0.  1.
        -12    1    3    3    0    0 -0.16502440792E+01 -0.55502247700E+01 -0.38205266620E+01  0.69371986056E+01  0.00000000000E+00 0.  1.
</event>
<event>
 7    1  0.2661323E-011  0.5052886E+02  0.7816164E-02  0.1300439E+00
        -11   -1    0    0    0    0  0.00000000000E+00  0.00000000000E+00  0.45593999997E+02  0.45594000000E+02  0.51100000000E-03 0. -1.
         11   -1    0    0    0    0 -0.00000000000E+00 -0.00000000000E+00 -0.45593999997E+02  0.45594000000E+02  0.51100000000E-03 0.  1.
    9900012    2    1    2    0    0  0.88625130001E+01 -0.10887266120E+02 -0.38158734662E+02  0.50528859192E+02  0.29999998001E+02 0.  0.
         12    1    1    2    0    0 -0.88625130001E+01  0.10887266120E+02  0.38158734662E+02  0.40659140808E+02  0.00000000000E+00 0. -1.
         11    1    3    3    0    0 -0.40456525940E+01  0.89976663699E+00 -0.14217163208E+01  0.43815707766E+01  0.51100000000E-03 0. -1.
        -11    1    3    3    0    0 -0.16901461166E+01 -0.10244531669E+02 -0.57734831847E+01  0.11880241216E+02  0.51100000000E-03 0.  1.
        -12    1    3    3    0    0  0.14598311711E+02 -0.15425010884E+01 -0.30963535156E+02  0.34267047200E+02  0.00000000000E+00 0.  1.
</event>
<event>
 7    1  0.2661323E-011  0.5052887E+02  0.7816164E-02  0.1300439E+00
        -11   -1    0    0    0    0  0.00000000000E+00  0.00000000000E+00  0.45593999997E+02  0.45594000000E+02  0.51100000000E-03 0.  1.
         11   -1    0    0    0    0 -0.00000000000E+00 -0.00000000000E+00 -0.45593999997E+02  0.45594000000E+02  0.51100000000E-03 0. -1.
    9900012    2    1    2    0    0  0.25873172353E+00  0.40415886080E+02 -0.44333308547E+01  0.50528865575E+02  0.30000017402E+02 0.  0.
         12    1    1    2    0    0 -0.25873172353E+00 -0.40415886080E+02  0.44333308547E+01  0.40659134425E+02  0.00000000000E+00 0. -1.
         11    1    3    3    0    0 -0.37135890306E+01  0.92777958025E+01 -0.86266688859E-01  0.99937820991E+01  0.51100000000E-03 0. -1.
        -11    1    3    3    0    0 -0.36201478540E+01  0.26659142595E+02  0.53495047389E+01  0.27430504107E+02  0.51100000000E-03 0.  1.
        -12    1    3    3    0    0  0.75924686081E+01  0.44789476824E+01 -0.96965689048E+01  0.13104579369E+02  0.00000000000E+00 0.  1.
</event>
<event>
 7    1  0.2661323E-011  0.5052886E+02  0.7816164E-02  0.1300439E+00
        -11   -1    0    0    0    0  0.00000000000E+00  0.00000000000E+00  0.45593999997E+02  0.45594000000E+02  0.51100000000E-03 0.  1.
         11   -1    0    0    0    0 -0.00000000000E+00 -0.00000000000E+00 -0.45593999997E+02  0.45594000000E+02  0.51100000000E-03 0. -1.
    9900012    2    1    2    0    0 -0.18366345814E+02  0.26978335994E+02  0.24248966246E+02  0.50528860369E+02  0.30000001577E+02 0.  0.
         12    1    1    2    0    0  0.18366345814E+02 -0.26978335994E+02 -0.24248966246E+02  0.40659139631E+02  0.00000000000E+00 0. -1.
         11    1    3    3    0    0 -0.14034143185E+02  0.13559616338E+02  0.54132768409E+01  0.20251516896E+02  0.51100000000E-03 0. -1.
        -11    1    3    3    0    0 -0.61777939050E+01  0.15121620052E+02  0.63243009810E+01  0.17516429822E+02  0.51100000000E-03 0.  1.
         12    1    3    3    0    0  0.18455912762E+01 -0.17029003958E+01  0.12511388424E+02  0.12760913651E+02  0.00000000000E+00 0. -1.
</event>
<event>
 7    1  0.2661323E-011  0.5052886E+02  0.7816164E-02  0.1300439E+00
        -11   -1    0    0    0    0  0.00000000000E+00  0.00000000000E+00  0.45593999997E+02  0.45594000000E+02  0.51100000000E-03 0.  1.
         11   -1    0    0    0    0 -0.00000000000E+00 -0.00000000000E+00 -0.45593999997E+02  0.45594000000E+02  0.51100000000E-03 0. -1.
    9900012    2    1    2    0    0  0.37514616495E+01  0.36794816735E+02 -0.16888852494E+02  0.50528863983E+02  0.30000012564E+02 0.  0.
         12    1    1    2    0    0 -0.37514616495E+01 -0.36794816735E+02  0.16888852494E+02  0.40659136017E+02  0.00000000000E+00 0. -1.
         11    1    3    3    0    0  0.60637155729E+01  0.78939753581E+01 -0.12208039589E+02  0.15751816542E+02  0.51100000000E-03 0. -1.
        -11    1    3    3    0    0 -0.31821613966E+01  0.45277303549E+00 -0.54252933401E+01  0.63059466112E+01  0.51100000000E-03 0.  1.
        -12    1    3    3    0    0  0.86990747325E+00  0.28448068341E+02  0.74448043517E+00  0.28471100830E+02  0.00000000000E+00 0.  1.
</event>
<event>
 7    1  0.2661323E-011  0.5052881E+02  0.7816164E-02  0.1300439E+00
        -11   -1    0    0    0    0  0.00000000000E+00  0.00000000000E+00  0.45593999997E+02  0.45594000000E+02  0.51100000000E-03 0. -1.
         11   -1    0    0    0    0 -0.00000000000E+00 -0.00000000000E+00 -0.45593999997E+02  0.45594000000E+02  0.51100000000E-03 0.  1.
    9900012    2    1    2    0    0 -0.33443947674E+02  0.22267100086E+02  0.62328309581E+01  0.50528812059E+02  0.29999854734E+02 0.  0.
         12    1    1    2    0    0  0.33443947674E+02 -0.22267100086E+02 -0.62328309581E+01  0.40659187941E+02  0.00000000000E+00 0. -1.
         11    1    3    3    0    0 -0.73585873993E+01  0.16639903508E+02 -0.18357473171E+01  0.18286748364E+02  0.51100000000E-03 0. -1.
        -11    1    3    3    0    0 -0.77088997044E+01  0.90543068742E+01  0.63214267403E+01  0.13467295345E+02  0.51100000000E-03 0.  1.
         12    1    3    3    0    0 -0.18376460570E+02 -0.34271102961E+01  0.17471515349E+01  0.18774768349E+02  0.00000000000E+00 0. -1.
</event>
<event>
 7    1  0.2661323E-011  0.5052886E+02  0.7816164E-02  0.1300439E+00
        -11   -1    0    0    0    0  0.00000000000E+00  0.00000000000E+00  0.45593999997E+02  0.45594000000E+02  0.51100000000E-03 0.  1.
         11   -1    0    0    0    0 -0.00000000000E+00 -0.00000000000E+00 -0.45593999997E+02  0.45594000000E+02  0.51100000000E-03 0. -1.
    9900012    2    1    2    0    0 -0.39051404637E+01 -0.17894589806E+02  0.36300127392E+02  0.50528859391E+02  0.29999998606E+02 0.  0.
         12    1    1    2    0    0  0.39051404637E+01  0.17894589806E+02 -0.36300127392E+02  0.40659140609E+02  0.00000000000E+00 0. -1.
         11    1    3    3    0    0 -0.22112465913E+01 -0.14155187232E+02  0.13379360645E+02  0.19602709726E+02  0.51100000000E-03 0. -1.
        -11    1    3    3    0    0 -0.26354916510E+01 -0.11765481587E+02  0.17281798282E+02  0.21072088775E+02  0.51100000000E-03 0.  1.
        -12    1    3    3    0    0  0.94159777862E+00  0.80260790126E+01  0.56389684644E+01  0.98540608906E+01  0.00000000000E+00 0.  1.
</event>
<event>
 7    1  0.2661323E-011  0.5052886E+02  0.7816164E-02  0.1300439E+00
        -11   -1    0    0    0    0  0.00000000000E+00  0.00000000000E+00  0.45593999997E+02  0.45594000000E+02  0.51100000000E-03 0.  1.
         11   -1    0    0    0    0 -0.00000000000E+00 -0.00000000000E+00 -0.45593999997E+02  0.45594000000E+02  0.51100000000E-03 0. -1.
    9900012    2    1    2    0    0 -0.18353581725E+02  0.24389392898E+02  0.26860180622E+02  0.50528858948E+02  0.29999997259E+02 0.  0.
         12    1    1    2    0    0  0.18353581725E+02 -0.24389392898E+02 -0.26860180622E+02  0.40659141052E+02  0.00000000000E+00 0. -1.
         11    1    3    3    0    0 -0.32916992685E+01 -0.44208223865E+00  0.10439031563E+02  0.10954638334E+02  0.51100000000E-03 0. -1.
        -11    1    3    3    0    0 -0.64567284314E+01  0.91365408242E+00  0.12163688822E+02  0.13801428616E+02  0.51100000000E-03 0.  1.
        -12    1    3    3    0    0 -0.86051540247E+01  0.23917821054E+02  0.42574602368E+01  0.25772791999E+02  0.00000000000E+00 0.  1.
</event>
<event>
 7    1  0.2661323E-011  0.5052886E+02  0.7816164E-02  0.1300439E+00
        -11   -1    0    0    0    0  0.00000000000E+00  0.00000000000E+00  0.45593999997E+02  0.45594000000E+02  0.51100000000E-03 0.  1.
         11   -1    0    0    0    0 -0.00000000000E+00 -0.00000000000E+00 -0.45593999997E+02  0.45594000000E+02  0.51100000000E-03 0. -1.
    9900012    2    1    2    0    0 -0.43130632810E+01 -0.65415131216E+01  0.39897013691E+02  0.50528860680E+02  0.30000002522E+02 0.  0.
         12    1    1    2    0    0  0.43130632810E+01  0.65415131216E+01 -0.39897013691E+02  0.40659139320E+02  0.00000000000E+00 0. -1.
         11    1    3    3    0    0  0.27221128430E+01  0.13390336266E+01  0.84596580143E+01  0.89871421132E+01  0.51100000000E-03 0. -1.
        -11    1    3    3    0    0  0.38905964372E+01  0.66555049049E+01  0.41635966371E+01  0.87617363230E+01  0.51100000000E-03 0.  1.
        -12    1    3    3    0    0 -0.10925772561E+02 -0.14536051653E+02  0.27273759040E+02  0.32779982244E+02  0.00000000000E+00 0.  1.
</event>
<event>
 7    1  0.2661323E-011  0.5052885E+02  0.7816164E-02  0.1300439E+00
        -11   -1    0    0    0    0  0.00000000000E+00  0.00000000000E+00  0.45593999997E+02  0.45594000000E+02  0.51100000000E-03 0.  1.
         11   -1    0    0    0    0 -0.00000000000E+00 -0.00000000000E+00 -0.45593999997E+02  0.45594000000E+02  0.51100000000E-03 0. -1.
    9900012    2    1    2    0    0 -0.30726829052E+02 -0.30302712040E+01  0.26454596076E+02  0.50528853173E+02  0.29999979706E+02 0.  0.
         12    1    1    2    0    0  0.30726829052E+02  0.30302712040E+01 -0.26454596076E+02  0.40659146827E+02  0.00000000000E+00 0. -1.
         11    1    3    3    0    0 -0.50651228617E+01 -0.45290666723E+01 -0.17945360907E+01  0.70276791736E+01  0.51100000000E-03 0. -1.
        -11    1    3    3    0    0  0.61014173441E+00 -0.14440300206E+01  0.12771628325E+02  0.12867477840E+02  0.51100000000E-03 0.  1.
        -12    1    3    3    0    0 -0.26271847925E+02  0.29428254889E+01  0.15477503841E+02  0.30633696159E+02  0.00000000000E+00 0.  1.
</event>
<event>
 7    1  0.2661323E-011  0.5052886E+02  0.7816164E-02  0.1300439E+00
        -11   -1    0    0    0    0  0.00000000000E+00  0.00000000000E+00  0.45593999997E+02  0.45594000000E+02  0.51100000000E-03 0. -1.
         11   -1    0    0    0    0 -0.00000000000E+00 -0.00000000000E+00 -0.45593999997E+02  0.45594000000E+02  0.51100000000E-03 0.  1.
    9900012    2    1    2    0    0  0.54902382140E+01  0.20718626888E+02 -0.34550853998E+02  0.50528859235E+02  0.29999998129E+02 0.  0.
         12    1    1    2    0    0 -0.54902382140E+01 -0.20718626888E+02  0.34550853998E+02  0.40659140765E+02  0.00000000000E+00 0. -1.
         11    1    3    3    0    0  0.49716563528E+00  0.87312750543E+01  0.27687670116E+01  0.91732441791E+01  0.51100000000E-03 0. -1.
        -11    1    3    3    0    0  0.55176225455E+01  0.95153887062E+01 -0.13552022589E+02  0.17454056758E+02  0.51100000000E-03 0.  1.
        -12    1    3    3    0    0 -0.52454996678E+00  0.24719631276E+01 -0.23767598421E+02  0.23901558298E+02  0.00000000000E+00 0.  1.
</event>
<event>
 7    1  0.2661323E-011  0.5052886E+02  0.7816164E-02  0.1300439E+00
        -11   -1    0    0    0    0  0.00000000000E+00  0.00000000000E+00  0.45593999997E+02  0.45594000000E+02  0.51100000000E-03 0.  1.
         11   -1    0    0    0    0 -0.00000000000E+00 -0.00000000000E+00 -0.45593999997E+02  0.45594000000E+02  0.51100000000E-03 0. -1.
    9900012    2    1    2    0    0  0.37451100247E+02 -0.14403916077E+02  0.65656448001E+01  0.50528863269E+02  0.30000010394E+02 0.  0.
         12    1    1    2    0    0 -0.37451100247E+02  0.14403916077E+02 -0.65656448001E+01  0.40659136731E+02  0.00000000000E+00 0. -1.
         11    1    3    3    0    0  0.13325211785E+02  0.10332213497E+01 -0.13908783390E+01  0.13437386586E+02  0.51100000000E-03 0. -1.
        -11    1    3    3    0    0  0.24285012548E+02 -0.64488613971E+01  0.11233070321E+02  0.27523290444E+02  0.51100000000E-03 0.  1.
         12    1    3    3    0    0 -0.15912408590E+00 -0.89882760297E+01 -0.32765471822E+01  0.95681862386E+01  0.00000000000E+00 0. -1.
</event>
<event>
 7    1  0.2661323E-011  0.5052886E+02  0.7816164E-02  0.1300439E+00
        -11   -1    0    0    0    0  0.00000000000E+00  0.00000000000E+00  0.45593999997E+02  0.45594000000E+02  0.51100000000E-03 0. -1.
         11   -1    0    0    0    0 -0.00000000000E+00 -0.00000000000E+00 -0.45593999997E+02  0.45594000000E+02  0.51100000000E-03 0.  1.
    9900012    2    1    2    0    0  0.93938534460E+01  0.38930711203E+02  0.70228721910E+01  0.50528862144E+02  0.30000006973E+02 0.  0.
         12    1    1    2    0    0 -0.93938534460E+01 -0.38930711203E+02 -0.70228721910E+01  0.40659137856E+02  0.00000000000E+00 0. -1.
         11    1    3    3    0    0  0.72685006875E+01  0.13132964277E+02  0.33211197706E+01  0.15373213384E+02  0.51100000000E-03 0. -1.
        -11    1    3    3    0    0  0.24060260069E+00  0.68534654787E+00 -0.75417505732E+01  0.75766477727E+01  0.51100000000E-03 0.  1.
         12    1    3    3    0    0  0.18847501578E+01  0.25112400378E+02  0.11243502994E+02  0.27579000988E+02  0.00000000000E+00 0. -1.
</event>
<event>
 7    1  0.2661323E-011  0.5052887E+02  0.7816164E-02  0.1300439E+00
        -11   -1    0    0    0    0  0.00000000000E+00  0.00000000000E+00  0.45593999997E+02  0.45594000000E+02  0.51100000000E-03 0.  1.
         11   -1    0    0    0    0 -0.00000000000E+00 -0.00000000000E+00 -0.45593999997E+02  0.45594000000E+02  0.51100000000E-03 0. -1.
    9900012    2    1    2    0    0 -0.24236335145E+02 -0.32420933446E+02 -0.38273140323E+01  0.50528865732E+02  0.30000017878E+02 0.  0.
         12    1    1    2    0    0  0.24236335145E+02  0.32420933446E+02  0.38273140323E+01  0.40659134268E+02  0.00000000000E+00 0. -1.
         11    1    3    3    0    0 -0.35847722058E+01 -0.81470112716E+01 -0.13580275837E+02  0.16237249659E+02  0.51100000000E-03 0. -1.
        -11    1    3    3    0    0 -0.72019955682E+01 -0.14689551775E+02  0.47932178373E+01  0.17047774313E+02  0.51100000000E-03 0.  1.
        -12    1    3    3    0    0 -0.13449567371E+02 -0.95843703989E+01  0.49597439673E+01  0.17243841760E+02  0.00000000000E+00 0.  1.
</event>
<event>
 7    1  0.2661323E-011  0.5052886E+02  0.7816164E-02  0.1300439E+00
        -11   -1    0    0    0    0  0.00000000000E+00  0.00000000000E+00  0.45593999997E+02  0.45594000000E+02  0.51100000000E-03 0.  1.
         11   -1    0    0    0    0 -0.00000000000E+00 -0.00000000000E+00 -0.45593999997E+02  0.45594000000E+02  0.51100000000E-03 0. -1.
    9900012    2    1    2    0    0 -0.40062570113E+02  0.54034409363E+01  0.43541771066E+01  0.50528861344E+02  0.30000004541E+02 0.  0.
         12    1    1    2    0    0  0.40062570113E+02 -0.54034409363E+01 -0.43541771066E+01  0.40659138656E+02  0.00000000000E+00 0. -1.
         11    1    3    3    0    0 -0.11319472485E+02 -0.18868522833E+00  0.10912477184E+02  0.15724128530E+02  0.51100000000E-03 0. -1.
        -11    1    3    3    0    0 -0.12648790627E+02 -0.61777701319E+01 -0.10339118641E+01  0.14114734221E+02  0.51100000000E-03 0.  1.
         12    1    3    3    0    0 -0.16094307000E+02  0.11769896297E+02 -0.55243882136E+01  0.20689998593E+02  0.00000000000E+00 0. -1.
</event>
<event>
 7    1  0.2661323E-011  0.5052886E+02  0.7816164E-02  0.1300439E+00
        -11   -1    0    0    0    0  0.00000000000E+00  0.00000000000E+00  0.45593999997E+02  0.45594000000E+02  0.51100000000E-03 0.  1.
         11   -1    0    0    0    0 -0.00000000000E+00 -0.00000000000E+00 -0.45593999997E+02  0.45594000000E+02  0.51100000000E-03 0. -1.
    9900012    2    1    2    0    0 -0.36615296034E+02  0.52131701195E+01 -0.16891076276E+02  0.50528861985E+02  0.30000006489E+02 0.  0.
         12    1    1    2    0    0  0.36615296034E+02 -0.52131701195E+01  0.16891076276E+02  0.40659138015E+02  0.00000000000E+00 0. -1.
         11    1    3    3    0    0 -0.62373041747E+01  0.13943113737E+01 -0.86963601449E+01  0.10792346714E+02  0.51100000000E-03 0. -1.
        -11    1    3    3    0    0  0.31527064229E+01 -0.28517697692E+01 -0.28879686929E+01  0.51393104633E+01  0.51100000000E-03 0.  1.
        -12    1    3    3    0    0 -0.33530698283E+02  0.66706285150E+01 -0.53067474380E+01  0.34597204807E+02  0.00000000000E+00 0.  1.
</event>
<event>
 7    1  0.2661323E-011  0.5052886E+02  0.7816164E-02  0.1300439E+00
        -11   -1    0    0    0    0  0.00000000000E+00  0.00000000000E+00  0.45593999997E+02  0.45594000000E+02  0.51100000000E-03 0. -1.
         11   -1    0    0    0    0 -0.00000000000E+00 -0.00000000000E+00 -0.45593999997E+02  0.45594000000E+02  0.51100000000E-03 0.  1.
    9900012    2    1    2    0    0  0.23042925046E+02  0.12582692607E+02 -0.31046183187E+02  0.50528855415E+02  0.29999986520E+02 0.  0.
         12    1    1    2    0    0 -0.23042925046E+02 -0.12582692607E+02  0.31046183187E+02  0.40659144585E+02  0.00000000000E+00 0. -1.
         11    1    3    3    0    0 -0.26915973210E+01 -0.73772090974E+00  0.22057378918E+01  0.35572753882E+01  0.51100000000E-03 0.  1.
        -11    1    3    3    0    0 -0.80886653583E+00 -0.21121806264E+01 -0.38224253259E+01  0.44414533324E+01  0.51100000000E-03 0. -1.
        -12    1    3    3    0    0  0.26543388902E+02  0.15432594143E+02 -0.29429495753E+02  0.42530126695E+02  0.00000000000E+00 0.  1.
</event>
<event>
 7    1  0.2661323E-011  0.5052886E+02  0.7816164E-02  0.1300439E+00
        -11   -1    0    0    0    0  0.00000000000E+00  0.00000000000E+00  0.45593999997E+02  0.45594000000E+02  0.51100000000E-03 0.  1.
         11   -1    0    0    0    0 -0.00000000000E+00 -0.00000000000E+00 -0.45593999997E+02  0.45594000000E+02  0.51100000000E-03 0. -1.
    9900012    2    1    2    0    0  0.15965824234E+02  0.46532268063E+01  0.37102637213E+02  0.50528858945E+02  0.29999997248E+02 0.  0.
         12    1    1    2    0    0 -0.15965824234E+02 -0.46532268063E+01 -0.37102637213E+02  0.40659141055E+02  0.00000000000E+00 0. -1.
         11    1    3    3    0    0  0.30885323258E+01  0.11060022860E+02  0.45615115402E+01  0.12355991477E+02  0.51100000000E-03 0. -1.
        -11    1    3    3    0    0  0.13322400694E+02 -0.38791134553E+00  0.26337519885E+02  0.29517821556E+02  0.51100000000E-03 0.  1.
        -12    1    3    3    0    0 -0.44510878615E+00 -0.60188847078E+01  0.62036057878E+01  0.86550459113E+01  0.00000000000E+00 0.  1.
</event>
<event>
 7    1  0.2661323E-011  0.5052886E+02  0.7816164E-02  0.1300439E+00
        -11   -1    0    0    0    0  0.00000000000E+00  0.00000000000E+00  0.45593999997E+02  0.45594000000E+02  0.51100000000E-03 0.  1.
         11   -1    0    0    0    0 -0.00000000000E+00 -0.00000000000E+00 -0.45593999997E+02  0.45594000000E+02  0.51100000000E-03 0. -1.
    9900012    2    1    2    0    0  0.37412742742E+02  0.13973087850E+02  0.76292276195E+01  0.50528860590E+02  0.30000002249E+02 0.  0.
         12    1    1    2    0    0 -0.37412742742E+02 -0.13973087850E+02 -0.76292276195E+01  0.40659139410E+02  0.00000000000E+00 0. -1.
         11    1    3    3    0    0  0.11124483553E+01 -0.70866501252E-01 -0.27247192373E+01  0.29439189166E+01  0.51100000000E-03 0. -1.
        -11    1    3    3    0    0  0.58844456847E+01  0.13128897132E+02 -0.24082011906E+01  0.14587462910E+02  0.51100000000E-03 0.  1.
         12    1    3    3    0    0  0.30415848702E+02  0.91505721932E+00  0.12762148047E+02  0.32997478763E+02  0.00000000000E+00 0. -1.
</event>
<event>
 7    1  0.2661323E-011  0.5052882E+02  0.7816164E-02  0.1300439E+00
        -11   -1    0    0    0    0  0.00000000000E+00  0.00000000000E+00  0.45593999997E+02  0.45594000000E+02  0.51100000000E-03 0.  1.
         11   -1    0    0    0    0 -0.00000000000E+00 -0.00000000000E+00 -0.45593999997E+02  0.45594000000E+02  0.51100000000E-03 0. -1.
    9900012    2    1    2    0    0 -0.45218121382E+01  0.10367167492E+02  0.39054371721E+02  0.50528820258E+02  0.29999879655E+02 0.  0.
         12    1    1    2    0    0  0.45218121382E+01 -0.10367167492E+02 -0.39054371721E+02  0.40659179742E+02  0.00000000000E+00 0. -1.
         11    1    3    3    0    0  0.11083132406E+01  0.87563834230E+00  0.49380820076E+01  0.51361225571E+01  0.51100000000E-03 0.  1.
        -11    1    3    3    0    0 -0.12316959093E+01  0.19207768062E+02  0.20965447333E+02  0.28460594001E+02  0.51100000000E-03 0. -1.
         12    1    3    3    0    0 -0.43984294695E+01 -0.97162389124E+01  0.13150842380E+02  0.16932103700E+02  0.00000000000E+00 0. -1.
</event>
<event>
 7    1  0.2661323E-011  0.5052886E+02  0.7816164E-02  0.1300439E+00
        -11   -1    0    0    0    0  0.00000000000E+00  0.00000000000E+00  0.45593999997E+02  0.45594000000E+02  0.51100000000E-03 0. -1.
         11   -1    0    0    0    0 -0.00000000000E+00 -0.00000000000E+00 -0.45593999997E+02  0.45594000000E+02  0.51100000000E-03 0.  1.
    9900012    2    1    2    0    0 -0.10387894194E+02  0.39115247782E+02 -0.39057391522E+01  0.50528858923E+02  0.29999997182E+02 0.  0.
         12    1    1    2    0    0  0.10387894194E+02 -0.39115247782E+02  0.39057391522E+01  0.40659141077E+02  0.00000000000E+00 0. -1.
         11    1    3    3    0    0 -0.54706451828E+01  0.10604574958E+02 -0.78909216347E+01  0.14305649697E+02  0.51100000000E-03 0.  1.
        -11    1    3    3    0    0 -0.30009883536E+01  0.14798900088E+02 -0.87157505821E+01  0.17434955790E+02  0.51100000000E-03 0. -1.
         12    1    3    3    0    0 -0.19162606572E+01  0.13711772736E+02  0.12700933065E+02  0.18788253436E+02  0.00000000000E+00 0. -1.
</event>
<event>
 7    1  0.2661323E-011  0.5052885E+02  0.7816164E-02  0.1300439E+00
        -11   -1    0    0    0    0  0.00000000000E+00  0.00000000000E+00  0.45593999997E+02  0.45594000000E+02  0.51100000000E-03 0.  1.
         11   -1    0    0    0    0 -0.00000000000E+00 -0.00000000000E+00 -0.45593999997E+02  0.45594000000E+02  0.51100000000E-03 0. -1.
    9900012    2    1    2    0    0  0.58081010986E+01  0.38991092027E+02 -0.99562649970E+01  0.50528849634E+02  0.29999968948E+02 0.  0.
         12    1    1    2    0    0 -0.58081010986E+01 -0.38991092027E+02  0.99562649970E+01  0.40659150366E+02  0.00000000000E+00 0. -1.
         11    1    3    3    0    0 -0.10484905789E+00  0.68132866194E+01  0.15927435732E+01  0.69977639453E+01  0.51100000000E-03 0. -1.
        -11    1    3    3    0    0 -0.69626688040E+01  0.26985864145E+02 -0.55975087864E+01  0.28426180281E+02  0.51100000000E-03 0.  1.
        -12    1    3    3    0    0  0.12875618961E+02  0.51919412624E+01 -0.59514997838E+01  0.15104905407E+02  0.00000000000E+00 0.  1.
</event>
<event>
 7    1  0.2661323E-011  0.5052887E+02  0.7816164E-02  0.1300439E+00
        -11   -1    0    0    0    0  0.00000000000E+00  0.00000000000E+00  0.45593999997E+02  0.45594000000E+02  0.51100000000E-03 0. -1.
         11   -1    0    0    0    0 -0.00000000000E+00 -0.00000000000E+00 -0.45593999997E+02  0.45594000000E+02  0.51100000000E-03 0.  1.
    9900012    2    1    2    0    0 -0.99646397677E+01  0.14874991024E+02 -0.36504874335E+02  0.50528865062E+02  0.30000015843E+02 0.  0.
         12    1    1    2    0    0  0.99646397677E+01 -0.14874991024E+02  0.36504874335E+02  0.40659134938E+02  0.00000000000E+00 0. -1.
         11    1    3    3    0    0 -0.12190873134E+02  0.82743148648E+00 -0.27782757609E+02  0.30351007417E+02  0.51100000000E-03 0.  1.
        -11    1    3    3    0    0 -0.27031025696E+01  0.13892868991E+01 -0.53949816721E+01  0.61921489884E+01  0.51100000000E-03 0. -1.
         12    1    3    3    0    0  0.49293359358E+01  0.12658272639E+02 -0.33271350540E+01  0.13985708657E+02  0.00000000000E+00 0. -1.
</event>
<event>
 7    1  0.2661323E-011  0.5052886E+02  0.7816164E-02  0.1300439E+00
        -11   -1    0    0    0    0  0.00000000000E+00  0.00000000000E+00  0.45593999997E+02  0.45594000000E+02  0.51100000000E-03 0.  1.
         11   -1    0    0    0    0 -0.00000000000E+00 -0.00000000000E+00 -0.45593999997E+02  0.45594000000E+02  0.51100000000E-03 0. -1.
    9900012    2    1    2    0    0  0.26674119790E+02  0.19150613806E+02  0.23977306783E+02  0.50528856917E+02  0.29999991085E+02 0.  0.
         12    1    1    2    0    0 -0.26674119790E+02 -0.19150613806E+02 -0.23977306783E+02  0.40659143083E+02  0.00000000000E+00 0. -1.
         11    1    3    3    0    0  0.15097863129E+02 -0.15513898181E+01  0.43867324457E+01  0.15798598142E+02  0.51100000000E-03 0. -1.
        -11    1    3    3    0    0 -0.30497483908E+01  0.43252704732E+00  0.18435362957E+00  0.30857788994E+01  0.51100000000E-03 0.  1.
        -12    1    3    3    0    0  0.14626005051E+02  0.20269476576E+02  0.19406220708E+02  0.31644479875E+02  0.00000000000E+00 0.  1.
</event>
<event>
 7    1  0.2661323E-011  0.5052887E+02  0.7816164E-02  0.1300439E+00
        -11   -1    0    0    0    0  0.00000000000E+00  0.00000000000E+00  0.45593999997E+02  0.45594000000E+02  0.51100000000E-03 0.  1.
         11   -1    0    0    0    0 -0.00000000000E+00 -0.00000000000E+00 -0.45593999997E+02  0.45594000000E+02  0.51100000000E-03 0. -1.
    9900012    2    1    2    0    0  0.38024272173E+02  0.15316877937E+01  0.14316903760E+02  0.50528867262E+02  0.30000022528E+02 0.  0.
         12    1    1    2    0    0 -0.38024272173E+02 -0.15316877937E+01 -0.14316903760E+02  0.40659132738E+02  0.00000000000E+00 0. -1.
         11    1    3    3    0    0  0.77275933255E+01  0.15844904346E+01 -0.86304898989E+01  0.11692376349E+02  0.51100000000E-03 0. -1.
        -11    1    3    3    0    0  0.14692251541E+02 -0.32679914897E+01  0.82680745259E+01  0.17172742365E+02  0.51100000000E-03 0.  1.
        -12    1    3    3    0    0  0.15604427306E+02  0.32151888488E+01  0.14679319133E+02  0.21663748547E+02  0.00000000000E+00 0.  1.
</event>
<event>
 7    1  0.2661323E-011  0.5052884E+02  0.7816164E-02  0.1300439E+00
        -11   -1    0    0    0    0  0.00000000000E+00  0.00000000000E+00  0.45593999997E+02  0.45594000000E+02  0.51100000000E-03 0.  1.
         11   -1    0    0    0    0 -0.00000000000E+00 -0.00000000000E+00 -0.45593999997E+02  0.45594000000E+02  0.51100000000E-03 0. -1.
    9900012    2    1    2    0    0  0.68710005458E+00  0.35456259757E+02  0.19888401760E+02  0.50528843750E+02  0.29999951062E+02 0.  0.
         12    1    1    2    0    0 -0.68710005458E+00 -0.35456259757E+02 -0.19888401760E+02  0.40659156250E+02  0.00000000000E+00 0. -1.
         11    1    3    3    0    0  0.37509535903E+01  0.13999019055E+02  0.37029799447E+01  0.14958417298E+02  0.51100000000E-03 0. -1.
        -11    1    3    3    0    0  0.95461725543E+01  0.11997116394E+02  0.11368802449E+02  0.19086903405E+02  0.51100000000E-03 0.  1.
        -12    1    3    3    0    0 -0.12610026090E+02  0.94601243079E+01  0.48166193663E+01  0.16483523047E+02  0.00000000000E+00 0.  1.
</event>
<event>
 7    1  0.2661323E-011  0.5052886E+02  0.7816164E-02  0.1300439E+00
        -11   -1    0    0    0    0  0.00000000000E+00  0.00000000000E+00  0.45593999997E+02  0.45594000000E+02  0.51100000000E-03 0.  1.
         11   -1    0    0    0    0 -0.00000000000E+00 -0.00000000000E+00 -0.45593999997E+02  0.45594000000E+02  0.51100000000E-03 0. -1.
    9900012    2    1    2    0    0  0.23152180825E+02  0.67749711088E+01  0.32729828748E+02  0.50528863261E+02  0.30000010368E+02 0.  0.
         12    1    1    2    0    0 -0.23152180825E+02 -0.67749711088E+01 -0.32729828748E+02  0.40659136739E+02  0.00000000000E+00 0. -1.
         11    1    3    3    0    0  0.98977497044E+01  0.21216657593E+01  0.27129414109E+01  0.10479836171E+02  0.51100000000E-03 0. -1.
        -11    1    3    3    0    0  0.12303795527E+02 -0.24698170041E+01  0.30363277838E+02  0.32854406428E+02  0.51100000000E-03 0.  1.
         12    1    3    3    0    0  0.95063559287E+00  0.71231223536E+01 -0.34639050020E+00  0.71946206623E+01  0.00000000000E+00 0. -1.
</event>
<event>
 7    1  0.2661323E-011  0.5052887E+02  0.7816164E-02  0.1300439E+00
        -11   -1    0    0    0    0  0.00000000000E+00  0.00000000000E+00  0.45593999997E+02  0.45594000000E+02  0.51100000000E-03 0. -1.
         11   -1    0    0    0    0 -0.00000000000E+00 -0.00000000000E+00 -0.45593999997E+02  0.45594000000E+02  0.51100000000E-03 0.  1.
    9900012    2    1    2    0    0 -0.39857460861E+01 -0.40047853111E+02  0.57834439663E+01  0.50528868987E+02  0.30000027772E+02 0.  0.
         12    1    1    2    0    0  0.39857460861E+01  0.40047853111E+02 -0.57834439663E+01  0.40659131013E+02  0.00000000000E+00 0. -1.
         11    1    3    3    0    0 -0.76863832119E+01 -0.15437197714E+02 -0.49544502119E+01  0.17942523159E+02  0.51100000000E-03 0.  1.
        -11    1    3    3    0    0  0.47429479767E+01  0.12168318278E+01  0.21588266706E+01  0.53513332976E+01  0.51100000000E-03 0. -1.
         12    1    3    3    0    0 -0.10423108509E+01 -0.25827487224E+02  0.85790675076E+01  0.27235012531E+02  0.00000000000E+00 0. -1.
</event>
<event>
 7    1  0.2661323E-011  0.5052885E+02  0.7816164E-02  0.1300439E+00
        -11   -1    0    0    0    0  0.00000000000E+00  0.00000000000E+00  0.45593999997E+02  0.45594000000E+02  0.51100000000E-03 0.  1.
         11   -1    0    0    0    0 -0.00000000000E+00 -0.00000000000E+00 -0.45593999997E+02  0.45594000000E+02  0.51100000000E-03 0. -1.
    9900012    2    1    2    0    0 -0.29015943605E+02 -0.19712564781E+01  0.28413998713E+02  0.50528853941E+02  0.29999982039E+02 0.  0.
         12    1    1    2    0    0  0.29015943605E+02  0.19712564781E+01 -0.28413998713E+02  0.40659146059E+02  0.00000000000E+00 0. -1.
         11    1    3    3    0    0 -0.12238987084E+02  0.23077610320E+01  0.30613069604E+01  0.12825371979E+02  0.51100000000E-03 0. -1.
        -11    1    3    3    0    0 -0.74294954223E+01 -0.97773702521E+01  0.26773927945E+01  0.12568325414E+02  0.51100000000E-03 0.  1.
         12    1    3    3    0    0 -0.93474610985E+01  0.54983527421E+01  0.22675298958E+02  0.25135156548E+02  0.00000000000E+00 0. -1.
</event>
<event>
 7    1  0.2661323E-011  0.5052885E+02  0.7816164E-02  0.1300439E+00
        -11   -1    0    0    0    0  0.00000000000E+00  0.00000000000E+00  0.45593999997E+02  0.45594000000E+02  0.51100000000E-03 0.  1.
         11   -1    0    0    0    0 -0.00000000000E+00 -0.00000000000E+00 -0.45593999997E+02  0.45594000000E+02  0.51100000000E-03 0. -1.
    9900012    2    1    2    0    0  0.22600686748E+01 -0.13139276414E+02  0.38411168767E+02  0.50528851200E+02  0.29999973707E+02 0.  0.
         12    1    1    2    0    0 -0.22600686748E+01  0.13139276414E+02 -0.38411168767E+02  0.40659148800E+02  0.00000000000E+00 0. -1.
         11    1    3    3    0    0  0.17978221768E+01  0.88818353847E+00  0.19215576707E+01  0.27773042181E+01  0.51100000000E-03 0. -1.
        -11    1    3    3    0    0  0.13512484448E+02 -0.74395630115E+01  0.23970911004E+02  0.28505068118E+02  0.51100000000E-03 0.  1.
         12    1    3    3    0    0 -0.13050237950E+02 -0.65878969415E+01  0.12518700092E+02  0.19246478864E+02  0.00000000000E+00 0. -1.
</event>
<event>
 7    1  0.2661323E-011  0.5052886E+02  0.7816164E-02  0.1300439E+00
        -11   -1    0    0    0    0  0.00000000000E+00  0.00000000000E+00  0.45593999997E+02  0.45594000000E+02  0.51100000000E-03 0.  1.
         11   -1    0    0    0    0 -0.00000000000E+00 -0.00000000000E+00 -0.45593999997E+02  0.45594000000E+02  0.51100000000E-03 0. -1.
    9900012    2    1    2    0    0  0.27030998656E+02  0.99868672685E+01  0.28683678486E+02  0.50528858129E+02  0.29999994770E+02 0.  0.
         12    1    1    2    0    0 -0.27030998656E+02 -0.99868672685E+01 -0.28683678486E+02  0.40659141871E+02  0.00000000000E+00 0. -1.
         11    1    3    3    0    0  0.56543193011E+01  0.45232117009E+01  0.11175484655E+02  0.13316239274E+02  0.51100000000E-03 0. -1.
        -11    1    3    3    0    0  0.10206536850E+02  0.13609045595E+02  0.15917310547E+02  0.23296787156E+02  0.51100000000E-03 0.  1.
         12    1    3    3    0    0  0.11170142505E+02 -0.81453900270E+01  0.15908832833E+01  0.13915831700E+02  0.00000000000E+00 0. -1.
</event>
<event>
 7    1  0.2661323E-011  0.5052884E+02  0.7816164E-02  0.1300439E+00
        -11   -1    0    0    0    0  0.00000000000E+00  0.00000000000E+00  0.45593999997E+02  0.45594000000E+02  0.51100000000E-03 0.  1.
         11   -1    0    0    0    0 -0.00000000000E+00 -0.00000000000E+00 -0.45593999997E+02  0.45594000000E+02  0.51100000000E-03 0. -1.
    9900012    2    1    2    0    0  0.27779267185E+02 -0.26367204280E+01  0.29572405057E+02  0.50528842104E+02  0.29999946060E+02 0.  0.
         12    1    1    2    0    0 -0.27779267185E+02  0.26367204280E+01 -0.29572405057E+02  0.40659157896E+02  0.00000000000E+00 0. -1.
         11    1    3    3    0    0 -0.29091773569E+01  0.42955976315E+01  0.72004434431E+01  0.88747877689E+01  0.51100000000E-03 0. -1.
        -11    1    3    3    0    0  0.50079723283E+01 -0.74974497544E+01  0.88148134384E+01  0.12609221858E+02  0.51100000000E-03 0.  1.
        -12    1    3    3    0    0  0.25680472214E+02  0.56513169494E+00  0.13557148175E+02  0.29044832477E+02  0.00000000000E+00 0.  1.
</event>
<event>
 7    1  0.2661323E-011  0.5052886E+02  0.7816164E-02  0.1300439E+00
        -11   -1    0    0    0    0  0.00000000000E+00  0.00000000000E+00  0.45593999997E+02  0.45594000000E+02  0.51100000000E-03 0.  1.
         11   -1    0    0    0    0 -0.00000000000E+00 -0.00000000000E+00 -0.45593999997E+02  0.45594000000E+02  0.51100000000E-03 0. -1.
    9900012    2    1    2    0    0 -0.13169775075E+02 -0.18462301396E+02  0.33747095923E+02  0.50528855498E+02  0.29999986773E+02 0.  0.
         12    1    1    2    0    0  0.13169775075E+02  0.18462301396E+02 -0.33747095923E+02  0.40659144502E+02  0.00000000000E+00 0. -1.
         11    1    3    3    0    0  0.26446673385E+01 -0.43654025946E+01  0.20660487730E+02  0.21281606111E+02  0.51100000000E-03 0. -1.
        -11    1    3    3    0    0  0.26156943067E+00 -0.84808041524E+01  0.75031018488E+01  0.11326473205E+02  0.51100000000E-03 0.  1.
         12    1    3    3    0    0 -0.16076011844E+02 -0.56160946494E+01  0.55835063443E+01  0.17920776183E+02  0.00000000000E+00 0. -1.
</event>
<event>
 7    1  0.2661323E-011  0.5052893E+02  0.7816164E-02  0.1300439E+00
        -11   -1    0    0    0    0  0.00000000000E+00  0.00000000000E+00  0.45593999997E+02  0.45594000000E+02  0.51100000000E-03 0. -1.
         11   -1    0    0    0    0 -0.00000000000E+00 -0.00000000000E+00 -0.45593999997E+02  0.45594000000E+02  0.51100000000E-03 0.  1.
    9900012    2    1    2    0    0 -0.74131655596E+01  0.32159767488E+02  0.23747717199E+02  0.50528932861E+02  0.30000221923E+02 0.  0.
         12    1    1    2    0    0  0.74131655596E+01 -0.32159767488E+02 -0.23747717199E+02  0.40659067139E+02  0.00000000000E+00 0. -1.
         11    1    3    3    0    0 -0.12038340280E+02  0.47119926071E+01  0.10932290401E+02  0.16930430730E+02  0.51100000000E-03 0. -1.
        -11    1    3    3    0    0 -0.20197296057E+01  0.13844870234E+02  0.36314666596E+00  0.13996128580E+02  0.51100000000E-03 0.  1.
        -12    1    3    3    0    0  0.66449043263E+01  0.13602904647E+02  0.12452280132E+02  0.19602373550E+02  0.00000000000E+00 0.  1.
</event>
<event>
 7    1  0.2661323E-011  0.5052886E+02  0.7816164E-02  0.1300439E+00
        -11   -1    0    0    0    0  0.00000000000E+00  0.00000000000E+00  0.45593999997E+02  0.45594000000E+02  0.51100000000E-03 0. -1.
         11   -1    0    0    0    0 -0.00000000000E+00 -0.00000000000E+00 -0.45593999997E+02  0.45594000000E+02  0.51100000000E-03 0.  1.
    9900012    2    1    2    0    0  0.13733213824E+02  0.14414243048E+02 -0.35451295170E+02  0.50528857192E+02  0.29999991922E+02 0.  0.
         12    1    1    2    0    0 -0.13733213824E+02 -0.14414243048E+02  0.35451295170E+02  0.40659142808E+02  0.00000000000E+00 0. -1.
         11    1    3    3    0    0 -0.61762486341E+01  0.74385644436E+01 -0.44414864363E+01  0.10639788071E+02  0.51100000000E-03 0. -1.
        -11    1    3    3    0    0  0.94731654154E+01  0.10239803445E+02 -0.14821441100E+02  0.20353612803E+02  0.51100000000E-03 0.  1.
         12    1    3    3    0    0  0.10436297042E+02 -0.32641248402E+01 -0.16188367634E+02  0.19535456318E+02  0.00000000000E+00 0. -1.
</event>
<event>
 7    1  0.2661323E-011  0.5052884E+02  0.7816164E-02  0.1300439E+00
        -11   -1    0    0    0    0  0.00000000000E+00  0.00000000000E+00  0.45593999997E+02  0.45594000000E+02  0.51100000000E-03 0.  1.
         11   -1    0    0    0    0 -0.00000000000E+00 -0.00000000000E+00 -0.45593999997E+02  0.45594000000E+02  0.51100000000E-03 0. -1.
    9900012    2    1    2    0    0 -0.18847198262E+02 -0.30644360607E+02  0.18943948760E+02  0.50528844648E+02  0.29999953792E+02 0.  0.
         12    1    1    2    0    0  0.18847198262E+02  0.30644360607E+02 -0.18943948760E+02  0.40659155352E+02  0.00000000000E+00 0. -1.
         11    1    3    3    0    0  0.15548910792E+01 -0.27185234314E+01  0.77607526443E+01  0.83688313272E+01  0.51100000000E-03 0. -1.
        -11    1    3    3    0    0 -0.19605343709E+02 -0.31369784752E+02  0.11108795775E+02  0.38624321886E+02  0.51100000000E-03 0.  1.
         12    1    3    3    0    0 -0.79674563266E+00  0.34439475764E+01  0.74400340025E-01  0.35356914349E+01  0.00000000000E+00 0. -1.
</event>
<event>
 7    1  0.2661323E-011  0.5052888E+02  0.7816164E-02  0.1300439E+00
        -11   -1    0    0    0    0  0.00000000000E+00  0.00000000000E+00  0.45593999997E+02  0.45594000000E+02  0.51100000000E-03 0. -1.
         11   -1    0    0    0    0 -0.00000000000E+00 -0.00000000000E+00 -0.45593999997E+02  0.45594000000E+02  0.51100000000E-03 0.  1.
    9900012    2    1    2    0    0  0.37204083124E+02  0.14567700624E+02  0.75367586210E+01  0.50528875157E+02  0.30000046526E+02 0.  0.
         12    1    1    2    0    0 -0.37204083124E+02 -0.14567700624E+02 -0.75367586210E+01  0.40659124843E+02  0.00000000000E+00 0. -1.
         11    1    3    3    0    0  0.37814788179E+02  0.10931619902E+02  0.27038991601E+00  0.39364090611E+02  0.51100000000E-03 0.  1.
        -11    1    3    3    0    0  0.21084397529E+01  0.11884517105E+01  0.71014492249E+01  0.75025673615E+01  0.51100000000E-03 0. -1.
        -12    1    3    3    0    0 -0.27191448083E+01  0.24476290111E+01  0.16491948008E+00  0.36622171835E+01  0.00000000000E+00 0.  1.
</event>
<event>
 7    1  0.2661323E-011  0.5052886E+02  0.7816164E-02  0.1300439E+00
        -11   -1    0    0    0    0  0.00000000000E+00  0.00000000000E+00  0.45593999997E+02  0.45594000000E+02  0.51100000000E-03 0.  1.
         11   -1    0    0    0    0 -0.00000000000E+00 -0.00000000000E+00 -0.45593999997E+02  0.45594000000E+02  0.51100000000E-03 0. -1.
    9900012    2    1    2    0    0 -0.11277033687E+02  0.68651995245E+01  0.38455991014E+02  0.50528859599E+02  0.29999999237E+02 0.  0.
         12    1    1    2    0    0  0.11277033687E+02 -0.68651995245E+01 -0.38455991014E+02  0.40659140401E+02  0.00000000000E+00 0. -1.
         11    1    3    3    0    0  0.54292367942E+01  0.17833626595E+01  0.10720539763E+02  0.12148537674E+02  0.51100000000E-03 0.  1.
        -11    1    3    3    0    0 -0.10304143855E+02 -0.19387454478E+01  0.16444197692E+01  0.10613115996E+02  0.51100000000E-03 0. -1.
         12    1    3    3    0    0 -0.64021266264E+01  0.70205823128E+01  0.26091031482E+02  0.27767205930E+02  0.00000000000E+00 0. -1.
</event>
<event>
 7    1  0.2661323E-011  0.5052888E+02  0.7816164E-02  0.1300439E+00
        -11   -1    0    0    0    0  0.00000000000E+00  0.00000000000E+00  0.45593999997E+02  0.45594000000E+02  0.51100000000E-03 0.  1.
         11   -1    0    0    0    0 -0.00000000000E+00 -0.00000000000E+00 -0.45593999997E+02  0.45594000000E+02  0.51100000000E-03 0. -1.
    9900012    2    1    2    0    0 -0.12206383222E+02 -0.38693315564E+02 -0.26449832218E+01  0.50528875601E+02  0.30000047875E+02 0.  0.
         12    1    1    2    0    0  0.12206383222E+02  0.38693315564E+02  0.26449832218E+01  0.40659124399E+02  0.00000000000E+00 0. -1.
         11    1    3    3    0    0  0.45118139315E+01 -0.16287994277E+02 -0.49713144039E+01  0.17617298025E+02  0.51100000000E-03 0. -1.
        -11    1    3    3    0    0 -0.10600768335E+02 -0.21646895497E+02  0.70864347983E+01  0.25123334420E+02  0.51100000000E-03 0.  1.
         12    1    3    3    0    0 -0.61174288183E+01 -0.75842578997E+00 -0.47601036162E+01  0.77882431563E+01  0.00000000000E+00 0. -1.
</event>
<event>
 7    1  0.2661323E-011  0.5052886E+02  0.7816164E-02  0.1300439E+00
        -11   -1    0    0    0    0  0.00000000000E+00  0.00000000000E+00  0.45593999997E+02  0.45594000000E+02  0.51100000000E-03 0. -1.
         11   -1    0    0    0    0 -0.00000000000E+00 -0.00000000000E+00 -0.45593999997E+02  0.45594000000E+02  0.51100000000E-03 0.  1.
    9900012    2    1    2    0    0 -0.24339567803E+02  0.27881947703E+02 -0.16832944929E+02  0.50528860762E+02  0.30000002774E+02 0.  0.
         12    1    1    2    0    0  0.24339567803E+02 -0.27881947703E+02  0.16832944929E+02  0.40659139238E+02  0.00000000000E+00 0. -1.
         11    1    3    3    0    0 -0.15364202190E+02  0.16746639381E+02 -0.97162997942E+01  0.24716697219E+02  0.51100000000E-03 0. -1.
        -11    1    3    3    0    0 -0.14405334182E+02  0.59331785275E+01 -0.90906439066E+01  0.18037629202E+02  0.51100000000E-03 0.  1.
         12    1    3    3    0    0  0.54299685694E+01  0.52021297949E+01  0.19739987716E+01  0.77745343409E+01  0.00000000000E+00 0. -1.
</event>
<event>
 7    1  0.2661323E-011  0.5052886E+02  0.7816164E-02  0.1300439E+00
        -11   -1    0    0    0    0  0.00000000000E+00  0.00000000000E+00  0.45593999997E+02  0.45594000000E+02  0.51100000000E-03 0.  1.
         11   -1    0    0    0    0 -0.00000000000E+00 -0.00000000000E+00 -0.45593999997E+02  0.45594000000E+02  0.51100000000E-03 0. -1.
    9900012    2    1    2    0    0  0.30160143916E+02 -0.25699031520E+02  0.91154415023E+01  0.50528858643E+02  0.29999996332E+02 0.  0.
         12    1    1    2    0    0 -0.30160143916E+02  0.25699031520E+02 -0.91154415023E+01  0.40659141357E+02  0.00000000000E+00 0. -1.
         11    1    3    3    0    0  0.14043868847E+02 -0.16734345901E+02 -0.41926841029E+01  0.22245160938E+02  0.51100000000E-03 0. -1.
        -11    1    3    3    0    0  0.58668012115E+01 -0.10778870985E+02  0.12212696716E+01  0.12332676759E+02  0.51100000000E-03 0.  1.
         12    1    3    3    0    0  0.10249473857E+02  0.18141853652E+01  0.12086855934E+02  0.15951020947E+02  0.00000000000E+00 0. -1.
</event>
<event>
 7    1  0.2661323E-011  0.5052886E+02  0.7816164E-02  0.1300439E+00
        -11   -1    0    0    0    0  0.00000000000E+00  0.00000000000E+00  0.45593999997E+02  0.45594000000E+02  0.51100000000E-03 0.  1.
         11   -1    0    0    0    0 -0.00000000000E+00 -0.00000000000E+00 -0.45593999997E+02  0.45594000000E+02  0.51100000000E-03 0. -1.
    9900012    2    1    2    0    0 -0.12227249120E+02 -0.79045817235E+01  0.37962846683E+02  0.50528858819E+02  0.29999996867E+02 0.  0.
         12    1    1    2    0    0  0.12227249120E+02  0.79045817235E+01 -0.37962846683E+02  0.40659141181E+02  0.00000000000E+00 0. -1.
         11    1    3    3    0    0  0.27577064957E+01 -0.15417987347E+01  0.85687262663E+01  0.91326424731E+01  0.51100000000E-03 0. -1.
        -11    1    3    3    0    0  0.47188609361E+01 -0.80730117969E+01  0.87352611151E+01  0.12796325841E+02  0.51100000000E-03 0.  1.
        -12    1    3    3    0    0 -0.19703816551E+02  0.17102288081E+01  0.20658859302E+02  0.28599890505E+02  0.00000000000E+00 0.  1.
</event>
<event>
 7    1  0.2661323E-011  0.5052886E+02  0.7816164E-02  0.1300439E+00
        -11   -1    0    0    0    0  0.00000000000E+00  0.00000000000E+00  0.45593999997E+02  0.45594000000E+02  0.51100000000E-03 0. -1.
         11   -1    0    0    0    0 -0.00000000000E+00 -0.00000000000E+00 -0.45593999997E+02  0.45594000000E+02  0.51100000000E-03 0.  1.
    9900012    2    1    2    0    0 -0.31368033026E+02 -0.17577005844E+02 -0.18980549378E+02  0.50528857300E+02  0.29999992250E+02 0.  0.
         12    1    1    2    0    0  0.31368033026E+02  0.17577005844E+02  0.18980549378E+02  0.40659142700E+02  0.00000000000E+00 0. -1.
         11    1    3    3    0    0 -0.18014661269E+02 -0.78271652709E+01 -0.11333911602E+02  0.22677082909E+02  0.51100000000E-03 0.  1.
        -11    1    3    3    0    0 -0.13221431620E+02 -0.12734807807E+02  0.13160483629E+01  0.18404172557E+02  0.51100000000E-03 0. -1.
         12    1    3    3    0    0 -0.13194013774E+00  0.29849672342E+01 -0.89626861387E+01  0.94476018338E+01  0.00000000000E+00 0. -1.
</event>
<event>
 7    1  0.2661323E-011  0.5052882E+02  0.7816164E-02  0.1300439E+00
        -11   -1    0    0    0    0  0.00000000000E+00  0.00000000000E+00  0.45593999997E+02  0.45594000000E+02  0.51100000000E-03 0.  1.
         11   -1    0    0    0    0 -0.00000000000E+00 -0.00000000000E+00 -0.45593999997E+02  0.45594000000E+02  0.51100000000E-03 0. -1.
    9900012    2    1    2    0    0  0.17069148299E+02  0.19700065844E+02  0.31204495300E+02  0.50528819673E+02  0.29999877879E+02 0.  0.
         12    1    1    2    0    0 -0.17069148299E+02 -0.19700065844E+02 -0.31204495300E+02  0.40659180327E+02  0.00000000000E+00 0. -1.
         11    1    3    3    0    0 -0.27678371233E+01 -0.31168309280E+01  0.56336476235E+01  0.70081055344E+01  0.51100000000E-03 0. -1.
        -11    1    3    3    0    0 -0.12596021006E+00  0.76286187629E+01  0.13896387427E+02  0.15853115593E+02  0.51100000000E-03 0.  1.
        -12    1    3    3    0    0  0.19962945632E+02  0.15188278009E+02  0.11674460249E+02  0.27667598546E+02  0.00000000000E+00 0.  1.
</event>
<event>
 7    1  0.2661323E-011  0.5052882E+02  0.7816164E-02  0.1300439E+00
        -11   -1    0    0    0    0  0.00000000000E+00  0.00000000000E+00  0.45593999997E+02  0.45594000000E+02  0.51100000000E-03 0.  1.
         11   -1    0    0    0    0 -0.00000000000E+00 -0.00000000000E+00 -0.45593999997E+02  0.45594000000E+02  0.51100000000E-03 0. -1.
    9900012    2    1    2    0    0  0.35845210963E+02  0.18965635249E+02 -0.29316165405E+01  0.50528820902E+02  0.29999881613E+02 0.  0.
         12    1    1    2    0    0 -0.35845210963E+02 -0.18965635249E+02  0.29316165405E+01  0.40659179098E+02  0.00000000000E+00 0. -1.
         11    1    3    3    0    0  0.18581095469E+02  0.12456345436E+02 -0.41463563604E+01  0.22751042213E+02  0.51100000000E-03 0.  1.
        -11    1    3    3    0    0 -0.29123719023E+01  0.24902118671E+01  0.55585258943E+01  0.67513165841E+01  0.51100000000E-03 0. -1.
         12    1    3    3    0    0  0.20176487396E+02  0.40190779461E+01 -0.43437860743E+01  0.21026462105E+02  0.00000000000E+00 0. -1.
</event>
<event>
 7    1  0.2661323E-011  0.5052886E+02  0.7816164E-02  0.1300439E+00
        -11   -1    0    0    0    0  0.00000000000E+00  0.00000000000E+00  0.45593999997E+02  0.45594000000E+02  0.51100000000E-03 0.  1.
         11   -1    0    0    0    0 -0.00000000000E+00 -0.00000000000E+00 -0.45593999997E+02  0.45594000000E+02  0.51100000000E-03 0. -1.
    9900012    2    1    2    0    0  0.27790279776E+02 -0.12252123992E+02  0.27032410577E+02  0.50528863094E+02  0.30000009860E+02 0.  0.
         12    1    1    2    0    0 -0.27790279776E+02  0.12252123992E+02 -0.27032410577E+02  0.40659136906E+02  0.00000000000E+00 0. -1.
         11    1    3    3    0    0  0.10011933955E+02  0.23111099666E+01  0.41882096330E+01  0.11095997070E+02  0.51100000000E-03 0.  1.
        -11    1    3    3    0    0  0.22676745446E+02 -0.88353167365E+01  0.15177350543E+02  0.28681868412E+02  0.51100000000E-03 0. -1.
         12    1    3    3    0    0 -0.48983996239E+01 -0.57279172217E+01  0.76668504006E+01  0.10750997611E+02  0.00000000000E+00 0. -1.
</event>
<event>
 7    1  0.2661323E-011  0.5052886E+02  0.7816164E-02  0.1300439E+00
        -11   -1    0    0    0    0  0.00000000000E+00  0.00000000000E+00  0.45593999997E+02  0.45594000000E+02  0.51100000000E-03 0.  1.
         11   -1    0    0    0    0 -0.00000000000E+00 -0.00000000000E+00 -0.45593999997E+02  0.45594000000E+02  0.51100000000E-03 0. -1.
    9900012    2    1    2    0    0  0.10915838838E+02  0.39097086678E+02  0.23298147904E+01  0.50528858823E+02  0.29999996880E+02 0.  0.
         12    1    1    2    0    0 -0.10915838838E+02 -0.39097086678E+02 -0.23298147904E+01  0.40659141177E+02  0.00000000000E+00 0. -1.
         11    1    3    3    0    0  0.20505088759E+01  0.10381856075E+02 -0.10975598231E+02  0.15246352973E+02  0.51100000000E-03 0. -1.
        -11    1    3    3    0    0 -0.31121580492E+01  0.97177579527E+01  0.36547947295E+01  0.10838720964E+02  0.51100000000E-03 0.  1.
        -12    1    3    3    0    0  0.11977488011E+02  0.18997472651E+02  0.96506182915E+01  0.24443784887E+02  0.00000000000E+00 0.  1.
</event>
<event>
 7    1  0.2661323E-011  0.5052890E+02  0.7816164E-02  0.1300439E+00
        -11   -1    0    0    0    0  0.00000000000E+00  0.00000000000E+00  0.45593999997E+02  0.45594000000E+02  0.51100000000E-03 0.  1.
         11   -1    0    0    0    0 -0.00000000000E+00 -0.00000000000E+00 -0.45593999997E+02  0.45594000000E+02  0.51100000000E-03 0. -1.
    9900012    2    1    2    0    0 -0.13532196138E+02  0.12610172129E+02  0.36208093128E+02  0.50528895467E+02  0.30000108261E+02 0.  0.
         12    1    1    2    0    0  0.13532196138E+02 -0.12610172129E+02 -0.36208093128E+02  0.40659104533E+02  0.00000000000E+00 0. -1.
         11    1    3    3    0    0 -0.46352051417E+01 -0.48219490593E+01  0.91195376676E+01  0.11309389328E+02  0.51100000000E-03 0. -1.
        -11    1    3    3    0    0 -0.15292604573E+01 -0.40102158224E+01  0.98276730114E+01  0.10723974336E+02  0.51100000000E-03 0.  1.
        -12    1    3    3    0    0 -0.73677305393E+01  0.21442337011E+02  0.17260882449E+02  0.28495531803E+02  0.00000000000E+00 0.  1.
</event>
<event>
 7    1  0.2661323E-011  0.5052883E+02  0.7816164E-02  0.1300439E+00
        -11   -1    0    0    0    0  0.00000000000E+00  0.00000000000E+00  0.45593999997E+02  0.45594000000E+02  0.51100000000E-03 0. -1.
         11   -1    0    0    0    0 -0.00000000000E+00 -0.00000000000E+00 -0.45593999997E+02  0.45594000000E+02  0.51100000000E-03 0.  1.
    9900012    2    1    2    0    0 -0.94226965655E+00 -0.39740094430E+02 -0.85443092062E+01  0.50528828867E+02  0.29999905823E+02 0.  0.
         12    1    1    2    0    0  0.94226965655E+00  0.39740094430E+02  0.85443092062E+01  0.40659171133E+02  0.00000000000E+00 0. -1.
         11    1    3    3    0    0  0.41781761277E+01 -0.84116176490E+01  0.24764428543E+01  0.97131476206E+01  0.51100000000E-03 0. -1.
        -11    1    3    3    0    0  0.30483815886E+01 -0.28448084709E+02 -0.25893442810E+01  0.28727875975E+02  0.51100000000E-03 0.  1.
         12    1    3    3    0    0 -0.81688273729E+01 -0.28803920719E+01 -0.84314077795E+01  0.12087805271E+02  0.00000000000E+00 0. -1.
</event>
<event>
 7    1  0.2661323E-011  0.5052886E+02  0.7816164E-02  0.1300439E+00
        -11   -1    0    0    0    0  0.00000000000E+00  0.00000000000E+00  0.45593999997E+02  0.45594000000E+02  0.51100000000E-03 0.  1.
         11   -1    0    0    0    0 -0.00000000000E+00 -0.00000000000E+00 -0.45593999997E+02  0.45594000000E+02  0.51100000000E-03 0. -1.
    9900012    2    1    2    0    0 -0.19714871733E+02 -0.30154811582E+02  0.18846141206E+02  0.50528857518E+02  0.29999992912E+02 0.  0.
         12    1    1    2    0    0  0.19714871733E+02  0.30154811582E+02 -0.18846141206E+02  0.40659142482E+02  0.00000000000E+00 0. -1.
         11    1    3    3    0    0 -0.78988307224E+01 -0.65381978266E+01  0.41243474202E+01  0.11052140042E+02  0.51100000000E-03 0. -1.
        -11    1    3    3    0    0 -0.18505911667E+02 -0.23486123171E+02  0.12705269236E+02  0.32488315051E+02  0.51100000000E-03 0.  1.
         12    1    3    3    0    0  0.66898706565E+01 -0.13049058396E+00  0.20165245500E+01  0.69884024250E+01  0.00000000000E+00 0. -1.
</event>
<event>
 7    1  0.2661323E-011  0.5052886E+02  0.7816164E-02  0.1300439E+00
        -11   -1    0    0    0    0  0.00000000000E+00  0.00000000000E+00  0.45593999997E+02  0.45594000000E+02  0.51100000000E-03 0. -1.
         11   -1    0    0    0    0 -0.00000000000E+00 -0.00000000000E+00 -0.45593999997E+02  0.45594000000E+02  0.51100000000E-03 0.  1.
    9900012    2    1    2    0    0  0.39921671420E+02  0.14431686031E+01 -0.75725098595E+01  0.50528862157E+02  0.30000007011E+02 0.  0.
         12    1    1    2    0    0 -0.39921671420E+02 -0.14431686031E+01  0.75725098595E+01  0.40659137843E+02  0.00000000000E+00 0. -1.
         11    1    3    3    0    0  0.11481045357E+02  0.64191026757E+01 -0.53460783744E+01  0.14198585701E+02  0.51100000000E-03 0.  1.
        -11    1    3    3    0    0  0.19982373684E+01  0.67007449232E+01  0.15978861815E+01  0.71725989444E+01  0.51100000000E-03 0. -1.
        -12    1    3    3    0    0  0.26442388695E+02 -0.11676678996E+02 -0.38243176666E+01  0.29157677512E+02  0.00000000000E+00 0.  1.
</event>
<event>
 7    1  0.2661323E-011  0.5052887E+02  0.7816164E-02  0.1300439E+00
        -11   -1    0    0    0    0  0.00000000000E+00  0.00000000000E+00  0.45593999997E+02  0.45594000000E+02  0.51100000000E-03 0. -1.
         11   -1    0    0    0    0 -0.00000000000E+00 -0.00000000000E+00 -0.45593999997E+02  0.45594000000E+02  0.51100000000E-03 0.  1.
    9900012    2    1    2    0    0 -0.33086172235E+02  0.22542815215E+02 -0.70916313200E+01  0.50528873770E+02  0.30000042312E+02 0.  0.
         12    1    1    2    0    0  0.33086172235E+02 -0.22542815215E+02  0.70916313200E+01  0.40659126230E+02  0.00000000000E+00 0. -1.
         11    1    3    3    0    0 -0.22195015201E+02  0.50010076553E+01 -0.92476991032E+01  0.24559086227E+02  0.51100000000E-03 0. -1.
        -11    1    3    3    0    0 -0.10678105082E+02  0.28272739559E+01 -0.30017069878E+00  0.11050136147E+02  0.51100000000E-03 0.  1.
         12    1    3    3    0    0 -0.21305195263E+00  0.14714533604E+02  0.24562384820E+01  0.14919651397E+02  0.00000000000E+00 0. -1.
</event>
<event>
 7    1  0.2661323E-011  0.5052886E+02  0.7816164E-02  0.1300439E+00
        -11   -1    0    0    0    0  0.00000000000E+00  0.00000000000E+00  0.45593999997E+02  0.45594000000E+02  0.51100000000E-03 0.  1.
         11   -1    0    0    0    0 -0.00000000000E+00 -0.00000000000E+00 -0.45593999997E+02  0.45594000000E+02  0.51100000000E-03 0. -1.
    9900012    2    1    2    0    0  0.14556339801E+02 -0.36335260900E+02  0.11001237160E+02  0.50528862871E+02  0.30000009182E+02 0.  0.
         12    1    1    2    0    0 -0.14556339801E+02  0.36335260900E+02 -0.11001237160E+02  0.40659137129E+02  0.00000000000E+00 0. -1.
         11    1    3    3    0    0  0.24860021504E+01 -0.10497142968E+02 -0.97441822070E+00  0.10831422267E+02  0.51100000000E-03 0. -1.
        -11    1    3    3    0    0  0.12314639326E+02 -0.28205333541E+02  0.35953259219E+01  0.30985763677E+02  0.51100000000E-03 0.  1.
        -12    1    3    3    0    0 -0.24430167544E+00  0.23672156095E+01  0.83803294589E+01  0.87116769275E+01  0.00000000000E+00 0.  1.
</event>
<event>
 7    1  0.2661323E-011  0.5052886E+02  0.7816164E-02  0.1300439E+00
        -11   -1    0    0    0    0  0.00000000000E+00  0.00000000000E+00  0.45593999997E+02  0.45594000000E+02  0.51100000000E-03 0.  1.
         11   -1    0    0    0    0 -0.00000000000E+00 -0.00000000000E+00 -0.45593999997E+02  0.45594000000E+02  0.51100000000E-03 0. -1.
    9900012    2    1    2    0    0 -0.27653539514E+02 -0.27127427212E+02  0.12351122098E+02  0.50528858692E+02  0.29999996480E+02 0.  0.
         12    1    1    2    0    0  0.27653539514E+02  0.27127427212E+02 -0.12351122098E+02  0.40659141308E+02  0.00000000000E+00 0. -1.
         11    1    3    3    0    0 -0.46747634889E+01 -0.98547080629E+00  0.31664830687E+01  0.57315950374E+01  0.51100000000E-03 0. -1.
        -11    1    3    3    0    0 -0.18237910076E+02 -0.23989280672E+02  0.17602545934E+02  0.34899234587E+02  0.51100000000E-03 0.  1.
        -12    1    3    3    0    0 -0.47408659488E+01 -0.21526757340E+01 -0.84179069049E+01  0.98980290674E+01  0.00000000000E+00 0.  1.
</event>
<event>
 7    1  0.2661323E-011  0.5052880E+02  0.7816164E-02  0.1300439E+00
        -11   -1    0    0    0    0  0.00000000000E+00  0.00000000000E+00  0.45593999997E+02  0.45594000000E+02  0.51100000000E-03 0. -1.
         11   -1    0    0    0    0 -0.00000000000E+00 -0.00000000000E+00 -0.45593999997E+02  0.45594000000E+02  0.51100000000E-03 0.  1.
    9900012    2    1    2    0    0  0.58730369186E+01  0.80508835394E+01 -0.39419043490E+02  0.50528803278E+02  0.29999828043E+02 0.  0.
         12    1    1    2    0    0 -0.58730369186E+01 -0.80508835394E+01  0.39419043490E+02  0.40659196722E+02  0.00000000000E+00 0. -1.
         11    1    3    3    0    0  0.10020772422E+02  0.11419525502E+02 -0.16371499050E+02  0.22334892523E+02  0.51100000000E-03 0. -1.
        -11    1    3    3    0    0  0.47500729929E+01  0.24201641420E+01 -0.53215897765E+01  0.75325763137E+01  0.51100000000E-03 0.  1.
         12    1    3    3    0    0 -0.88978084958E+01 -0.57888061049E+01 -0.17725954664E+02  0.20661334441E+02  0.00000000000E+00 0. -1.
</event>
<event>
 7    1  0.2661323E-011  0.5052885E+02  0.7816164E-02  0.1300439E+00
        -11   -1    0    0    0    0  0.00000000000E+00  0.00000000000E+00  0.45593999997E+02  0.45594000000E+02  0.51100000000E-03 0. -1.
         11   -1    0    0    0    0 -0.00000000000E+00 -0.00000000000E+00 -0.45593999997E+02  0.45594000000E+02  0.51100000000E-03 0.  1.
    9900012    2    1    2    0    0 -0.24370257464E+02  0.98276498129E-03 -0.32546224006E+02  0.50528854081E+02  0.29999982465E+02 0.  0.
         12    1    1    2    0    0  0.24370257464E+02 -0.98276498129E-03  0.32546224006E+02  0.40659145919E+02  0.00000000000E+00 0. -1.
         11    1    3    3    0    0 -0.99949164293E+01  0.47685488895E+01 -0.11287169886E+02  0.15812577818E+02  0.51100000000E-03 0.  1.
        -11    1    3    3    0    0  0.69978475602E+00  0.21596562840E+01  0.39393420418E+01  0.45466724044E+01  0.51100000000E-03 0. -1.
         12    1    3    3    0    0 -0.15075125790E+02 -0.69272224085E+01 -0.25198396161E+02  0.30169603859E+02  0.00000000000E+00 0. -1.
</event>
<event>
 7    1  0.2661323E-011  0.5052885E+02  0.7816164E-02  0.1300439E+00
        -11   -1    0    0    0    0  0.00000000000E+00  0.00000000000E+00  0.45593999997E+02  0.45594000000E+02  0.51100000000E-03 0. -1.
         11   -1    0    0    0    0 -0.00000000000E+00 -0.00000000000E+00 -0.45593999997E+02  0.45594000000E+02  0.51100000000E-03 0.  1.
    9900012    2    1    2    0    0  0.10423624511E+02  0.39220306412E+02  0.25063829096E+01  0.50528851727E+02  0.29999975309E+02 0.  0.
         12    1    1    2    0    0 -0.10423624511E+02 -0.39220306412E+02 -0.25063829096E+01  0.40659148273E+02  0.00000000000E+00 0. -1.
         11    1    3    3    0    0  0.19547176990E+01 -0.21930003547E+01 -0.11320787892E+01  0.31482970769E+01  0.51100000000E-03 0. -1.
        -11    1    3    3    0    0 -0.48553856356E+01  0.67127857886E+01 -0.43556603447E+01  0.93599166670E+01  0.51100000000E-03 0.  1.
        -12    1    3    3    0    0  0.13324292447E+02  0.34700520978E+02  0.79941220435E+01  0.38020637983E+02  0.00000000000E+00 0.  1.
</event>
<event>
 7    1  0.2661323E-011  0.5052886E+02  0.7816164E-02  0.1300439E+00
        -11   -1    0    0    0    0  0.00000000000E+00  0.00000000000E+00  0.45593999997E+02  0.45594000000E+02  0.51100000000E-03 0.  1.
         11   -1    0    0    0    0 -0.00000000000E+00 -0.00000000000E+00 -0.45593999997E+02  0.45594000000E+02  0.51100000000E-03 0. -1.
    9900012    2    1    2    0    0  0.20256500077E+02 -0.34682194448E+02 -0.63233986929E+01  0.50528858616E+02  0.29999996248E+02 0.  0.
         12    1    1    2    0    0 -0.20256500077E+02  0.34682194448E+02  0.63233986929E+01  0.40659141384E+02  0.00000000000E+00 0. -1.
         11    1    3    3    0    0  0.34983158187E+01 -0.32555623942E+01 -0.10962567905E+02  0.11958879354E+02  0.51100000000E-03 0. -1.
        -11    1    3    3    0    0  0.77190644774E+01 -0.27178046904E+01  0.13196710527E+01  0.82892671986E+01  0.51100000000E-03 0.  1.
        -12    1    3    3    0    0  0.90391197805E+01 -0.28708827364E+02  0.33194981597E+01  0.30280712063E+02  0.00000000000E+00 0.  1.
</event>
<event>
 7    1  0.2661323E-011  0.5052886E+02  0.7816164E-02  0.1300439E+00
        -11   -1    0    0    0    0  0.00000000000E+00  0.00000000000E+00  0.45593999997E+02  0.45594000000E+02  0.51100000000E-03 0.  1.
         11   -1    0    0    0    0 -0.00000000000E+00 -0.00000000000E+00 -0.45593999997E+02  0.45594000000E+02  0.51100000000E-03 0. -1.
    9900012    2    1    2    0    0 -0.20863822905E+01  0.10783142087E+02  0.39147627506E+02  0.50528857317E+02  0.29999992302E+02 0.  0.
         12    1    1    2    0    0  0.20863822905E+01 -0.10783142087E+02 -0.39147627506E+02  0.40659142683E+02  0.00000000000E+00 0. -1.
         11    1    3    3    0    0 -0.23128715081E-01  0.14768193505E+02  0.23611297304E+02  0.27849478181E+02  0.51100000000E-03 0. -1.
        -11    1    3    3    0    0 -0.15682842003E+01  0.44607798487E+01 -0.28609246144E+00  0.47370794113E+01  0.51100000000E-03 0.  1.
         12    1    3    3    0    0 -0.49496937516E+00 -0.84458312667E+01  0.15822422664E+02  0.17942299725E+02  0.00000000000E+00 0. -1.
</event>
<event>
 7    1  0.2661323E-011  0.5052886E+02  0.7816164E-02  0.1300439E+00
        -11   -1    0    0    0    0  0.00000000000E+00  0.00000000000E+00  0.45593999997E+02  0.45594000000E+02  0.51100000000E-03 0.  1.
         11   -1    0    0    0    0 -0.00000000000E+00 -0.00000000000E+00 -0.45593999997E+02  0.45594000000E+02  0.51100000000E-03 0. -1.
    9900012    2    1    2    0    0  0.22340678104E+02  0.78825471248E+01  0.33044292397E+02  0.50528859486E+02  0.29999998892E+02 0.  0.
         12    1    1    2    0    0 -0.22340678104E+02 -0.78825471248E+01 -0.33044292397E+02  0.40659140514E+02  0.00000000000E+00 0. -1.
         11    1    3    3    0    0  0.40152795271E+01  0.12788164938E+02  0.53056529097E+01  0.14415602146E+02  0.51100000000E-03 0. -1.
        -11    1    3    3    0    0  0.59962829336E+01  0.37611607802E+01  0.44084127290E+01  0.83388154125E+01  0.51100000000E-03 0.  1.
        -12    1    3    3    0    0  0.12329115643E+02 -0.86667785938E+01  0.23330226759E+02  0.27774441927E+02  0.00000000000E+00 0.  1.
</event>
<event>
 7    1  0.2661323E-011  0.5052886E+02  0.7816164E-02  0.1300439E+00
        -11   -1    0    0    0    0  0.00000000000E+00  0.00000000000E+00  0.45593999997E+02  0.45594000000E+02  0.51100000000E-03 0.  1.
         11   -1    0    0    0    0 -0.00000000000E+00 -0.00000000000E+00 -0.45593999997E+02  0.45594000000E+02  0.51100000000E-03 0. -1.
    9900012    2    1    2    0    0 -0.15490158305E+01  0.40443099198E+02  0.38886516168E+01  0.50528864075E+02  0.30000012842E+02 0.  0.
         12    1    1    2    0    0  0.15490158305E+01 -0.40443099198E+02 -0.38886516168E+01  0.40659135925E+02  0.00000000000E+00 0. -1.
         11    1    3    3    0    0  0.21931718286E+01  0.72374184614E+01 -0.64446501967E+01  0.99359823406E+01  0.51100000000E-03 0. -1.
        -11    1    3    3    0    0 -0.80936630158E+01  0.27609998489E+02  0.89062484340E+00  0.28785632014E+02  0.51100000000E-03 0.  1.
        -12    1    3    3    0    0  0.43514753567E+01  0.55956822479E+01  0.94426769700E+01  0.11807249720E+02  0.00000000000E+00 0.  1.
</event>
<event>
 7    1  0.2661323E-011  0.5052886E+02  0.7816164E-02  0.1300439E+00
        -11   -1    0    0    0    0  0.00000000000E+00  0.00000000000E+00  0.45593999997E+02  0.45594000000E+02  0.51100000000E-03 0. -1.
         11   -1    0    0    0    0 -0.00000000000E+00 -0.00000000000E+00 -0.45593999997E+02  0.45594000000E+02  0.51100000000E-03 0.  1.
    9900012    2    1    2    0    0  0.31076528300E+02 -0.26172781419E+02  0.15493791969E+01  0.50528859892E+02  0.30000000128E+02 0.  0.
         12    1    1    2    0    0 -0.31076528300E+02  0.26172781419E+02 -0.15493791969E+01  0.40659140108E+02  0.00000000000E+00 0. -1.
         11    1    3    3    0    0  0.10756155585E+02 -0.20500693435E+02 -0.19312754291E+01  0.23231511774E+02  0.51100000000E-03 0. -1.
        -11    1    3    3    0    0 -0.18901924779E+01 -0.34537897807E+01 -0.18475795833E+01  0.43491426776E+01  0.51100000000E-03 0.  1.
        -12    1    3    3    0    0  0.22210565194E+02 -0.22182982034E+01  0.53282342093E+01  0.22948205440E+02  0.00000000000E+00 0.  1.
</event>
<event>
 7    1  0.2661323E-011  0.5052887E+02  0.7816164E-02  0.1300439E+00
        -11   -1    0    0    0    0  0.00000000000E+00  0.00000000000E+00  0.45593999997E+02  0.45594000000E+02  0.51100000000E-03 0.  1.
         11   -1    0    0    0    0 -0.00000000000E+00 -0.00000000000E+00 -0.45593999997E+02  0.45594000000E+02  0.51100000000E-03 0. -1.
    9900012    2    1    2    0    0  0.47971347375E+01 -0.25741925041E+02  0.31104749388E+02  0.50528872599E+02  0.30000038752E+02 0.  0.
         12    1    1    2    0    0 -0.47971347375E+01  0.25741925041E+02 -0.31104749388E+02  0.40659127401E+02  0.00000000000E+00 0. -1.
         11    1    3    3    0    0 -0.94555948188E+01 -0.89010502199E+01  0.11264559489E+02  0.17190906583E+02  0.51100000000E-03 0. -1.
        -11    1    3    3    0    0 -0.85785069995E+00 -0.77423597646E+01  0.11341248711E+02  0.13758777749E+02  0.51100000000E-03 0.  1.
        -12    1    3    3    0    0  0.15110580256E+02 -0.90985150562E+01  0.84989411883E+01  0.19579188268E+02  0.00000000000E+00 0.  1.
</event>
<event>
 7    1  0.2661323E-011  0.5052887E+02  0.7816164E-02  0.1300439E+00
        -11   -1    0    0    0    0  0.00000000000E+00  0.00000000000E+00  0.45593999997E+02  0.45594000000E+02  0.51100000000E-03 0. -1.
         11   -1    0    0    0    0 -0.00000000000E+00 -0.00000000000E+00 -0.45593999997E+02  0.45594000000E+02  0.51100000000E-03 0.  1.
    9900012    2    1    2    0    0 -0.19473620331E+02 -0.17615466310E+02 -0.31042530565E+02  0.50528865159E+02  0.30000016139E+02 0.  0.
         12    1    1    2    0    0  0.19473620331E+02  0.17615466310E+02  0.31042530565E+02  0.40659134841E+02  0.00000000000E+00 0. -1.
         11    1    3    3    0    0 -0.19073292980E+02 -0.19034577819E+01 -0.10004726617E+02  0.21621938201E+02  0.51100000000E-03 0. -1.
        -11    1    3    3    0    0 -0.57972513528E+01 -0.50576933045E+01 -0.10225548580E+02  0.12796492833E+02  0.51100000000E-03 0.  1.
         12    1    3    3    0    0  0.53969240017E+01 -0.10654315224E+02 -0.10812255368E+02  0.16110434125E+02  0.00000000000E+00 0. -1.
</event>
<event>
 7    1  0.2661323E-011  0.5052888E+02  0.7816164E-02  0.1300439E+00
        -11   -1    0    0    0    0  0.00000000000E+00  0.00000000000E+00  0.45593999997E+02  0.45594000000E+02  0.51100000000E-03 0. -1.
         11   -1    0    0    0    0 -0.00000000000E+00 -0.00000000000E+00 -0.45593999997E+02  0.45594000000E+02  0.51100000000E-03 0.  1.
    9900012    2    1    2    0    0 -0.25439702154E+02  0.31669272908E+02  0.17443671967E+01  0.50528879140E+02  0.30000058633E+02 0.  0.
         12    1    1    2    0    0  0.25439702154E+02 -0.31669272908E+02 -0.17443671967E+01  0.40659120860E+02  0.00000000000E+00 0. -1.
         11    1    3    3    0    0  0.21535612709E+01 -0.17769930178E+01  0.10372894756E+01  0.29785063455E+01  0.51100000000E-03 0. -1.
        -11    1    3    3    0    0  0.16531253017E+01  0.93091175514E+01 -0.14663090210E+01  0.95677873751E+01  0.51100000000E-03 0.  1.
        -12    1    3    3    0    0 -0.29246388727E+02  0.24137148374E+02  0.21733867421E+01  0.37982585419E+02  0.00000000000E+00 0.  1.
</event>
<event>
 7    1  0.2661323E-011  0.5052886E+02  0.7816164E-02  0.1300439E+00
        -11   -1    0    0    0    0  0.00000000000E+00  0.00000000000E+00  0.45593999997E+02  0.45594000000E+02  0.51100000000E-03 0. -1.
         11   -1    0    0    0    0 -0.00000000000E+00 -0.00000000000E+00 -0.45593999997E+02  0.45594000000E+02  0.51100000000E-03 0.  1.
    9900012    2    1    2    0    0  0.26160991960E+02 -0.20272715062E+02 -0.23617483606E+02  0.50528855786E+02  0.29999987648E+02 0.  0.
         12    1    1    2    0    0 -0.26160991960E+02  0.20272715062E+02  0.23617483606E+02  0.40659144214E+02  0.00000000000E+00 0. -1.
         11    1    3    3    0    0 -0.86137816559E+00 -0.43826407833E+01 -0.18412118212E+00  0.44702811378E+01  0.51100000000E-03 0. -1.
        -11    1    3    3    0    0  0.16500971984E+02 -0.14953652205E+02 -0.22429258830E+01  0.22381342844E+02  0.51100000000E-03 0.  1.
         12    1    3    3    0    0  0.10521398141E+02 -0.93642207338E+00 -0.21190436541E+02  0.23677231805E+02  0.00000000000E+00 0. -1.
</event>
<event>
 7    1  0.2661323E-011  0.5052888E+02  0.7816164E-02  0.1300439E+00
        -11   -1    0    0    0    0  0.00000000000E+00  0.00000000000E+00  0.45593999997E+02  0.45594000000E+02  0.51100000000E-03 0.  1.
         11   -1    0    0    0    0 -0.00000000000E+00 -0.00000000000E+00 -0.45593999997E+02  0.45594000000E+02  0.51100000000E-03 0. -1.
    9900012    2    1    2    0    0 -0.32311294740E+02 -0.23921396836E+02  0.60754189328E+01  0.50528884053E+02  0.30000073569E+02 0.  0.
         12    1    1    2    0    0  0.32311294740E+02  0.23921396836E+02 -0.60754189328E+01  0.40659115947E+02  0.00000000000E+00 0. -1.
         11    1    3    3    0    0 -0.11580036819E+02 -0.22403040161E+02  0.48095154316E+01  0.25673427900E+02  0.51100000000E-03 0. -1.
        -11    1    3    3    0    0 -0.16163811469E+01  0.37229030414E+01 -0.23763363879E+01  0.47031553193E+01  0.51100000000E-03 0.  1.
        -12    1    3    3    0    0 -0.19114876774E+02 -0.52412597159E+01  0.36422398890E+01  0.20152300834E+02  0.00000000000E+00 0.  1.
</event>
<event>
 7    1  0.2661323E-011  0.5052880E+02  0.7816164E-02  0.1300439E+00
        -11   -1    0    0    0    0  0.00000000000E+00  0.00000000000E+00  0.45593999997E+02  0.45594000000E+02  0.51100000000E-03 0. -1.
         11   -1    0    0    0    0 -0.00000000000E+00 -0.00000000000E+00 -0.45593999997E+02  0.45594000000E+02  0.51100000000E-03 0.  1.
    9900012    2    1    2    0    0 -0.49703723584E+01 -0.19416288037E+02 -0.35376179734E+02  0.50528795198E+02  0.29999803484E+02 0.  0.
         12    1    1    2    0    0  0.49703723584E+01  0.19416288037E+02  0.35376179734E+02  0.40659204802E+02  0.00000000000E+00 0. -1.
         11    1    3    3    0    0  0.32465639754E+01  0.31588337845E+00 -0.41288553238E+00  0.32879225476E+01  0.51100000000E-03 0. -1.
        -11    1    3    3    0    0  0.21666270897E+01 -0.17492865439E+01  0.29229409591E+01  0.40370608702E+01  0.51100000000E-03 0.  1.
        -12    1    3    3    0    0 -0.10383563423E+02 -0.17982884872E+02 -0.37886235161E+02  0.43203811780E+02  0.00000000000E+00 0.  1.
</event>
<event>
 7    1  0.2661323E-011  0.5052886E+02  0.7816164E-02  0.1300439E+00
        -11   -1    0    0    0    0  0.00000000000E+00  0.00000000000E+00  0.45593999997E+02  0.45594000000E+02  0.51100000000E-03 0.  1.
         11   -1    0    0    0    0 -0.00000000000E+00 -0.00000000000E+00 -0.45593999997E+02  0.45594000000E+02  0.51100000000E-03 0. -1.
    9900012    2    1    2    0    0  0.35085927142E+02 -0.18062477548E+02  0.97923701138E+01  0.50528857227E+02  0.29999992026E+02 0.  0.
         12    1    1    2    0    0 -0.35085927142E+02  0.18062477548E+02 -0.97923701138E+01  0.40659142773E+02  0.00000000000E+00 0. -1.
         11    1    3    3    0    0  0.24760725381E+02 -0.20611260987E+02  0.76534050397E+01  0.33113323750E+02  0.51100000000E-03 0.  1.
        -11    1    3    3    0    0  0.47016095176E+01 -0.36992343533E+01  0.57213851567E+01  0.82779052440E+01  0.51100000000E-03 0. -1.
         12    1    3    3    0    0  0.56235922443E+01  0.62480177921E+01 -0.35824200825E+01  0.91376282321E+01  0.00000000000E+00 0. -1.
</event>
<event>
 7    1  0.2661323E-011  0.5052887E+02  0.7816164E-02  0.1300439E+00
        -11   -1    0    0    0    0  0.00000000000E+00  0.00000000000E+00  0.45593999997E+02  0.45594000000E+02  0.51100000000E-03 0.  1.
         11   -1    0    0    0    0 -0.00000000000E+00 -0.00000000000E+00 -0.45593999997E+02  0.45594000000E+02  0.51100000000E-03 0. -1.
    9900012    2    1    2    0    0 -0.16271624523E+02  0.37086795637E+02  0.36012565566E+01  0.50528865429E+02  0.30000016959E+02 0.  0.
         12    1    1    2    0    0  0.16271624523E+02 -0.37086795637E+02 -0.36012565566E+01  0.40659134571E+02  0.00000000000E+00 0. -1.
         11    1    3    3    0    0 -0.48537046011E+01  0.61794001007E+00 -0.45324616060E+01  0.66695956911E+01  0.51100000000E-03 0. -1.
        -11    1    3    3    0    0  0.18519019909E+01 -0.18071110239E+01  0.48338211983E+00  0.26322708393E+01  0.51100000000E-03 0.  1.
        -12    1    3    3    0    0 -0.13269821913E+02  0.38275966651E+02  0.76503360428E+01  0.41226998899E+02  0.00000000000E+00 0.  1.
</event>
<event>
 7    1  0.2661323E-011  0.5052887E+02  0.7816164E-02  0.1300439E+00
        -11   -1    0    0    0    0  0.00000000000E+00  0.00000000000E+00  0.45593999997E+02  0.45594000000E+02  0.51100000000E-03 0.  1.
         11   -1    0    0    0    0 -0.00000000000E+00 -0.00000000000E+00 -0.45593999997E+02  0.45594000000E+02  0.51100000000E-03 0. -1.
    9900012    2    1    2    0    0 -0.36429055498E+02  0.45885463946E+01  0.17465220444E+02  0.50528871041E+02  0.30000034017E+02 0.  0.
         12    1    1    2    0    0  0.36429055498E+02 -0.45885463946E+01 -0.17465220444E+02  0.40659128959E+02  0.00000000000E+00 0. -1.
         11    1    3    3    0    0 -0.22553076972E+02  0.76643397890E+01  0.10892226195E+02  0.26192059427E+02  0.51100000000E-03 0. -1.
        -11    1    3    3    0    0 -0.15316606033E+02 -0.81407056461E+01  0.76572015127E+01  0.18960544403E+02  0.51100000000E-03 0.  1.
         12    1    3    3    0    0  0.14406275068E+01  0.50649122517E+01 -0.10842072634E+01  0.53762672107E+01  0.00000000000E+00 0. -1.
</event>
<event>
 7    1  0.2661323E-011  0.5052886E+02  0.7816164E-02  0.1300439E+00
        -11   -1    0    0    0    0  0.00000000000E+00  0.00000000000E+00  0.45593999997E+02  0.45594000000E+02  0.51100000000E-03 0. -1.
         11   -1    0    0    0    0 -0.00000000000E+00 -0.00000000000E+00 -0.45593999997E+02  0.45594000000E+02  0.51100000000E-03 0.  1.
    9900012    2    1    2    0    0 -0.11042609712E+01  0.40534160551E+02  0.29879942009E+01  0.50528859906E+02  0.30000000170E+02 0.  0.
         12    1    1    2    0    0  0.11042609712E+01 -0.40534160551E+02 -0.29879942009E+01  0.40659140094E+02  0.00000000000E+00 0. -1.
         11    1    3    3    0    0  0.55351854795E+01  0.44763603942E+01 -0.37095691885E+01  0.80272650695E+01  0.51100000000E-03 0.  1.
        -11    1    3    3    0    0 -0.38094927311E+01  0.27383847601E+01  0.77344507400E+01  0.90461436244E+01  0.51100000000E-03 0. -1.
        -12    1    3    3    0    0 -0.28299537196E+01  0.33319415397E+02 -0.10368873506E+01  0.33455451212E+02  0.00000000000E+00 0.  1.
</event>
<event>
 7    1  0.2661323E-011  0.5052886E+02  0.7816164E-02  0.1300439E+00
        -11   -1    0    0    0    0  0.00000000000E+00  0.00000000000E+00  0.45593999997E+02  0.45594000000E+02  0.51100000000E-03 0. -1.
         11   -1    0    0    0    0 -0.00000000000E+00 -0.00000000000E+00 -0.45593999997E+02  0.45594000000E+02  0.51100000000E-03 0.  1.
    9900012    2    1    2    0    0  0.17449910065E+02 -0.36595580091E+02 -0.30708090217E+01  0.50528859434E+02  0.29999998737E+02 0.  0.
         12    1    1    2    0    0 -0.17449910065E+02  0.36595580091E+02  0.30708090217E+01  0.40659140566E+02  0.00000000000E+00 0. -1.
         11    1    3    3    0    0  0.47565644692E+01 -0.10965511326E+02  0.11677218337E+02  0.16710020124E+02  0.51100000000E-03 0. -1.
        -11    1    3    3    0    0 -0.80190255660E+00 -0.67504225710E+01 -0.10718604740E+01  0.68818702207E+01  0.51100000000E-03 0.  1.
        -12    1    3    3    0    0  0.13495248152E+02 -0.18879646195E+02 -0.13676166884E+02  0.26936969090E+02  0.00000000000E+00 0.  1.
</event>
<event>
 7    1  0.2661323E-011  0.5052885E+02  0.7816164E-02  0.1300439E+00
        -11   -1    0    0    0    0  0.00000000000E+00  0.00000000000E+00  0.45593999997E+02  0.45594000000E+02  0.51100000000E-03 0. -1.
         11   -1    0    0    0    0 -0.00000000000E+00 -0.00000000000E+00 -0.45593999997E+02  0.45594000000E+02  0.51100000000E-03 0.  1.
    9900012    2    1    2    0    0  0.45060696927E+01  0.35690462698E+02 -0.18948680442E+02  0.50528852417E+02  0.29999977406E+02 0.  0.
         12    1    1    2    0    0 -0.45060696927E+01 -0.35690462698E+02  0.18948680442E+02  0.40659147583E+02  0.00000000000E+00 0. -1.
         11    1    3    3    0    0 -0.32754996334E+01  0.48141218215E+00 -0.84245068490E+01  0.90516833488E+01  0.51100000000E-03 0. -1.
        -11    1    3    3    0    0 -0.32449028746E+01  0.66475743917E+00  0.94622196578E+00  0.34447980185E+01  0.51100000000E-03 0.  1.
        -12    1    3    3    0    0  0.11026472201E+02  0.34544293077E+02 -0.11470395559E+02  0.38032371050E+02  0.00000000000E+00 0.  1.
</event>
<event>
 7    1  0.2661323E-011  0.5052886E+02  0.7816164E-02  0.1300439E+00
        -11   -1    0    0    0    0  0.00000000000E+00  0.00000000000E+00  0.45593999997E+02  0.45594000000E+02  0.51100000000E-03 0.  1.
         11   -1    0    0    0    0 -0.00000000000E+00 -0.00000000000E+00 -0.45593999997E+02  0.45594000000E+02  0.51100000000E-03 0. -1.
    9900012    2    1    2    0    0  0.22187253534E+02  0.22610361323E+02  0.25488483822E+02  0.50528862452E+02  0.30000007910E+02 0.  0.
         12    1    1    2    0    0 -0.22187253534E+02 -0.22610361323E+02 -0.25488483822E+02  0.40659137548E+02  0.00000000000E+00 0. -1.
         11    1    3    3    0    0  0.67422271152E+01  0.20277659161E+02  0.10293266310E+02  0.23719030737E+02  0.51100000000E-03 0.  1.
        -11    1    3    3    0    0  0.31378750522E+01 -0.68545642933E+00 -0.31597522421E+01  0.45055682053E+01  0.51100000000E-03 0. -1.
         12    1    3    3    0    0  0.12307151367E+02  0.30181585920E+01  0.18354969754E+02  0.22304263510E+02  0.00000000000E+00 0. -1.
</event>
<event>
 7    1  0.2661323E-011  0.5052886E+02  0.7816164E-02  0.1300439E+00
        -11   -1    0    0    0    0  0.00000000000E+00  0.00000000000E+00  0.45593999997E+02  0.45594000000E+02  0.51100000000E-03 0. -1.
         11   -1    0    0    0    0 -0.00000000000E+00 -0.00000000000E+00 -0.45593999997E+02  0.45594000000E+02  0.51100000000E-03 0.  1.
    9900012    2    1    2    0    0 -0.21600794621E+02  0.28665049252E+02 -0.19101989475E+02  0.50528863527E+02  0.30000011176E+02 0.  0.
         12    1    1    2    0    0  0.21600794621E+02 -0.28665049252E+02  0.19101989475E+02  0.40659136473E+02  0.00000000000E+00 0. -1.
         11    1    3    3    0    0 -0.77738101225E+01 -0.28115050051E+01 -0.23455319381E+00  0.82699274287E+01  0.51100000000E-03 0. -1.
        -11    1    3    3    0    0 -0.58778963310E+01  0.24449815784E+01  0.62765468514E+00  0.63969954558E+01  0.51100000000E-03 0.  1.
        -12    1    3    3    0    0 -0.79490881675E+01  0.29031572678E+02 -0.19495090966E+02  0.35861940642E+02  0.00000000000E+00 0.  1.
</event>
<event>
 7    1  0.2661323E-011  0.5052886E+02  0.7816164E-02  0.1300439E+00
        -11   -1    0    0    0    0  0.00000000000E+00  0.00000000000E+00  0.45593999997E+02  0.45594000000E+02  0.51100000000E-03 0.  1.
         11   -1    0    0    0    0 -0.00000000000E+00 -0.00000000000E+00 -0.45593999997E+02  0.45594000000E+02  0.51100000000E-03 0. -1.
    9900012    2    1    2    0    0 -0.16024454659E+02 -0.36953859597E+02  0.55492972671E+01  0.50528860973E+02  0.30000003414E+02 0.  0.
         12    1    1    2    0    0  0.16024454659E+02  0.36953859597E+02 -0.55492972671E+01  0.40659139027E+02  0.00000000000E+00 0. -1.
         11    1    3    3    0    0 -0.82124231338E+01 -0.23285457222E+02 -0.16964109086E+01  0.24749428721E+02  0.51100000000E-03 0. -1.
        -11    1    3    3    0    0 -0.58089702581E+01 -0.18510941408E+02  0.66316410225E+01  0.20503115621E+02  0.51100000000E-03 0.  1.
        -12    1    3    3    0    0 -0.20030612676E+01  0.48425390329E+01  0.61406715329E+00  0.52763166315E+01  0.00000000000E+00 0.  1.
</event>
<event>
 7    1  0.2661323E-011  0.5052886E+02  0.7816164E-02  0.1300439E+00
        -11   -1    0    0    0    0  0.00000000000E+00  0.00000000000E+00  0.45593999997E+02  0.45594000000E+02  0.51100000000E-03 0.  1.
         11   -1    0    0    0    0 -0.00000000000E+00 -0.00000000000E+00 -0.45593999997E+02  0.45594000000E+02  0.51100000000E-03 0. -1.
    9900012    2    1    2    0    0 -0.17801747336E+02  0.11082974178E+02  0.34834333132E+02  0.50528864623E+02  0.30000014509E+02 0.  0.
         12    1    1    2    0    0  0.17801747336E+02 -0.11082974178E+02 -0.34834333132E+02  0.40659135377E+02  0.00000000000E+00 0. -1.
         11    1    3    3    0    0 -0.15385623780E+02  0.10946576550E+02  0.85641943996E+01  0.20733798090E+02  0.51100000000E-03 0. -1.
        -11    1    3    3    0    0 -0.37441414890E+01 -0.55527119017E+01  0.71248279843E+01  0.97782605315E+01  0.51100000000E-03 0.  1.
         12    1    3    3    0    0  0.13280179333E+01  0.56891095295E+01  0.19145310748E+02  0.20016806002E+02  0.00000000000E+00 0. -1.
</event>
<event>
 7    1  0.2661323E-011  0.5052886E+02  0.7816164E-02  0.1300439E+00
        -11   -1    0    0    0    0  0.00000000000E+00  0.00000000000E+00  0.45593999997E+02  0.45594000000E+02  0.51100000000E-03 0.  1.
         11   -1    0    0    0    0 -0.00000000000E+00 -0.00000000000E+00 -0.45593999997E+02  0.45594000000E+02  0.51100000000E-03 0. -1.
    9900012    2    1    2    0    0  0.17494870882E+02  0.71592816686E+00  0.36695815258E+02  0.50528856898E+02  0.29999991027E+02 0.  0.
         12    1    1    2    0    0 -0.17494870882E+02 -0.71592816686E+00 -0.36695815258E+02  0.40659143102E+02  0.00000000000E+00 0. -1.
         11    1    3    3    0    0  0.12238949174E+02  0.10195796646E+02  0.22298702987E+02  0.27403983311E+02  0.51100000000E-03 0. -1.
        -11    1    3    3    0    0 -0.13362179917E+01  0.33835325074E+01  0.26907091139E+01  0.45247858012E+01  0.51100000000E-03 0.  1.
         12    1    3    3    0    0  0.65921397006E+01 -0.12863400987E+02  0.11706403157E+02  0.18600087786E+02  0.00000000000E+00 0. -1.
</event>
<event>
 7    1  0.2661323E-011  0.5052886E+02  0.7816164E-02  0.1300439E+00
        -11   -1    0    0    0    0  0.00000000000E+00  0.00000000000E+00  0.45593999997E+02  0.45594000000E+02  0.51100000000E-03 0. -1.
         11   -1    0    0    0    0 -0.00000000000E+00 -0.00000000000E+00 -0.45593999997E+02  0.45594000000E+02  0.51100000000E-03 0.  1.
    9900012    2    1    2    0    0  0.75710689765E+01  0.36630462221E+02 -0.15939059007E+02  0.50528862650E+02  0.30000008512E+02 0.  0.
         12    1    1    2    0    0 -0.75710689765E+01 -0.36630462221E+02  0.15939059007E+02  0.40659137350E+02  0.00000000000E+00 0. -1.
         11    1    3    3    0    0 -0.14623317084E+01  0.30690614436E+01  0.18064046252E+01  0.38497597459E+01  0.51100000000E-03 0. -1.
        -11    1    3    3    0    0 -0.62873146078E+01  0.24577515902E+02 -0.11483972872E+02  0.27847194582E+02  0.51100000000E-03 0.  1.
         12    1    3    3    0    0  0.15320715293E+02  0.89838848761E+01 -0.62614907600E+01  0.18831908323E+02  0.00000000000E+00 0. -1.
</event>
<event>
 7    1  0.2661323E-011  0.5052885E+02  0.7816164E-02  0.1300439E+00
        -11   -1    0    0    0    0  0.00000000000E+00  0.00000000000E+00  0.45593999997E+02  0.45594000000E+02  0.51100000000E-03 0. -1.
         11   -1    0    0    0    0 -0.00000000000E+00 -0.00000000000E+00 -0.45593999997E+02  0.45594000000E+02  0.51100000000E-03 0.  1.
    9900012    2    1    2    0    0  0.37273819680E+02 -0.11989727899E+02  0.10957885299E+02  0.50528850245E+02  0.29999970804E+02 0.  0.
         12    1    1    2    0    0 -0.37273819680E+02  0.11989727899E+02 -0.10957885299E+02  0.40659149755E+02  0.00000000000E+00 0. -1.
         11    1    3    3    0    0 -0.83842357242E+00 -0.54054431988E+01 -0.49046230683E+01  0.73469107770E+01  0.51100000000E-03 0. -1.
        -11    1    3    3    0    0  0.31417235917E+01 -0.31232785759E+01  0.43349544079E+01  0.61981550617E+01  0.51100000000E-03 0.  1.
        -12    1    3    3    0    0  0.34970519660E+02 -0.34610061246E+01  0.11527553959E+02  0.36983784406E+02  0.00000000000E+00 0.  1.
</event>
<event>
 7    1  0.2661323E-011  0.5052885E+02  0.7816164E-02  0.1300439E+00
        -11   -1    0    0    0    0  0.00000000000E+00  0.00000000000E+00  0.45593999997E+02  0.45594000000E+02  0.51100000000E-03 0. -1.
         11   -1    0    0    0    0 -0.00000000000E+00 -0.00000000000E+00 -0.45593999997E+02  0.45594000000E+02  0.51100000000E-03 0.  1.
    9900012    2    1    2    0    0  0.24374346184E+02  0.25403137492E+02 -0.20340563077E+02  0.50528847861E+02  0.29999963560E+02 0.  0.
         12    1    1    2    0    0 -0.24374346184E+02 -0.25403137492E+02  0.20340563077E+02  0.40659152139E+02  0.00000000000E+00 0. -1.
         11    1    3    3    0    0  0.62737051920E+01  0.25584628049E+01  0.54220917102E+01  0.86777985420E+01  0.51100000000E-03 0.  1.
        -11    1    3    3    0    0  0.10085748240E+02  0.48101986648E+01 -0.26974136501E+01  0.11495058478E+02  0.51100000000E-03 0. -1.
        -12    1    3    3    0    0  0.80148927518E+01  0.18034476022E+02 -0.23065241138E+02  0.30355990841E+02  0.00000000000E+00 0.  1.
</event>
<event>
 7    1  0.3928712E-011  0.5052887E+02  0.7816164E-02  0.1300439E+00
        -11   -1    0    0    0    0  0.00000000000E+00  0.00000000000E+00  0.45593999997E+02  0.45594000000E+02  0.51100000000E-03 0.  1.
         11   -1    0    0    0    0 -0.00000000000E+00 -0.00000000000E+00 -0.45593999997E+02  0.45594000000E+02  0.51100000000E-03 0. -1.
    9900012    2    1    2    0    0  0.33050635586E+02  0.21127389310E+02 -0.10698292264E+02  0.50528873730E+02  0.30000042189E+02 0.  0.
         12    1    1    2    0    0 -0.33050635586E+02 -0.21127389310E+02  0.10698292264E+02  0.40659126270E+02  0.00000000000E+00 0. -1.
         11    1    3    3    0    0  0.13654255992E+02  0.72300081283E+01  0.37354371203E+01  0.15895446360E+02  0.51100000000E-03 0. -1.
        -11    1    3    3    0    0  0.22251207614E+02  0.10961530227E+02 -0.64012416496E+01  0.25617323829E+02  0.51100000000E-03 0.  1.
         12    1    3    3    0    0 -0.28548280206E+01  0.29358509537E+01 -0.80324877351E+01  0.90161035411E+01  0.00000000000E+00 0. -1.
</event>
<event>
 7    1  0.2661323E-011  0.5052886E+02  0.7816164E-02  0.1300439E+00
        -11   -1    0    0    0    0  0.00000000000E+00  0.00000000000E+00  0.45593999997E+02  0.45594000000E+02  0.51100000000E-03 0. -1.
         11   -1    0    0    0    0 -0.00000000000E+00 -0.00000000000E+00 -0.45593999997E+02  0.45594000000E+02  0.51100000000E-03 0.  1.
    9900012    2    1    2    0    0  0.27614275751E+02  0.28781395780E+02 -0.78897794339E+01  0.50528860956E+02  0.30000003362E+02 0.  0.
         12    1    1    2    0    0 -0.27614275751E+02 -0.28781395780E+02  0.78897794339E+01  0.40659139044E+02  0.00000000000E+00 0. -1.
         11    1    3    3    0    0  0.13967937876E+02  0.18022958799E+02 -0.11472818198E+02  0.25525592844E+02  0.51100000000E-03 0. -1.
        -11    1    3    3    0    0  0.14128666828E+02  0.93657466818E+01 -0.38855634386E+01  0.17390630832E+02  0.51100000000E-03 0.  1.
        -12    1    3    3    0    0 -0.48232895312E+00  0.13926902991E+01  0.74686022029E+01  0.76126372797E+01  0.00000000000E+00 0.  1.
</event>
<event>
 7    1  0.2661323E-011  0.5052886E+02  0.7816164E-02  0.1300439E+00
        -11   -1    0    0    0    0  0.00000000000E+00  0.00000000000E+00  0.45593999997E+02  0.45594000000E+02  0.51100000000E-03 0. -1.
         11   -1    0    0    0    0 -0.00000000000E+00 -0.00000000000E+00 -0.45593999997E+02  0.45594000000E+02  0.51100000000E-03 0.  1.
    9900012    2    1    2    0    0 -0.14573764220E+02  0.33654719096E+02 -0.17553658752E+02  0.50528860110E+02  0.30000000791E+02 0.  0.
         12    1    1    2    0    0  0.14573764220E+02 -0.33654719096E+02  0.17553658752E+02  0.40659139890E+02  0.00000000000E+00 0. -1.
         11    1    3    3    0    0  0.67341400793E+01  0.10786656248E+02 -0.10667048593E+02  0.16597786647E+02  0.51100000000E-03 0. -1.
        -11    1    3    3    0    0 -0.33035649871E+01  0.55196313849E+00  0.20136852161E+01  0.39080856363E+01  0.51100000000E-03 0.  1.
        -12    1    3    3    0    0 -0.18004339312E+02  0.22316099709E+02 -0.89002953754E+01  0.30022987827E+02  0.00000000000E+00 0.  1.
</event>
<event>
 7    1  0.2661323E-011  0.5052886E+02  0.7816164E-02  0.1300439E+00
        -11   -1    0    0    0    0  0.00000000000E+00  0.00000000000E+00  0.45593999997E+02  0.45594000000E+02  0.51100000000E-03 0. -1.
         11   -1    0    0    0    0 -0.00000000000E+00 -0.00000000000E+00 -0.45593999997E+02  0.45594000000E+02  0.51100000000E-03 0.  1.
    9900012    2    1    2    0    0 -0.14896513090E-01  0.52364317460E+01 -0.40320534344E+02  0.50528856759E+02  0.29999990605E+02 0.  0.
         12    1    1    2    0    0  0.14896513090E-01 -0.52364317460E+01  0.40320534344E+02  0.40659143241E+02  0.00000000000E+00 0. -1.
         11    1    3    3    0    0 -0.96187390711E+01 -0.11562872532E+01 -0.15050405011E+02  0.17898933845E+02  0.51100000000E-03 0. -1.
        -11    1    3    3    0    0  0.41021843925E+00  0.94179637600E+01 -0.18670518989E+02  0.20915415370E+02  0.51100000000E-03 0.  1.
         12    1    3    3    0    0  0.91936241188E+01 -0.30252447607E+01 -0.65996103442E+01  0.11714507544E+02  0.00000000000E+00 0. -1.
</event>
<event>
 7    1  0.2661323E-011  0.5052886E+02  0.7816164E-02  0.1300439E+00
        -11   -1    0    0    0    0  0.00000000000E+00  0.00000000000E+00  0.45593999997E+02  0.45594000000E+02  0.51100000000E-03 0.  1.
         11   -1    0    0    0    0 -0.00000000000E+00 -0.00000000000E+00 -0.45593999997E+02  0.45594000000E+02  0.51100000000E-03 0. -1.
    9900012    2    1    2    0    0 -0.36834535551E+02 -0.10455166283E+02  0.13677434471E+02  0.50528859269E+02  0.29999998235E+02 0.  0.
         12    1    1    2    0    0  0.36834535551E+02  0.10455166283E+02 -0.13677434471E+02  0.40659140731E+02  0.00000000000E+00 0. -1.
         11    1    3    3    0    0 -0.21104523761E+02 -0.14532578577E+02  0.36661387130E+01  0.25885079420E+02  0.51100000000E-03 0. -1.
        -11    1    3    3    0    0 -0.16097762221E+02  0.76821405123E+00  0.12574976793E+02  0.20441578778E+02  0.51100000000E-03 0.  1.
         12    1    3    3    0    0  0.36775043097E+00  0.33091982423E+01 -0.25636810351E+01  0.42022010704E+01  0.00000000000E+00 0. -1.
</event>
<event>
 7    1  0.2661323E-011  0.5052889E+02  0.7816164E-02  0.1300439E+00
        -11   -1    0    0    0    0  0.00000000000E+00  0.00000000000E+00  0.45593999997E+02  0.45594000000E+02  0.51100000000E-03 0.  1.
         11   -1    0    0    0    0 -0.00000000000E+00 -0.00000000000E+00 -0.45593999997E+02  0.45594000000E+02  0.51100000000E-03 0. -1.
    9900012    2    1    2    0    0 -0.25258119553E+02  0.31861771878E+02  0.13558223412E+00  0.50528886715E+02  0.30000081659E+02 0.  0.
         12    1    1    2    0    0  0.25258119553E+02 -0.31861771878E+02 -0.13558223412E+00  0.40659113285E+02  0.00000000000E+00 0. -1.
         11    1    3    3    0    0 -0.23996030790E+01  0.60725444966E+01 -0.21848629911E+01  0.68853117686E+01  0.51100000000E-03 0. -1.
        -11    1    3    3    0    0 -0.14656772842E+01 -0.72906462023E+00 -0.79033662831E+01  0.80711178896E+01  0.51100000000E-03 0.  1.
        -12    1    3    3    0    0 -0.21392839190E+02  0.26518292002E+02  0.10223811508E+02  0.35572457057E+02  0.00000000000E+00 0.  1.
</event>
<event>
 7    1  0.2661323E-011  0.5052887E+02  0.7816164E-02  0.1300439E+00
        -11   -1    0    0    0    0  0.00000000000E+00  0.00000000000E+00  0.45593999997E+02  0.45594000000E+02  0.51100000000E-03 0.  1.
         11   -1    0    0    0    0 -0.00000000000E+00 -0.00000000000E+00 -0.45593999997E+02  0.45594000000E+02  0.51100000000E-03 0. -1.
    9900012    2    1    2    0    0 -0.23889057858E+02 -0.84713770682E+01  0.31791721056E+02  0.50528870122E+02  0.30000031222E+02 0.  0.
         12    1    1    2    0    0  0.23889057858E+02  0.84713770682E+01 -0.31791721056E+02  0.40659129878E+02  0.00000000000E+00 0. -1.
         11    1    3    3    0    0  0.11543304324E+01 -0.13007085208E+01  0.84181722667E+01  0.85959261267E+01  0.51100000000E-03 0.  1.
        -11    1    3    3    0    0 -0.20592283197E+01 -0.28537294183E+00 -0.46187018077E+01  0.50650040117E+01  0.51100000000E-03 0. -1.
         12    1    3    3    0    0 -0.22984159971E+02 -0.68852956056E+01  0.27992250597E+02  0.36867939983E+02  0.00000000000E+00 0. -1.
</event>
<event>
 7    1  0.2661323E-011  0.5052886E+02  0.7816164E-02  0.1300439E+00
        -11   -1    0    0    0    0  0.00000000000E+00  0.00000000000E+00  0.45593999997E+02  0.45594000000E+02  0.51100000000E-03 0. -1.
         11   -1    0    0    0    0 -0.00000000000E+00 -0.00000000000E+00 -0.45593999997E+02  0.45594000000E+02  0.51100000000E-03 0.  1.
    9900012    2    1    2    0    0 -0.19319931234E+02  0.31155871877E+02 -0.17584575106E+02  0.50528863549E+02  0.30000011243E+02 0.  0.
         12    1    1    2    0    0  0.19319931234E+02 -0.31155871877E+02  0.17584575106E+02  0.40659136451E+02  0.00000000000E+00 0. -1.
         11    1    3    3    0    0 -0.45940576248E+00  0.59847631205E+01 -0.90356441959E+00  0.60699977088E+01  0.51100000000E-03 0. -1.
        -11    1    3    3    0    0  0.10279921420E+01  0.13927776311E+02 -0.16492976158E+02  0.21611524324E+02  0.51100000000E-03 0.  1.
        -12    1    3    3    0    0 -0.19888517614E+02  0.11243332446E+02 -0.18803452809E+00  0.22847341516E+02  0.00000000000E+00 0.  1.
</event>
<event>
 7    1  0.2661323E-011  0.5052886E+02  0.7816164E-02  0.1300439E+00
        -11   -1    0    0    0    0  0.00000000000E+00  0.00000000000E+00  0.45593999997E+02  0.45594000000E+02  0.51100000000E-03 0.  1.
         11   -1    0    0    0    0 -0.00000000000E+00 -0.00000000000E+00 -0.45593999997E+02  0.45594000000E+02  0.51100000000E-03 0. -1.
    9900012    2    1    2    0    0  0.30138805662E+01 -0.23866689379E+02 -0.32779005439E+02  0.50528861598E+02  0.30000005314E+02 0.  0.
         12    1    1    2    0    0 -0.30138805662E+01  0.23866689379E+02  0.32779005439E+02  0.40659138402E+02  0.00000000000E+00 0. -1.
         11    1    3    3    0    0 -0.19001868516E+01 -0.82352528233E+01 -0.16275689190E+02  0.18339251838E+02  0.51100000000E-03 0. -1.
        -11    1    3    3    0    0  0.30786710539E+01 -0.18536996837E+02 -0.19891426024E+02  0.27363612640E+02  0.51100000000E-03 0.  1.
        -12    1    3    3    0    0  0.18353963639E+01  0.29055602814E+01  0.33881097739E+01  0.48259971200E+01  0.00000000000E+00 0.  1.
</event>
<event>
 7    1  0.2661323E-011  0.5052886E+02  0.7816164E-02  0.1300439E+00
        -11   -1    0    0    0    0  0.00000000000E+00  0.00000000000E+00  0.45593999997E+02  0.45594000000E+02  0.51100000000E-03 0.  1.
         11   -1    0    0    0    0 -0.00000000000E+00 -0.00000000000E+00 -0.45593999997E+02  0.45594000000E+02  0.51100000000E-03 0. -1.
    9900012    2    1    2    0    0 -0.29462894664E+02 -0.25056499085E+02  0.12540943073E+02  0.50528861279E+02  0.30000004343E+02 0.  0.
         12    1    1    2    0    0  0.29462894664E+02  0.25056499085E+02 -0.12540943073E+02  0.40659138721E+02  0.00000000000E+00 0. -1.
         11    1    3    3    0    0  0.30440863867E+01 -0.68918009671E+01  0.11634789569E+01  0.76234549939E+01  0.51100000000E-03 0. -1.
        -11    1    3    3    0    0 -0.91914458486E+01 -0.69947701855E+01  0.12511034828E+02  0.17027491872E+02  0.51100000000E-03 0.  1.
        -12    1    3    3    0    0 -0.23315535202E+02 -0.11169927933E+02 -0.11335707118E+01  0.25877914413E+02  0.00000000000E+00 0.  1.
</event>
<event>
 7    1  0.2661323E-011  0.5052886E+02  0.7816164E-02  0.1300439E+00
        -11   -1    0    0    0    0  0.00000000000E+00  0.00000000000E+00  0.45593999997E+02  0.45594000000E+02  0.51100000000E-03 0.  1.
         11   -1    0    0    0    0 -0.00000000000E+00 -0.00000000000E+00 -0.45593999997E+02  0.45594000000E+02  0.51100000000E-03 0. -1.
    9900012    2    1    2    0    0  0.29743624104E+02  0.26604219295E+01  0.27593560811E+02  0.50528860585E+02  0.30000002235E+02 0.  0.
         12    1    1    2    0    0 -0.29743624104E+02 -0.26604219295E+01 -0.27593560811E+02  0.40659139415E+02  0.00000000000E+00 0. -1.
         11    1    3    3    0    0  0.97236902341E+01  0.39304818158E+01 -0.35923802144E+01  0.11086209223E+02  0.51100000000E-03 0. -1.
        -11    1    3    3    0    0  0.43024344491E+01  0.44152060734E+01  0.34626617644E+01  0.70707152124E+01  0.51100000000E-03 0.  1.
        -12    1    3    3    0    0  0.15717499421E+02 -0.56852659597E+01  0.27723279261E+02  0.32371936150E+02  0.00000000000E+00 0.  1.
</event>
<event>
 7    1  0.2661323E-011  0.5052886E+02  0.7816164E-02  0.1300439E+00
        -11   -1    0    0    0    0  0.00000000000E+00  0.00000000000E+00  0.45593999997E+02  0.45594000000E+02  0.51100000000E-03 0.  1.
         11   -1    0    0    0    0 -0.00000000000E+00 -0.00000000000E+00 -0.45593999997E+02  0.45594000000E+02  0.51100000000E-03 0. -1.
    9900012    2    1    2    0    0 -0.28711846405E+02  0.12533173910E+02  0.25917465775E+02  0.50528860751E+02  0.30000002740E+02 0.  0.
         12    1    1    2    0    0  0.28711846405E+02 -0.12533173910E+02 -0.25917465775E+02  0.40659139249E+02  0.00000000000E+00 0. -1.
         11    1    3    3    0    0 -0.15036322847E+02  0.18266976891E+02  0.61327671614E+01  0.24441446005E+02  0.51100000000E-03 0.  1.
        -11    1    3    3    0    0  0.11035531596E+01 -0.17295998245E+00  0.70488077108E+00  0.13208337875E+01  0.51100000000E-03 0. -1.
         12    1    3    3    0    0 -0.14779076717E+02 -0.55608429990E+01  0.19079817843E+02  0.24766580959E+02  0.00000000000E+00 0. -1.
</event>
<event>
 7    1  0.2661323E-011  0.5052887E+02  0.7816164E-02  0.1300439E+00
        -11   -1    0    0    0    0  0.00000000000E+00  0.00000000000E+00  0.45593999997E+02  0.45594000000E+02  0.51100000000E-03 0.  1.
         11   -1    0    0    0    0 -0.00000000000E+00 -0.00000000000E+00 -0.45593999997E+02  0.45594000000E+02  0.51100000000E-03 0. -1.
    9900012    2    1    2    0    0  0.19645984142E+01  0.33935120642E+02  0.22309479596E+02  0.50528868925E+02  0.30000027585E+02 0.  0.
         12    1    1    2    0    0 -0.19645984142E+01 -0.33935120642E+02 -0.22309479596E+02  0.40659131075E+02  0.00000000000E+00 0. -1.
         11    1    3    3    0    0  0.37595064687E+01  0.96492648101E+01  0.10087167675E+02  0.14456595457E+02  0.51100000000E-03 0. -1.
        -11    1    3    3    0    0 -0.14754714667E+01  0.20775436335E+02  0.19153790146E+02  0.28295997035E+02  0.51100000000E-03 0.  1.
         12    1    3    3    0    0 -0.31943658773E+00  0.35104194968E+01 -0.69314782251E+01  0.77762764330E+01  0.00000000000E+00 0. -1.
</event>
<event>
 7    1  0.2661323E-011  0.5052886E+02  0.7816164E-02  0.1300439E+00
        -11   -1    0    0    0    0  0.00000000000E+00  0.00000000000E+00  0.45593999997E+02  0.45594000000E+02  0.51100000000E-03 0.  1.
         11   -1    0    0    0    0 -0.00000000000E+00 -0.00000000000E+00 -0.45593999997E+02  0.45594000000E+02  0.51100000000E-03 0. -1.
    9900012    2    1    2    0    0  0.22718625454E+02 -0.49983401007E+01  0.33347362167E+02  0.50528856997E+02  0.29999991327E+02 0.  0.
         12    1    1    2    0    0 -0.22718625454E+02  0.49983401007E+01 -0.33347362167E+02  0.40659143003E+02  0.00000000000E+00 0. -1.
         11    1    3    3    0    0  0.57304677641E+01 -0.36689722737E+01  0.21653414111E+02  0.22697355821E+02  0.51100000000E-03 0. -1.
        -11    1    3    3    0    0  0.13188062551E+02  0.66013406673E+01  0.12028168003E+02  0.19031014640E+02  0.51100000000E-03 0.  1.
         12    1    3    3    0    0  0.38000951389E+01 -0.79307084943E+01 -0.33421994726E+00  0.88004865354E+01  0.00000000000E+00 0. -1.
</event>
<event>
 7    1  0.2661323E-011  0.5052885E+02  0.7816164E-02  0.1300439E+00
        -11   -1    0    0    0    0  0.00000000000E+00  0.00000000000E+00  0.45593999997E+02  0.45594000000E+02  0.51100000000E-03 0. -1.
         11   -1    0    0    0    0 -0.00000000000E+00 -0.00000000000E+00 -0.45593999997E+02  0.45594000000E+02  0.51100000000E-03 0.  1.
    9900012    2    1    2    0    0  0.14002936436E+01 -0.36498786959E+02 -0.17861799899E+02  0.50528853829E+02  0.29999981698E+02 0.  0.
         12    1    1    2    0    0 -0.14002936436E+01  0.36498786959E+02  0.17861799899E+02  0.40659146171E+02  0.00000000000E+00 0. -1.
         11    1    3    3    0    0  0.13583211331E+01 -0.12737817637E+02  0.13529339083E+01  0.12881283510E+02  0.51100000000E-03 0. -1.
        -11    1    3    3    0    0  0.74914114848E+01 -0.11056872892E+02  0.10327868604E+00  0.13356135329E+02  0.51100000000E-03 0.  1.
         12    1    3    3    0    0 -0.74494389743E+01 -0.12704096429E+02 -0.19318012494E+02  0.24291434989E+02  0.00000000000E+00 0. -1.
</event>
<event>
 7    1  0.2661323E-011  0.5052885E+02  0.7816164E-02  0.1300439E+00
        -11   -1    0    0    0    0  0.00000000000E+00  0.00000000000E+00  0.45593999997E+02  0.45594000000E+02  0.51100000000E-03 0. -1.
         11   -1    0    0    0    0 -0.00000000000E+00 -0.00000000000E+00 -0.45593999997E+02  0.45594000000E+02  0.51100000000E-03 0.  1.
    9900012    2    1    2    0    0 -0.37727813773E+02 -0.94349061493E+01 -0.11864261429E+02  0.50528854837E+02  0.29999984762E+02 0.  0.
         12    1    1    2    0    0  0.37727813773E+02  0.94349061493E+01  0.11864261429E+02  0.40659145163E+02  0.00000000000E+00 0. -1.
         11    1    3    3    0    0 -0.17156583123E+02 -0.46091782465E+01 -0.11658172629E+02  0.21248667202E+02  0.51100000000E-03 0. -1.
        -11    1    3    3    0    0 -0.15731630291E+02  0.60391120606E+01 -0.28646278379E+01  0.17092722399E+02  0.51100000000E-03 0.  1.
         12    1    3    3    0    0 -0.48396003589E+01 -0.10864839963E+02  0.26585390375E+01  0.12187465236E+02  0.00000000000E+00 0. -1.
</event>
<event>
 7    1  0.2661323E-011  0.5052886E+02  0.7816164E-02  0.1300439E+00
        -11   -1    0    0    0    0  0.00000000000E+00  0.00000000000E+00  0.45593999997E+02  0.45594000000E+02  0.51100000000E-03 0. -1.
         11   -1    0    0    0    0 -0.00000000000E+00 -0.00000000000E+00 -0.45593999997E+02  0.45594000000E+02  0.51100000000E-03 0.  1.
    9900012    2    1    2    0    0  0.22362896241E+01 -0.22790896814E+02 -0.33596721266E+02  0.50528860207E+02  0.30000001086E+02 0.  0.
         12    1    1    2    0    0 -0.22362896241E+01  0.22790896814E+02  0.33596721266E+02  0.40659139793E+02  0.00000000000E+00 0. -1.
         11    1    3    3    0    0  0.49385017016E+01 -0.79445855178E+00 -0.57393790399E+01  0.76131751242E+01  0.51100000000E-03 0. -1.
        -11    1    3    3    0    0 -0.71592959368E+00 -0.11576599792E+01 -0.20770989031E+02  0.20815540286E+02  0.51100000000E-03 0.  1.
        -12    1    3    3    0    0 -0.19862824838E+01 -0.20838778283E+02 -0.70863531950E+01  0.22100144797E+02  0.00000000000E+00 0.  1.
</event>
<event>
 7    1  0.2661323E-011  0.5052885E+02  0.7816164E-02  0.1300439E+00
        -11   -1    0    0    0    0  0.00000000000E+00  0.00000000000E+00  0.45593999997E+02  0.45594000000E+02  0.51100000000E-03 0.  1.
         11   -1    0    0    0    0 -0.00000000000E+00 -0.00000000000E+00 -0.45593999997E+02  0.45594000000E+02  0.51100000000E-03 0. -1.
    9900012    2    1    2    0    0  0.10995499145E+02  0.16771552677E+02  0.35369199544E+02  0.50528852726E+02  0.29999978346E+02 0.  0.
         12    1    1    2    0    0 -0.10995499145E+02 -0.16771552677E+02 -0.35369199544E+02  0.40659147274E+02  0.00000000000E+00 0. -1.
         11    1    3    3    0    0  0.10988465780E+02  0.10071494155E+02  0.15368638571E+01  0.14984769785E+02  0.51100000000E-03 0. -1.
        -11    1    3    3    0    0  0.28773635928E+01  0.35510522479E+01  0.68976809468E+01  0.82744906802E+01  0.51100000000E-03 0.  1.
         12    1    3    3    0    0 -0.28703302275E+01  0.31490062739E+01  0.26934654740E+02  0.27269592261E+02  0.00000000000E+00 0. -1.
</event>
<event>
 7    1  0.2661323E-011  0.5052886E+02  0.7816164E-02  0.1300439E+00
        -11   -1    0    0    0    0  0.00000000000E+00  0.00000000000E+00  0.45593999997E+02  0.45594000000E+02  0.51100000000E-03 0.  1.
         11   -1    0    0    0    0 -0.00000000000E+00 -0.00000000000E+00 -0.45593999997E+02  0.45594000000E+02  0.51100000000E-03 0. -1.
    9900012    2    1    2    0    0 -0.31817898462E+02  0.18814183687E+02  0.16935577228E+02  0.50528856547E+02  0.29999989959E+02 0.  0.
         12    1    1    2    0    0  0.31817898462E+02 -0.18814183687E+02 -0.16935577228E+02  0.40659143453E+02  0.00000000000E+00 0. -1.
         11    1    3    3    0    0 -0.64971946218E+01  0.14899154696E+02  0.11359837280E+02  0.19830387083E+02  0.51100000000E-03 0. -1.
        -11    1    3    3    0    0 -0.20792154724E+02  0.87541927219E+01  0.75388799930E+01  0.23786220803E+02  0.51100000000E-03 0.  1.
        -12    1    3    3    0    0 -0.45285491154E+01 -0.48391637304E+01 -0.19631400446E+01  0.69122486598E+01  0.00000000000E+00 0.  1.
</event>
<event>
 7    1  0.2661323E-011  0.5052886E+02  0.7816164E-02  0.1300439E+00
        -11   -1    0    0    0    0  0.00000000000E+00  0.00000000000E+00  0.45593999997E+02  0.45594000000E+02  0.51100000000E-03 0. -1.
         11   -1    0    0    0    0 -0.00000000000E+00 -0.00000000000E+00 -0.45593999997E+02  0.45594000000E+02  0.51100000000E-03 0.  1.
    9900012    2    1    2    0    0  0.23834173179E+02 -0.96715641424E+01 -0.31489030203E+02  0.50528856044E+02  0.29999988433E+02 0.  0.
         12    1    1    2    0    0 -0.23834173179E+02  0.96715641424E+01  0.31489030203E+02  0.40659143956E+02  0.00000000000E+00 0. -1.
         11    1    3    3    0    0  0.12903120827E+02 -0.90958295274E+01 -0.21983614691E+02  0.27064810308E+02  0.51100000000E-03 0. -1.
        -11    1    3    3    0    0  0.67476114973E+01 -0.37952968074E+01 -0.14346115401E+02  0.16301704394E+02  0.51100000000E-03 0.  1.
         12    1    3    3    0    0  0.41834408545E+01  0.32195621924E+01  0.48406998891E+01  0.71623413427E+01  0.00000000000E+00 0. -1.
</event>
<event>
 7    1  0.2661323E-011  0.5052886E+02  0.7816164E-02  0.1300439E+00
        -11   -1    0    0    0    0  0.00000000000E+00  0.00000000000E+00  0.45593999997E+02  0.45594000000E+02  0.51100000000E-03 0.  1.
         11   -1    0    0    0    0 -0.00000000000E+00 -0.00000000000E+00 -0.45593999997E+02  0.45594000000E+02  0.51100000000E-03 0. -1.
    9900012    2    1    2    0    0 -0.33361037227E+02 -0.23136651156E+02  0.22140825478E+01  0.50528860891E+02  0.30000003164E+02 0.  0.
         12    1    1    2    0    0  0.33361037227E+02  0.23136651156E+02 -0.22140825478E+01  0.40659139109E+02  0.00000000000E+00 0. -1.
         11    1    3    3    0    0 -0.16209878046E+02 -0.26227249414E+01  0.19140278827E+01  0.16531858195E+02  0.51100000000E-03 0. -1.
        -11    1    3    3    0    0 -0.19331626252E+02 -0.75528351880E+01  0.14390577759E+01  0.20804518270E+02  0.51100000000E-03 0.  1.
         12    1    3    3    0    0  0.21804670705E+01 -0.12961091026E+02 -0.11390031107E+01  0.13192484426E+02  0.00000000000E+00 0. -1.
</event>
<event>
 7    1  0.2661323E-011  0.5052886E+02  0.7816164E-02  0.1300439E+00
        -11   -1    0    0    0    0  0.00000000000E+00  0.00000000000E+00  0.45593999997E+02  0.45594000000E+02  0.51100000000E-03 0. -1.
         11   -1    0    0    0    0 -0.00000000000E+00 -0.00000000000E+00 -0.45593999997E+02  0.45594000000E+02  0.51100000000E-03 0.  1.
    9900012    2    1    2    0    0  0.83208882646E-01 -0.40603284180E+02  0.21289438895E+01  0.50528855740E+02  0.29999987506E+02 0.  0.
         12    1    1    2    0    0 -0.83208882646E-01  0.40603284180E+02 -0.21289438895E+01  0.40659144260E+02  0.00000000000E+00 0. -1.
         11    1    3    3    0    0  0.19450331254E+01 -0.23040243814E+02  0.13171659471E+02  0.26610685868E+02  0.51100000000E-03 0. -1.
        -11    1    3    3    0    0  0.22652837773E+01 -0.17198966388E+01  0.15723354272E+01  0.32498913823E+01  0.51100000000E-03 0.  1.
        -12    1    3    3    0    0 -0.41271080201E+01 -0.15843143727E+02 -0.12615051009E+02  0.20668278490E+02  0.00000000000E+00 0.  1.
</event>
<event>
 7    1  0.2661323E-011  0.5052886E+02  0.7816164E-02  0.1300439E+00
        -11   -1    0    0    0    0  0.00000000000E+00  0.00000000000E+00  0.45593999997E+02  0.45594000000E+02  0.51100000000E-03 0.  1.
         11   -1    0    0    0    0 -0.00000000000E+00 -0.00000000000E+00 -0.45593999997E+02  0.45594000000E+02  0.51100000000E-03 0. -1.
    9900012    2    1    2    0    0  0.14525157985E+02 -0.17333736010E+02  0.33789455985E+02  0.50528856449E+02  0.29999989662E+02 0.  0.
         12    1    1    2    0    0 -0.14525157985E+02  0.17333736010E+02 -0.33789455985E+02  0.40659143551E+02  0.00000000000E+00 0. -1.
         11    1    3    3    0    0 -0.43366810150E+01 -0.22419710495E+01  0.88053533026E+01  0.10068142006E+02  0.51100000000E-03 0. -1.
        -11    1    3    3    0    0  0.40194705712E+01  0.25674784520E+01  0.14231629376E+02  0.15009575751E+02  0.51100000000E-03 0.  1.
         12    1    3    3    0    0  0.14842368429E+02 -0.17659243412E+02  0.10752473306E+02  0.25451138691E+02  0.00000000000E+00 0. -1.
</event>
<event>
 7    1  0.2661323E-011  0.5052886E+02  0.7816164E-02  0.1300439E+00
        -11   -1    0    0    0    0  0.00000000000E+00  0.00000000000E+00  0.45593999997E+02  0.45594000000E+02  0.51100000000E-03 0.  1.
         11   -1    0    0    0    0 -0.00000000000E+00 -0.00000000000E+00 -0.45593999997E+02  0.45594000000E+02  0.51100000000E-03 0. -1.
    9900012    2    1    2    0    0 -0.28026813760E+02  0.97158936733E-02  0.29456123609E+02  0.50528860781E+02  0.30000002831E+02 0.  0.
         12    1    1    2    0    0  0.28026813760E+02 -0.97158936733E-02 -0.29456123609E+02  0.40659139219E+02  0.00000000000E+00 0. -1.
         11    1    3    3    0    0 -0.89031825010E+01 -0.72620330899E+01  0.48447134169E+01  0.12468962731E+02  0.51100000000E-03 0. -1.
        -11    1    3    3    0    0  0.42479794499E+01  0.29461130805E+01  0.56190213583E+01  0.76353331935E+01  0.51100000000E-03 0.  1.
        -12    1    3    3    0    0 -0.23371610709E+02  0.43256359030E+01  0.18992388834E+02  0.30424564856E+02  0.00000000000E+00 0.  1.
</event>
<event>
 7    1  0.2661323E-011  0.5052885E+02  0.7816164E-02  0.1300439E+00
        -11   -1    0    0    0    0  0.00000000000E+00  0.00000000000E+00  0.45593999997E+02  0.45594000000E+02  0.51100000000E-03 0.  1.
         11   -1    0    0    0    0 -0.00000000000E+00 -0.00000000000E+00 -0.45593999997E+02  0.45594000000E+02  0.51100000000E-03 0. -1.
    9900012    2    1    2    0    0 -0.12400329944E+02 -0.28978735485E+02  0.25683285676E+02  0.50528850278E+02  0.29999970905E+02 0.  0.
         12    1    1    2    0    0  0.12400329944E+02  0.28978735485E+02 -0.25683285676E+02  0.40659149722E+02  0.00000000000E+00 0. -1.
         11    1    3    3    0    0 -0.61099232004E+01 -0.24468922017E+01 -0.20399962646E+01  0.68905753012E+01  0.51100000000E-03 0. -1.
        -11    1    3    3    0    0 -0.19648679114E+01  0.98540295792E+00 -0.19505875548E+01  0.29387951560E+01  0.51100000000E-03 0.  1.
         12    1    3    3    0    0 -0.43255388323E+01 -0.27517246241E+02  0.29673869495E+02  0.40699479821E+02  0.00000000000E+00 0. -1.
</event>
<event>
 7    1  0.2661323E-011  0.5052886E+02  0.7816164E-02  0.1300439E+00
        -11   -1    0    0    0    0  0.00000000000E+00  0.00000000000E+00  0.45593999997E+02  0.45594000000E+02  0.51100000000E-03 0.  1.
         11   -1    0    0    0    0 -0.00000000000E+00 -0.00000000000E+00 -0.45593999997E+02  0.45594000000E+02  0.51100000000E-03 0. -1.
    9900012    2    1    2    0    0 -0.18737766166E+02  0.85192176691E+00  0.36074033565E+02  0.50528861430E+02  0.30000004802E+02 0.  0.
         12    1    1    2    0    0  0.18737766166E+02 -0.85192176691E+00 -0.36074033565E+02  0.40659138570E+02  0.00000000000E+00 0. -1.
         11    1    3    3    0    0 -0.93714774606E+01  0.43242307510E-02  0.60558020815E+01  0.11157837945E+02  0.51100000000E-03 0. -1.
        -11    1    3    3    0    0 -0.14040365340E+02  0.30343893441E+01  0.73748353114E+01  0.16147060838E+02  0.51100000000E-03 0.  1.
         12    1    3    3    0    0  0.46740766350E+01 -0.21867918079E+01  0.22643396173E+02  0.23223962647E+02  0.00000000000E+00 0. -1.
</event>
<event>
 7    1  0.2661323E-011  0.5052886E+02  0.7816164E-02  0.1300439E+00
        -11   -1    0    0    0    0  0.00000000000E+00  0.00000000000E+00  0.45593999997E+02  0.45594000000E+02  0.51100000000E-03 0. -1.
         11   -1    0    0    0    0 -0.00000000000E+00 -0.00000000000E+00 -0.45593999997E+02  0.45594000000E+02  0.51100000000E-03 0.  1.
    9900012    2    1    2    0    0 -0.26643758812E+02  0.92925928147E+01 -0.29273262333E+02  0.50528855242E+02  0.29999985993E+02 0.  0.
         12    1    1    2    0    0  0.26643758812E+02 -0.92925928147E+01  0.29273262333E+02  0.40659144758E+02  0.00000000000E+00 0. -1.
         11    1    3    3    0    0  0.40058947108E+00  0.44846358771E+01  0.14165985869E+01  0.47200829115E+01  0.51100000000E-03 0. -1.
        -11    1    3    3    0    0 -0.10523575505E+02  0.68230708413E+01 -0.20844453194E+01  0.12713962784E+02  0.51100000000E-03 0.  1.
         12    1    3    3    0    0 -0.16520772778E+02 -0.20151139037E+01 -0.28605415601E+02  0.33094809547E+02  0.00000000000E+00 0. -1.
</event>
<event>
 7    1  0.2661323E-011  0.5052886E+02  0.7816164E-02  0.1300439E+00
        -11   -1    0    0    0    0  0.00000000000E+00  0.00000000000E+00  0.45593999997E+02  0.45594000000E+02  0.51100000000E-03 0.  1.
         11   -1    0    0    0    0 -0.00000000000E+00 -0.00000000000E+00 -0.45593999997E+02  0.45594000000E+02  0.51100000000E-03 0. -1.
    9900012    2    1    2    0    0  0.91780736468E+00 -0.93932009512E+01  0.39548589860E+02  0.50528861367E+02  0.30000004610E+02 0.  0.
         12    1    1    2    0    0 -0.91780736468E+00  0.93932009512E+01 -0.39548589860E+02  0.40659138633E+02  0.00000000000E+00 0. -1.
         11    1    3    3    0    0  0.11448416826E+01 -0.54135295834E+01  0.16251629053E+02  0.17167772487E+02  0.51100000000E-03 0. -1.
        -11    1    3    3    0    0  0.70461646317E+01 -0.17838908161E+01  0.24601242060E+02  0.25652520609E+02  0.51100000000E-03 0.  1.
         12    1    3    3    0    0 -0.72731989496E+01 -0.21957805517E+01 -0.13042812526E+01  0.77085682703E+01  0.00000000000E+00 0. -1.
</event>
<event>
 7    1  0.2661323E-011  0.5052886E+02  0.7816164E-02  0.1300439E+00
        -11   -1    0    0    0    0  0.00000000000E+00  0.00000000000E+00  0.45593999997E+02  0.45594000000E+02  0.51100000000E-03 0.  1.
         11   -1    0    0    0    0 -0.00000000000E+00 -0.00000000000E+00 -0.45593999997E+02  0.45594000000E+02  0.51100000000E-03 0. -1.
    9900012    2    1    2    0    0 -0.21640994428E+02 -0.46513123093E+01  0.34105693678E+02  0.50528859733E+02  0.29999999644E+02 0.  0.
         12    1    1    2    0    0  0.21640994428E+02  0.46513123093E+01 -0.34105693678E+02  0.40659140267E+02  0.00000000000E+00 0. -1.
         11    1    3    3    0    0 -0.21771515775E+01  0.57806813449E+01  0.77661326877E+01  0.99231589218E+01  0.51100000000E-03 0. -1.
        -11    1    3    3    0    0 -0.14075952892E+02  0.17118228969E+01  0.42047047868E+01  0.14789940164E+02  0.51100000000E-03 0.  1.
         12    1    3    3    0    0 -0.53878899581E+01 -0.12143816551E+02  0.22134856203E+02  0.25815760647E+02  0.00000000000E+00 0. -1.
</event>
<event>
 7    1  0.2661323E-011  0.5052886E+02  0.7816164E-02  0.1300439E+00
        -11   -1    0    0    0    0  0.00000000000E+00  0.00000000000E+00  0.45593999997E+02  0.45594000000E+02  0.51100000000E-03 0.  1.
         11   -1    0    0    0    0 -0.00000000000E+00 -0.00000000000E+00 -0.45593999997E+02  0.45594000000E+02  0.51100000000E-03 0. -1.
    9900012    2    1    2    0    0 -0.22822813341E+02 -0.20262096407E+01  0.33588382865E+02  0.50528858374E+02  0.29999995514E+02 0.  0.
         12    1    1    2    0    0  0.22822813341E+02  0.20262096407E+01 -0.33588382865E+02  0.40659141626E+02  0.00000000000E+00 0. -1.
         11    1    3    3    0    0 -0.24712904838E+02  0.22741659573E-01  0.15454654139E+02  0.29147461597E+02  0.51100000000E-03 0. -1.
        -11    1    3    3    0    0 -0.39428980174E+01  0.14926742784E+01  0.47001239695E+01  0.63139280061E+01  0.51100000000E-03 0.  1.
        -12    1    3    3    0    0  0.58329895149E+01 -0.35416255787E+01  0.13433604756E+02  0.15067468771E+02  0.00000000000E+00 0.  1.
</event>
<event>
 7    1  0.2661323E-011  0.5052884E+02  0.7816164E-02  0.1300439E+00
        -11   -1    0    0    0    0  0.00000000000E+00  0.00000000000E+00  0.45593999997E+02  0.45594000000E+02  0.51100000000E-03 0. -1.
         11   -1    0    0    0    0 -0.00000000000E+00 -0.00000000000E+00 -0.45593999997E+02  0.45594000000E+02  0.51100000000E-03 0.  1.
    9900012    2    1    2    0    0 -0.91936427202E+00 -0.35407358785E+02 -0.19965992958E+02  0.50528841602E+02  0.29999944534E+02 0.  0.
         12    1    1    2    0    0  0.91936427202E+00  0.35407358785E+02  0.19965992958E+02  0.40659158398E+02  0.00000000000E+00 0. -1.
         11    1    3    3    0    0  0.27280747958E+01 -0.23320984233E+01 -0.11663248880E+02  0.12202968895E+02  0.51100000000E-03 0. -1.
        -11    1    3    3    0    0  0.41528935802E+01 -0.11267367851E+02 -0.92309981076E+01  0.15146333870E+02  0.51100000000E-03 0.  1.
         12    1    3    3    0    0 -0.78003326480E+01 -0.21807892511E+02  0.92825402931E+00  0.23179538837E+02  0.00000000000E+00 0. -1.
</event>
<event>
 7    1  0.2661323E-011  0.5052886E+02  0.7816164E-02  0.1300439E+00
        -11   -1    0    0    0    0  0.00000000000E+00  0.00000000000E+00  0.45593999997E+02  0.45594000000E+02  0.51100000000E-03 0.  1.
         11   -1    0    0    0    0 -0.00000000000E+00 -0.00000000000E+00 -0.45593999997E+02  0.45594000000E+02  0.51100000000E-03 0. -1.
    9900012    2    1    2    0    0 -0.25463414597E+02 -0.38057782259E+01  0.31468974418E+02  0.50528858570E+02  0.29999996110E+02 0.  0.
         12    1    1    2    0    0  0.25463414597E+02  0.38057782259E+01 -0.31468974418E+02  0.40659141430E+02  0.00000000000E+00 0. -1.
         11    1    3    3    0    0 -0.18749385139E+02 -0.11660196739E+01  0.74378748955E+01  0.20204480399E+02  0.51100000000E-03 0. -1.
        -11    1    3    3    0    0 -0.88046623195E+01  0.13580386425E+01  0.39543016634E+01  0.97469405159E+01  0.51100000000E-03 0.  1.
         12    1    3    3    0    0  0.20906328614E+01 -0.39977971945E+01  0.20076797859E+02  0.20577437655E+02  0.00000000000E+00 0. -1.
</event>
<event>
 7    1  0.2661323E-011  0.5052886E+02  0.7816164E-02  0.1300439E+00
        -11   -1    0    0    0    0  0.00000000000E+00  0.00000000000E+00  0.45593999997E+02  0.45594000000E+02  0.51100000000E-03 0.  1.
         11   -1    0    0    0    0 -0.00000000000E+00 -0.00000000000E+00 -0.45593999997E+02  0.45594000000E+02  0.51100000000E-03 0. -1.
    9900012    2    1    2    0    0  0.19511169298E+02  0.18934654311E+02  0.30231753621E+02  0.50528858491E+02  0.29999995869E+02 0.  0.
         12    1    1    2    0    0 -0.19511169298E+02 -0.18934654311E+02 -0.30231753621E+02  0.40659141509E+02  0.00000000000E+00 0. -1.
         11    1    3    3    0    0  0.41204034813E+01 -0.65859833355E+01  0.60946635674E+01  0.98740987237E+01  0.51100000000E-03 0. -1.
        -11    1    3    3    0    0  0.16999321961E+02  0.19133763997E+02  0.21941493529E+02  0.33712119637E+02  0.51100000000E-03 0.  1.
         12    1    3    3    0    0 -0.16085561443E+01  0.63868736497E+01  0.21955965241E+01  0.69426401306E+01  0.00000000000E+00 0. -1.
</event>
<event>
 7    1  0.2661323E-011  0.5052886E+02  0.7816164E-02  0.1300439E+00
        -11   -1    0    0    0    0  0.00000000000E+00  0.00000000000E+00  0.45593999997E+02  0.45594000000E+02  0.51100000000E-03 0. -1.
         11   -1    0    0    0    0 -0.00000000000E+00 -0.00000000000E+00 -0.45593999997E+02  0.45594000000E+02  0.51100000000E-03 0.  1.
    9900012    2    1    2    0    0 -0.36766932141E+01  0.11946152894E+02 -0.38690272087E+02  0.50528858395E+02  0.29999995576E+02 0.  0.
         12    1    1    2    0    0  0.36766932141E+01 -0.11946152894E+02  0.38690272087E+02  0.40659141605E+02  0.00000000000E+00 0. -1.
         11    1    3    3    0    0  0.41725870187E+01  0.42271120149E+01  0.17849052167E+01  0.62020033303E+01  0.51100000000E-03 0. -1.
        -11    1    3    3    0    0 -0.57099967593E+01 -0.16303363457E+01 -0.56192089980E+01  0.81754247361E+01  0.51100000000E-03 0.  1.
        -12    1    3    3    0    0 -0.21392834734E+01  0.93493772248E+01 -0.34855968305E+02  0.36151430328E+02  0.00000000000E+00 0.  1.
</event>
<event>
 7    1  0.2661323E-011  0.5052886E+02  0.7816164E-02  0.1300439E+00
        -11   -1    0    0    0    0  0.00000000000E+00  0.00000000000E+00  0.45593999997E+02  0.45594000000E+02  0.51100000000E-03 0.  1.
         11   -1    0    0    0    0 -0.00000000000E+00 -0.00000000000E+00 -0.45593999997E+02  0.45594000000E+02  0.51100000000E-03 0. -1.
    9900012    2    1    2    0    0 -0.33325199942E+02  0.17344664529E+02  0.15548614603E+02  0.50528858902E+02  0.29999997117E+02 0.  0.
         12    1    1    2    0    0  0.33325199942E+02 -0.17344664529E+02 -0.15548614603E+02  0.40659141098E+02  0.00000000000E+00 0. -1.
         11    1    3    3    0    0 -0.26274658124E+02  0.79313564587E+01  0.44362699120E+01  0.27801880617E+02  0.51100000000E-03 0. -1.
        -11    1    3    3    0    0 -0.99720051530E+01  0.45550508627E+01  0.84131439489E+00  0.10995325612E+02  0.51100000000E-03 0.  1.
         12    1    3    3    0    0  0.29214633351E+01  0.48582572072E+01  0.10271030296E+02  0.11731652673E+02  0.00000000000E+00 0. -1.
</event>
<event>
 7    1  0.2661323E-011  0.5052885E+02  0.7816164E-02  0.1300439E+00
        -11   -1    0    0    0    0  0.00000000000E+00  0.00000000000E+00  0.45593999997E+02  0.45594000000E+02  0.51100000000E-03 0.  1.
         11   -1    0    0    0    0 -0.00000000000E+00 -0.00000000000E+00 -0.45593999997E+02  0.45594000000E+02  0.51100000000E-03 0. -1.
    9900012    2    1    2    0    0  0.73297464437E+01  0.27171398176E+02  0.29345470571E+02  0.50528847220E+02  0.29999961610E+02 0.  0.
         12    1    1    2    0    0 -0.73297464437E+01 -0.27171398176E+02 -0.29345470571E+02  0.40659152780E+02  0.00000000000E+00 0. -1.
         11    1    3    3    0    0 -0.53676697265E+00  0.21664785851E+00 -0.21609970890E+01  0.22371776320E+01  0.51100000000E-03 0. -1.
        -11    1    3    3    0    0 -0.43205130476E+01  0.10264988133E+02  0.65253302608E+00  0.11156281369E+02  0.51100000000E-03 0.  1.
         12    1    3    3    0    0  0.12187026464E+02  0.16689762184E+02  0.30853934634E+02  0.37135388219E+02  0.00000000000E+00 0. -1.
</event>
<event>
 7    1  0.2661323E-011  0.5052887E+02  0.7816164E-02  0.1300439E+00
        -11   -1    0    0    0    0  0.00000000000E+00  0.00000000000E+00  0.45593999997E+02  0.45594000000E+02  0.51100000000E-03 0. -1.
         11   -1    0    0    0    0 -0.00000000000E+00 -0.00000000000E+00 -0.45593999997E+02  0.45594000000E+02  0.51100000000E-03 0.  1.
    9900012    2    1    2    0    0 -0.92673436572E+01 -0.36776734372E+02 -0.14654461697E+02  0.50528866990E+02  0.30000021702E+02 0.  0.
         12    1    1    2    0    0  0.92673436572E+01  0.36776734372E+02  0.14654461697E+02  0.40659133010E+02  0.00000000000E+00 0. -1.
         11    1    3    3    0    0 -0.29156844586E+01 -0.26223817353E+01 -0.38096757961E+01  0.54673331489E+01  0.51100000000E-03 0. -1.
        -11    1    3    3    0    0 -0.10504933731E+02 -0.35187621732E+02 -0.14452579022E+02  0.39463899915E+02  0.51100000000E-03 0.  1.
         12    1    3    3    0    0  0.41532745320E+01  0.10332690952E+01  0.36077931216E+01  0.55976339260E+01  0.00000000000E+00 0. -1.
</event>
<event>
 7    1  0.2661323E-011  0.5052886E+02  0.7816164E-02  0.1300439E+00
        -11   -1    0    0    0    0  0.00000000000E+00  0.00000000000E+00  0.45593999997E+02  0.45594000000E+02  0.51100000000E-03 0. -1.
         11   -1    0    0    0    0 -0.00000000000E+00 -0.00000000000E+00 -0.45593999997E+02  0.45594000000E+02  0.51100000000E-03 0.  1.
    9900012    2    1    2    0    0 -0.30124644500E+02  0.62300377747E+01 -0.26586806414E+02  0.50528857704E+02  0.29999993477E+02 0.  0.
         12    1    1    2    0    0  0.30124644500E+02 -0.62300377747E+01  0.26586806414E+02  0.40659142296E+02  0.00000000000E+00 0. -1.
         11    1    3    3    0    0 -0.12424471710E+02 -0.11256539987E+02 -0.68448640642E+01  0.18108819787E+02  0.51100000000E-03 0. -1.
        -11    1    3    3    0    0 -0.21365146996E+01 -0.75894368353E-01 -0.25635389672E+01  0.33379915090E+01  0.51100000000E-03 0.  1.
        -12    1    3    3    0    0 -0.15563658091E+02  0.17562472130E+02 -0.17178403383E+02  0.29082046408E+02  0.00000000000E+00 0.  1.
</event>
<event>
 7    1  0.2661323E-011  0.5052887E+02  0.7816164E-02  0.1300439E+00
        -11   -1    0    0    0    0  0.00000000000E+00  0.00000000000E+00  0.45593999997E+02  0.45594000000E+02  0.51100000000E-03 0.  1.
         11   -1    0    0    0    0 -0.00000000000E+00 -0.00000000000E+00 -0.45593999997E+02  0.45594000000E+02  0.51100000000E-03 0. -1.
    9900012    2    1    2    0    0 -0.24491376702E+02 -0.43160570609E+01  0.32166898288E+02  0.50528865396E+02  0.30000016858E+02 0.  0.
         12    1    1    2    0    0  0.24491376702E+02  0.43160570609E+01 -0.32166898288E+02  0.40659134604E+02  0.00000000000E+00 0. -1.
         11    1    3    3    0    0 -0.19452304566E+02 -0.62047005096E+01  0.82784897365E+01  0.22032336551E+02  0.51100000000E-03 0. -1.
        -11    1    3    3    0    0 -0.45755293179E+01 -0.57445059635E+01  0.79770524227E+01  0.10842886282E+02  0.51100000000E-03 0.  1.
         12    1    3    3    0    0 -0.46354281778E+00  0.76331494122E+01  0.15911356129E+02  0.17653642563E+02  0.00000000000E+00 0. -1.
</event>
<event>
 7    1  0.2661323E-011  0.5052885E+02  0.7816164E-02  0.1300439E+00
        -11   -1    0    0    0    0  0.00000000000E+00  0.00000000000E+00  0.45593999997E+02  0.45594000000E+02  0.51100000000E-03 0.  1.
         11   -1    0    0    0    0 -0.00000000000E+00 -0.00000000000E+00 -0.45593999997E+02  0.45594000000E+02  0.51100000000E-03 0. -1.
    9900012    2    1    2    0    0 -0.10885947117E+02  0.26781028960E+02  0.28590890319E+02  0.50528851386E+02  0.29999974274E+02 0.  0.
         12    1    1    2    0    0  0.10885947117E+02 -0.26781028960E+02 -0.28590890319E+02  0.40659148614E+02  0.00000000000E+00 0. -1.
         11    1    3    3    0    0  0.27412579375E+01  0.85785372735E+01  0.62904875163E+01  0.10985264234E+02  0.51100000000E-03 0. -1.
        -11    1    3    3    0    0  0.54811470586E+01 -0.99311438285E+00  0.38471769481E+01  0.67697872926E+01  0.51100000000E-03 0.  1.
        -12    1    3    3    0    0 -0.19108352113E+02  0.19195606069E+02  0.18453225854E+02  0.32773799860E+02  0.00000000000E+00 0.  1.
</event>
<event>
 7    1  0.2661323E-011  0.5052893E+02  0.7816164E-02  0.1300439E+00
        -11   -1    0    0    0    0  0.00000000000E+00  0.00000000000E+00  0.45593999997E+02  0.45594000000E+02  0.51100000000E-03 0. -1.
         11   -1    0    0    0    0 -0.00000000000E+00 -0.00000000000E+00 -0.45593999997E+02  0.45594000000E+02  0.51100000000E-03 0.  1.
    9900012    2    1    2    0    0  0.30736668905E+02  0.16553620566E+02 -0.20842142286E+02  0.50528928881E+02  0.30000209826E+02 0.  0.
         12    1    1    2    0    0 -0.30736668905E+02 -0.16553620566E+02  0.20842142286E+02  0.40659071119E+02  0.00000000000E+00 0. -1.
         11    1    3    3    0    0  0.24054308505E+02  0.21593797451E+02 -0.13632335385E+02  0.35081938577E+02  0.51100000000E-03 0. -1.
        -11    1    3    3    0    0  0.59681233558E+01  0.19679579048E+01 -0.51003019352E+01  0.80934810061E+01  0.51100000000E-03 0.  1.
         12    1    3    3    0    0  0.71423704400E+00 -0.70081347901E+01 -0.21095049651E+01  0.73535092976E+01  0.00000000000E+00 0. -1.
</event>
<event>
 7    1  0.2661323E-011  0.5052886E+02  0.7816164E-02  0.1300439E+00
        -11   -1    0    0    0    0  0.00000000000E+00  0.00000000000E+00  0.45593999997E+02  0.45594000000E+02  0.51100000000E-03 0. -1.
         11   -1    0    0    0    0 -0.00000000000E+00 -0.00000000000E+00 -0.45593999997E+02  0.45594000000E+02  0.51100000000E-03 0.  1.
    9900012    2    1    2    0    0  0.26037830294E+02  0.15109875473E+02 -0.27329268993E+02  0.50528857278E+02  0.29999992181E+02 0.  0.
         12    1    1    2    0    0 -0.26037830294E+02 -0.15109875473E+02  0.27329268993E+02  0.40659142722E+02  0.00000000000E+00 0. -1.
         11    1    3    3    0    0 -0.14303068681E+01  0.52360445556E-01 -0.64542637601E-03  0.14312651854E+01  0.51100000000E-03 0. -1.
        -11    1    3    3    0    0 -0.53764064411E+00  0.17195912343E+01 -0.15958193610E+02  0.16059576428E+02  0.51100000000E-03 0.  1.
        -12    1    3    3    0    0  0.28005777806E+02  0.13337923793E+02 -0.11370429956E+02  0.33038015664E+02  0.00000000000E+00 0.  1.
</event>
<event>
 7    1  0.2661323E-011  0.5052886E+02  0.7816164E-02  0.1300439E+00
        -11   -1    0    0    0    0  0.00000000000E+00  0.00000000000E+00  0.45593999997E+02  0.45594000000E+02  0.51100000000E-03 0.  1.
         11   -1    0    0    0    0 -0.00000000000E+00 -0.00000000000E+00 -0.45593999997E+02  0.45594000000E+02  0.51100000000E-03 0. -1.
    9900012    2    1    2    0    0  0.11913975812E+01 -0.15272209835E+02  0.37663053135E+02  0.50528863353E+02  0.30000010649E+02 0.  0.
         12    1    1    2    0    0 -0.11913975812E+01  0.15272209835E+02 -0.37663053135E+02  0.40659136647E+02  0.00000000000E+00 0. -1.
         11    1    3    3    0    0  0.21236586111E+01 -0.24621244106E+01 -0.96041440252E+00  0.33903360594E+01  0.51100000000E-03 0. -1.
        -11    1    3    3    0    0  0.85796185750E+01  0.22231801832E+01  0.93475284765E+01  0.12881330440E+02  0.51100000000E-03 0.  1.
        -12    1    3    3    0    0 -0.95118796048E+01 -0.15033265607E+02  0.29275939061E+02  0.34257196854E+02  0.00000000000E+00 0.  1.
</event>
<event>
 7    1  0.2661323E-011  0.5052886E+02  0.7816164E-02  0.1300439E+00
        -11   -1    0    0    0    0  0.00000000000E+00  0.00000000000E+00  0.45593999997E+02  0.45594000000E+02  0.51100000000E-03 0.  1.
         11   -1    0    0    0    0 -0.00000000000E+00 -0.00000000000E+00 -0.45593999997E+02  0.45594000000E+02  0.51100000000E-03 0. -1.
    9900012    2    1    2    0    0  0.74946358378E+01  0.30416065973E+02  0.25920247283E+02  0.50528857672E+02  0.29999993379E+02 0.  0.
         12    1    1    2    0    0 -0.74946358378E+01 -0.30416065973E+02 -0.25920247283E+02  0.40659142328E+02  0.00000000000E+00 0. -1.
         11    1    3    3    0    0 -0.24677569658E+01  0.83209647725E+01  0.22000261747E+02  0.23650365672E+02  0.51100000000E-03 0. -1.
        -11    1    3    3    0    0 -0.18223681481E+01  0.61280630862E+01  0.28636324857E+01  0.70053246984E+01  0.51100000000E-03 0.  1.
         12    1    3    3    0    0  0.11784760952E+02  0.15967038115E+02  0.10563530504E+01  0.19873167302E+02  0.00000000000E+00 0. -1.
</event>
<event>
 7    1  0.2661323E-011  0.5052885E+02  0.7816164E-02  0.1300439E+00
        -11   -1    0    0    0    0  0.00000000000E+00  0.00000000000E+00  0.45593999997E+02  0.45594000000E+02  0.51100000000E-03 0.  1.
         11   -1    0    0    0    0 -0.00000000000E+00 -0.00000000000E+00 -0.45593999997E+02  0.45594000000E+02  0.51100000000E-03 0. -1.
    9900012    2    1    2    0    0  0.88368875442E+01  0.82786282277E+01  0.38814171734E+02  0.50528853499E+02  0.29999980694E+02 0.  0.
         12    1    1    2    0    0 -0.88368875442E+01 -0.82786282277E+01 -0.38814171734E+02  0.40659146501E+02  0.00000000000E+00 0. -1.
         11    1    3    3    0    0  0.26416173262E+01  0.63071567370E+01  0.21078186395E+02  0.22159609883E+02  0.51100000000E-03 0. -1.
        -11    1    3    3    0    0 -0.45800547070E+01  0.75566561730E+01  0.12112124299E+02  0.14992781895E+02  0.51100000000E-03 0.  1.
         12    1    3    3    0    0  0.10775324925E+02 -0.55851846823E+01  0.56238610397E+01  0.13376461721E+02  0.00000000000E+00 0. -1.
</event>
<event>
 7    1  0.2661323E-011  0.5052885E+02  0.7816164E-02  0.1300439E+00
        -11   -1    0    0    0    0  0.00000000000E+00  0.00000000000E+00  0.45593999997E+02  0.45594000000E+02  0.51100000000E-03 0.  1.
         11   -1    0    0    0    0 -0.00000000000E+00 -0.00000000000E+00 -0.45593999997E+02  0.45594000000E+02  0.51100000000E-03 0. -1.
    9900012    2    1    2    0    0 -0.27750731750E+02  0.20689504289E+02 -0.21330906066E+02  0.50528852763E+02  0.29999978460E+02 0.  0.
         12    1    1    2    0    0  0.27750731750E+02 -0.20689504289E+02  0.21330906066E+02  0.40659147237E+02  0.00000000000E+00 0. -1.
         11    1    3    3    0    0  0.28064209851E+01  0.58443385350E+00 -0.61684575026E+01  0.68020166052E+01  0.51100000000E-03 0. -1.
        -11    1    3    3    0    0  0.65840381058E+00 -0.24162787582E+01 -0.62446132914E+00  0.25810561458E+01  0.51100000000E-03 0.  1.
        -12    1    3    3    0    0 -0.31215556546E+02  0.22521349194E+02 -0.14537987234E+02  0.41145780012E+02  0.00000000000E+00 0.  1.
</event>
<event>
 7    1  0.2661323E-011  0.5052886E+02  0.7816164E-02  0.1300439E+00
        -11   -1    0    0    0    0  0.00000000000E+00  0.00000000000E+00  0.45593999997E+02  0.45594000000E+02  0.51100000000E-03 0.  1.
         11   -1    0    0    0    0 -0.00000000000E+00 -0.00000000000E+00 -0.45593999997E+02  0.45594000000E+02  0.51100000000E-03 0. -1.
    9900012    2    1    2    0    0 -0.15229841892E+02  0.10598368645E+02  0.36178620292E+02  0.50528855048E+02  0.29999985404E+02 0.  0.
         12    1    1    2    0    0  0.15229841892E+02 -0.10598368645E+02 -0.36178620292E+02  0.40659144952E+02  0.00000000000E+00 0. -1.
         11    1    3    3    0    0  0.21938970650E+00  0.33862358477E+01  0.44090847681E+01  0.55636996516E+01  0.51100000000E-03 0. -1.
        -11    1    3    3    0    0  0.69175642380E+01 -0.24557405646E+01  0.90179966893E+01  0.11627881202E+02  0.51100000000E-03 0.  1.
         12    1    3    3    0    0 -0.22366795837E+02  0.96678733622E+01  0.22751538835E+02  0.33337274194E+02  0.00000000000E+00 0. -1.
</event>
<event>
 7    1  0.2661323E-011  0.5052886E+02  0.7816164E-02  0.1300439E+00
        -11   -1    0    0    0    0  0.00000000000E+00  0.00000000000E+00  0.45593999997E+02  0.45594000000E+02  0.51100000000E-03 0.  1.
         11   -1    0    0    0    0 -0.00000000000E+00 -0.00000000000E+00 -0.45593999997E+02  0.45594000000E+02  0.51100000000E-03 0. -1.
    9900012    2    1    2    0    0 -0.26239999411E+02 -0.84120147627E+01  0.29897591483E+02  0.50528861569E+02  0.30000005226E+02 0.  0.
         12    1    1    2    0    0  0.26239999411E+02  0.84120147627E+01 -0.29897591483E+02  0.40659138431E+02  0.00000000000E+00 0. -1.
         11    1    3    3    0    0 -0.39992215281E+01  0.55021614452E+01  0.95710949006E+01  0.11741950914E+02  0.51100000000E-03 0. -1.
        -11    1    3    3    0    0 -0.76330829854E+01 -0.10119692516E+02  0.20015039202E+02  0.23691220463E+02  0.51100000000E-03 0.  1.
         12    1    3    3    0    0 -0.14607694898E+02 -0.37944836914E+01  0.31145738000E+00  0.15095690193E+02  0.00000000000E+00 0. -1.
</event>
<event>
 7    1  0.2661323E-011  0.5052887E+02  0.7816164E-02  0.1300439E+00
        -11   -1    0    0    0    0  0.00000000000E+00  0.00000000000E+00  0.45593999997E+02  0.45594000000E+02  0.51100000000E-03 0.  1.
         11   -1    0    0    0    0 -0.00000000000E+00 -0.00000000000E+00 -0.45593999997E+02  0.45594000000E+02  0.51100000000E-03 0. -1.
    9900012    2    1    2    0    0 -0.17603653170E+02  0.21007314115E+02  0.30032799019E+02  0.50528869805E+02  0.30000030260E+02 0.  0.
         12    1    1    2    0    0  0.17603653170E+02 -0.21007314115E+02 -0.30032799019E+02  0.40659130195E+02  0.00000000000E+00 0. -1.
         11    1    3    3    0    0 -0.32439236920E+01 -0.54797899094E+01  0.32038004200E+01  0.71284974408E+01  0.51100000000E-03 0. -1.
        -11    1    3    3    0    0  0.24260657110E+01 -0.23262181928E+00  0.10487840490E+01  0.26532726937E+01  0.51100000000E-03 0.  1.
        -12    1    3    3    0    0 -0.16785795189E+02  0.26719725844E+02  0.25780214550E+02  0.40747099671E+02  0.00000000000E+00 0.  1.
</event>
<event>
 7    1  0.2661323E-011  0.5052886E+02  0.7816164E-02  0.1300439E+00
        -11   -1    0    0    0    0  0.00000000000E+00  0.00000000000E+00  0.45593999997E+02  0.45594000000E+02  0.51100000000E-03 0. -1.
         11   -1    0    0    0    0 -0.00000000000E+00 -0.00000000000E+00 -0.45593999997E+02  0.45594000000E+02  0.51100000000E-03 0.  1.
    9900012    2    1    2    0    0 -0.17032535569E+01 -0.14201465823E+02 -0.38060255413E+02  0.50528859007E+02  0.29999997439E+02 0.  0.
         12    1    1    2    0    0  0.17032535569E+01  0.14201465823E+02  0.38060255413E+02  0.40659140993E+02  0.00000000000E+00 0. -1.
         11    1    3    3    0    0  0.43471509852E+00 -0.57791254739E+01  0.34530624044E+01  0.67461773391E+01  0.51100000000E-03 0. -1.
        -11    1    3    3    0    0  0.37527613177E+01 -0.37163287425E+00 -0.14628608675E+02  0.15106869977E+02  0.51100000000E-03 0.  1.
        -12    1    3    3    0    0 -0.58907299731E+01 -0.80507074746E+01 -0.26884709142E+02  0.28675811691E+02  0.00000000000E+00 0.  1.
</event>
<event>
 7    1  0.2661323E-011  0.5052885E+02  0.7816164E-02  0.1300439E+00
        -11   -1    0    0    0    0  0.00000000000E+00  0.00000000000E+00  0.45593999997E+02  0.45594000000E+02  0.51100000000E-03 0.  1.
         11   -1    0    0    0    0 -0.00000000000E+00 -0.00000000000E+00 -0.45593999997E+02  0.45594000000E+02  0.51100000000E-03 0. -1.
    9900012    2    1    2    0    0  0.27383012216E+01 -0.28002473218E+02  0.29351829724E+02  0.50528847180E+02  0.29999961490E+02 0.  0.
         12    1    1    2    0    0 -0.27383012216E+01  0.28002473218E+02 -0.29351829724E+02  0.40659152820E+02  0.00000000000E+00 0. -1.
         11    1    3    3    0    0  0.84034602988E+01 -0.23672345651E+02  0.28422247136E+02  0.37931810214E+02  0.51100000000E-03 0. -1.
        -11    1    3    3    0    0 -0.84885527577E+01 -0.39849924742E+01  0.19446767456E+01  0.95769233497E+01  0.51100000000E-03 0.  1.
        -12    1    3    3    0    0  0.28233936805E+01 -0.34513509267E+00 -0.10150941582E+01  0.30201136166E+01  0.00000000000E+00 0.  1.
</event>
<event>
 7    1  0.2661323E-011  0.5052885E+02  0.7816164E-02  0.1300439E+00
        -11   -1    0    0    0    0  0.00000000000E+00  0.00000000000E+00  0.45593999997E+02  0.45594000000E+02  0.51100000000E-03 0. -1.
         11   -1    0    0    0    0 -0.00000000000E+00 -0.00000000000E+00 -0.45593999997E+02  0.45594000000E+02  0.51100000000E-03 0.  1.
    9900012    2    1    2    0    0  0.29319562372E+02 -0.24782389858E+02 -0.13392629754E+02  0.50528854454E+02  0.29999983600E+02 0.  0.
         12    1    1    2    0    0 -0.29319562372E+02  0.24782389858E+02  0.13392629754E+02  0.40659145546E+02  0.00000000000E+00 0. -1.
         11    1    3    3    0    0  0.31440933489E+01 -0.14424298816E+02 -0.70203779541E+01  0.16347214631E+02  0.51100000000E-03 0. -1.
        -11    1    3    3    0    0  0.18920251365E+02 -0.88059249877E+01 -0.12700549954E+02  0.24429985592E+02  0.51100000000E-03 0.  1.
        -12    1    3    3    0    0  0.72552176577E+01 -0.15521660553E+01  0.63282981546E+01  0.97516542318E+01  0.00000000000E+00 0.  1.
</event>
<event>
 7    1  0.2661323E-011  0.5052886E+02  0.7816164E-02  0.1300439E+00
        -11   -1    0    0    0    0  0.00000000000E+00  0.00000000000E+00  0.45593999997E+02  0.45594000000E+02  0.51100000000E-03 0. -1.
         11   -1    0    0    0    0 -0.00000000000E+00 -0.00000000000E+00 -0.45593999997E+02  0.45594000000E+02  0.51100000000E-03 0.  1.
    9900012    2    1    2    0    0  0.40971828049E+01 -0.30955086679E+02 -0.26041526525E+02  0.50528863241E+02  0.30000010308E+02 0.  0.
         12    1    1    2    0    0 -0.40971828049E+01  0.30955086679E+02  0.26041526525E+02  0.40659136759E+02  0.00000000000E+00 0. -1.
         11    1    3    3    0    0 -0.32084583400E+01 -0.84400028984E+01 -0.14639930491E+01  0.91471924520E+01  0.51100000000E-03 0. -1.
        -11    1    3    3    0    0 -0.51466937726E+01  0.15632453910E+01 -0.10341254744E+01  0.54773724266E+01  0.51100000000E-03 0.  1.
        -12    1    3    3    0    0  0.12452334918E+02 -0.24078329172E+02 -0.23543408001E+02  0.35904298362E+02  0.00000000000E+00 0.  1.
</event>
<event>
 7    1  0.2661323E-011  0.5052885E+02  0.7816164E-02  0.1300439E+00
        -11   -1    0    0    0    0  0.00000000000E+00  0.00000000000E+00  0.45593999997E+02  0.45594000000E+02  0.51100000000E-03 0.  1.
         11   -1    0    0    0    0 -0.00000000000E+00 -0.00000000000E+00 -0.45593999997E+02  0.45594000000E+02  0.51100000000E-03 0. -1.
    9900012    2    1    2    0    0  0.10856912745E+02 -0.35320560500E+02  0.16963244897E+02  0.50528853110E+02  0.29999979513E+02 0.  0.
         12    1    1    2    0    0 -0.10856912745E+02  0.35320560500E+02 -0.16963244897E+02  0.40659146890E+02  0.00000000000E+00 0. -1.
         11    1    3    3    0    0  0.90338816378E+01 -0.50838005855E+01 -0.50376561249E+00  0.10378334447E+02  0.51100000000E-03 0. -1.
        -11    1    3    3    0    0  0.88703424409E+01 -0.14615484399E+02  0.15176230732E+02  0.22860737930E+02  0.51100000000E-03 0.  1.
         12    1    3    3    0    0 -0.70473113342E+01 -0.15621275516E+02  0.22907797775E+01  0.17289780733E+02  0.00000000000E+00 0. -1.
</event>
<event>
 7    1  0.2661323E-011  0.5052885E+02  0.7816164E-02  0.1300439E+00
        -11   -1    0    0    0    0  0.00000000000E+00  0.00000000000E+00  0.45593999997E+02  0.45594000000E+02  0.51100000000E-03 0.  1.
         11   -1    0    0    0    0 -0.00000000000E+00 -0.00000000000E+00 -0.45593999997E+02  0.45594000000E+02  0.51100000000E-03 0. -1.
    9900012    2    1    2    0    0  0.32599173443E+00 -0.40657836238E+02 -0.15869873588E-01  0.50528853796E+02  0.29999981600E+02 0.  0.
         12    1    1    2    0    0 -0.32599173443E+00  0.40657836238E+02  0.15869873588E-01  0.40659146204E+02  0.00000000000E+00 0. -1.
         11    1    3    3    0    0  0.54098549512E+00 -0.10916062465E+02  0.89617296158E+01  0.14133848839E+02  0.51100000000E-03 0. -1.
        -11    1    3    3    0    0 -0.60992082356E+01 -0.33980980552E+01  0.19886121457E+01  0.72596136276E+01  0.51100000000E-03 0.  1.
        -12    1    3    3    0    0  0.58842144750E+01 -0.26343675717E+02 -0.10966211635E+02  0.29135391329E+02  0.00000000000E+00 0.  1.
</event>
<event>
 7    1  0.2661323E-011  0.5052884E+02  0.7816164E-02  0.1300439E+00
        -11   -1    0    0    0    0  0.00000000000E+00  0.00000000000E+00  0.45593999997E+02  0.45594000000E+02  0.51100000000E-03 0. -1.
         11   -1    0    0    0    0 -0.00000000000E+00 -0.00000000000E+00 -0.45593999997E+02  0.45594000000E+02  0.51100000000E-03 0.  1.
    9900012    2    1    2    0    0 -0.40285671798E+02 -0.34000109304E+01 -0.43210581284E+01  0.50528843960E+02  0.29999951702E+02 0.  0.
         12    1    1    2    0    0  0.40285671798E+02  0.34000109304E+01  0.43210581284E+01  0.40659156040E+02  0.00000000000E+00 0. -1.
         11    1    3    3    0    0 -0.11801947810E+02  0.88851738466E+01  0.42830862257E+01  0.15381063496E+02  0.51100000000E-03 0. -1.
        -11    1    3    3    0    0 -0.66447803870E+01  0.27088582086E+01 -0.41374317467E+01  0.82830767777E+01  0.51100000000E-03 0.  1.
        -12    1    3    3    0    0 -0.21838943600E+02 -0.14994042986E+02 -0.44667126074E+01  0.26864703686E+02  0.00000000000E+00 0.  1.
</event>
<event>
 7    1  0.2661323E-011  0.5052886E+02  0.7816164E-02  0.1300439E+00
        -11   -1    0    0    0    0  0.00000000000E+00  0.00000000000E+00  0.45593999997E+02  0.45594000000E+02  0.51100000000E-03 0.  1.
         11   -1    0    0    0    0 -0.00000000000E+00 -0.00000000000E+00 -0.45593999997E+02  0.45594000000E+02  0.51100000000E-03 0. -1.
    9900012    2    1    2    0    0 -0.21279952494E+02  0.30067272404E+02  0.17213039615E+02  0.50528856123E+02  0.29999988672E+02 0.  0.
         12    1    1    2    0    0  0.21279952494E+02 -0.30067272404E+02 -0.17213039615E+02  0.40659143877E+02  0.00000000000E+00 0. -1.
         11    1    3    3    0    0  0.42303091423E+01  0.22670256049E+01 -0.11202575513E+01  0.49284782413E+01  0.51100000000E-03 0. -1.
        -11    1    3    3    0    0 -0.69284989775E+00  0.17958453091E+01  0.79569446593E+01  0.81864564940E+01  0.51100000000E-03 0.  1.
         12    1    3    3    0    0 -0.24817411739E+02  0.26004401490E+02  0.10376352507E+02  0.37413921388E+02  0.00000000000E+00 0. -1.
</event>
<event>
 7    1  0.2661323E-011  0.5052887E+02  0.7816164E-02  0.1300439E+00
        -11   -1    0    0    0    0  0.00000000000E+00  0.00000000000E+00  0.45593999997E+02  0.45594000000E+02  0.51100000000E-03 0. -1.
         11   -1    0    0    0    0 -0.00000000000E+00 -0.00000000000E+00 -0.45593999997E+02  0.45594000000E+02  0.51100000000E-03 0.  1.
    9900012    2    1    2    0    0 -0.37123343408E+02 -0.12922982705E+02 -0.10393216907E+02  0.50528867380E+02  0.30000022887E+02 0.  0.
         12    1    1    2    0    0  0.37123343408E+02  0.12922982705E+02  0.10393216907E+02  0.40659132620E+02  0.00000000000E+00 0. -1.
         11    1    3    3    0    0 -0.18484584895E+01  0.60645943113E+01 -0.22254013694E+01  0.67192644288E+01  0.51100000000E-03 0. -1.
        -11    1    3    3    0    0 -0.10791779519E+02 -0.13418372794E+02 -0.72519268675E+01  0.18684369863E+02  0.51100000000E-03 0.  1.
        -12    1    3    3    0    0 -0.24483105399E+02 -0.55692042219E+01 -0.91588867052E+00  0.25125233087E+02  0.00000000000E+00 0.  1.
</event>
<event>
 7    1  0.2661323E-011  0.5052886E+02  0.7816164E-02  0.1300439E+00
        -11   -1    0    0    0    0  0.00000000000E+00  0.00000000000E+00  0.45593999997E+02  0.45594000000E+02  0.51100000000E-03 0.  1.
         11   -1    0    0    0    0 -0.00000000000E+00 -0.00000000000E+00 -0.45593999997E+02  0.45594000000E+02  0.51100000000E-03 0. -1.
    9900012    2    1    2    0    0 -0.35107345667E+02 -0.74402663309E+01 -0.19112352367E+02  0.50528864546E+02  0.30000014275E+02 0.  0.
         12    1    1    2    0    0  0.35107345667E+02  0.74402663309E+01  0.19112352367E+02  0.40659135454E+02  0.00000000000E+00 0. -1.
         11    1    3    3    0    0  0.29194480638E+01  0.51277615302E+01 -0.29127010030E+01  0.65803451811E+01  0.51100000000E-03 0. -1.
        -11    1    3    3    0    0  0.38668818366E+00 -0.15973745921E+00 -0.45711387306E+00  0.61967504494E+00  0.51100000000E-03 0.  1.
        -12    1    3    3    0    0 -0.38413481914E+02 -0.12408290402E+02 -0.15742537491E+02  0.43328844320E+02  0.00000000000E+00 0.  1.
</event>
<event>
 7    1  0.2661323E-011  0.5052886E+02  0.7816164E-02  0.1300439E+00
        -11   -1    0    0    0    0  0.00000000000E+00  0.00000000000E+00  0.45593999997E+02  0.45594000000E+02  0.51100000000E-03 0.  1.
         11   -1    0    0    0    0 -0.00000000000E+00 -0.00000000000E+00 -0.45593999997E+02  0.45594000000E+02  0.51100000000E-03 0. -1.
    9900012    2    1    2    0    0  0.30898406380E+01 -0.40019689208E+02  0.64840546615E+01  0.50528860753E+02  0.30000002746E+02 0.  0.
         12    1    1    2    0    0 -0.30898406380E+01  0.40019689208E+02 -0.64840546615E+01  0.40659139247E+02  0.00000000000E+00 0. -1.
         11    1    3    3    0    0 -0.25248136658E+01 -0.65822605783E+01 -0.42938561464E+01  0.82545768659E+01  0.51100000000E-03 0. -1.
        -11    1    3    3    0    0 -0.56498948786E+01 -0.61916904026E+01  0.96334152316E+01  0.12769535288E+02  0.51100000000E-03 0.  1.
         12    1    3    3    0    0  0.11264549182E+02 -0.27245738227E+02  0.11444955764E+01  0.29504748600E+02  0.00000000000E+00 0. -1.
</event>
<event>
 7    1  0.2661323E-011  0.5052886E+02  0.7816164E-02  0.1300439E+00
        -11   -1    0    0    0    0  0.00000000000E+00  0.00000000000E+00  0.45593999997E+02  0.45594000000E+02  0.51100000000E-03 0. -1.
         11   -1    0    0    0    0 -0.00000000000E+00 -0.00000000000E+00 -0.45593999997E+02  0.45594000000E+02  0.51100000000E-03 0.  1.
    9900012    2    1    2    0    0 -0.16213811980E+02  0.21892747478E+02 -0.30182542962E+02  0.50528856001E+02  0.29999988300E+02 0.  0.
         12    1    1    2    0    0  0.16213811980E+02 -0.21892747478E+02  0.30182542962E+02  0.40659143999E+02  0.00000000000E+00 0. -1.
         11    1    3    3    0    0  0.34920046865E+01  0.30304185893E+01  0.79056659310E+00  0.46906853824E+01  0.51100000000E-03 0. -1.
        -11    1    3    3    0    0 -0.75583294565E+01  0.71223375654E+01  0.19391540179E+00  0.10387186338E+02  0.51100000000E-03 0.  1.
        -12    1    3    3    0    0 -0.12147487210E+02  0.11739991323E+02 -0.31167024957E+02  0.35450984281E+02  0.00000000000E+00 0.  1.
</event>
<event>
 7    1  0.3181021E-011  0.5052884E+02  0.7816164E-02  0.1300439E+00
        -11   -1    0    0    0    0  0.00000000000E+00  0.00000000000E+00  0.45593999997E+02  0.45594000000E+02  0.51100000000E-03 0. -1.
         11   -1    0    0    0    0 -0.00000000000E+00 -0.00000000000E+00 -0.45593999997E+02  0.45594000000E+02  0.51100000000E-03 0.  1.
    9900012    2    1    2    0    0 -0.32338111685E+02 -0.15886352532E+02 -0.18842446453E+02  0.50528838025E+02  0.29999933661E+02 0.  0.
         12    1    1    2    0    0  0.32338111685E+02  0.15886352532E+02  0.18842446453E+02  0.40659161975E+02  0.00000000000E+00 0. -1.
         11    1    3    3    0    0 -0.21659189979E+00 -0.21966702383E+01 -0.11134701990E+02  0.11351381451E+02  0.51100000000E-03 0. -1.
        -11    1    3    3    0    0 -0.91537283077E+01 -0.75729799161E+01 -0.96839839034E+01  0.15327110336E+02  0.51100000000E-03 0.  1.
         12    1    3    3    0    0 -0.22967791478E+02 -0.61167023781E+01  0.19762394399E+01  0.23850346238E+02  0.00000000000E+00 0. -1.
</event>
<event>
 7    1  0.2661323E-011  0.5052886E+02  0.7816164E-02  0.1300439E+00
        -11   -1    0    0    0    0  0.00000000000E+00  0.00000000000E+00  0.45593999997E+02  0.45594000000E+02  0.51100000000E-03 0. -1.
         11   -1    0    0    0    0 -0.00000000000E+00 -0.00000000000E+00 -0.45593999997E+02  0.45594000000E+02  0.51100000000E-03 0.  1.
    9900012    2    1    2    0    0 -0.33421566320E+02 -0.91592253656E+01 -0.21266722817E+02  0.50528855838E+02  0.29999987806E+02 0.  0.
         12    1    1    2    0    0  0.33421566320E+02  0.91592253656E+01  0.21266722817E+02  0.40659144162E+02  0.00000000000E+00 0. -1.
         11    1    3    3    0    0 -0.84757001366E+01  0.10913702819E+01 -0.28623034127E+01  0.90122895529E+01  0.51100000000E-03 0.  1.
        -11    1    3    3    0    0 -0.74598516231E+01 -0.16550120203E+02 -0.12400594109E+02  0.21984781088E+02  0.51100000000E-03 0. -1.
         12    1    3    3    0    0 -0.17486014560E+02  0.62995245551E+01 -0.60038252951E+01  0.19531785198E+02  0.00000000000E+00 0. -1.
</event>
<event>
 7    1  0.2661323E-011  0.5052885E+02  0.7816164E-02  0.1300439E+00
        -11   -1    0    0    0    0  0.00000000000E+00  0.00000000000E+00  0.45593999997E+02  0.45594000000E+02  0.51100000000E-03 0. -1.
         11   -1    0    0    0    0 -0.00000000000E+00 -0.00000000000E+00 -0.45593999997E+02  0.45594000000E+02  0.51100000000E-03 0.  1.
    9900012    2    1    2    0    0  0.38368947132E+02  0.13440785290E+02 -0.57946180627E+00  0.50528848641E+02  0.29999965930E+02 0.  0.
         12    1    1    2    0    0 -0.38368947132E+02 -0.13440785290E+02  0.57946180627E+00  0.40659151359E+02  0.00000000000E+00 0. -1.
         11    1    3    3    0    0  0.63012664731E+01 -0.23181613844E+01  0.89209273376E+01  0.11165248595E+02  0.51100000000E-03 0. -1.
        -11    1    3    3    0    0  0.10429069940E+02  0.56035739156E+00  0.18163182416E+01  0.10600873192E+02  0.51100000000E-03 0.  1.
         12    1    3    3    0    0  0.21638610719E+02  0.15198589283E+02 -0.11316707386E+02  0.28762726854E+02  0.00000000000E+00 0. -1.
</event>
<event>
 7    1  0.2661323E-011  0.5052885E+02  0.7816164E-02  0.1300439E+00
        -11   -1    0    0    0    0  0.00000000000E+00  0.00000000000E+00  0.45593999997E+02  0.45594000000E+02  0.51100000000E-03 0.  1.
         11   -1    0    0    0    0 -0.00000000000E+00 -0.00000000000E+00 -0.45593999997E+02  0.45594000000E+02  0.51100000000E-03 0. -1.
    9900012    2    1    2    0    0  0.11787950818E+02 -0.10050136854E+02  0.37592621487E+02  0.50528853114E+02  0.29999979524E+02 0.  0.
         12    1    1    2    0    0 -0.11787950818E+02  0.10050136854E+02 -0.37592621487E+02  0.40659146886E+02  0.00000000000E+00 0. -1.
         11    1    3    3    0    0 -0.79258872918E+00  0.16196063471E+01 -0.12832735228E+01  0.22131680479E+01  0.51100000000E-03 0. -1.
        -11    1    3    3    0    0 -0.45508160399E+01  0.16748575389E+01  0.14765768665E+01  0.50690584834E+01  0.51100000000E-03 0.  1.
        -12    1    3    3    0    0  0.17131355587E+02 -0.13344600740E+02  0.37399318143E+02  0.43246626582E+02  0.00000000000E+00 0.  1.
</event>
<event>
 7    1  0.2661323E-011  0.5052884E+02  0.7816164E-02  0.1300439E+00
        -11   -1    0    0    0    0  0.00000000000E+00  0.00000000000E+00  0.45593999997E+02  0.45594000000E+02  0.51100000000E-03 0.  1.
         11   -1    0    0    0    0 -0.00000000000E+00 -0.00000000000E+00 -0.45593999997E+02  0.45594000000E+02  0.51100000000E-03 0. -1.
    9900012    2    1    2    0    0 -0.13474632124E+02 -0.33133919108E+02  0.19332492358E+02  0.50528836615E+02  0.29999929376E+02 0.  0.
         12    1    1    2    0    0  0.13474632124E+02  0.33133919108E+02 -0.19332492358E+02  0.40659163385E+02  0.00000000000E+00 0. -1.
         11    1    3    3    0    0 -0.97371409362E+01 -0.90131741150E+01  0.90214111254E+00  0.13298987935E+02  0.51100000000E-03 0. -1.
        -11    1    3    3    0    0 -0.12234081936E+02 -0.14642660513E+02  0.14309733469E+02  0.23850550097E+02  0.51100000000E-03 0.  1.
        -12    1    3    3    0    0  0.84965907473E+01 -0.94780844799E+01  0.41206177763E+01  0.13379298584E+02  0.00000000000E+00 0.  1.
</event>
<event>
 7    1  0.2661323E-011  0.5052886E+02  0.7816164E-02  0.1300439E+00
        -11   -1    0    0    0    0  0.00000000000E+00  0.00000000000E+00  0.45593999997E+02  0.45594000000E+02  0.51100000000E-03 0. -1.
         11   -1    0    0    0    0 -0.00000000000E+00 -0.00000000000E+00 -0.45593999997E+02  0.45594000000E+02  0.51100000000E-03 0.  1.
    9900012    2    1    2    0    0  0.28941320469E+02  0.26622483236E+02 -0.10334855708E+02  0.50528857281E+02  0.29999992192E+02 0.  0.
         12    1    1    2    0    0 -0.28941320469E+02 -0.26622483236E+02  0.10334855708E+02  0.40659142719E+02  0.00000000000E+00 0. -1.
         11    1    3    3    0    0  0.15716189676E+02  0.15548024286E+02 -0.95570726177E+01  0.24084794257E+02  0.51100000000E-03 0. -1.
        -11    1    3    3    0    0  0.15252063271E+02  0.12294659004E+02 -0.61836405762E+01  0.20543161516E+02  0.51100000000E-03 0.  1.
         12    1    3    3    0    0 -0.20269324776E+01 -0.12202000548E+01  0.54058574864E+01  0.59009015079E+01  0.00000000000E+00 0. -1.
</event>
<event>
 7    1  0.2661323E-011  0.5052886E+02  0.7816164E-02  0.1300439E+00
        -11   -1    0    0    0    0  0.00000000000E+00  0.00000000000E+00  0.45593999997E+02  0.45594000000E+02  0.51100000000E-03 0.  1.
         11   -1    0    0    0    0 -0.00000000000E+00 -0.00000000000E+00 -0.45593999997E+02  0.45594000000E+02  0.51100000000E-03 0. -1.
    9900012    2    1    2    0    0 -0.12130838463E+02  0.35357021828E+02  0.15996538991E+02  0.50528862109E+02  0.30000006865E+02 0.  0.
         12    1    1    2    0    0  0.12130838463E+02 -0.35357021828E+02 -0.15996538991E+02  0.40659137891E+02  0.00000000000E+00 0. -1.
         11    1    3    3    0    0 -0.66739424081E+01  0.96926333177E+01 -0.50430842013E+01  0.12803177200E+02  0.51100000000E-03 0. -1.
        -11    1    3    3    0    0  0.48349199372E+01  0.10479250087E+02  0.28401173099E+01  0.11885175631E+02  0.51100000000E-03 0.  1.
        -12    1    3    3    0    0 -0.10291815992E+02  0.15185138424E+02  0.18199505882E+02  0.25840509278E+02  0.00000000000E+00 0.  1.
</event>
<event>
 7    1  0.2661323E-011  0.5052887E+02  0.7816164E-02  0.1300439E+00
        -11   -1    0    0    0    0  0.00000000000E+00  0.00000000000E+00  0.45593999997E+02  0.45594000000E+02  0.51100000000E-03 0.  1.
         11   -1    0    0    0    0 -0.00000000000E+00 -0.00000000000E+00 -0.45593999997E+02  0.45594000000E+02  0.51100000000E-03 0. -1.
    9900012    2    1    2    0    0  0.32232762141E+02  0.18055032755E+02  0.16977340659E+02  0.50528865001E+02  0.30000015656E+02 0.  0.
         12    1    1    2    0    0 -0.32232762141E+02 -0.18055032755E+02 -0.16977340659E+02  0.40659134999E+02  0.00000000000E+00 0. -1.
         11    1    3    3    0    0  0.53657601282E-01  0.27976290020E+01  0.36610844027E+00  0.28219927042E+01  0.51100000000E-03 0. -1.
        -11    1    3    3    0    0  0.63100815125E+01  0.32114256017E+01  0.17789181213E+02  0.19146418767E+02  0.51100000000E-03 0.  1.
        -12    1    3    3    0    0  0.25869023027E+02  0.12045978151E+02 -0.11779489941E+01  0.28560453530E+02  0.00000000000E+00 0.  1.
</event>
<event>
 7    1  0.2661323E-011  0.5052886E+02  0.7816164E-02  0.1300439E+00
        -11   -1    0    0    0    0  0.00000000000E+00  0.00000000000E+00  0.45593999997E+02  0.45594000000E+02  0.51100000000E-03 0. -1.
         11   -1    0    0    0    0 -0.00000000000E+00 -0.00000000000E+00 -0.45593999997E+02  0.45594000000E+02  0.51100000000E-03 0.  1.
    9900012    2    1    2    0    0  0.13828218925E+02  0.36759160562E+02 -0.10521903037E+02  0.50528856288E+02  0.29999989173E+02 0.  0.
         12    1    1    2    0    0 -0.13828218925E+02 -0.36759160562E+02  0.10521903037E+02  0.40659143712E+02  0.00000000000E+00 0. -1.
         11    1    3    3    0    0  0.10408517737E+01  0.13844556823E+01 -0.55592649552E+01  0.58228444126E+01  0.51100000000E-03 0. -1.
        -11    1    3    3    0    0  0.12473997882E+01  0.22249770419E+02 -0.12637193466E+02  0.25618488419E+02  0.51100000000E-03 0.  1.
         12    1    3    3    0    0  0.11539967363E+02  0.13124934461E+02  0.76745553841E+01  0.19087523456E+02  0.00000000000E+00 0. -1.
</event>
<event>
 7    1  0.2661323E-011  0.5052896E+02  0.7816164E-02  0.1300438E+00
        -11   -1    0    0    0    0  0.00000000000E+00  0.00000000000E+00  0.45593999997E+02  0.45594000000E+02  0.51100000000E-03 0.  1.
         11   -1    0    0    0    0 -0.00000000000E+00 -0.00000000000E+00 -0.45593999997E+02  0.45594000000E+02  0.51100000000E-03 0. -1.
    9900012    2    1    2    0    0 -0.16760916871E+02  0.22353846973E+02  0.29538694757E+02  0.50528962914E+02  0.30000313272E+02 0.  0.
         12    1    1    2    0    0  0.16760916871E+02 -0.22353846973E+02 -0.29538694757E+02  0.40659037086E+02  0.00000000000E+00 0. -1.
         11    1    3    3    0    0  0.16785128759E+01  0.95005044447E+01 -0.10764368537E+01  0.97075077512E+01  0.51100000000E-03 0. -1.
        -11    1    3    3    0    0 -0.15283863163E+01 -0.11014797912E+00  0.13236907079E+02  0.13325306998E+02  0.51100000000E-03 0.  1.
        -12    1    3    3    0    0 -0.16911043430E+02  0.12963490507E+02  0.17378224531E+02  0.27496148165E+02  0.00000000000E+00 0.  1.
</event>
<event>
 7    1  0.2661323E-011  0.5052881E+02  0.7816164E-02  0.1300439E+00
        -11   -1    0    0    0    0  0.00000000000E+00  0.00000000000E+00  0.45593999997E+02  0.45594000000E+02  0.51100000000E-03 0.  1.
         11   -1    0    0    0    0 -0.00000000000E+00 -0.00000000000E+00 -0.45593999997E+02  0.45594000000E+02  0.51100000000E-03 0. -1.
    9900012    2    1    2    0    0 -0.32998241229E+02  0.20882572866E+02  0.11322722288E+02  0.50528808988E+02  0.29999845399E+02 0.  0.
         12    1    1    2    0    0  0.32998241229E+02 -0.20882572866E+02 -0.11322722288E+02  0.40659191012E+02  0.00000000000E+00 0. -1.
         11    1    3    3    0    0 -0.21730143485E+01 -0.33090208229E+01  0.30101369225E+01  0.49731815489E+01  0.51100000000E-03 0. -1.
        -11    1    3    3    0    0 -0.23534557164E+02  0.18904706142E+02  0.15591645950E+02  0.33975913805E+02  0.51100000000E-03 0.  1.
         12    1    3    3    0    0 -0.72906697170E+01  0.52868875475E+01 -0.72790605839E+01  0.11579713634E+02  0.00000000000E+00 0. -1.
</event>
<event>
 7    1  0.2661323E-011  0.5052887E+02  0.7816164E-02  0.1300439E+00
        -11   -1    0    0    0    0  0.00000000000E+00  0.00000000000E+00  0.45593999997E+02  0.45594000000E+02  0.51100000000E-03 0. -1.
         11   -1    0    0    0    0 -0.00000000000E+00 -0.00000000000E+00 -0.45593999997E+02  0.45594000000E+02  0.51100000000E-03 0.  1.
    9900012    2    1    2    0    0 -0.39910767425E+02  0.75704049444E+01 -0.17276685272E+01  0.50528865405E+02  0.30000016885E+02 0.  0.
         12    1    1    2    0    0  0.39910767425E+02 -0.75704049444E+01  0.17276685272E+01  0.40659134595E+02  0.00000000000E+00 0. -1.
         11    1    3    3    0    0 -0.90475748665E+01  0.43413655304E+01 -0.21441124751E+01  0.10261738849E+02  0.51100000000E-03 0. -1.
        -11    1    3    3    0    0 -0.18346126196E+02  0.10976315524E+02 -0.85561077263E+01  0.23027523283E+02  0.51100000000E-03 0.  1.
         12    1    3    3    0    0 -0.12517066363E+02 -0.77472761104E+01  0.89725516742E+01  0.17239603273E+02  0.00000000000E+00 0. -1.
</event>
<event>
 7    1  0.2661323E-011  0.5052888E+02  0.7816164E-02  0.1300439E+00
        -11   -1    0    0    0    0  0.00000000000E+00  0.00000000000E+00  0.45593999997E+02  0.45594000000E+02  0.51100000000E-03 0.  1.
         11   -1    0    0    0    0 -0.00000000000E+00 -0.00000000000E+00 -0.45593999997E+02  0.45594000000E+02  0.51100000000E-03 0. -1.
    9900012    2    1    2    0    0  0.16159089075E+02 -0.20158373413E+02  0.31395672131E+02  0.50528875477E+02  0.30000047501E+02 0.  0.
         12    1    1    2    0    0 -0.16159089075E+02  0.20158373413E+02 -0.31395672131E+02  0.40659124523E+02  0.00000000000E+00 0. -1.
         11    1    3    3    0    0 -0.48523012148E+01 -0.11848688311E+02  0.41470860203E+01  0.13458624168E+02  0.51100000000E-03 0. -1.
        -11    1    3    3    0    0 -0.85551261350E+00 -0.51060588667E+00 -0.30305354925E+00  0.10413750132E+01  0.51100000000E-03 0.  1.
        -12    1    3    3    0    0  0.21866902903E+02 -0.77990792149E+01  0.27551639660E+02  0.36028876296E+02  0.00000000000E+00 0.  1.
</event>
<event>
 7    1  0.2661323E-011  0.5052886E+02  0.7816164E-02  0.1300439E+00
        -11   -1    0    0    0    0  0.00000000000E+00  0.00000000000E+00  0.45593999997E+02  0.45594000000E+02  0.51100000000E-03 0. -1.
         11   -1    0    0    0    0 -0.00000000000E+00 -0.00000000000E+00 -0.45593999997E+02  0.45594000000E+02  0.51100000000E-03 0.  1.
    9900012    2    1    2    0    0  0.22099341654E+02  0.33796385942E+02 -0.47528160342E+01  0.50528857553E+02  0.29999993018E+02 0.  0.
         12    1    1    2    0    0 -0.22099341654E+02 -0.33796385942E+02  0.47528160342E+01  0.40659142447E+02  0.00000000000E+00 0. -1.
         11    1    3    3    0    0  0.54274202970E+01  0.24143736359E+01 -0.27050130635E+01  0.65271116943E+01  0.51100000000E-03 0. -1.
        -11    1    3    3    0    0 -0.22483934342E+00 -0.26289494733E+01 -0.52646398316E+01  0.58888335756E+01  0.51100000000E-03 0.  1.
         12    1    3    3    0    0  0.16896760700E+02  0.34010961779E+02  0.32168368609E+01  0.38112912283E+02  0.00000000000E+00 0. -1.
</event>
<event>
 7    1  0.2661323E-011  0.5052886E+02  0.7816164E-02  0.1300439E+00
        -11   -1    0    0    0    0  0.00000000000E+00  0.00000000000E+00  0.45593999997E+02  0.45594000000E+02  0.51100000000E-03 0.  1.
         11   -1    0    0    0    0 -0.00000000000E+00 -0.00000000000E+00 -0.45593999997E+02  0.45594000000E+02  0.51100000000E-03 0. -1.
    9900012    2    1    2    0    0 -0.18364578215E+02  0.32281125237E+01  0.36131523941E+02  0.50528862457E+02  0.30000007923E+02 0.  0.
         12    1    1    2    0    0  0.18364578215E+02 -0.32281125237E+01 -0.36131523941E+02  0.40659137543E+02  0.00000000000E+00 0. -1.
         11    1    3    3    0    0 -0.59181788927E+01  0.34710175215E+01  0.91387721280E+01  0.11427596436E+02  0.51100000000E-03 0. -1.
        -11    1    3    3    0    0 -0.38282269322E+01  0.67293730245E+01  0.26924684096E+02  0.28015681264E+02  0.51100000000E-03 0.  1.
         12    1    3    3    0    0 -0.86181723905E+01 -0.69722780223E+01  0.68067716181E-01  0.11085584756E+02  0.00000000000E+00 0. -1.
</event>
<event>
 7    1  0.2661323E-011  0.5052885E+02  0.7816164E-02  0.1300439E+00
        -11   -1    0    0    0    0  0.00000000000E+00  0.00000000000E+00  0.45593999997E+02  0.45594000000E+02  0.51100000000E-03 0. -1.
         11   -1    0    0    0    0 -0.00000000000E+00 -0.00000000000E+00 -0.45593999997E+02  0.45594000000E+02  0.51100000000E-03 0.  1.
    9900012    2    1    2    0    0 -0.86881646384E+01  0.38731021010E+02 -0.88085419108E+01  0.50528848461E+02  0.29999965382E+02 0.  0.
         12    1    1    2    0    0  0.86881646384E+01 -0.38731021010E+02  0.88085419108E+01  0.40659151539E+02  0.00000000000E+00 0. -1.
         11    1    3    3    0    0  0.82696235147E+00  0.18935192479E+02 -0.12745648451E+01  0.18996049504E+02  0.51100000000E-03 0.  1.
        -11    1    3    3    0    0 -0.15300625662E+02  0.77850179699E+01 -0.56243139320E+01  0.18065119925E+02  0.51100000000E-03 0. -1.
         12    1    3    3    0    0  0.57854986723E+01  0.12010810561E+02 -0.19096631337E+01  0.13467679032E+02  0.00000000000E+00 0. -1.
</event>
<event>
 7    1  0.2661323E-011  0.5052887E+02  0.7816164E-02  0.1300439E+00
        -11   -1    0    0    0    0  0.00000000000E+00  0.00000000000E+00  0.45593999997E+02  0.45594000000E+02  0.51100000000E-03 0.  1.
         11   -1    0    0    0    0 -0.00000000000E+00 -0.00000000000E+00 -0.45593999997E+02  0.45594000000E+02  0.51100000000E-03 0. -1.
    9900012    2    1    2    0    0 -0.12356836185E+02 -0.23874837166E+02  0.30503538215E+02  0.50528867030E+02  0.30000021824E+02 0.  0.
         12    1    1    2    0    0  0.12356836185E+02  0.23874837166E+02 -0.30503538215E+02  0.40659132970E+02  0.00000000000E+00 0. -1.
         11    1    3    3    0    0 -0.57557991160E+01 -0.17108250925E+02  0.84602434108E+01  0.19934823602E+02  0.51100000000E-03 0. -1.
        -11    1    3    3    0    0  0.22310469962E+01 -0.11137230332E+02  0.11571391160E+02  0.16214578743E+02  0.51100000000E-03 0.  1.
         12    1    3    3    0    0 -0.88320840649E+01  0.43706440914E+01  0.10471903644E+02  0.14379464685E+02  0.00000000000E+00 0. -1.
</event>
<event>
 7    1  0.2661323E-011  0.5052886E+02  0.7816164E-02  0.1300439E+00
        -11   -1    0    0    0    0  0.00000000000E+00  0.00000000000E+00  0.45593999997E+02  0.45594000000E+02  0.51100000000E-03 0. -1.
         11   -1    0    0    0    0 -0.00000000000E+00 -0.00000000000E+00 -0.45593999997E+02  0.45594000000E+02  0.51100000000E-03 0.  1.
    9900012    2    1    2    0    0  0.15509068382E+01  0.13469612035E+02 -0.38331838222E+02  0.50528861029E+02  0.30000003585E+02 0.  0.
         12    1    1    2    0    0 -0.15509068382E+01 -0.13469612035E+02  0.38331838222E+02  0.40659138971E+02  0.00000000000E+00 0. -1.
         11    1    3    3    0    0 -0.84620210505E+01 -0.20184386680E+00 -0.15337581343E+02  0.17518217458E+02  0.51100000000E-03 0. -1.
        -11    1    3    3    0    0 -0.14467430260E+01 -0.30540753237E+01 -0.38933439152E+01  0.51554406766E+01  0.51100000000E-03 0.  1.
        -12    1    3    3    0    0  0.11459670915E+02  0.16725531225E+02 -0.19100912963E+02  0.27855202894E+02  0.00000000000E+00 0.  1.
</event>
<event>
 7    1  0.2661323E-011  0.5052885E+02  0.7816164E-02  0.1300439E+00
        -11   -1    0    0    0    0  0.00000000000E+00  0.00000000000E+00  0.45593999997E+02  0.45594000000E+02  0.51100000000E-03 0.  1.
         11   -1    0    0    0    0 -0.00000000000E+00 -0.00000000000E+00 -0.45593999997E+02  0.45594000000E+02  0.51100000000E-03 0. -1.
    9900012    2    1    2    0    0 -0.38425554632E+02 -0.59625437806E+01 -0.11878175590E+02  0.50528853028E+02  0.29999979265E+02 0.  0.
         12    1    1    2    0    0  0.38425554632E+02  0.59625437806E+01  0.11878175590E+02  0.40659146972E+02  0.00000000000E+00 0. -1.
         11    1    3    3    0    0 -0.20953592787E+02 -0.61868093621E+01 -0.54923476425E+01  0.22527661744E+02  0.51100000000E-03 0. -1.
        -11    1    3    3    0    0 -0.18823065208E+02 -0.23841311580E+01  0.20354038868E+01  0.19082314703E+02  0.51100000000E-03 0.  1.
         12    1    3    3    0    0  0.13511033634E+01  0.26083967395E+01 -0.84212318345E+01  0.89188765806E+01  0.00000000000E+00 0. -1.
</event>
<event>
 7    1  0.2661323E-011  0.5052877E+02  0.7816164E-02  0.1300439E+00
        -11   -1    0    0    0    0  0.00000000000E+00  0.00000000000E+00  0.45593999997E+02  0.45594000000E+02  0.51100000000E-03 0.  1.
         11   -1    0    0    0    0 -0.00000000000E+00 -0.00000000000E+00 -0.45593999997E+02  0.45594000000E+02  0.51100000000E-03 0. -1.
    9900012    2    1    2    0    0 -0.27614342875E+02  0.29785090707E+02  0.18625361419E+01  0.50528774703E+02  0.29999741186E+02 0.  0.
         12    1    1    2    0    0  0.27614342875E+02 -0.29785090707E+02 -0.18625361419E+01  0.40659225297E+02  0.00000000000E+00 0. -1.
         11    1    3    3    0    0 -0.33625268274E+00  0.99718543128E+01  0.13266629059E+01  0.10065335515E+02  0.51100000000E-03 0. -1.
        -11    1    3    3    0    0 -0.18434535230E+00  0.26311184323E+00  0.65141318806E+01  0.65220491772E+01  0.51100000000E-03 0.  1.
        -12    1    3    3    0    0 -0.27093744840E+02  0.19550124551E+02 -0.59782586446E+01  0.33941390011E+02  0.00000000000E+00 0.  1.
</event>
<event>
 7    1  0.2661323E-011  0.5052887E+02  0.7816164E-02  0.1300439E+00
        -11   -1    0    0    0    0  0.00000000000E+00  0.00000000000E+00  0.45593999997E+02  0.45594000000E+02  0.51100000000E-03 0. -1.
         11   -1    0    0    0    0 -0.00000000000E+00 -0.00000000000E+00 -0.45593999997E+02  0.45594000000E+02  0.51100000000E-03 0.  1.
    9900012    2    1    2    0    0 -0.11641072568E+02  0.16524162089E+02 -0.35278923745E+02  0.50528868629E+02  0.30000026684E+02 0.  0.
         12    1    1    2    0    0  0.11641072568E+02 -0.16524162089E+02  0.35278923745E+02  0.40659131371E+02  0.00000000000E+00 0. -1.
         11    1    3    3    0    0  0.12820023076E+01  0.88227714692E+01 -0.98552453178E+01  0.13289495357E+02  0.51100000000E-03 0. -1.
        -11    1    3    3    0    0 -0.51142156309E+01  0.15361687685E+02 -0.13749854656E+02  0.21241354792E+02  0.51100000000E-03 0.  1.
         12    1    3    3    0    0 -0.78088592451E+01 -0.76602970657E+01 -0.11673823771E+02  0.15998018480E+02  0.00000000000E+00 0. -1.
</event>
<event>
 7    1  0.2661323E-011  0.5052886E+02  0.7816164E-02  0.1300439E+00
        -11   -1    0    0    0    0  0.00000000000E+00  0.00000000000E+00  0.45593999997E+02  0.45594000000E+02  0.51100000000E-03 0.  1.
         11   -1    0    0    0    0 -0.00000000000E+00 -0.00000000000E+00 -0.45593999997E+02  0.45594000000E+02  0.51100000000E-03 0. -1.
    9900012    2    1    2    0    0  0.26165153253E+02 -0.63807448242E+01  0.30460406852E+02  0.50528861607E+02  0.30000005341E+02 0.  0.
         12    1    1    2    0    0 -0.26165153253E+02  0.63807448242E+01 -0.30460406852E+02  0.40659138393E+02  0.00000000000E+00 0. -1.
         11    1    3    3    0    0  0.49471610446E+01 -0.20004838520E+01 -0.35025770623E+01  0.63831328031E+01  0.51100000000E-03 0. -1.
        -11    1    3    3    0    0  0.17815111486E+02  0.29398615356E+01  0.14781425195E+02  0.23334770497E+02  0.51100000000E-03 0.  1.
        -12    1    3    3    0    0  0.34028807226E+01 -0.73201225077E+01  0.19181558719E+02  0.20810958306E+02  0.00000000000E+00 0.  1.
</event>
<event>
 7    1  0.2661323E-011  0.5052886E+02  0.7816164E-02  0.1300439E+00
        -11   -1    0    0    0    0  0.00000000000E+00  0.00000000000E+00  0.45593999997E+02  0.45594000000E+02  0.51100000000E-03 0.  1.
         11   -1    0    0    0    0 -0.00000000000E+00 -0.00000000000E+00 -0.45593999997E+02  0.45594000000E+02  0.51100000000E-03 0. -1.
    9900012    2    1    2    0    0 -0.30341771447E+02 -0.76928679313E+00  0.27054590495E+02  0.50528858795E+02  0.29999996792E+02 0.  0.
         12    1    1    2    0    0  0.30341771447E+02  0.76928679313E+00 -0.27054590495E+02  0.40659141205E+02  0.00000000000E+00 0. -1.
         11    1    3    3    0    0 -0.26073887035E+01 -0.71990025805E+01  0.26851048694E+01  0.81138093659E+01  0.51100000000E-03 0. -1.
        -11    1    3    3    0    0 -0.52964365062E+01 -0.12239633029E+01  0.16599363020E+02  0.17466802190E+02  0.51100000000E-03 0.  1.
         12    1    3    3    0    0 -0.22437946237E+02  0.76536790902E+01  0.77701226056E+01  0.24948247238E+02  0.00000000000E+00 0. -1.
</event>
<event>
 7    1  0.2661323E-011  0.5052886E+02  0.7816164E-02  0.1300439E+00
        -11   -1    0    0    0    0  0.00000000000E+00  0.00000000000E+00  0.45593999997E+02  0.45594000000E+02  0.51100000000E-03 0.  1.
         11   -1    0    0    0    0 -0.00000000000E+00 -0.00000000000E+00 -0.45593999997E+02  0.45594000000E+02  0.51100000000E-03 0. -1.
    9900012    2    1    2    0    0 -0.90349414604E+01  0.34823103113E+02  0.18944302403E+02  0.50528864850E+02  0.30000015197E+02 0.  0.
         12    1    1    2    0    0  0.90349414604E+01 -0.34823103113E+02 -0.18944302403E+02  0.40659135150E+02  0.00000000000E+00 0. -1.
         11    1    3    3    0    0  0.47394787511E+01  0.48167099682E+01  0.12742351334E+01  0.68765564919E+01  0.51100000000E-03 0. -1.
        -11    1    3    3    0    0  0.33676447406E+01  0.19064010701E+02  0.63317014670E+01  0.20368308198E+02  0.51100000000E-03 0.  1.
        -12    1    3    3    0    0 -0.17142064952E+02  0.10942382444E+02  0.11338365803E+02  0.23284000160E+02  0.00000000000E+00 0.  1.
</event>
<event>
 7    1  0.2661323E-011  0.5052886E+02  0.7816164E-02  0.1300439E+00
        -11   -1    0    0    0    0  0.00000000000E+00  0.00000000000E+00  0.45593999997E+02  0.45594000000E+02  0.51100000000E-03 0.  1.
         11   -1    0    0    0    0 -0.00000000000E+00 -0.00000000000E+00 -0.45593999997E+02  0.45594000000E+02  0.51100000000E-03 0. -1.
    9900012    2    1    2    0    0 -0.22235615950E+02 -0.86329647834E+01  0.32927423418E+02  0.50528856987E+02  0.29999991297E+02 0.  0.
         12    1    1    2    0    0  0.22235615950E+02  0.86329647834E+01 -0.32927423418E+02  0.40659143013E+02  0.00000000000E+00 0. -1.
         11    1    3    3    0    0 -0.53623821893E+01  0.75455704506E+01  0.98389126029E+01  0.13509070199E+02  0.51100000000E-03 0. -1.
        -11    1    3    3    0    0 -0.12814094985E+02 -0.60867771766E+00  0.10906525889E+02  0.16838165757E+02  0.51100000000E-03 0.  1.
         12    1    3    3    0    0 -0.40591387762E+01 -0.15569857516E+02  0.12181984926E+02  0.20181621030E+02  0.00000000000E+00 0. -1.
</event>
<event>
 7    1  0.2661323E-011  0.5052883E+02  0.7816164E-02  0.1300439E+00
        -11   -1    0    0    0    0  0.00000000000E+00  0.00000000000E+00  0.45593999997E+02  0.45594000000E+02  0.51100000000E-03 0.  1.
         11   -1    0    0    0    0 -0.00000000000E+00 -0.00000000000E+00 -0.45593999997E+02  0.45594000000E+02  0.51100000000E-03 0. -1.
    9900012    2    1    2    0    0 -0.21037908692E+02 -0.15216177133E+02  0.31289653223E+02  0.50528830708E+02  0.29999911420E+02 0.  0.
         12    1    1    2    0    0  0.21037908692E+02  0.15216177133E+02 -0.31289653223E+02  0.40659169292E+02  0.00000000000E+00 0. -1.
         11    1    3    3    0    0 -0.13082356593E+02 -0.19523327376E+02  0.23571283225E+02  0.33285338499E+02  0.51100000000E-03 0. -1.
        -11    1    3    3    0    0 -0.49334797733E+01 -0.23201850125E+01  0.83066308428E+01  0.99359245863E+01  0.51100000000E-03 0.  1.
         12    1    3    3    0    0 -0.30220723259E+01  0.66273352556E+01 -0.58826084499E+00  0.73075676223E+01  0.00000000000E+00 0. -1.
</event>
<event>
 7    1  0.2661323E-011  0.5052886E+02  0.7816164E-02  0.1300439E+00
        -11   -1    0    0    0    0  0.00000000000E+00  0.00000000000E+00  0.45593999997E+02  0.45594000000E+02  0.51100000000E-03 0. -1.
         11   -1    0    0    0    0 -0.00000000000E+00 -0.00000000000E+00 -0.45593999997E+02  0.45594000000E+02  0.51100000000E-03 0.  1.
    9900012    2    1    2    0    0  0.27301906919E+02 -0.47143282007E+01 -0.29758140837E+02  0.50528856405E+02  0.29999989528E+02 0.  0.
         12    1    1    2    0    0 -0.27301906919E+02  0.47143282007E+01  0.29758140837E+02  0.40659143595E+02  0.00000000000E+00 0. -1.
         11    1    3    3    0    0  0.80230832821E+01 -0.59822370770E+01  0.15381218501E+00  0.10009030135E+02  0.51100000000E-03 0. -1.
        -11    1    3    3    0    0  0.11432567927E+02 -0.23134892739E+01 -0.26986238862E+01  0.11972402147E+02  0.51100000000E-03 0.  1.
         12    1    3    3    0    0  0.78462557098E+01  0.35813981502E+01 -0.27213329136E+02  0.28547424123E+02  0.00000000000E+00 0. -1.
</event>
<event>
 7    1  0.2661323E-011  0.5052886E+02  0.7816164E-02  0.1300439E+00
        -11   -1    0    0    0    0  0.00000000000E+00  0.00000000000E+00  0.45593999997E+02  0.45594000000E+02  0.51100000000E-03 0.  1.
         11   -1    0    0    0    0 -0.00000000000E+00 -0.00000000000E+00 -0.45593999997E+02  0.45594000000E+02  0.51100000000E-03 0. -1.
    9900012    2    1    2    0    0 -0.28989268120E+02  0.18922927864E+02  0.21323944221E+02  0.50528862501E+02  0.30000008057E+02 0.  0.
         12    1    1    2    0    0  0.28989268120E+02 -0.18922927864E+02 -0.21323944221E+02  0.40659137499E+02  0.00000000000E+00 0. -1.
         11    1    3    3    0    0  0.12223091068E+01 -0.31527221485E+01 -0.24747639211E+00  0.33904190484E+01  0.51100000000E-03 0. -1.
        -11    1    3    3    0    0 -0.12374356551E+02  0.16088113956E+02  0.26749670822E+01  0.20472116644E+02  0.51100000000E-03 0.  1.
         12    1    3    3    0    0 -0.17837220675E+02  0.59875360565E+01  0.18896453531E+02  0.26666326809E+02  0.00000000000E+00 0. -1.
</event>
<event>
 7    1  0.2661323E-011  0.5052886E+02  0.7816164E-02  0.1300439E+00
        -11   -1    0    0    0    0  0.00000000000E+00  0.00000000000E+00  0.45593999997E+02  0.45594000000E+02  0.51100000000E-03 0.  1.
         11   -1    0    0    0    0 -0.00000000000E+00 -0.00000000000E+00 -0.45593999997E+02  0.45594000000E+02  0.51100000000E-03 0. -1.
    9900012    2    1    2    0    0  0.21681809759E+02 -0.66646090213E+01  0.33743852851E+02  0.50528862121E+02  0.30000006904E+02 0.  0.
         12    1    1    2    0    0 -0.21681809759E+02  0.66646090213E+01 -0.33743852851E+02  0.40659137879E+02  0.00000000000E+00 0. -1.
         11    1    3    3    0    0  0.75230559655E+01 -0.22808824046E+01 -0.53700748135E+00  0.78795414143E+01  0.51100000000E-03 0. -1.
        -11    1    3    3    0    0  0.12267985794E+02 -0.85502109110E+01  0.10113110801E+02  0.18052273885E+02  0.51100000000E-03 0.  1.
         12    1    3    3    0    0  0.18907679998E+01  0.41664842943E+01  0.24167749531E+02  0.24597046822E+02  0.00000000000E+00 0. -1.
</event>
<event>
 7    1  0.2661323E-011  0.5052881E+02  0.7816164E-02  0.1300439E+00
        -11   -1    0    0    0    0  0.00000000000E+00  0.00000000000E+00  0.45593999997E+02  0.45594000000E+02  0.51100000000E-03 0. -1.
         11   -1    0    0    0    0 -0.00000000000E+00 -0.00000000000E+00 -0.45593999997E+02  0.45594000000E+02  0.51100000000E-03 0.  1.
    9900012    2    1    2    0    0 -0.29755222870E+02 -0.12831825573E+02  0.24558919703E+02  0.50528811954E+02  0.29999854414E+02 0.  0.
         12    1    1    2    0    0  0.29755222870E+02  0.12831825573E+02 -0.24558919703E+02  0.40659188046E+02  0.00000000000E+00 0. -1.
         11    1    3    3    0    0 -0.20080638012E+01  0.43277638622E+01  0.39131104445E+01  0.61704370905E+01  0.51100000000E-03 0. -1.
        -11    1    3    3    0    0 -0.12110392290E+02  0.41352125426E+01  0.77373437380E+01  0.14954199162E+02  0.51100000000E-03 0.  1.
         12    1    3    3    0    0 -0.15636766779E+02 -0.21294801977E+02  0.12908465521E+02  0.29404175701E+02  0.00000000000E+00 0. -1.
</event>
<event>
 7    1  0.2661323E-011  0.5052889E+02  0.7816164E-02  0.1300439E+00
        -11   -1    0    0    0    0  0.00000000000E+00  0.00000000000E+00  0.45593999997E+02  0.45594000000E+02  0.51100000000E-03 0. -1.
         11   -1    0    0    0    0 -0.00000000000E+00 -0.00000000000E+00 -0.45593999997E+02  0.45594000000E+02  0.51100000000E-03 0.  1.
    9900012    2    1    2    0    0  0.41072164643E+01 -0.28966999747E+02  0.28234852288E+02  0.50528890503E+02  0.30000093172E+02 0.  0.
         12    1    1    2    0    0 -0.41072164643E+01  0.28966999747E+02 -0.28234852288E+02  0.40659109497E+02  0.00000000000E+00 0. -1.
         11    1    3    3    0    0  0.59216417410E+01 -0.15474868307E+02  0.89178866485E+01  0.18816644030E+02  0.51100000000E-03 0. -1.
        -11    1    3    3    0    0  0.17332662630E+01 -0.17159528456E+02  0.74353426344E+01  0.18781319153E+02  0.51100000000E-03 0.  1.
         12    1    3    3    0    0 -0.35476915397E+01  0.36673970157E+01  0.11881623005E+02  0.12930927320E+02  0.00000000000E+00 0. -1.
</event>
<event>
 7    1  0.2661323E-011  0.5052886E+02  0.7816164E-02  0.1300439E+00
        -11   -1    0    0    0    0  0.00000000000E+00  0.00000000000E+00  0.45593999997E+02  0.45594000000E+02  0.51100000000E-03 0.  1.
         11   -1    0    0    0    0 -0.00000000000E+00 -0.00000000000E+00 -0.45593999997E+02  0.45594000000E+02  0.51100000000E-03 0. -1.
    9900012    2    1    2    0    0 -0.18885144857E+02  0.84229295851E+01  0.35008154574E+02  0.50528864179E+02  0.30000013157E+02 0.  0.
         12    1    1    2    0    0  0.18885144857E+02 -0.84229295851E+01 -0.35008154574E+02  0.40659135821E+02  0.00000000000E+00 0. -1.
         11    1    3    3    0    0 -0.69331897545E+01  0.14488772492E+02  0.12597207421E+02  0.20412821549E+02  0.51100000000E-03 0. -1.
        -11    1    3    3    0    0 -0.11288471073E+02  0.16624530994E+01  0.17642795982E+02  0.21010987121E+02  0.51100000000E-03 0.  1.
         12    1    3    3    0    0 -0.66348402895E+00 -0.77282960068E+01  0.47681511710E+01  0.91050555086E+01  0.00000000000E+00 0. -1.
</event>
<event>
 7    1  0.2661323E-011  0.5052887E+02  0.7816164E-02  0.1300439E+00
        -11   -1    0    0    0    0  0.00000000000E+00  0.00000000000E+00  0.45593999997E+02  0.45594000000E+02  0.51100000000E-03 0.  1.
         11   -1    0    0    0    0 -0.00000000000E+00 -0.00000000000E+00 -0.45593999997E+02  0.45594000000E+02  0.51100000000E-03 0. -1.
    9900012    2    1    2    0    0 -0.37115408393E+02  0.12790270888E+02 -0.10583971402E+02  0.50528867936E+02  0.30000024578E+02 0.  0.
         12    1    1    2    0    0  0.37115408393E+02 -0.12790270888E+02  0.10583971402E+02  0.40659132064E+02  0.00000000000E+00 0. -1.
         11    1    3    3    0    0  0.69568361950E+00  0.39018577846E+01 -0.44442729567E+01  0.59548326798E+01  0.51100000000E-03 0. -1.
        -11    1    3    3    0    0 -0.39704693256E+01  0.90806209461E+01  0.10860488715E+01  0.99700454284E+01  0.51100000000E-03 0.  1.
         12    1    3    3    0    0 -0.33840622687E+02 -0.19220784305E+00 -0.72257473168E+01  0.34603989828E+02  0.00000000000E+00 0. -1.
</event>
<event>
 7    1  0.2661323E-011  0.5052887E+02  0.7816164E-02  0.1300439E+00
        -11   -1    0    0    0    0  0.00000000000E+00  0.00000000000E+00  0.45593999997E+02  0.45594000000E+02  0.51100000000E-03 0.  1.
         11   -1    0    0    0    0 -0.00000000000E+00 -0.00000000000E+00 -0.45593999997E+02  0.45594000000E+02  0.51100000000E-03 0. -1.
    9900012    2    1    2    0    0 -0.97347211540E+01  0.27596036130E+02  0.28228689433E+02  0.50528869252E+02  0.30000028580E+02 0.  0.
         12    1    1    2    0    0  0.97347211540E+01 -0.27596036130E+02 -0.28228689433E+02  0.40659130748E+02  0.00000000000E+00 0. -1.
         11    1    3    3    0    0 -0.58364622084E+01  0.45201623898E+01  0.44682398801E+00  0.73956616389E+01  0.51100000000E-03 0. -1.
        -11    1    3    3    0    0 -0.26241520639E+01 -0.43402892217E+01  0.19223144504E+01  0.54239817192E+01  0.51100000000E-03 0.  1.
        -12    1    3    3    0    0 -0.12741068818E+01  0.27416162962E+02  0.25859550994E+02  0.37709225894E+02  0.00000000000E+00 0.  1.
</event>
<event>
 7    1  0.2661323E-011  0.5052886E+02  0.7816164E-02  0.1300439E+00
        -11   -1    0    0    0    0  0.00000000000E+00  0.00000000000E+00  0.45593999997E+02  0.45594000000E+02  0.51100000000E-03 0. -1.
         11   -1    0    0    0    0 -0.00000000000E+00 -0.00000000000E+00 -0.45593999997E+02  0.45594000000E+02  0.51100000000E-03 0.  1.
    9900012    2    1    2    0    0  0.18030943339E+02  0.21295319319E+02 -0.29572956365E+02  0.50528864609E+02  0.30000014465E+02 0.  0.
         12    1    1    2    0    0 -0.18030943339E+02 -0.21295319319E+02  0.29572956365E+02  0.40659135391E+02  0.00000000000E+00 0. -1.
         11    1    3    3    0    0  0.13461357403E+01  0.10781536805E+01  0.28060546069E+01  0.32936969363E+01  0.51100000000E-03 0. -1.
        -11    1    3    3    0    0  0.81825267537E+01  0.23027523911E+02 -0.28311286050E+02  0.37399859888E+02  0.51100000000E-03 0.  1.
         12    1    3    3    0    0  0.85022808446E+01 -0.28103582728E+01 -0.40677249218E+01  0.98353077848E+01  0.00000000000E+00 0. -1.
</event>
<event>
 7    1  0.2661323E-011  0.5052886E+02  0.7816164E-02  0.1300439E+00
        -11   -1    0    0    0    0  0.00000000000E+00  0.00000000000E+00  0.45593999997E+02  0.45594000000E+02  0.51100000000E-03 0. -1.
         11   -1    0    0    0    0 -0.00000000000E+00 -0.00000000000E+00 -0.45593999997E+02  0.45594000000E+02  0.51100000000E-03 0.  1.
    9900012    2    1    2    0    0  0.11507007691E+02 -0.17550339351E+02 -0.34824417507E+02  0.50528859675E+02  0.29999999467E+02 0.  0.
         12    1    1    2    0    0 -0.11507007691E+02  0.17550339351E+02  0.34824417507E+02  0.40659140325E+02  0.00000000000E+00 0. -1.
         11    1    3    3    0    0  0.10416653005E+01 -0.17463889227E+01  0.85177772050E+00  0.22046465508E+01  0.51100000000E-03 0. -1.
        -11    1    3    3    0    0  0.10509223524E+02 -0.22392438800E+02 -0.21833173784E+02  0.32993220095E+02  0.51100000000E-03 0.  1.
         12    1    3    3    0    0 -0.43881134091E-01  0.65884883720E+01 -0.13843021443E+02  0.15330993029E+02  0.00000000000E+00 0. -1.
</event>
<event>
 7    1  0.2661323E-011  0.5052886E+02  0.7816164E-02  0.1300439E+00
        -11   -1    0    0    0    0  0.00000000000E+00  0.00000000000E+00  0.45593999997E+02  0.45594000000E+02  0.51100000000E-03 0.  1.
         11   -1    0    0    0    0 -0.00000000000E+00 -0.00000000000E+00 -0.45593999997E+02  0.45594000000E+02  0.51100000000E-03 0. -1.
    9900012    2    1    2    0    0 -0.22115935726E+02 -0.23590318866E+02  0.24648485740E+02  0.50528860726E+02  0.30000002663E+02 0.  0.
         12    1    1    2    0    0  0.22115935726E+02  0.23590318866E+02 -0.24648485740E+02  0.40659139274E+02  0.00000000000E+00 0. -1.
         11    1    3    3    0    0 -0.18810978758E+02 -0.93425097913E+01  0.85547104600E+01  0.22678590837E+02  0.51100000000E-03 0. -1.
        -11    1    3    3    0    0 -0.57551091446E+01 -0.17156089313E+02  0.10021037846E+02  0.20685112558E+02  0.51100000000E-03 0.  1.
        -12    1    3    3    0    0  0.24501521768E+01  0.29082802380E+01  0.60727374339E+01  0.71651573307E+01  0.00000000000E+00 0.  1.
</event>
<event>
 7    1  0.2661323E-011  0.5052886E+02  0.7816164E-02  0.1300439E+00
        -11   -1    0    0    0    0  0.00000000000E+00  0.00000000000E+00  0.45593999997E+02  0.45594000000E+02  0.51100000000E-03 0.  1.
         11   -1    0    0    0    0 -0.00000000000E+00 -0.00000000000E+00 -0.45593999997E+02  0.45594000000E+02  0.51100000000E-03 0. -1.
    9900012    2    1    2    0    0  0.32153263789E+02  0.22832292714E+02  0.99004863046E+01  0.50528860905E+02  0.30000003208E+02 0.  0.
         12    1    1    2    0    0 -0.32153263789E+02 -0.22832292714E+02 -0.99004863046E+01  0.40659139095E+02  0.00000000000E+00 0. -1.
         11    1    3    3    0    0  0.26788048355E+02  0.18573529107E+02  0.16607407725E+02  0.36583896864E+02  0.51100000000E-03 0.  1.
        -11    1    3    3    0    0 -0.25844239663E+00  0.57733671119E+00  0.24813153588E+01  0.25606710686E+01  0.51100000000E-03 0. -1.
         12    1    3    3    0    0  0.56236578306E+01  0.36814268953E+01 -0.91882367791E+01  0.11384292973E+02  0.00000000000E+00 0. -1.
</event>
<event>
 7    1  0.2661323E-011  0.5052886E+02  0.7816164E-02  0.1300439E+00
        -11   -1    0    0    0    0  0.00000000000E+00  0.00000000000E+00  0.45593999997E+02  0.45594000000E+02  0.51100000000E-03 0.  1.
         11   -1    0    0    0    0 -0.00000000000E+00 -0.00000000000E+00 -0.45593999997E+02  0.45594000000E+02  0.51100000000E-03 0. -1.
    9900012    2    1    2    0    0  0.35502707414E+02  0.19327156710E+02  0.43800027278E+01  0.50528860264E+02  0.30000001259E+02 0.  0.
         12    1    1    2    0    0 -0.35502707414E+02 -0.19327156710E+02 -0.43800027278E+01  0.40659139736E+02  0.00000000000E+00 0. -1.
         11    1    3    3    0    0 -0.52608766977E+00  0.26039762891E+01 -0.51770201202E+01  0.58188485404E+01  0.51100000000E-03 0. -1.
        -11    1    3    3    0    0  0.17537489995E+02 -0.15766689359E+01  0.49379991317E+01  0.18287516943E+02  0.51100000000E-03 0.  1.
        -12    1    3    3    0    0  0.18491305088E+02  0.18299849356E+02  0.46190237163E+01  0.26422494781E+02  0.00000000000E+00 0.  1.
</event>
<event>
 7    1  0.2661323E-011  0.5052885E+02  0.7816164E-02  0.1300439E+00
        -11   -1    0    0    0    0  0.00000000000E+00  0.00000000000E+00  0.45593999997E+02  0.45594000000E+02  0.51100000000E-03 0.  1.
         11   -1    0    0    0    0 -0.00000000000E+00 -0.00000000000E+00 -0.45593999997E+02  0.45594000000E+02  0.51100000000E-03 0. -1.
    9900012    2    1    2    0    0 -0.29966398482E+01  0.37496707990E+01  0.40374823421E+02  0.50528852840E+02  0.29999978693E+02 0.  0.
         12    1    1    2    0    0  0.29966398482E+01 -0.37496707990E+01 -0.40374823421E+02  0.40659147160E+02  0.00000000000E+00 0. -1.
         11    1    3    3    0    0 -0.29056401191E+01 -0.81153248221E+01  0.17969201157E+02  0.19929712290E+02  0.51100000000E-03 0. -1.
        -11    1    3    3    0    0  0.27157506160E+01  0.14000572817E+00  0.17289875152E+02  0.17502419434E+02  0.51100000000E-03 0.  1.
         12    1    3    3    0    0 -0.28067503450E+01  0.11724989893E+02  0.51157471119E+01  0.13096721116E+02  0.00000000000E+00 0. -1.
</event>
<event>
 7    1  0.2661323E-011  0.5052886E+02  0.7816164E-02  0.1300439E+00
        -11   -1    0    0    0    0  0.00000000000E+00  0.00000000000E+00  0.45593999997E+02  0.45594000000E+02  0.51100000000E-03 0.  1.
         11   -1    0    0    0    0 -0.00000000000E+00 -0.00000000000E+00 -0.45593999997E+02  0.45594000000E+02  0.51100000000E-03 0. -1.
    9900012    2    1    2    0    0 -0.14242759496E+02 -0.33926343858E+02  0.17300654021E+02  0.50528860373E+02  0.30000001590E+02 0.  0.
         12    1    1    2    0    0  0.14242759496E+02  0.33926343858E+02 -0.17300654021E+02  0.40659139627E+02  0.00000000000E+00 0. -1.
         11    1    3    3    0    0 -0.81812478200E+01 -0.16002363654E+02  0.29884485770E+01  0.18219200958E+02  0.51100000000E-03 0. -1.
        -11    1    3    3    0    0 -0.86313608078E+01 -0.22017128817E+02  0.13965264142E+02  0.27464212233E+02  0.51100000000E-03 0.  1.
         12    1    3    3    0    0  0.25698491315E+01  0.40931486130E+01  0.34694130233E+00  0.48454471821E+01  0.00000000000E+00 0. -1.
</event>
<event>
 7    1  0.2661323E-011  0.5052889E+02  0.7816164E-02  0.1300439E+00
        -11   -1    0    0    0    0  0.00000000000E+00  0.00000000000E+00  0.45593999997E+02  0.45594000000E+02  0.51100000000E-03 0.  1.
         11   -1    0    0    0    0 -0.00000000000E+00 -0.00000000000E+00 -0.45593999997E+02  0.45594000000E+02  0.51100000000E-03 0. -1.
    9900012    2    1    2    0    0 -0.29633817381E+02 -0.39040203639E+01  0.27563723970E+02  0.50528888024E+02  0.30000085637E+02 0.  0.
         12    1    1    2    0    0  0.29633817381E+02  0.39040203639E+01 -0.27563723970E+02  0.40659111976E+02  0.00000000000E+00 0. -1.
         11    1    3    3    0    0  0.10897012157E+01 -0.75685891601E+01  0.35420656481E+01  0.84271715261E+01  0.51100000000E-03 0. -1.
        -11    1    3    3    0    0  0.12606537938E+01 -0.13330336210E+01  0.29551889009E+01  0.34784146279E+01  0.51100000000E-03 0.  1.
        -12    1    3    3    0    0 -0.31984172391E+02  0.49976024172E+01  0.21066469421E+02  0.38623301870E+02  0.00000000000E+00 0.  1.
</event>
<event>
 7    1  0.2661323E-011  0.5052895E+02  0.7816164E-02  0.1300438E+00
        -11   -1    0    0    0    0  0.00000000000E+00  0.00000000000E+00  0.45593999997E+02  0.45594000000E+02  0.51100000000E-03 0.  1.
         11   -1    0    0    0    0 -0.00000000000E+00 -0.00000000000E+00 -0.45593999997E+02  0.45594000000E+02  0.51100000000E-03 0. -1.
    9900012    2    1    2    0    0  0.16696409895E+02  0.18514983070E+02  0.32118270576E+02  0.50528954189E+02  0.30000286753E+02 0.  0.
         12    1    1    2    0    0 -0.16696409895E+02 -0.18514983070E+02 -0.32118270576E+02  0.40659045811E+02  0.00000000000E+00 0. -1.
         11    1    3    3    0    0  0.32041434478E+00  0.38169417194E+01 -0.14873157732E+01  0.41089923232E+01  0.51100000000E-03 0. -1.
        -11    1    3    3    0    0  0.92398940339E+01  0.74967801959E+01  0.62357213200E+00  0.11914956883E+02  0.51100000000E-03 0.  1.
        -12    1    3    3    0    0  0.71361015159E+01  0.72012611546E+01  0.32982014217E+02  0.34505004983E+02  0.00000000000E+00 0.  1.
</event>
<event>
 7    1  0.2661323E-011  0.5052886E+02  0.7816164E-02  0.1300439E+00
        -11   -1    0    0    0    0  0.00000000000E+00  0.00000000000E+00  0.45593999997E+02  0.45594000000E+02  0.51100000000E-03 0.  1.
         11   -1    0    0    0    0 -0.00000000000E+00 -0.00000000000E+00 -0.45593999997E+02  0.45594000000E+02  0.51100000000E-03 0. -1.
    9900012    2    1    2    0    0 -0.75160151810E+01  0.62696274725E+01  0.39463489732E+02  0.50528859150E+02  0.29999997872E+02 0.  0.
         12    1    1    2    0    0  0.75160151810E+01 -0.62696274725E+01 -0.39463489732E+02  0.40659140850E+02  0.00000000000E+00 0. -1.
         11    1    3    3    0    0 -0.37696527772E+01  0.84175426938E+01  0.14806079909E+02  0.17443775669E+02  0.51100000000E-03 0. -1.
        -11    1    3    3    0    0 -0.61446433353E+01 -0.10972436257E+02  0.17072207913E+02  0.21204039294E+02  0.51100000000E-03 0.  1.
         12    1    3    3    0    0  0.23982809315E+01  0.88245210355E+01  0.75852019105E+01  0.11881044186E+02  0.00000000000E+00 0. -1.
</event>
<event>
 7    1  0.2661323E-011  0.5052886E+02  0.7816164E-02  0.1300439E+00
        -11   -1    0    0    0    0  0.00000000000E+00  0.00000000000E+00  0.45593999997E+02  0.45594000000E+02  0.51100000000E-03 0.  1.
         11   -1    0    0    0    0 -0.00000000000E+00 -0.00000000000E+00 -0.45593999997E+02  0.45594000000E+02  0.51100000000E-03 0. -1.
    9900012    2    1    2    0    0 -0.21732650893E+02 -0.21805219427E+02  0.26559176222E+02  0.50528861413E+02  0.30000004750E+02 0.  0.
         12    1    1    2    0    0  0.21732650893E+02  0.21805219427E+02 -0.26559176222E+02  0.40659138587E+02  0.00000000000E+00 0. -1.
         11    1    3    3    0    0  0.59925376207E+00  0.25467407210E+01  0.21686267264E+01  0.33982253473E+01  0.51100000000E-03 0. -1.
        -11    1    3    3    0    0 -0.79772599978E+01  0.37146401198E+01  0.50345345954E+01  0.10138134303E+02  0.51100000000E-03 0.  1.
        -12    1    3    3    0    0 -0.14354644657E+02 -0.28066600268E+02  0.19356014900E+02  0.36992501762E+02  0.00000000000E+00 0.  1.
</event>
<event>
 7    1  0.2661323E-011  0.5052885E+02  0.7816164E-02  0.1300439E+00
        -11   -1    0    0    0    0  0.00000000000E+00  0.00000000000E+00  0.45593999997E+02  0.45594000000E+02  0.51100000000E-03 0.  1.
         11   -1    0    0    0    0 -0.00000000000E+00 -0.00000000000E+00 -0.45593999997E+02  0.45594000000E+02  0.51100000000E-03 0. -1.
    9900012    2    1    2    0    0 -0.11501179206E+01 -0.40641748836E+02  0.30272908722E+00  0.50528853863E+02  0.29999981802E+02 0.  0.
         12    1    1    2    0    0  0.11501179206E+01  0.40641748836E+02 -0.30272908722E+00  0.40659146137E+02  0.00000000000E+00 0. -1.
         11    1    3    3    0    0 -0.79607861972E+01 -0.18073414950E+02  0.52438760293E+01  0.20433322806E+02  0.51100000000E-03 0. -1.
        -11    1    3    3    0    0 -0.35792916949E+00 -0.22228374360E+02 -0.54862585249E+01  0.22898204576E+02  0.51100000000E-03 0.  1.
         12    1    3    3    0    0  0.71685974461E+01 -0.33995952635E+00  0.54511158285E+00  0.71973264801E+01  0.00000000000E+00 0. -1.
</event>
<event>
 7    1  0.2661323E-011  0.5052886E+02  0.7816164E-02  0.1300439E+00
        -11   -1    0    0    0    0  0.00000000000E+00  0.00000000000E+00  0.45593999997E+02  0.45594000000E+02  0.51100000000E-03 0. -1.
         11   -1    0    0    0    0 -0.00000000000E+00 -0.00000000000E+00 -0.45593999997E+02  0.45594000000E+02  0.51100000000E-03 0.  1.
    9900012    2    1    2    0    0 -0.14483794953E+02  0.28129023486E+02 -0.25537101975E+02  0.50528857661E+02  0.29999993345E+02 0.  0.
         12    1    1    2    0    0  0.14483794953E+02 -0.28129023486E+02  0.25537101975E+02  0.40659142339E+02  0.00000000000E+00 0. -1.
         11    1    3    3    0    0  0.44738488222E+00  0.70366877170E+00 -0.18104802370E+01  0.19932741715E+01  0.51100000000E-03 0. -1.
        -11    1    3    3    0    0 -0.17122246339E+02  0.20519021556E+02 -0.29104003858E+02  0.39512587945E+02  0.51100000000E-03 0.  1.
         12    1    3    3    0    0  0.21910665036E+01  0.69063331579E+01  0.53773821204E+01  0.90229955436E+01  0.00000000000E+00 0. -1.
</event>
<event>
 7    1  0.2661323E-011  0.5052888E+02  0.7816164E-02  0.1300439E+00
        -11   -1    0    0    0    0  0.00000000000E+00  0.00000000000E+00  0.45593999997E+02  0.45594000000E+02  0.51100000000E-03 0.  1.
         11   -1    0    0    0    0 -0.00000000000E+00 -0.00000000000E+00 -0.45593999997E+02  0.45594000000E+02  0.51100000000E-03 0. -1.
    9900012    2    1    2    0    0 -0.19700391075E+02  0.17149108175E+02  0.31160345106E+02  0.50528875233E+02  0.30000046759E+02 0.  0.
         12    1    1    2    0    0  0.19700391075E+02 -0.17149108175E+02 -0.31160345106E+02  0.40659124767E+02  0.00000000000E+00 0. -1.
         11    1    3    3    0    0 -0.84213479254E+01 -0.52968050230E+01  0.33089353134E+01  0.10484478886E+02  0.51100000000E-03 0. -1.
        -11    1    3    3    0    0  0.23208532637E+01 -0.20942163975E+00  0.18820065582E+01  0.29953574479E+01  0.51100000000E-03 0.  1.
        -12    1    3    3    0    0 -0.13599896413E+02  0.22655334837E+02  0.25969403234E+02  0.37049038900E+02  0.00000000000E+00 0.  1.
</event>
<event>
 7    1  0.2661323E-011  0.5052884E+02  0.7816164E-02  0.1300439E+00
        -11   -1    0    0    0    0  0.00000000000E+00  0.00000000000E+00  0.45593999997E+02  0.45594000000E+02  0.51100000000E-03 0.  1.
         11   -1    0    0    0    0 -0.00000000000E+00 -0.00000000000E+00 -0.45593999997E+02  0.45594000000E+02  0.51100000000E-03 0. -1.
    9900012    2    1    2    0    0 -0.30982755174E+02 -0.26265791054E+02  0.18286768006E+01  0.50528844122E+02  0.29999952192E+02 0.  0.
         12    1    1    2    0    0  0.30982755174E+02  0.26265791054E+02 -0.18286768006E+01  0.40659155878E+02  0.00000000000E+00 0. -1.
         11    1    3    3    0    0 -0.27067435059E+02 -0.15996219961E+02  0.16768791602E+01  0.31485504882E+02  0.51100000000E-03 0. -1.
        -11    1    3    3    0    0 -0.58850193459E+01 -0.13686137161E+02  0.12485055881E+01  0.14950002327E+02  0.51100000000E-03 0.  1.
         12    1    3    3    0    0  0.19696992309E+01  0.34165660678E+01 -0.10967079477E+01  0.40933369124E+01  0.00000000000E+00 0. -1.
</event>
<event>
 7    1  0.2661323E-011  0.5052886E+02  0.7816164E-02  0.1300439E+00
        -11   -1    0    0    0    0  0.00000000000E+00  0.00000000000E+00  0.45593999997E+02  0.45594000000E+02  0.51100000000E-03 0.  1.
         11   -1    0    0    0    0 -0.00000000000E+00 -0.00000000000E+00 -0.45593999997E+02  0.45594000000E+02  0.51100000000E-03 0. -1.
    9900012    2    1    2    0    0 -0.24591426947E+02  0.13439948330E+02  0.29458360407E+02  0.50528862180E+02  0.30000007084E+02 0.  0.
         12    1    1    2    0    0  0.24591426947E+02 -0.13439948330E+02 -0.29458360407E+02  0.40659137820E+02  0.00000000000E+00 0. -1.
         11    1    3    3    0    0 -0.39368761195E+01  0.78572069457E-01 -0.21536665663E+01  0.44881451726E+01  0.51100000000E-03 0. -1.
        -11    1    3    3    0    0 -0.51449387620E+01 -0.39895998182E+01 -0.33111378341E+00  0.65189675695E+01  0.51100000000E-03 0.  1.
        -12    1    3    3    0    0 -0.15509612065E+02  0.17350976078E+02  0.31943140756E+02  0.39521749438E+02  0.00000000000E+00 0.  1.
</event>
<event>
 7    1  0.2661323E-011  0.5052886E+02  0.7816164E-02  0.1300439E+00
        -11   -1    0    0    0    0  0.00000000000E+00  0.00000000000E+00  0.45593999997E+02  0.45594000000E+02  0.51100000000E-03 0.  1.
         11   -1    0    0    0    0 -0.00000000000E+00 -0.00000000000E+00 -0.45593999997E+02  0.45594000000E+02  0.51100000000E-03 0. -1.
    9900012    2    1    2    0    0 -0.34698387339E+02 -0.13071354302E+02 -0.16683153039E+02  0.50528856102E+02  0.29999988606E+02 0.  0.
         12    1    1    2    0    0  0.34698387339E+02  0.13071354302E+02  0.16683153039E+02  0.40659143898E+02  0.00000000000E+00 0. -1.
         11    1    3    3    0    0 -0.20563103002E+02 -0.82360130297E+00 -0.12151495160E+02  0.23899338046E+02  0.51100000000E-03 0. -1.
        -11    1    3    3    0    0 -0.49923895867E+00 -0.50580310930E+01 -0.92104350922E+01  0.10519744908E+02  0.51100000000E-03 0.  1.
        -12    1    3    3    0    0 -0.13636045379E+02 -0.71897219058E+01  0.46787772131E+01  0.16109773148E+02  0.00000000000E+00 0.  1.
</event>
<event>
 7    1  0.2661323E-011  0.5052886E+02  0.7816164E-02  0.1300439E+00
        -11   -1    0    0    0    0  0.00000000000E+00  0.00000000000E+00  0.45593999997E+02  0.45594000000E+02  0.51100000000E-03 0.  1.
         11   -1    0    0    0    0 -0.00000000000E+00 -0.00000000000E+00 -0.45593999997E+02  0.45594000000E+02  0.51100000000E-03 0. -1.
    9900012    2    1    2    0    0  0.11386999875E+02 -0.71972494294E+01  0.38362765745E+02  0.50528856365E+02  0.29999989407E+02 0.  0.
         12    1    1    2    0    0 -0.11386999875E+02  0.71972494294E+01 -0.38362765745E+02  0.40659143635E+02  0.00000000000E+00 0. -1.
         11    1    3    3    0    0  0.74248300711E-01 -0.27375187258E+01 -0.31286095818E+01  0.41578503774E+01  0.51100000000E-03 0. -1.
        -11    1    3    3    0    0 -0.12982115552E+00 -0.71220080901E+01  0.72220861748E+01  0.10143883958E+02  0.51100000000E-03 0.  1.
        -12    1    3    3    0    0  0.11442572730E+02  0.26622773866E+01  0.34269289152E+02  0.36227122030E+02  0.00000000000E+00 0.  1.
</event>
<event>
 7    1  0.2661323E-011  0.5052886E+02  0.7816164E-02  0.1300439E+00
        -11   -1    0    0    0    0  0.00000000000E+00  0.00000000000E+00  0.45593999997E+02  0.45594000000E+02  0.51100000000E-03 0.  1.
         11   -1    0    0    0    0 -0.00000000000E+00 -0.00000000000E+00 -0.45593999997E+02  0.45594000000E+02  0.51100000000E-03 0. -1.
    9900012    2    1    2    0    0 -0.28489202995E+02  0.13408560133E+02  0.25724333078E+02  0.50528862227E+02  0.30000007226E+02 0.  0.
         12    1    1    2    0    0  0.28489202995E+02 -0.13408560133E+02 -0.25724333078E+02  0.40659137773E+02  0.00000000000E+00 0. -1.
         11    1    3    3    0    0 -0.20926947150E+00  0.12923508253E+01 -0.32368417817E+01  0.34915769142E+01  0.51100000000E-03 0. -1.
        -11    1    3    3    0    0 -0.13783123144E+02  0.14692353054E+02  0.85860123215E+01  0.21898843113E+02  0.51100000000E-03 0.  1.
        -12    1    3    3    0    0 -0.14496810380E+02 -0.25761437467E+01  0.20375162538E+02  0.25138442200E+02  0.00000000000E+00 0.  1.
</event>
<event>
 7    1  0.2661323E-011  0.5052886E+02  0.7816164E-02  0.1300439E+00
        -11   -1    0    0    0    0  0.00000000000E+00  0.00000000000E+00  0.45593999997E+02  0.45594000000E+02  0.51100000000E-03 0. -1.
         11   -1    0    0    0    0 -0.00000000000E+00 -0.00000000000E+00 -0.45593999997E+02  0.45594000000E+02  0.51100000000E-03 0.  1.
    9900012    2    1    2    0    0  0.26262964412E+01 -0.26789156404E+02 -0.30473092844E+02  0.50528859314E+02  0.29999998371E+02 0.  0.
         12    1    1    2    0    0 -0.26262964412E+01  0.26789156404E+02  0.30473092844E+02  0.40659140686E+02  0.00000000000E+00 0. -1.
         11    1    3    3    0    0  0.11147850782E+01 -0.20391986955E+02 -0.25638320496E+02  0.32778031604E+02  0.51100000000E-03 0. -1.
        -11    1    3    3    0    0  0.32146109961E+01 -0.93816426403E+01 -0.82544927098E+01  0.12902929615E+02  0.51100000000E-03 0.  1.
         12    1    3    3    0    0 -0.17030996331E+01  0.29844731907E+01  0.34197203618E+01  0.48478980950E+01  0.00000000000E+00 0. -1.
</event>
<event>
 7    1  0.2661323E-011  0.5052887E+02  0.7816164E-02  0.1300439E+00
        -11   -1    0    0    0    0  0.00000000000E+00  0.00000000000E+00  0.45593999997E+02  0.45594000000E+02  0.51100000000E-03 0.  1.
         11   -1    0    0    0    0 -0.00000000000E+00 -0.00000000000E+00 -0.45593999997E+02  0.45594000000E+02  0.51100000000E-03 0. -1.
    9900012    2    1    2    0    0 -0.26972380811E+01 -0.40477733137E+02  0.27282291234E+01  0.50528865635E+02  0.30000017583E+02 0.  0.
         12    1    1    2    0    0  0.26972380811E+01  0.40477733137E+02 -0.27282291234E+01  0.40659134365E+02  0.00000000000E+00 0. -1.
         11    1    3    3    0    0  0.60166560660E+01 -0.18364501700E+02  0.56072345410E+01  0.20122031517E+02  0.51100000000E-03 0. -1.
        -11    1    3    3    0    0 -0.35805984762E+00  0.34016726541E+01 -0.42073236725E+00  0.34462442871E+01  0.51100000000E-03 0.  1.
        -12    1    3    3    0    0 -0.83558342995E+01 -0.25514904091E+02 -0.24582730504E+01  0.26960589830E+02  0.00000000000E+00 0.  1.
</event>
<event>
 7    1  0.2661323E-011  0.5052887E+02  0.7816164E-02  0.1300439E+00
        -11   -1    0    0    0    0  0.00000000000E+00  0.00000000000E+00  0.45593999997E+02  0.45594000000E+02  0.51100000000E-03 0. -1.
         11   -1    0    0    0    0 -0.00000000000E+00 -0.00000000000E+00 -0.45593999997E+02  0.45594000000E+02  0.51100000000E-03 0.  1.
    9900012    2    1    2    0    0  0.25977277548E+01 -0.17429311735E+02 -0.36641989255E+02  0.50528874657E+02  0.30000045009E+02 0.  0.
         12    1    1    2    0    0 -0.25977277548E+01  0.17429311735E+02  0.36641989255E+02  0.40659125343E+02  0.00000000000E+00 0. -1.
         11    1    3    3    0    0 -0.14054320163E+01 -0.99082423414E+01 -0.59537272380E+01  0.11644542659E+02  0.51100000000E-03 0. -1.
        -11    1    3    3    0    0  0.68843246404E+01 -0.66620842698E+01 -0.16867563641E+01  0.97274066361E+01  0.51100000000E-03 0.  1.
        -12    1    3    3    0    0 -0.28811648693E+01 -0.85898512408E+00 -0.29001505653E+02  0.29156925362E+02  0.00000000000E+00 0.  1.
</event>
<event>
 7    1  0.2661323E-011  0.5052887E+02  0.7816164E-02  0.1300439E+00
        -11   -1    0    0    0    0  0.00000000000E+00  0.00000000000E+00  0.45593999997E+02  0.45594000000E+02  0.51100000000E-03 0. -1.
         11   -1    0    0    0    0 -0.00000000000E+00 -0.00000000000E+00 -0.45593999997E+02  0.45594000000E+02  0.51100000000E-03 0.  1.
    9900012    2    1    2    0    0  0.36798364590E+02 -0.16193164842E+02 -0.60685236867E+01  0.50528865678E+02  0.30000017715E+02 0.  0.
         12    1    1    2    0    0 -0.36798364590E+02  0.16193164842E+02  0.60685236867E+01  0.40659134322E+02  0.00000000000E+00 0. -1.
         11    1    3    3    0    0  0.18471199056E+02 -0.15622548059E+01 -0.28971334211E+01  0.18762175166E+02  0.51100000000E-03 0. -1.
        -11    1    3    3    0    0  0.11336932812E+02  0.52346470110E+00 -0.85755654055E+01  0.14224640001E+02  0.51100000000E-03 0.  1.
        -12    1    3    3    0    0  0.69902327220E+01 -0.15154374737E+02  0.54041751400E+01  0.17542050511E+02  0.00000000000E+00 0.  1.
</event>
<event>
 7    1  0.2661323E-011  0.5052888E+02  0.7816164E-02  0.1300439E+00
        -11   -1    0    0    0    0  0.00000000000E+00  0.00000000000E+00  0.45593999997E+02  0.45594000000E+02  0.51100000000E-03 0. -1.
         11   -1    0    0    0    0 -0.00000000000E+00 -0.00000000000E+00 -0.45593999997E+02  0.45594000000E+02  0.51100000000E-03 0.  1.
    9900012    2    1    2    0    0 -0.26481731764E+02 -0.28848580373E+02 -0.10938082875E+02  0.50528876009E+02  0.30000049117E+02 0.  0.
         12    1    1    2    0    0  0.26481731764E+02  0.28848580373E+02  0.10938082875E+02  0.40659123991E+02  0.00000000000E+00 0. -1.
         11    1    3    3    0    0 -0.66349742905E+01 -0.40237838748E+01  0.70461199762E+01  0.10481484985E+02  0.51100000000E-03 0. -1.
        -11    1    3    3    0    0 -0.14455250949E+02 -0.65791194804E+01 -0.38385615786E+01  0.16339328273E+02  0.51100000000E-03 0.  1.
        -12    1    3    3    0    0 -0.53915065236E+01 -0.18245677018E+02 -0.14145641272E+02  0.23708062752E+02  0.00000000000E+00 0.  1.
</event>
<event>
 7    1  0.2661323E-011  0.5052884E+02  0.7816164E-02  0.1300439E+00
        -11   -1    0    0    0    0  0.00000000000E+00  0.00000000000E+00  0.45593999997E+02  0.45594000000E+02  0.51100000000E-03 0.  1.
         11   -1    0    0    0    0 -0.00000000000E+00 -0.00000000000E+00 -0.45593999997E+02  0.45594000000E+02  0.51100000000E-03 0. -1.
    9900012    2    1    2    0    0 -0.21392713455E+02 -0.30748745662E+02 -0.15812453918E+02  0.50528840544E+02  0.29999941318E+02 0.  0.
         12    1    1    2    0    0  0.21392713455E+02  0.30748745662E+02  0.15812453918E+02  0.40659159456E+02  0.00000000000E+00 0. -1.
         11    1    3    3    0    0  0.80041212146E-01  0.74120893386E+00 -0.70768532367E+00  0.10279183128E+01  0.51100000000E-03 0. -1.
        -11    1    3    3    0    0 -0.21265095430E+02 -0.15128646118E+02  0.15625255423E+01  0.26144247997E+02  0.51100000000E-03 0.  1.
         12    1    3    3    0    0 -0.20765923764E+00 -0.16361308478E+02 -0.16667294137E+02  0.23356674235E+02  0.00000000000E+00 0. -1.
</event>
<event>
 7    1  0.2661323E-011  0.5052886E+02  0.7816164E-02  0.1300439E+00
        -11   -1    0    0    0    0  0.00000000000E+00  0.00000000000E+00  0.45593999997E+02  0.45594000000E+02  0.51100000000E-03 0.  1.
         11   -1    0    0    0    0 -0.00000000000E+00 -0.00000000000E+00 -0.45593999997E+02  0.45594000000E+02  0.51100000000E-03 0. -1.
    9900012    2    1    2    0    0 -0.29080431412E+02 -0.26157386695E+02  0.11103374579E+02  0.50528864534E+02  0.30000014238E+02 0.  0.
         12    1    1    2    0    0  0.29080431412E+02  0.26157386695E+02 -0.11103374579E+02  0.40659135466E+02  0.00000000000E+00 0. -1.
         11    1    3    3    0    0 -0.17508465240E+02 -0.17076227882E+02  0.37952752052E+01  0.24749707632E+02  0.51100000000E-03 0.  1.
        -11    1    3    3    0    0 -0.34461410916E+01 -0.94710784745E+01  0.12554136465E+02  0.16099178816E+02  0.51100000000E-03 0. -1.
         12    1    3    3    0    0 -0.81258250802E+01  0.38991966132E+00 -0.52460370919E+01  0.96799780860E+01  0.00000000000E+00 0. -1.
</event>
<event>
 7    1  0.2661323E-011  0.5052885E+02  0.7816164E-02  0.1300439E+00
        -11   -1    0    0    0    0  0.00000000000E+00  0.00000000000E+00  0.45593999997E+02  0.45594000000E+02  0.51100000000E-03 0.  1.
         11   -1    0    0    0    0 -0.00000000000E+00 -0.00000000000E+00 -0.45593999997E+02  0.45594000000E+02  0.51100000000E-03 0. -1.
    9900012    2    1    2    0    0  0.16358315050E+02 -0.31053847438E+02  0.20523903035E+02  0.50528849643E+02  0.29999968974E+02 0.  0.
         12    1    1    2    0    0 -0.16358315050E+02  0.31053847438E+02 -0.20523903035E+02  0.40659150357E+02  0.00000000000E+00 0. -1.
         11    1    3    3    0    0  0.43633368376E+01 -0.12148273870E+02  0.28881805270E+01  0.13227276870E+02  0.51100000000E-03 0. -1.
        -11    1    3    3    0    0 -0.35498899579E+01 -0.16497971902E+02  0.67672777381E+01  0.18181882296E+02  0.51100000000E-03 0.  1.
         12    1    3    3    0    0  0.15544868170E+02 -0.24076016670E+01  0.10868444770E+02  0.19119690477E+02  0.00000000000E+00 0. -1.
</event>
<event>
 7    1  0.2661323E-011  0.5052886E+02  0.7816164E-02  0.1300439E+00
        -11   -1    0    0    0    0  0.00000000000E+00  0.00000000000E+00  0.45593999997E+02  0.45594000000E+02  0.51100000000E-03 0.  1.
         11   -1    0    0    0    0 -0.00000000000E+00 -0.00000000000E+00 -0.45593999997E+02  0.45594000000E+02  0.51100000000E-03 0. -1.
    9900012    2    1    2    0    0  0.31409613965E+02  0.23775486082E+02  0.10066196318E+02  0.50528857164E+02  0.29999991835E+02 0.  0.
         12    1    1    2    0    0 -0.31409613965E+02 -0.23775486082E+02 -0.10066196318E+02  0.40659142836E+02  0.00000000000E+00 0. -1.
         11    1    3    3    0    0 -0.28497723809E+01 -0.11976311485E+01  0.18347376010E+01  0.35946884867E+01  0.51100000000E-03 0. -1.
        -11    1    3    3    0    0  0.17950015329E+02  0.13760747216E+02  0.13645652650E+02  0.26415242773E+02  0.51100000000E-03 0.  1.
        -12    1    3    3    0    0  0.16309371017E+02  0.11212370015E+02 -0.54141939329E+01  0.20518925904E+02  0.00000000000E+00 0.  1.
</event>
<event>
 7    1  0.2661323E-011  0.5052886E+02  0.7816164E-02  0.1300439E+00
        -11   -1    0    0    0    0  0.00000000000E+00  0.00000000000E+00  0.45593999997E+02  0.45594000000E+02  0.51100000000E-03 0. -1.
         11   -1    0    0    0    0 -0.00000000000E+00 -0.00000000000E+00 -0.45593999997E+02  0.45594000000E+02  0.51100000000E-03 0.  1.
    9900012    2    1    2    0    0 -0.23952160054E+02 -0.32840644570E+02  0.97554867228E+00  0.50528860779E+02  0.30000002822E+02 0.  0.
         12    1    1    2    0    0  0.23952160054E+02  0.32840644570E+02 -0.97554867228E+00  0.40659139221E+02  0.00000000000E+00 0. -1.
         11    1    3    3    0    0 -0.24362611487E+00  0.62626732915E+00 -0.16185951441E+00  0.69120417746E+00  0.51100000000E-03 0. -1.
        -11    1    3    3    0    0 -0.14127895574E+02 -0.24543670298E+02  0.13906233321E+02  0.31549524726E+02  0.51100000000E-03 0.  1.
        -12    1    3    3    0    0 -0.95806383649E+01 -0.89232416016E+01 -0.12768825134E+02  0.18288131875E+02  0.00000000000E+00 0.  1.
</event>
<event>
 7    1  0.2661323E-011  0.5052885E+02  0.7816164E-02  0.1300439E+00
        -11   -1    0    0    0    0  0.00000000000E+00  0.00000000000E+00  0.45593999997E+02  0.45594000000E+02  0.51100000000E-03 0.  1.
         11   -1    0    0    0    0 -0.00000000000E+00 -0.00000000000E+00 -0.45593999997E+02  0.45594000000E+02  0.51100000000E-03 0. -1.
    9900012    2    1    2    0    0 -0.67037666357E+01  0.20784700037E+02  0.34296092363E+02  0.50528853500E+02  0.29999980700E+02 0.  0.
         12    1    1    2    0    0  0.67037666357E+01 -0.20784700037E+02 -0.34296092363E+02  0.40659146500E+02  0.00000000000E+00 0. -1.
         11    1    3    3    0    0 -0.53283777602E+01  0.66498485654E+00  0.21372082689E+02  0.22036327579E+02  0.51100000000E-03 0. -1.
        -11    1    3    3    0    0 -0.32066351846E+01  0.58137793898E+01  0.12393720576E+02  0.14060115575E+02  0.51100000000E-03 0.  1.
        -12    1    3    3    0    0  0.18312463090E+01  0.14305935790E+02  0.53028909708E+00  0.14432410347E+02  0.00000000000E+00 0.  1.
</event>
<event>
 7    1  0.2661323E-011  0.5052886E+02  0.7816164E-02  0.1300439E+00
        -11   -1    0    0    0    0  0.00000000000E+00  0.00000000000E+00  0.45593999997E+02  0.45594000000E+02  0.51100000000E-03 0.  1.
         11   -1    0    0    0    0 -0.00000000000E+00 -0.00000000000E+00 -0.45593999997E+02  0.45594000000E+02  0.51100000000E-03 0. -1.
    9900012    2    1    2    0    0  0.12874154568E+02 -0.15406573294E+01  0.38536322824E+02  0.50528860097E+02  0.30000000751E+02 0.  0.
         12    1    1    2    0    0 -0.12874154568E+02  0.15406573294E+01 -0.38536322824E+02  0.40659139903E+02  0.00000000000E+00 0. -1.
         11    1    3    3    0    0 -0.60259020146E+01  0.10653622683E+01  0.12664386813E+02  0.14065318534E+02  0.51100000000E-03 0. -1.
        -11    1    3    3    0    0  0.23879983578E+01  0.11585008932E+00  0.17662345673E+02  0.17823423137E+02  0.51100000000E-03 0.  1.
        -12    1    3    3    0    0  0.16512058225E+02 -0.27218696871E+01  0.82095903383E+01  0.18640118426E+02  0.00000000000E+00 0.  1.
</event>
<event>
 7    1  0.2661323E-011  0.5052884E+02  0.7816164E-02  0.1300439E+00
        -11   -1    0    0    0    0  0.00000000000E+00  0.00000000000E+00  0.45593999997E+02  0.45594000000E+02  0.51100000000E-03 0. -1.
         11   -1    0    0    0    0 -0.00000000000E+00 -0.00000000000E+00 -0.45593999997E+02  0.45594000000E+02  0.51100000000E-03 0.  1.
    9900012    2    1    2    0    0  0.23131998704E+02  0.19446687401E+02 -0.27201184977E+02  0.50528837698E+02  0.29999932667E+02 0.  0.
         12    1    1    2    0    0 -0.23131998704E+02 -0.19446687401E+02  0.27201184977E+02  0.40659162302E+02  0.00000000000E+00 0. -1.
         11    1    3    3    0    0  0.80074258639E+01 -0.31599505885E+01 -0.14467455629E+02  0.16834827867E+02  0.51100000000E-03 0. -1.
        -11    1    3    3    0    0  0.10830323946E+02  0.98855063799E+01  0.72751817982E+00  0.14681567904E+02  0.51100000000E-03 0.  1.
         12    1    3    3    0    0  0.42942488942E+01  0.12721131610E+02 -0.13461247529E+02  0.19012441927E+02  0.00000000000E+00 0. -1.
</event>
<event>
 7    1  0.2661323E-011  0.5052886E+02  0.7816164E-02  0.1300439E+00
        -11   -1    0    0    0    0  0.00000000000E+00  0.00000000000E+00  0.45593999997E+02  0.45594000000E+02  0.51100000000E-03 0.  1.
         11   -1    0    0    0    0 -0.00000000000E+00 -0.00000000000E+00 -0.45593999997E+02  0.45594000000E+02  0.51100000000E-03 0. -1.
    9900012    2    1    2    0    0 -0.32502595371E+02 -0.23876466661E+02 -0.51634247728E+01  0.50528864232E+02  0.30000013318E+02 0.  0.
         12    1    1    2    0    0  0.32502595371E+02  0.23876466661E+02  0.51634247728E+01  0.40659135768E+02  0.00000000000E+00 0. -1.
         11    1    3    3    0    0 -0.12232928539E+02 -0.84442117848E+01 -0.67699753075E+01  0.16333457050E+02  0.51100000000E-03 0. -1.
        -11    1    3    3    0    0 -0.21915175348E+02 -0.16401302434E+02 -0.45508692461E+01  0.27748658404E+02  0.51100000000E-03 0.  1.
         12    1    3    3    0    0  0.16455085154E+01  0.96904755745E+00  0.61574197808E+01  0.64467487774E+01  0.00000000000E+00 0. -1.
</event>
<event>
 7    1  0.2661323E-011  0.5052886E+02  0.7816164E-02  0.1300439E+00
        -11   -1    0    0    0    0  0.00000000000E+00  0.00000000000E+00  0.45593999997E+02  0.45594000000E+02  0.51100000000E-03 0. -1.
         11   -1    0    0    0    0 -0.00000000000E+00 -0.00000000000E+00 -0.45593999997E+02  0.45594000000E+02  0.51100000000E-03 0.  1.
    9900012    2    1    2    0    0 -0.22608525571E+02 -0.18949073753E+02 -0.27981289680E+02  0.50528863305E+02  0.30000010502E+02 0.  0.
         12    1    1    2    0    0  0.22608525571E+02  0.18949073753E+02  0.27981289680E+02  0.40659136695E+02  0.00000000000E+00 0. -1.
         11    1    3    3    0    0 -0.12995485065E+02 -0.23179659076E+01 -0.15398918306E+02  0.20282561063E+02  0.51100000000E-03 0. -1.
        -11    1    3    3    0    0 -0.21711231810E+01  0.17919261721E+01 -0.97839325446E+01  0.10180869883E+02  0.51100000000E-03 0.  1.
         12    1    3    3    0    0 -0.74419173255E+01 -0.18423034017E+02 -0.27984388300E+01  0.20065432360E+02  0.00000000000E+00 0. -1.
</event>
<event>
 7    1  0.2661323E-011  0.5052886E+02  0.7816164E-02  0.1300439E+00
        -11   -1    0    0    0    0  0.00000000000E+00  0.00000000000E+00  0.45593999997E+02  0.45594000000E+02  0.51100000000E-03 0. -1.
         11   -1    0    0    0    0 -0.00000000000E+00 -0.00000000000E+00 -0.45593999997E+02  0.45594000000E+02  0.51100000000E-03 0.  1.
    9900012    2    1    2    0    0  0.28686746268E+02  0.21679695705E+02 -0.18979655554E+02  0.50528856597E+02  0.29999990113E+02 0.  0.
         12    1    1    2    0    0 -0.28686746268E+02 -0.21679695705E+02  0.18979655554E+02  0.40659143403E+02  0.00000000000E+00 0. -1.
         11    1    3    3    0    0  0.11109013848E+02  0.46010311155E+01 -0.13183344220E+01  0.12096184601E+02  0.51100000000E-03 0.  1.
        -11    1    3    3    0    0  0.20095066513E+02  0.71485004710E+01 -0.18390550601E+02  0.28162476965E+02  0.51100000000E-03 0. -1.
         12    1    3    3    0    0 -0.25173340928E+01  0.99301641185E+01  0.72922946900E+00  0.10270195031E+02  0.00000000000E+00 0. -1.
</event>
<event>
 7    1  0.2661323E-011  0.5052886E+02  0.7816164E-02  0.1300439E+00
        -11   -1    0    0    0    0  0.00000000000E+00  0.00000000000E+00  0.45593999997E+02  0.45594000000E+02  0.51100000000E-03 0.  1.
         11   -1    0    0    0    0 -0.00000000000E+00 -0.00000000000E+00 -0.45593999997E+02  0.45594000000E+02  0.51100000000E-03 0. -1.
    9900012    2    1    2    0    0 -0.23785224433E+02  0.31678551797E+02  0.91595763366E+01  0.50528863463E+02  0.30000010981E+02 0.  0.
         12    1    1    2    0    0  0.23785224433E+02 -0.31678551797E+02 -0.91595763366E+01  0.40659136537E+02  0.00000000000E+00 0. -1.
         11    1    3    3    0    0 -0.81369346478E+01  0.10986198183E+02 -0.41458275936E+01  0.14286152130E+02  0.51100000000E-03 0. -1.
        -11    1    3    3    0    0 -0.11955763188E+02  0.15394319774E+02 -0.20357987223E+01  0.19597699646E+02  0.51100000000E-03 0.  1.
        -12    1    3    3    0    0 -0.36925265970E+01  0.52980338409E+01  0.15341202653E+02  0.16645011687E+02  0.00000000000E+00 0.  1.
</event>
<event>
 7    1  0.2661323E-011  0.5052886E+02  0.7816164E-02  0.1300439E+00
        -11   -1    0    0    0    0  0.00000000000E+00  0.00000000000E+00  0.45593999997E+02  0.45594000000E+02  0.51100000000E-03 0. -1.
         11   -1    0    0    0    0 -0.00000000000E+00 -0.00000000000E+00 -0.45593999997E+02  0.45594000000E+02  0.51100000000E-03 0.  1.
    9900012    2    1    2    0    0  0.22029653112E+02 -0.58516705903E+01 -0.33669242913E+02  0.50528861012E+02  0.30000003531E+02 0.  0.
         12    1    1    2    0    0 -0.22029653112E+02  0.58516705903E+01  0.33669242913E+02  0.40659138988E+02  0.00000000000E+00 0. -1.
         11    1    3    3    0    0 -0.40303872380E+01 -0.48295603176E+01 -0.71218359549E+01  0.95020640799E+01  0.51100000000E-03 0. -1.
        -11    1    3    3    0    0  0.43165659598E+01 -0.59929827511E+01 -0.15898125326E+01  0.75548718117E+01  0.51100000000E-03 0.  1.
        -12    1    3    3    0    0  0.21743474390E+02  0.49708724784E+01 -0.24957594426E+02  0.33471925120E+02  0.00000000000E+00 0.  1.
</event>
<event>
 7    1  0.2661323E-011  0.5052885E+02  0.7816164E-02  0.1300439E+00
        -11   -1    0    0    0    0  0.00000000000E+00  0.00000000000E+00  0.45593999997E+02  0.45594000000E+02  0.51100000000E-03 0. -1.
         11   -1    0    0    0    0 -0.00000000000E+00 -0.00000000000E+00 -0.45593999997E+02  0.45594000000E+02  0.51100000000E-03 0.  1.
    9900012    2    1    2    0    0 -0.82517003697E+01  0.25655686378E+02 -0.30444396803E+02  0.50528854667E+02  0.29999984246E+02 0.  0.
         12    1    1    2    0    0  0.82517003697E+01 -0.25655686378E+02  0.30444396803E+02  0.40659145333E+02  0.00000000000E+00 0. -1.
         11    1    3    3    0    0 -0.21957614321E+01 -0.26759485347E+01 -0.20051828211E+01  0.40003533886E+01  0.51100000000E-03 0. -1.
        -11    1    3    3    0    0 -0.93315580707E+01  0.16238076854E+01 -0.43899478134E+01  0.10439653706E+02  0.51100000000E-03 0.  1.
        -12    1    3    3    0    0  0.32756191331E+01  0.26707827227E+02 -0.24049266168E+02  0.36088847573E+02  0.00000000000E+00 0.  1.
</event>
<event>
 7    1  0.2661323E-011  0.5052886E+02  0.7816164E-02  0.1300439E+00
        -11   -1    0    0    0    0  0.00000000000E+00  0.00000000000E+00  0.45593999997E+02  0.45594000000E+02  0.51100000000E-03 0.  1.
         11   -1    0    0    0    0 -0.00000000000E+00 -0.00000000000E+00 -0.45593999997E+02  0.45594000000E+02  0.51100000000E-03 0. -1.
    9900012    2    1    2    0    0  0.17442013616E+01  0.38181182766E+02  0.13867961759E+02  0.50528864259E+02  0.30000013403E+02 0.  0.
         12    1    1    2    0    0 -0.17442013616E+01 -0.38181182766E+02 -0.13867961759E+02  0.40659135741E+02  0.00000000000E+00 0. -1.
         11    1    3    3    0    0  0.13744194452E+02  0.86783893338E+01  0.77521469888E+01  0.18008695282E+02  0.51100000000E-03 0.  1.
        -11    1    3    3    0    0 -0.66241876937E+01  0.13638681483E+02  0.35794312030E+01  0.15579018685E+02  0.51100000000E-03 0. -1.
        -12    1    3    3    0    0 -0.53758053970E+01  0.15864111949E+02  0.25363835673E+01  0.16941150292E+02  0.00000000000E+00 0.  1.
</event>
<event>
 7    1  0.2661323E-011  0.5052887E+02  0.7816164E-02  0.1300439E+00
        -11   -1    0    0    0    0  0.00000000000E+00  0.00000000000E+00  0.45593999997E+02  0.45594000000E+02  0.51100000000E-03 0.  1.
         11   -1    0    0    0    0 -0.00000000000E+00 -0.00000000000E+00 -0.45593999997E+02  0.45594000000E+02  0.51100000000E-03 0. -1.
    9900012    2    1    2    0    0  0.28132467833E+02  0.40968607109E+01  0.29067929842E+02  0.50528873603E+02  0.30000041804E+02 0.  0.
         12    1    1    2    0    0 -0.28132467833E+02 -0.40968607109E+01 -0.29067929842E+02  0.40659126397E+02  0.00000000000E+00 0. -1.
         11    1    3    3    0    0  0.18845053212E+02 -0.26209958896E+01  0.35244384775E+01  0.19350124467E+02  0.51100000000E-03 0. -1.
        -11    1    3    3    0    0 -0.11970466764E+01 -0.29045981755E+01  0.79636292412E+01  0.85608996174E+01  0.51100000000E-03 0.  1.
        -12    1    3    3    0    0  0.10484461297E+02  0.96224547761E+01  0.17579862123E+02  0.22617849519E+02  0.00000000000E+00 0.  1.
</event>
<event>
 7    1  0.2661323E-011  0.5052886E+02  0.7816164E-02  0.1300439E+00
        -11   -1    0    0    0    0  0.00000000000E+00  0.00000000000E+00  0.45593999997E+02  0.45594000000E+02  0.51100000000E-03 0.  1.
         11   -1    0    0    0    0 -0.00000000000E+00 -0.00000000000E+00 -0.45593999997E+02  0.45594000000E+02  0.51100000000E-03 0. -1.
    9900012    2    1    2    0    0  0.91731036518E+01 -0.32458429173E+02 -0.22703967998E+02  0.50528860586E+02  0.30000002238E+02 0.  0.
         12    1    1    2    0    0 -0.91731036518E+01  0.32458429173E+02  0.22703967998E+02  0.40659139414E+02  0.00000000000E+00 0. -1.
         11    1    3    3    0    0  0.32334890525E+01 -0.73620486415E+00  0.20439947540E-01  0.33163032291E+01  0.51100000000E-03 0. -1.
        -11    1    3    3    0    0  0.13082833677E+02 -0.16927244118E+02 -0.30972005775E+01  0.21616770854E+02  0.51100000000E-03 0.  1.
         12    1    3    3    0    0 -0.71432190782E+01 -0.14794980191E+02 -0.19627207368E+02  0.25595786504E+02  0.00000000000E+00 0. -1.
</event>
<event>
 7    1  0.2661323E-011  0.5052885E+02  0.7816164E-02  0.1300439E+00
        -11   -1    0    0    0    0  0.00000000000E+00  0.00000000000E+00  0.45593999997E+02  0.45594000000E+02  0.51100000000E-03 0. -1.
         11   -1    0    0    0    0 -0.00000000000E+00 -0.00000000000E+00 -0.45593999997E+02  0.45594000000E+02  0.51100000000E-03 0.  1.
    9900012    2    1    2    0    0  0.74665220838E+01  0.22247454349E+02 -0.33203442022E+02  0.50528846797E+02  0.29999960324E+02 0.  0.
         12    1    1    2    0    0 -0.74665220838E+01 -0.22247454349E+02  0.33203442022E+02  0.40659153203E+02  0.00000000000E+00 0. -1.
         11    1    3    3    0    0  0.74075183009E+01 -0.22329932565E+01 -0.16653751101E+01  0.79139788211E+01  0.51100000000E-03 0. -1.
        -11    1    3    3    0    0 -0.24064201474E+01  0.24835770603E+01  0.68150901712E+00  0.35246939927E+01  0.51100000000E-03 0.  1.
        -12    1    3    3    0    0  0.24654239303E+01  0.21996870546E+02 -0.32219575930E+02  0.39090173983E+02  0.00000000000E+00 0.  1.
</event>
<event>
 7    1  0.2661323E-011  0.5052887E+02  0.7816164E-02  0.1300439E+00
        -11   -1    0    0    0    0  0.00000000000E+00  0.00000000000E+00  0.45593999997E+02  0.45594000000E+02  0.51100000000E-03 0.  1.
         11   -1    0    0    0    0 -0.00000000000E+00 -0.00000000000E+00 -0.45593999997E+02  0.45594000000E+02  0.51100000000E-03 0. -1.
    9900012    2    1    2    0    0 -0.33137600157E+02  0.19717107724E+02  0.12895745879E+02  0.50528866427E+02  0.30000019991E+02 0.  0.
         12    1    1    2    0    0  0.33137600157E+02 -0.19717107724E+02 -0.12895745879E+02  0.40659133573E+02  0.00000000000E+00 0. -1.
         11    1    3    3    0    0 -0.12370776270E+02  0.17041239035E+01 -0.48281904690E+01  0.13388486369E+02  0.51100000000E-03 0. -1.
        -11    1    3    3    0    0 -0.15537039185E+02  0.13485192220E+02  0.28928955715E+01  0.20775438405E+02  0.51100000000E-03 0.  1.
        -12    1    3    3    0    0 -0.52297847017E+01  0.45277916000E+01  0.14831040776E+02  0.16364941653E+02  0.00000000000E+00 0.  1.
</event>
<event>
 7    1  0.2661323E-011  0.5052887E+02  0.7816164E-02  0.1300439E+00
        -11   -1    0    0    0    0  0.00000000000E+00  0.00000000000E+00  0.45593999997E+02  0.45594000000E+02  0.51100000000E-03 0.  1.
         11   -1    0    0    0    0 -0.00000000000E+00 -0.00000000000E+00 -0.45593999997E+02  0.45594000000E+02  0.51100000000E-03 0. -1.
    9900012    2    1    2    0    0  0.32321329574E+02  0.23249932071E+02  0.82424235237E+01  0.50528865328E+02  0.30000016651E+02 0.  0.
         12    1    1    2    0    0 -0.32321329574E+02 -0.23249932071E+02 -0.82424235237E+01  0.40659134672E+02  0.00000000000E+00 0. -1.
         11    1    3    3    0    0  0.11416833003E+02  0.68652803510E+01  0.11781194146E+02  0.17784057070E+02  0.51100000000E-03 0. -1.
        -11    1    3    3    0    0  0.37275490726E+01 -0.12762215400E+01  0.52708285391E+01  0.65806532546E+01  0.51100000000E-03 0.  1.
         12    1    3    3    0    0  0.17176947499E+02  0.17660873260E+02 -0.88095991609E+01  0.26164155003E+02  0.00000000000E+00 0. -1.
</event>
<event>
 7    1  0.2661323E-011  0.5052887E+02  0.7816164E-02  0.1300439E+00
        -11   -1    0    0    0    0  0.00000000000E+00  0.00000000000E+00  0.45593999997E+02  0.45594000000E+02  0.51100000000E-03 0.  1.
         11   -1    0    0    0    0 -0.00000000000E+00 -0.00000000000E+00 -0.45593999997E+02  0.45594000000E+02  0.51100000000E-03 0. -1.
    9900012    2    1    2    0    0  0.14484746895E+02  0.24915413382E+02  0.28680634999E+02  0.50528873834E+02  0.30000042506E+02 0.  0.
         12    1    1    2    0    0 -0.14484746895E+02 -0.24915413382E+02 -0.28680634999E+02  0.40659126166E+02  0.00000000000E+00 0. -1.
         11    1    3    3    0    0  0.41240200351E+01 -0.18632288591E+01  0.19936356136E+01  0.49450729269E+01  0.51100000000E-03 0. -1.
        -11    1    3    3    0    0  0.87375925032E+01  0.14567432092E+02  0.28454217450E+02  0.33139071977E+02  0.51100000000E-03 0.  1.
         12    1    3    3    0    0  0.16231343571E+01  0.12211210150E+02 -0.17672180650E+01  0.12444728931E+02  0.00000000000E+00 0. -1.
</event>
<event>
 7    1  0.2661323E-011  0.5052884E+02  0.7816164E-02  0.1300439E+00
        -11   -1    0    0    0    0  0.00000000000E+00  0.00000000000E+00  0.45593999997E+02  0.45594000000E+02  0.51100000000E-03 0. -1.
         11   -1    0    0    0    0 -0.00000000000E+00 -0.00000000000E+00 -0.45593999997E+02  0.45594000000E+02  0.51100000000E-03 0.  1.
    9900012    2    1    2    0    0 -0.32225176634E+02  0.22537806529E+02 -0.10332096575E+02  0.50528844182E+02  0.29999952375E+02 0.  0.
         12    1    1    2    0    0  0.32225176634E+02 -0.22537806529E+02  0.10332096575E+02  0.40659155818E+02  0.00000000000E+00 0. -1.
         11    1    3    3    0    0 -0.13232191648E+02  0.79887784807E+01 -0.34557874440E+01  0.15838369377E+02  0.51100000000E-03 0.  1.
        -11    1    3    3    0    0  0.14962415071E+01 -0.41992295592E+00  0.60264991429E+01  0.62236457256E+01  0.51100000000E-03 0. -1.
         12    1    3    3    0    0 -0.20489226493E+02  0.14968951004E+02 -0.12902808274E+02  0.28466829079E+02  0.00000000000E+00 0. -1.
</event>
<event>
 7    1  0.2661323E-011  0.5052885E+02  0.7816164E-02  0.1300439E+00
        -11   -1    0    0    0    0  0.00000000000E+00  0.00000000000E+00  0.45593999997E+02  0.45594000000E+02  0.51100000000E-03 0. -1.
         11   -1    0    0    0    0 -0.00000000000E+00 -0.00000000000E+00 -0.45593999997E+02  0.45594000000E+02  0.51100000000E-03 0.  1.
    9900012    2    1    2    0    0 -0.48939810707E+01 -0.39694520693E+02 -0.73185165732E+01  0.50528847174E+02  0.29999961469E+02 0.  0.
         12    1    1    2    0    0  0.48939810707E+01  0.39694520693E+02  0.73185165732E+01  0.40659152826E+02  0.00000000000E+00 0. -1.
         11    1    3    3    0    0 -0.37377795104E+01 -0.35462726907E+02 -0.10833270422E+02  0.37268428242E+02  0.51100000000E-03 0. -1.
        -11    1    3    3    0    0 -0.44296669910E+01 -0.59319849332E+01 -0.95547098879E+00  0.74648054208E+01  0.51100000000E-03 0.  1.
         12    1    3    3    0    0  0.32734654306E+01  0.17001911479E+01  0.44702248374E+01  0.57956135104E+01  0.00000000000E+00 0. -1.
</event>
<event>
 7    1  0.2661323E-011  0.5052886E+02  0.7816164E-02  0.1300439E+00
        -11   -1    0    0    0    0  0.00000000000E+00  0.00000000000E+00  0.45593999997E+02  0.45594000000E+02  0.51100000000E-03 0.  1.
         11   -1    0    0    0    0 -0.00000000000E+00 -0.00000000000E+00 -0.45593999997E+02  0.45594000000E+02  0.51100000000E-03 0. -1.
    9900012    2    1    2    0    0  0.10794412654E+02  0.37396320050E+02  0.11754205774E+02  0.50528862636E+02  0.30000008467E+02 0.  0.
         12    1    1    2    0    0 -0.10794412654E+02 -0.37396320050E+02 -0.11754205774E+02  0.40659137364E+02  0.00000000000E+00 0. -1.
         11    1    3    3    0    0  0.36240670304E+01  0.11923904970E+02  0.40815243370E+01  0.13113817627E+02  0.51100000000E-03 0. -1.
        -11    1    3    3    0    0  0.16269062739E+02  0.12822982348E+02  0.68241023907E+01  0.21810081440E+02  0.51100000000E-03 0.  1.
         12    1    3    3    0    0 -0.90987171156E+01  0.12649432731E+02  0.84857904598E+00  0.15604963568E+02  0.00000000000E+00 0. -1.
</event>
<event>
 7    1  0.2661323E-011  0.5052886E+02  0.7816164E-02  0.1300439E+00
        -11   -1    0    0    0    0  0.00000000000E+00  0.00000000000E+00  0.45593999997E+02  0.45594000000E+02  0.51100000000E-03 0.  1.
         11   -1    0    0    0    0 -0.00000000000E+00 -0.00000000000E+00 -0.45593999997E+02  0.45594000000E+02  0.51100000000E-03 0. -1.
    9900012    2    1    2    0    0  0.34791018154E+02 -0.20981689291E+02 -0.15872459062E+01  0.50528861061E+02  0.30000003680E+02 0.  0.
         12    1    1    2    0    0 -0.34791018154E+02  0.20981689291E+02  0.15872459062E+01  0.40659138939E+02  0.00000000000E+00 0. -1.
         11    1    3    3    0    0  0.29256331372E+01 -0.24192110936E+00 -0.91895752877E+00  0.30760913961E+01  0.51100000000E-03 0.  1.
        -11    1    3    3    0    0  0.37871075354E+00  0.26270801267E+01  0.70121469370E+01  0.74976780909E+01  0.51100000000E-03 0. -1.
         12    1    3    3    0    0  0.31486674264E+02 -0.23366848308E+02 -0.76804353144E+01  0.39955091574E+02  0.00000000000E+00 0. -1.
</event>
<event>
 7    1  0.2661323E-011  0.5052886E+02  0.7816164E-02  0.1300439E+00
        -11   -1    0    0    0    0  0.00000000000E+00  0.00000000000E+00  0.45593999997E+02  0.45594000000E+02  0.51100000000E-03 0.  1.
         11   -1    0    0    0    0 -0.00000000000E+00 -0.00000000000E+00 -0.45593999997E+02  0.45594000000E+02  0.51100000000E-03 0. -1.
    9900012    2    1    2    0    0  0.26746435716E+02 -0.30595690933E+02  0.13029743625E+01  0.50528857493E+02  0.29999992837E+02 0.  0.
         12    1    1    2    0    0 -0.26746435716E+02  0.30595690933E+02 -0.13029743625E+01  0.40659142507E+02  0.00000000000E+00 0. -1.
         11    1    3    3    0    0 -0.27249566625E+01  0.44397162838E+00  0.83586306586E+00  0.28846432960E+01  0.51100000000E-03 0. -1.
        -11    1    3    3    0    0  0.19919938956E+01 -0.45456354527E+01 -0.71663694734E+01  0.87170920060E+01  0.51100000000E-03 0.  1.
        -12    1    3    3    0    0  0.27479398483E+02 -0.26494027109E+02  0.76334807701E+01  0.38927122191E+02  0.00000000000E+00 0.  1.
</event>
<event>
 7    1  0.2661323E-011  0.5052889E+02  0.7816164E-02  0.1300439E+00
        -11   -1    0    0    0    0  0.00000000000E+00  0.00000000000E+00  0.45593999997E+02  0.45594000000E+02  0.51100000000E-03 0. -1.
         11   -1    0    0    0    0 -0.00000000000E+00 -0.00000000000E+00 -0.45593999997E+02  0.45594000000E+02  0.51100000000E-03 0.  1.
    9900012    2    1    2    0    0 -0.36701224876E+02  0.16641567530E+02 -0.54075089060E+01  0.50528894872E+02  0.30000106454E+02 0.  0.
         12    1    1    2    0    0  0.36701224876E+02 -0.16641567530E+02  0.54075089060E+01  0.40659105128E+02  0.00000000000E+00 0. -1.
         11    1    3    3    0    0 -0.23423595328E+02  0.18703156505E+02  0.29703797505E+01  0.30121355173E+02  0.51100000000E-03 0. -1.
        -11    1    3    3    0    0 -0.14992090231E+02  0.79622985278E+00 -0.81112076329E+01  0.17064244519E+02  0.51100000000E-03 0.  1.
        -12    1    3    3    0    0  0.17144606838E+01 -0.28578188283E+01 -0.26668102352E+00  0.33432951799E+01  0.00000000000E+00 0.  1.
</event>
<event>
 7    1  0.2661323E-011  0.5052890E+02  0.7816164E-02  0.1300439E+00
        -11   -1    0    0    0    0  0.00000000000E+00  0.00000000000E+00  0.45593999997E+02  0.45594000000E+02  0.51100000000E-03 0. -1.
         11   -1    0    0    0    0 -0.00000000000E+00 -0.00000000000E+00 -0.45593999997E+02  0.45594000000E+02  0.51100000000E-03 0.  1.
    9900012    2    1    2    0    0 -0.40140146049E+02  0.50894887191E+01 -0.40035374438E+01  0.50528898530E+02  0.30000117571E+02 0.  0.
         12    1    1    2    0    0  0.40140146049E+02 -0.50894887191E+01  0.40035374438E+01  0.40659101470E+02  0.00000000000E+00 0. -1.
         11    1    3    3    0    0 -0.13870200404E+02 -0.92554808496E+01 -0.81028497052E+01  0.18539216774E+02  0.51100000000E-03 0. -1.
        -11    1    3    3    0    0 -0.15307871102E+01  0.18844383219E+00 -0.23073083299E+01  0.27753364202E+01  0.51100000000E-03 0.  1.
        -12    1    3    3    0    0 -0.24739158535E+02  0.14156525737E+02  0.64066205914E+01  0.29214345335E+02  0.00000000000E+00 0.  1.
</event>
<event>
 7    1  0.2661323E-011  0.5052886E+02  0.7816164E-02  0.1300439E+00
        -11   -1    0    0    0    0  0.00000000000E+00  0.00000000000E+00  0.45593999997E+02  0.45594000000E+02  0.51100000000E-03 0.  1.
         11   -1    0    0    0    0 -0.00000000000E+00 -0.00000000000E+00 -0.45593999997E+02  0.45594000000E+02  0.51100000000E-03 0. -1.
    9900012    2    1    2    0    0 -0.13907074699E+02 -0.92917476015E+01  0.37059714486E+02  0.50528859110E+02  0.29999997750E+02 0.  0.
         12    1    1    2    0    0  0.13907074699E+02  0.92917476015E+01 -0.37059714486E+02  0.40659140890E+02  0.00000000000E+00 0. -1.
         11    1    3    3    0    0 -0.11601106193E+01  0.89614915691E+00 -0.15069419463E+01  0.21023354279E+01  0.51100000000E-03 0. -1.
        -11    1    3    3    0    0 -0.12047766340E+02  0.36151214428E+01  0.80709114090E+01  0.14945145970E+02  0.51100000000E-03 0.  1.
        -12    1    3    3    0    0 -0.69919773902E+00 -0.13803018201E+02  0.30495745023E+02  0.33481377712E+02  0.00000000000E+00 0.  1.
</event>
<event>
 7    1  0.2661323E-011  0.5052886E+02  0.7816164E-02  0.1300439E+00
        -11   -1    0    0    0    0  0.00000000000E+00  0.00000000000E+00  0.45593999997E+02  0.45594000000E+02  0.51100000000E-03 0.  1.
         11   -1    0    0    0    0 -0.00000000000E+00 -0.00000000000E+00 -0.45593999997E+02  0.45594000000E+02  0.51100000000E-03 0. -1.
    9900012    2    1    2    0    0 -0.15117250528E+02  0.32611648847E+02 -0.19003014893E+02  0.50528862293E+02  0.30000007427E+02 0.  0.
         12    1    1    2    0    0  0.15117250528E+02 -0.32611648847E+02  0.19003014893E+02  0.40659137707E+02  0.00000000000E+00 0. -1.
         11    1    3    3    0    0  0.13817530872E+00  0.97063591447E+01 -0.78015961467E+01  0.12453810781E+02  0.51100000000E-03 0. -1.
        -11    1    3    3    0    0 -0.18241285321E+02  0.20179426099E+02 -0.16188741563E+02  0.31654842939E+02  0.51100000000E-03 0.  1.
        -12    1    3    3    0    0  0.29858594842E+01  0.27258636033E+01  0.49873228175E+01  0.64202085736E+01  0.00000000000E+00 0.  1.
</event>
<event>
 7    1  0.2661323E-011  0.5052886E+02  0.7816164E-02  0.1300439E+00
        -11   -1    0    0    0    0  0.00000000000E+00  0.00000000000E+00  0.45593999997E+02  0.45594000000E+02  0.51100000000E-03 0. -1.
         11   -1    0    0    0    0 -0.00000000000E+00 -0.00000000000E+00 -0.45593999997E+02  0.45594000000E+02  0.51100000000E-03 0.  1.
    9900012    2    1    2    0    0  0.28755171324E+02 -0.10046178133E+02 -0.26932883047E+02  0.50528858812E+02  0.29999996844E+02 0.  0.
         12    1    1    2    0    0 -0.28755171324E+02  0.10046178133E+02  0.26932883047E+02  0.40659141188E+02  0.00000000000E+00 0. -1.
         11    1    3    3    0    0  0.10205887871E+01 -0.22333850375E+01  0.15432511347E+01  0.29002128412E+01  0.51100000000E-03 0. -1.
        -11    1    3    3    0    0 -0.36125304017E+01 -0.18276836093E+01 -0.99159162996E+01  0.10710564859E+02  0.51100000000E-03 0.  1.
         12    1    3    3    0    0  0.31347112938E+02 -0.59851094867E+01 -0.18560217882E+02  0.36918081112E+02  0.00000000000E+00 0. -1.
</event>
<event>
 7    1  0.2661323E-011  0.5052886E+02  0.7816164E-02  0.1300439E+00
        -11   -1    0    0    0    0  0.00000000000E+00  0.00000000000E+00  0.45593999997E+02  0.45594000000E+02  0.51100000000E-03 0.  1.
         11   -1    0    0    0    0 -0.00000000000E+00 -0.00000000000E+00 -0.45593999997E+02  0.45594000000E+02  0.51100000000E-03 0. -1.
    9900012    2    1    2    0    0  0.25754760513E+02 -0.11870783420E+02  0.29136615378E+02  0.50528861497E+02  0.30000005007E+02 0.  0.
         12    1    1    2    0    0 -0.25754760513E+02  0.11870783420E+02 -0.29136615378E+02  0.40659138503E+02  0.00000000000E+00 0. -1.
         11    1    3    3    0    0 -0.16604388587E+01  0.10887504934E+01  0.91454436649E+01  0.93585028145E+01  0.51100000000E-03 0. -1.
        -11    1    3    3    0    0  0.59635764729E+01  0.40171022555E+01  0.94010464264E+01  0.11835583173E+02  0.51100000000E-03 0.  1.
        -12    1    3    3    0    0  0.21451622899E+02 -0.16976636169E+02  0.10590125286E+02  0.29334775510E+02  0.00000000000E+00 0.  1.
</event>
<event>
 7    1  0.2661323E-011  0.5052886E+02  0.7816164E-02  0.1300439E+00
        -11   -1    0    0    0    0  0.00000000000E+00  0.00000000000E+00  0.45593999997E+02  0.45594000000E+02  0.51100000000E-03 0. -1.
         11   -1    0    0    0    0 -0.00000000000E+00 -0.00000000000E+00 -0.45593999997E+02  0.45594000000E+02  0.51100000000E-03 0.  1.
    9900012    2    1    2    0    0 -0.16748428834E+02  0.12236752984E+02 -0.34970238712E+02  0.50528860959E+02  0.30000003370E+02 0.  0.
         12    1    1    2    0    0  0.16748428834E+02 -0.12236752984E+02  0.34970238712E+02  0.40659139041E+02  0.00000000000E+00 0. -1.
         11    1    3    3    0    0  0.87180258473E+00  0.14593824364E+01 -0.25613825941E+01  0.30741694645E+01  0.51100000000E-03 0. -1.
        -11    1    3    3    0    0 -0.35529545879E+01  0.50450765732E+01 -0.31649423598E+02  0.32245345374E+02  0.51100000000E-03 0.  1.
         12    1    3    3    0    0 -0.14067276831E+02  0.57322939741E+01 -0.75943251965E+00  0.15209346120E+02  0.00000000000E+00 0. -1.
</event>
<event>
 7    1  0.2661323E-011  0.5052887E+02  0.7816164E-02  0.1300439E+00
        -11   -1    0    0    0    0  0.00000000000E+00  0.00000000000E+00  0.45593999997E+02  0.45594000000E+02  0.51100000000E-03 0.  1.
         11   -1    0    0    0    0 -0.00000000000E+00 -0.00000000000E+00 -0.45593999997E+02  0.45594000000E+02  0.51100000000E-03 0. -1.
    9900012    2    1    2    0    0 -0.10916838901E+02 -0.30601998285E+02  0.24443915609E+02  0.50528872108E+02  0.30000037259E+02 0.  0.
         12    1    1    2    0    0  0.10916838901E+02  0.30601998285E+02 -0.24443915609E+02  0.40659127892E+02  0.00000000000E+00 0. -1.
         11    1    3    3    0    0 -0.23538010099E+01  0.42860199752E+01  0.17763754098E+01  0.52024855867E+01  0.51100000000E-03 0. -1.
        -11    1    3    3    0    0 -0.30087742688E+01  0.75114395542E+00  0.26225809099E+01  0.40613877841E+01  0.51100000000E-03 0.  1.
        -12    1    3    3    0    0 -0.55542636227E+01 -0.35639162216E+02  0.20044959290E+02  0.41264998737E+02  0.00000000000E+00 0.  1.
</event>
<event>
 7    1  0.2661323E-011  0.5052888E+02  0.7816164E-02  0.1300439E+00
        -11   -1    0    0    0    0  0.00000000000E+00  0.00000000000E+00  0.45593999997E+02  0.45594000000E+02  0.51100000000E-03 0.  1.
         11   -1    0    0    0    0 -0.00000000000E+00 -0.00000000000E+00 -0.45593999997E+02  0.45594000000E+02  0.51100000000E-03 0. -1.
    9900012    2    1    2    0    0  0.64130111882E+01 -0.18526543125E+02  0.35620283466E+02  0.50528879168E+02  0.30000058718E+02 0.  0.
         12    1    1    2    0    0 -0.64130111882E+01  0.18526543125E+02 -0.35620283466E+02  0.40659120832E+02  0.00000000000E+00 0. -1.
         11    1    3    3    0    0  0.10106889463E+02 -0.82777131066E+01  0.65196040551E+01  0.14600513217E+02  0.51100000000E-03 0. -1.
        -11    1    3    3    0    0  0.28195069014E+01 -0.57212307492E+01  0.26971151247E+02  0.27715069913E+02  0.51100000000E-03 0.  1.
        -12    1    3    3    0    0 -0.65133851765E+01 -0.45275992690E+01  0.21295281638E+01  0.82132960375E+01  0.00000000000E+00 0.  1.
</event>
<event>
 7    1  0.2661323E-011  0.5052886E+02  0.7816164E-02  0.1300439E+00
        -11   -1    0    0    0    0  0.00000000000E+00  0.00000000000E+00  0.45593999997E+02  0.45594000000E+02  0.51100000000E-03 0.  1.
         11   -1    0    0    0    0 -0.00000000000E+00 -0.00000000000E+00 -0.45593999997E+02  0.45594000000E+02  0.51100000000E-03 0. -1.
    9900012    2    1    2    0    0  0.10890635020E+02  0.22365820159E+02  0.32160999743E+02  0.50528858998E+02  0.29999997411E+02 0.  0.
         12    1    1    2    0    0 -0.10890635020E+02 -0.22365820159E+02 -0.32160999743E+02  0.40659141002E+02  0.00000000000E+00 0. -1.
         11    1    3    3    0    0  0.12181687612E+02  0.34973423316E+01  0.24551997403E+02  0.27630155504E+02  0.51100000000E-03 0. -1.
        -11    1    3    3    0    0 -0.97038047844E+00  0.31483803733E+01  0.63143251719E+01  0.71221232709E+01  0.51100000000E-03 0.  1.
         12    1    3    3    0    0 -0.32067211336E+00  0.15720097454E+02  0.12946771682E+01  0.15776580224E+02  0.00000000000E+00 0. -1.
</event>
<event>
 7    1  0.2661323E-011  0.5052893E+02  0.7816164E-02  0.1300439E+00
        -11   -1    0    0    0    0  0.00000000000E+00  0.00000000000E+00  0.45593999997E+02  0.45594000000E+02  0.51100000000E-03 0.  1.
         11   -1    0    0    0    0 -0.00000000000E+00 -0.00000000000E+00 -0.45593999997E+02  0.45594000000E+02  0.51100000000E-03 0. -1.
    9900012    2    1    2    0    0 -0.27995895257E+02 -0.14651672472E+02  0.25587461704E+02  0.50528931467E+02  0.30000217687E+02 0.  0.
         12    1    1    2    0    0  0.27995895257E+02  0.14651672472E+02 -0.25587461704E+02  0.40659068533E+02  0.00000000000E+00 0. -1.
         11    1    3    3    0    0 -0.10513585435E+02 -0.15037657471E+02 -0.11123564565E+00  0.18348814527E+02  0.51100000000E-03 0. -1.
        -11    1    3    3    0    0  0.50477255759E+00 -0.92881174236E+00  0.30497594042E+01  0.32277731135E+01  0.51100000000E-03 0.  1.
        -12    1    3    3    0    0 -0.17987082379E+02  0.13147967408E+01  0.22648937946E+02  0.28952343827E+02  0.00000000000E+00 0.  1.
</event>
<event>
 7    1  0.2661323E-011  0.5052889E+02  0.7816164E-02  0.1300439E+00
        -11   -1    0    0    0    0  0.00000000000E+00  0.00000000000E+00  0.45593999997E+02  0.45594000000E+02  0.51100000000E-03 0. -1.
         11   -1    0    0    0    0 -0.00000000000E+00 -0.00000000000E+00 -0.45593999997E+02  0.45594000000E+02  0.51100000000E-03 0.  1.
    9900012    2    1    2    0    0  0.30384977540E+02 -0.58836381799E+01 -0.26368523999E+02  0.50528891350E+02  0.30000095747E+02 0.  0.
         12    1    1    2    0    0 -0.30384977540E+02  0.58836381799E+01  0.26368523999E+02  0.40659108650E+02  0.00000000000E+00 0. -1.
         11    1    3    3    0    0  0.73843108527E+01 -0.49663904678E+01 -0.32636591214E+01  0.94786366198E+01  0.51100000000E-03 0. -1.
        -11    1    3    3    0    0  0.20360255197E+02 -0.11140706779E+02 -0.17702011378E+02  0.29189322471E+02  0.51100000000E-03 0.  1.
         12    1    3    3    0    0  0.26404114900E+01  0.10223459067E+02 -0.54028534995E+01  0.11860932259E+02  0.00000000000E+00 0. -1.
</event>
<event>
 7    1  0.2661323E-011  0.5052886E+02  0.7816164E-02  0.1300439E+00
        -11   -1    0    0    0    0  0.00000000000E+00  0.00000000000E+00  0.45593999997E+02  0.45594000000E+02  0.51100000000E-03 0. -1.
         11   -1    0    0    0    0 -0.00000000000E+00 -0.00000000000E+00 -0.45593999997E+02  0.45594000000E+02  0.51100000000E-03 0.  1.
    9900012    2    1    2    0    0 -0.18867438158E+02 -0.35122546944E+02 -0.79744722120E+01  0.50528859163E+02  0.29999997913E+02 0.  0.
         12    1    1    2    0    0  0.18867438158E+02  0.35122546944E+02  0.79744722120E+01  0.40659140837E+02  0.00000000000E+00 0. -1.
         11    1    3    3    0    0 -0.14692441842E+02 -0.19050863324E+02  0.40267496462E+01  0.24392989847E+02  0.51100000000E-03 0. -1.
        -11    1    3    3    0    0 -0.92256667575E+01 -0.44836810695E+01 -0.32450577599E+01  0.10758565108E+02  0.51100000000E-03 0.  1.
        -12    1    3    3    0    0  0.50506704411E+01 -0.11588002550E+02 -0.87561640983E+01  0.15377304209E+02  0.00000000000E+00 0.  1.
</event>
<event>
 7    1  0.2661323E-011  0.5052886E+02  0.7816164E-02  0.1300439E+00
        -11   -1    0    0    0    0  0.00000000000E+00  0.00000000000E+00  0.45593999997E+02  0.45594000000E+02  0.51100000000E-03 0. -1.
         11   -1    0    0    0    0 -0.00000000000E+00 -0.00000000000E+00 -0.45593999997E+02  0.45594000000E+02  0.51100000000E-03 0.  1.
    9900012    2    1    2    0    0  0.22763763029E+02  0.33541776159E+02  0.31505227613E+01  0.50528862665E+02  0.30000008558E+02 0.  0.
         12    1    1    2    0    0 -0.22763763029E+02 -0.33541776159E+02 -0.31505227613E+01  0.40659137335E+02  0.00000000000E+00 0. -1.
         11    1    3    3    0    0 -0.36830244355E+01  0.30130330082E+01  0.19752747835E+01  0.51521595115E+01  0.51100000000E-03 0. -1.
        -11    1    3    3    0    0 -0.23766227936E+01  0.88792739867E+01  0.15765114269E+01  0.93260511994E+01  0.51100000000E-03 0.  1.
        -12    1    3    3    0    0  0.28823410258E+02  0.21649469164E+02 -0.40126344912E+00  0.36050651954E+02  0.00000000000E+00 0.  1.
</event>
<event>
 7    1  0.2661323E-011  0.5052886E+02  0.7816164E-02  0.1300439E+00
        -11   -1    0    0    0    0  0.00000000000E+00  0.00000000000E+00  0.45593999997E+02  0.45594000000E+02  0.51100000000E-03 0. -1.
         11   -1    0    0    0    0 -0.00000000000E+00 -0.00000000000E+00 -0.45593999997E+02  0.45594000000E+02  0.51100000000E-03 0.  1.
    9900012    2    1    2    0    0 -0.35103568075E+01 -0.39361586774E+02 -0.95660159441E+01  0.50528858601E+02  0.29999996203E+02 0.  0.
         12    1    1    2    0    0  0.35103568075E+01  0.39361586774E+02  0.95660159441E+01  0.40659141399E+02  0.00000000000E+00 0. -1.
         11    1    3    3    0    0 -0.51975388958E+01 -0.39312015347E+01  0.33124488224E+01  0.73103401796E+01  0.51100000000E-03 0. -1.
        -11    1    3    3    0    0  0.55853062519E+01 -0.19077514249E+02 -0.16718877977E+02  0.25974373465E+02  0.51100000000E-03 0.  1.
         12    1    3    3    0    0 -0.38981241637E+01 -0.16352870990E+02  0.38404132104E+01  0.17244144956E+02  0.00000000000E+00 0. -1.
</event>
<event>
 7    1  0.2661323E-011  0.5052886E+02  0.7816164E-02  0.1300439E+00
        -11   -1    0    0    0    0  0.00000000000E+00  0.00000000000E+00  0.45593999997E+02  0.45594000000E+02  0.51100000000E-03 0.  1.
         11   -1    0    0    0    0 -0.00000000000E+00 -0.00000000000E+00 -0.45593999997E+02  0.45594000000E+02  0.51100000000E-03 0. -1.
    9900012    2    1    2    0    0 -0.36634270983E+01 -0.80144615577E+01  0.39692736631E+02  0.50528860395E+02  0.30000001656E+02 0.  0.
         12    1    1    2    0    0  0.36634270983E+01  0.80144615577E+01 -0.39692736631E+02  0.40659139605E+02  0.00000000000E+00 0. -1.
         11    1    3    3    0    0  0.36279550438E+01 -0.81733141446E+01  0.11733444551E+01  0.90189721907E+01  0.51100000000E-03 0. -1.
        -11    1    3    3    0    0  0.76619178088E+00 -0.54305202213E+01  0.10914371075E+02  0.12214790049E+02  0.51100000000E-03 0.  1.
        -12    1    3    3    0    0 -0.80575739230E+01  0.55893728083E+01  0.27605021101E+02  0.29295098155E+02  0.00000000000E+00 0.  1.
</event>
<event>
 7    1  0.2661323E-011  0.5052878E+02  0.7816164E-02  0.1300439E+00
        -11   -1    0    0    0    0  0.00000000000E+00  0.00000000000E+00  0.45593999997E+02  0.45594000000E+02  0.51100000000E-03 0. -1.
         11   -1    0    0    0    0 -0.00000000000E+00 -0.00000000000E+00 -0.45593999997E+02  0.45594000000E+02  0.51100000000E-03 0.  1.
    9900012    2    1    2    0    0  0.39743410561E+02 -0.31624632016E+01 -0.79769978441E+01  0.50528777785E+02  0.29999750555E+02 0.  0.
         12    1    1    2    0    0 -0.39743410561E+02  0.31624632016E+01  0.79769978441E+01  0.40659222215E+02  0.00000000000E+00 0. -1.
         11    1    3    3    0    0 -0.52838663091E+00  0.20626158491E+01  0.22932482818E+01  0.31293073540E+01  0.51100000000E-03 0. -1.
        -11    1    3    3    0    0  0.16271537516E+01  0.58076620322E+01 -0.21173281203E+01  0.63921550546E+01  0.51100000000E-03 0.  1.
        -12    1    3    3    0    0  0.38644643440E+02 -0.11032741083E+02 -0.81529180055E+01  0.41007315377E+02  0.00000000000E+00 0.  1.
</event>
<event>
 7    1  0.2661323E-011  0.5052886E+02  0.7816164E-02  0.1300439E+00
        -11   -1    0    0    0    0  0.00000000000E+00  0.00000000000E+00  0.45593999997E+02  0.45594000000E+02  0.51100000000E-03 0.  1.
         11   -1    0    0    0    0 -0.00000000000E+00 -0.00000000000E+00 -0.45593999997E+02  0.45594000000E+02  0.51100000000E-03 0. -1.
    9900012    2    1    2    0    0 -0.24657614804E+02  0.17040194085E+02  0.27473613762E+02  0.50528860371E+02  0.30000001583E+02 0.  0.
         12    1    1    2    0    0  0.24657614804E+02 -0.17040194085E+02 -0.27473613762E+02  0.40659139629E+02  0.00000000000E+00 0. -1.
         11    1    3    3    0    0 -0.54465024111E+01 -0.17288867536E+01 -0.15292170037E+01  0.59153987885E+01  0.51100000000E-03 0. -1.
        -11    1    3    3    0    0 -0.15450405463E+02  0.70999873456E+01  0.51037047156E+01  0.17753102584E+02  0.51100000000E-03 0.  1.
        -12    1    3    3    0    0 -0.37607069296E+01  0.11669093493E+02  0.23899126050E+02  0.26860358998E+02  0.00000000000E+00 0.  1.
</event>
<event>
 7    1  0.2661323E-011  0.5052886E+02  0.7816164E-02  0.1300439E+00
        -11   -1    0    0    0    0  0.00000000000E+00  0.00000000000E+00  0.45593999997E+02  0.45594000000E+02  0.51100000000E-03 0. -1.
         11   -1    0    0    0    0 -0.00000000000E+00 -0.00000000000E+00 -0.45593999997E+02  0.45594000000E+02  0.51100000000E-03 0.  1.
    9900012    2    1    2    0    0  0.82686412060E+01 -0.78013028564E+01 -0.39037611293E+02  0.50528857743E+02  0.29999993596E+02 0.  0.
         12    1    1    2    0    0 -0.82686412060E+01  0.78013028564E+01  0.39037611293E+02  0.40659142257E+02  0.00000000000E+00 0. -1.
         11    1    3    3    0    0 -0.20319480385E+01 -0.30781931675E+01 -0.24046557726E+02  0.24327782980E+02  0.51100000000E-03 0. -1.
        -11    1    3    3    0    0 -0.12198853699E+01 -0.72582801656E+01 -0.30800108337E+00  0.73665199522E+01  0.51100000000E-03 0.  1.
        -12    1    3    3    0    0  0.11520474614E+02  0.25351704767E+01 -0.14683052483E+02  0.18834554811E+02  0.00000000000E+00 0.  1.
</event>
<event>
 7    1  0.2661323E-011  0.5052885E+02  0.7816164E-02  0.1300439E+00
        -11   -1    0    0    0    0  0.00000000000E+00  0.00000000000E+00  0.45593999997E+02  0.45594000000E+02  0.51100000000E-03 0.  1.
         11   -1    0    0    0    0 -0.00000000000E+00 -0.00000000000E+00 -0.45593999997E+02  0.45594000000E+02  0.51100000000E-03 0. -1.
    9900012    2    1    2    0    0  0.24099902739E+02  0.30826995114E+02  0.11047951100E+02  0.50528853879E+02  0.29999981850E+02 0.  0.
         12    1    1    2    0    0 -0.24099902739E+02 -0.30826995114E+02 -0.11047951100E+02  0.40659146121E+02  0.00000000000E+00 0. -1.
         11    1    3    3    0    0  0.22518546650E+02  0.11418006016E+02  0.16544241233E+02  0.30185554871E+02  0.51100000000E-03 0.  1.
        -11    1    3    3    0    0  0.68651182437E+00  0.17932127579E+01 -0.87102936575E+00  0.21084598401E+01  0.51100000000E-03 0. -1.
        -12    1    3    3    0    0  0.89484426451E+00  0.17615776340E+02 -0.46252607671E+01  0.18234839168E+02  0.00000000000E+00 0.  1.
</event>
<event>
 7    1  0.2661323E-011  0.5052887E+02  0.7816164E-02  0.1300439E+00
        -11   -1    0    0    0    0  0.00000000000E+00  0.00000000000E+00  0.45593999997E+02  0.45594000000E+02  0.51100000000E-03 0.  1.
         11   -1    0    0    0    0 -0.00000000000E+00 -0.00000000000E+00 -0.45593999997E+02  0.45594000000E+02  0.51100000000E-03 0. -1.
    9900012    2    1    2    0    0 -0.80617830697E+01  0.13818096970E+02  0.37379574137E+02  0.50528871716E+02  0.30000036068E+02 0.  0.
         12    1    1    2    0    0  0.80617830697E+01 -0.13818096970E+02 -0.37379574137E+02  0.40659128284E+02  0.00000000000E+00 0. -1.
         11    1    3    3    0    0 -0.33339724929E+01 -0.59149984219E+01  0.87880189068E+00  0.68465226166E+01  0.51100000000E-03 0. -1.
        -11    1    3    3    0    0 -0.18090332824E+01  0.14836046894E+02  0.14028693158E+02  0.20498417520E+02  0.51100000000E-03 0.  1.
        -12    1    3    3    0    0 -0.29187772944E+01  0.48970484973E+01  0.22472079089E+02  0.23183931579E+02  0.00000000000E+00 0.  1.
</event>
<event>
 7    1  0.2661323E-011  0.5052886E+02  0.7816164E-02  0.1300439E+00
        -11   -1    0    0    0    0  0.00000000000E+00  0.00000000000E+00  0.45593999997E+02  0.45594000000E+02  0.51100000000E-03 0.  1.
         11   -1    0    0    0    0 -0.00000000000E+00 -0.00000000000E+00 -0.45593999997E+02  0.45594000000E+02  0.51100000000E-03 0. -1.
    9900012    2    1    2    0    0  0.34522940512E+02  0.16252511478E+02  0.14042359445E+02  0.50528863146E+02  0.30000010019E+02 0.  0.
         12    1    1    2    0    0 -0.34522940512E+02 -0.16252511478E+02 -0.14042359445E+02  0.40659136854E+02  0.00000000000E+00 0. -1.
         11    1    3    3    0    0 -0.25689267728E+01  0.32132352375E+01  0.13555485895E+01  0.43314867765E+01  0.51100000000E-03 0. -1.
        -11    1    3    3    0    0  0.14939095229E+01 -0.44124397552E+01  0.23929903214E+01  0.52371550669E+01  0.51100000000E-03 0.  1.
        -12    1    3    3    0    0  0.35597957761E+02  0.17451715996E+02  0.10293820534E+02  0.40960221303E+02  0.00000000000E+00 0.  1.
</event>
<event>
 7    1  0.2661323E-011  0.5052886E+02  0.7816164E-02  0.1300439E+00
        -11   -1    0    0    0    0  0.00000000000E+00  0.00000000000E+00  0.45593999997E+02  0.45594000000E+02  0.51100000000E-03 0.  1.
         11   -1    0    0    0    0 -0.00000000000E+00 -0.00000000000E+00 -0.45593999997E+02  0.45594000000E+02  0.51100000000E-03 0. -1.
    9900012    2    1    2    0    0 -0.11954647185E+02 -0.37663570109E+02 -0.95763941370E+01  0.50528862929E+02  0.30000009359E+02 0.  0.
         12    1    1    2    0    0  0.11954647185E+02  0.37663570109E+02  0.95763941370E+01  0.40659137071E+02  0.00000000000E+00 0. -1.
         11    1    3    3    0    0 -0.86217934899E+01 -0.24604625221E+02 -0.87759110014E+01  0.27508898913E+02  0.51100000000E-03 0. -1.
        -11    1    3    3    0    0 -0.65708074607E+01 -0.16689554939E+02 -0.18867414407E+01  0.18035424816E+02  0.51100000000E-03 0.  1.
        -12    1    3    3    0    0  0.32379537655E+01  0.36306100511E+01  0.10862583050E+01  0.49845392000E+01  0.00000000000E+00 0.  1.
</event>
<event>
 7    1  0.2661323E-011  0.5052885E+02  0.7816164E-02  0.1300439E+00
        -11   -1    0    0    0    0  0.00000000000E+00  0.00000000000E+00  0.45593999997E+02  0.45594000000E+02  0.51100000000E-03 0.  1.
         11   -1    0    0    0    0 -0.00000000000E+00 -0.00000000000E+00 -0.45593999997E+02  0.45594000000E+02  0.51100000000E-03 0. -1.
    9900012    2    1    2    0    0 -0.10397862196E+02  0.23829544412E+02  0.31260257001E+02  0.50528851055E+02  0.29999973267E+02 0.  0.
         12    1    1    2    0    0  0.10397862196E+02 -0.23829544412E+02 -0.31260257001E+02  0.40659148945E+02  0.00000000000E+00 0. -1.
         11    1    3    3    0    0 -0.16514479171E+01 -0.18591151575E+01 -0.30342586279E-01  0.24868675729E+01  0.51100000000E-03 0. -1.
        -11    1    3    3    0    0 -0.12849104399E+02  0.58341601254E+01  0.21013156696E+02  0.25311848269E+02  0.51100000000E-03 0.  1.
        -12    1    3    3    0    0  0.41026901193E+01  0.19854499444E+02  0.10277442892E+02  0.22730135213E+02  0.00000000000E+00 0.  1.
</event>
<event>
 7    1  0.2661323E-011  0.5052887E+02  0.7816164E-02  0.1300439E+00
        -11   -1    0    0    0    0  0.00000000000E+00  0.00000000000E+00  0.45593999997E+02  0.45594000000E+02  0.51100000000E-03 0.  1.
         11   -1    0    0    0    0 -0.00000000000E+00 -0.00000000000E+00 -0.45593999997E+02  0.45594000000E+02  0.51100000000E-03 0. -1.
    9900012    2    1    2    0    0  0.46039492946E+01 -0.10262612794E-01  0.40397630965E+02  0.50528867667E+02  0.30000023762E+02 0.  0.
         12    1    1    2    0    0 -0.46039492946E+01  0.10262612794E-01 -0.40397630965E+02  0.40659132333E+02  0.00000000000E+00 0. -1.
         11    1    3    3    0    0  0.12227136054E+01  0.28382011410E+01  0.61794571548E+01  0.69091320198E+01  0.51100000000E-03 0. -1.
        -11    1    3    3    0    0  0.14885915228E+02 -0.68595363669E+00  0.23004217456E+02  0.27409031825E+02  0.51100000000E-03 0.  1.
        -12    1    3    3    0    0 -0.11504679539E+02 -0.21625101171E+01  0.11213956355E+02  0.16210703823E+02  0.00000000000E+00 0.  1.
</event>
<event>
 7    1  0.2661323E-011  0.5052885E+02  0.7816164E-02  0.1300439E+00
        -11   -1    0    0    0    0  0.00000000000E+00  0.00000000000E+00  0.45593999997E+02  0.45594000000E+02  0.51100000000E-03 0. -1.
         11   -1    0    0    0    0 -0.00000000000E+00 -0.00000000000E+00 -0.45593999997E+02  0.45594000000E+02  0.51100000000E-03 0.  1.
    9900012    2    1    2    0    0 -0.11222491595E+01  0.33769738868E+02 -0.22616628711E+02  0.50528848500E+02  0.29999965502E+02 0.  0.
         12    1    1    2    0    0  0.11222491595E+01 -0.33769738868E+02  0.22616628711E+02  0.40659151500E+02  0.00000000000E+00 0. -1.
         11    1    3    3    0    0 -0.24471842228E+01 -0.67153362592E-01 -0.19764498431E+01  0.31463589175E+01  0.51100000000E-03 0. -1.
        -11    1    3    3    0    0 -0.10483731344E+02  0.22323264305E+02 -0.18331204880E+02  0.30728973701E+02  0.51100000000E-03 0.  1.
        -12    1    3    3    0    0  0.11808666407E+02  0.11513627926E+02 -0.23089739880E+01  0.16653515881E+02  0.00000000000E+00 0.  1.
</event>
<event>
 7    1  0.2661323E-011  0.5052886E+02  0.7816164E-02  0.1300439E+00
        -11   -1    0    0    0    0  0.00000000000E+00  0.00000000000E+00  0.45593999997E+02  0.45594000000E+02  0.51100000000E-03 0.  1.
         11   -1    0    0    0    0 -0.00000000000E+00 -0.00000000000E+00 -0.45593999997E+02  0.45594000000E+02  0.51100000000E-03 0. -1.
    9900012    2    1    2    0    0 -0.29738600717E+01  0.20735445597E+02  0.34847713963E+02  0.50528859376E+02  0.29999998560E+02 0.  0.
         12    1    1    2    0    0  0.29738600717E+01 -0.20735445597E+02 -0.34847713963E+02  0.40659140624E+02  0.00000000000E+00 0. -1.
         11    1    3    3    0    0  0.24829198519E+01  0.67566064371E+00 -0.21484499562E+01  0.33522001389E+01  0.51100000000E-03 0. -1.
        -11    1    3    3    0    0 -0.86735787057E+01 -0.19609521251E+00  0.12711309744E+02  0.15389828348E+02  0.51100000000E-03 0.  1.
        -12    1    3    3    0    0  0.32167987821E+01  0.20255880166E+02  0.24284854175E+02  0.31786830889E+02  0.00000000000E+00 0.  1.
</event>
<event>
 7    1  0.2661323E-011  0.5052885E+02  0.7816164E-02  0.1300439E+00
        -11   -1    0    0    0    0  0.00000000000E+00  0.00000000000E+00  0.45593999997E+02  0.45594000000E+02  0.51100000000E-03 0. -1.
         11   -1    0    0    0    0 -0.00000000000E+00 -0.00000000000E+00 -0.45593999997E+02  0.45594000000E+02  0.51100000000E-03 0.  1.
    9900012    2    1    2    0    0  0.15811405282E+02  0.21351227125E+01 -0.37397956331E+02  0.50528850676E+02  0.29999972115E+02 0.  0.
         12    1    1    2    0    0 -0.15811405282E+02 -0.21351227125E+01  0.37397956331E+02  0.40659149324E+02  0.00000000000E+00 0. -1.
         11    1    3    3    0    0  0.21442090280E+01 -0.27020332236E+01 -0.14107744336E+01  0.37267815419E+01  0.51100000000E-03 0. -1.
        -11    1    3    3    0    0  0.14241303546E+02  0.77817626143E+01 -0.70233311200E+01  0.17683261474E+02  0.51100000000E-03 0.  1.
        -12    1    3    3    0    0 -0.57410729204E+00 -0.29446066782E+01 -0.28963850777E+02  0.29118807660E+02  0.00000000000E+00 0.  1.
</event>
<event>
 7    1  0.2661323E-011  0.5052887E+02  0.7816164E-02  0.1300439E+00
        -11   -1    0    0    0    0  0.00000000000E+00  0.00000000000E+00  0.45593999997E+02  0.45594000000E+02  0.51100000000E-03 0.  1.
         11   -1    0    0    0    0 -0.00000000000E+00 -0.00000000000E+00 -0.45593999997E+02  0.45594000000E+02  0.51100000000E-03 0. -1.
    9900012    2    1    2    0    0 -0.32007698131E+02 -0.43339508021E+01  0.24695928660E+02  0.50528871117E+02  0.30000034247E+02 0.  0.
         12    1    1    2    0    0  0.32007698131E+02  0.43339508021E+01 -0.24695928660E+02  0.40659128883E+02  0.00000000000E+00 0. -1.
         11    1    3    3    0    0 -0.96585416020E+01 -0.58920366696E+01  0.18220219343E+02  0.21447142354E+02  0.51100000000E-03 0. -1.
        -11    1    3    3    0    0 -0.45359983052E+01 -0.30316986523E+01  0.89897098632E+01  0.10515767258E+02  0.51100000000E-03 0.  1.
         12    1    3    3    0    0 -0.17813158224E+02  0.45897845198E+01 -0.25140005466E+01  0.18565961504E+02  0.00000000000E+00 0. -1.
</event>
<event>
 7    1  0.2661323E-011  0.5052885E+02  0.7816164E-02  0.1300439E+00
        -11   -1    0    0    0    0  0.00000000000E+00  0.00000000000E+00  0.45593999997E+02  0.45594000000E+02  0.51100000000E-03 0.  1.
         11   -1    0    0    0    0 -0.00000000000E+00 -0.00000000000E+00 -0.45593999997E+02  0.45594000000E+02  0.51100000000E-03 0. -1.
    9900012    2    1    2    0    0  0.21364194846E+02  0.34590178535E+02  0.50693503706E+00  0.50528852744E+02  0.29999978399E+02 0.  0.
         12    1    1    2    0    0 -0.21364194846E+02 -0.34590178535E+02 -0.50693503706E+00  0.40659147256E+02  0.00000000000E+00 0. -1.
         11    1    3    3    0    0 -0.56880346292E+00 -0.12434321678E+01 -0.12391986423E+01  0.18453385791E+01  0.51100000000E-03 0. -1.
        -11    1    3    3    0    0  0.12189450705E+02  0.84463790057E+01 -0.93921404914E+01  0.17553812408E+02  0.51100000000E-03 0.  1.
        -12    1    3    3    0    0  0.97435476039E+01  0.27387231697E+02  0.11138274171E+02  0.31129701756E+02  0.00000000000E+00 0.  1.
</event>
<event>
 7    1  0.2661323E-011  0.5052880E+02  0.7816164E-02  0.1300439E+00
        -11   -1    0    0    0    0  0.00000000000E+00  0.00000000000E+00  0.45593999997E+02  0.45594000000E+02  0.51100000000E-03 0.  1.
         11   -1    0    0    0    0 -0.00000000000E+00 -0.00000000000E+00 -0.45593999997E+02  0.45594000000E+02  0.51100000000E-03 0. -1.
    9900012    2    1    2    0    0  0.11742947224E+02 -0.30202276229E+02  0.24558024075E+02  0.50528796302E+02  0.29999806838E+02 0.  0.
         12    1    1    2    0    0 -0.11742947224E+02  0.30202276229E+02 -0.24558024075E+02  0.40659203698E+02  0.00000000000E+00 0. -1.
         11    1    3    3    0    0  0.10044233839E+02 -0.12120207181E+02  0.25501291564E+01  0.15946448335E+02  0.51100000000E-03 0. -1.
        -11    1    3    3    0    0  0.87695946278E+01 -0.46121720689E+01  0.32435576478E+01  0.10425861480E+02  0.51100000000E-03 0.  1.
        -12    1    3    3    0    0 -0.70708812424E+01 -0.13469896979E+02  0.18764337271E+02  0.24156486487E+02  0.00000000000E+00 0.  1.
</event>
<event>
 7    1  0.2661323E-011  0.5052886E+02  0.7816164E-02  0.1300439E+00
        -11   -1    0    0    0    0  0.00000000000E+00  0.00000000000E+00  0.45593999997E+02  0.45594000000E+02  0.51100000000E-03 0.  1.
         11   -1    0    0    0    0 -0.00000000000E+00 -0.00000000000E+00 -0.45593999997E+02  0.45594000000E+02  0.51100000000E-03 0. -1.
    9900012    2    1    2    0    0  0.14283317617E+02  0.25832589834E+02  0.27961221788E+02  0.50528858549E+02  0.29999996044E+02 0.  0.
         12    1    1    2    0    0 -0.14283317617E+02 -0.25832589834E+02 -0.27961221788E+02  0.40659141451E+02  0.00000000000E+00 0. -1.
         11    1    3    3    0    0  0.54683058014E+01  0.78883355859E+01 -0.13769646441E+01  0.96966096418E+01  0.51100000000E-03 0. -1.
        -11    1    3    3    0    0  0.82922208072E+01  0.53242092669E+00  0.18592566776E+02  0.20364870183E+02  0.51100000000E-03 0.  1.
         12    1    3    3    0    0  0.52279100840E+00  0.17411833321E+02  0.10745619656E+02  0.20467378724E+02  0.00000000000E+00 0. -1.
</event>
<event>
 7    1  0.2661323E-011  0.5052886E+02  0.7816164E-02  0.1300439E+00
        -11   -1    0    0    0    0  0.00000000000E+00  0.00000000000E+00  0.45593999997E+02  0.45594000000E+02  0.51100000000E-03 0.  1.
         11   -1    0    0    0    0 -0.00000000000E+00 -0.00000000000E+00 -0.45593999997E+02  0.45594000000E+02  0.51100000000E-03 0. -1.
    9900012    2    1    2    0    0 -0.12179228512E+02 -0.26235549002E+02  0.28574949980E+02  0.50528863204E+02  0.30000010196E+02 0.  0.
         12    1    1    2    0    0  0.12179228512E+02  0.26235549002E+02 -0.28574949980E+02  0.40659136796E+02  0.00000000000E+00 0. -1.
         11    1    3    3    0    0 -0.19207597146E+01 -0.13576953214E+02  0.18174561223E+01  0.13832068663E+02  0.51100000000E-03 0. -1.
        -11    1    3    3    0    0  0.90079055500E+00 -0.13013101913E+02  0.94777593117E+01  0.16123900485E+02  0.51100000000E-03 0.  1.
        -12    1    3    3    0    0 -0.11159259352E+02  0.35450612527E+00  0.17279734547E+02  0.20572894057E+02  0.00000000000E+00 0.  1.
</event>
<event>
 7    1  0.2661323E-011  0.5052885E+02  0.7816164E-02  0.1300439E+00
        -11   -1    0    0    0    0  0.00000000000E+00  0.00000000000E+00  0.45593999997E+02  0.45594000000E+02  0.51100000000E-03 0.  1.
         11   -1    0    0    0    0 -0.00000000000E+00 -0.00000000000E+00 -0.45593999997E+02  0.45594000000E+02  0.51100000000E-03 0. -1.
    9900012    2    1    2    0    0 -0.67525927690E+00  0.22275812481E+02  0.34007335664E+02  0.50528847577E+02  0.29999962696E+02 0.  0.
         12    1    1    2    0    0  0.67525927690E+00 -0.22275812481E+02 -0.34007335664E+02  0.40659152423E+02  0.00000000000E+00 0. -1.
         11    1    3    3    0    0 -0.83783723303E+01  0.14293576306E+02  0.20184158282E+02  0.26113285744E+02  0.51100000000E-03 0. -1.
        -11    1    3    3    0    0 -0.14046400370E+01 -0.35966203126E+01  0.73953681512E+01  0.83426711346E+01  0.51100000000E-03 0.  1.
        -12    1    3    3    0    0  0.91077530903E+01  0.11578856488E+02  0.64278092307E+01  0.16072890699E+02  0.00000000000E+00 0.  1.
</event>
<event>
 7    1  0.2661323E-011  0.5052887E+02  0.7816164E-02  0.1300439E+00
        -11   -1    0    0    0    0  0.00000000000E+00  0.00000000000E+00  0.45593999997E+02  0.45594000000E+02  0.51100000000E-03 0.  1.
         11   -1    0    0    0    0 -0.00000000000E+00 -0.00000000000E+00 -0.45593999997E+02  0.45594000000E+02  0.51100000000E-03 0. -1.
    9900012    2    1    2    0    0 -0.10894878033E+02  0.15113999213E+02  0.36139087292E+02  0.50528868555E+02  0.30000026459E+02 0.  0.
         12    1    1    2    0    0  0.10894878033E+02 -0.15113999213E+02 -0.36139087292E+02  0.40659131445E+02  0.00000000000E+00 0. -1.
         11    1    3    3    0    0 -0.56649037549E+00  0.30427054249E+01  0.48938855074E+01  0.57904303181E+01  0.51100000000E-03 0.  1.
        -11    1    3    3    0    0 -0.73547820890E+01  0.95266092211E+01  0.36358802588E+02  0.38298976862E+02  0.51100000000E-03 0. -1.
         12    1    3    3    0    0 -0.29736055681E+01  0.25446845672E+01 -0.51136008028E+01  0.64394613743E+01  0.00000000000E+00 0. -1.
</event>
<event>
 7    1  0.2661323E-011  0.5052886E+02  0.7816164E-02  0.1300439E+00
        -11   -1    0    0    0    0  0.00000000000E+00  0.00000000000E+00  0.45593999997E+02  0.45594000000E+02  0.51100000000E-03 0.  1.
         11   -1    0    0    0    0 -0.00000000000E+00 -0.00000000000E+00 -0.45593999997E+02  0.45594000000E+02  0.51100000000E-03 0. -1.
    9900012    2    1    2    0    0  0.13130292423E+02  0.35354436109E+02  0.15192928179E+02  0.50528858366E+02  0.29999995490E+02 0.  0.
         12    1    1    2    0    0 -0.13130292423E+02 -0.35354436109E+02 -0.15192928179E+02  0.40659141634E+02  0.00000000000E+00 0. -1.
         11    1    3    3    0    0 -0.32792753117E+01  0.31216624772E+01  0.35566030799E+01  0.57574168618E+01  0.51100000000E-03 0. -1.
        -11    1    3    3    0    0 -0.20742138598E+01  0.64734894217E+00 -0.43294042667E+01  0.48440856057E+01  0.51100000000E-03 0.  1.
        -12    1    3    3    0    0  0.18483781595E+02  0.31585424690E+02  0.15965729366E+02  0.39927355899E+02  0.00000000000E+00 0.  1.
</event>
<event>
 7    1  0.2661323E-011  0.5052887E+02  0.7816164E-02  0.1300439E+00
        -11   -1    0    0    0    0  0.00000000000E+00  0.00000000000E+00  0.45593999997E+02  0.45594000000E+02  0.51100000000E-03 0.  1.
         11   -1    0    0    0    0 -0.00000000000E+00 -0.00000000000E+00 -0.45593999997E+02  0.45594000000E+02  0.51100000000E-03 0. -1.
    9900012    2    1    2    0    0 -0.16258977547E+02 -0.12516897595E+02  0.35101825214E+02  0.50528865606E+02  0.30000017497E+02 0.  0.
         12    1    1    2    0    0  0.16258977547E+02  0.12516897595E+02 -0.35101825214E+02  0.40659134394E+02  0.00000000000E+00 0. -1.
         11    1    3    3    0    0  0.35671519835E+00 -0.50393892499E+01  0.89945977072E+01  0.10316272482E+02  0.51100000000E-03 0. -1.
        -11    1    3    3    0    0  0.48537633998E+01 -0.23145104224E+01 -0.76521504671E+00  0.54315312726E+01  0.51100000000E-03 0.  1.
        -12    1    3    3    0    0 -0.21469456145E+02 -0.51629979223E+01  0.26872442554E+02  0.34781061852E+02  0.00000000000E+00 0.  1.
</event>
<event>
 7    1  0.2661323E-011  0.5052885E+02  0.7816164E-02  0.1300439E+00
        -11   -1    0    0    0    0  0.00000000000E+00  0.00000000000E+00  0.45593999997E+02  0.45594000000E+02  0.51100000000E-03 0.  1.
         11   -1    0    0    0    0 -0.00000000000E+00 -0.00000000000E+00 -0.45593999997E+02  0.45594000000E+02  0.51100000000E-03 0. -1.
    9900012    2    1    2    0    0 -0.15836534693E+02 -0.19721157857E+02  0.31834670947E+02  0.50528853765E+02  0.29999981504E+02 0.  0.
         12    1    1    2    0    0  0.15836534693E+02  0.19721157857E+02 -0.31834670947E+02  0.40659146235E+02  0.00000000000E+00 0. -1.
         11    1    3    3    0    0  0.15279130553E+01 -0.94381911736E+01  0.41621020007E+00  0.95701202774E+01  0.51100000000E-03 0. -1.
        -11    1    3    3    0    0  0.28907301591E+01 -0.27937165313E+01  0.20715113232E+01  0.45224254923E+01  0.51100000000E-03 0.  1.
        -12    1    3    3    0    0 -0.20255177907E+02 -0.74892501519E+01  0.29346949423E+02  0.36436307995E+02  0.00000000000E+00 0.  1.
</event>
<event>
 7    1  0.2661323E-011  0.5052883E+02  0.7816164E-02  0.1300439E+00
        -11   -1    0    0    0    0  0.00000000000E+00  0.00000000000E+00  0.45593999997E+02  0.45594000000E+02  0.51100000000E-03 0.  1.
         11   -1    0    0    0    0 -0.00000000000E+00 -0.00000000000E+00 -0.45593999997E+02  0.45594000000E+02  0.51100000000E-03 0. -1.
    9900012    2    1    2    0    0 -0.10991029611E+02 -0.38803198160E+02  0.51650282378E+01  0.50528825930E+02  0.29999896896E+02 0.  0.
         12    1    1    2    0    0  0.10991029611E+02  0.38803198160E+02 -0.51650282378E+01  0.40659174070E+02  0.00000000000E+00 0. -1.
         11    1    3    3    0    0 -0.47905023199E+00 -0.29064438729E+02  0.62144627758E+01  0.29725252490E+02  0.51100000000E-03 0. -1.
        -11    1    3    3    0    0  0.72179651961E+00 -0.38671806383E+01  0.53208249750E+01  0.66171938902E+01  0.51100000000E-03 0.  1.
         12    1    3    3    0    0 -0.11233775898E+02 -0.58715787930E+01 -0.63702595130E+01  0.14186379549E+02  0.00000000000E+00 0. -1.
</event>
<event>
 7    1  0.2661323E-011  0.5052886E+02  0.7816164E-02  0.1300439E+00
        -11   -1    0    0    0    0  0.00000000000E+00  0.00000000000E+00  0.45593999997E+02  0.45594000000E+02  0.51100000000E-03 0.  1.
         11   -1    0    0    0    0 -0.00000000000E+00 -0.00000000000E+00 -0.45593999997E+02  0.45594000000E+02  0.51100000000E-03 0. -1.
    9900012    2    1    2    0    0 -0.11809012586E+02 -0.37602108727E+02  0.99896967451E+01  0.50528863265E+02  0.30000010381E+02 0.  0.
         12    1    1    2    0    0  0.11809012586E+02  0.37602108727E+02 -0.99896967451E+01  0.40659136735E+02  0.00000000000E+00 0. -1.
         11    1    3    3    0    0 -0.78600745957E+01 -0.11576087558E+02  0.10565567976E+02  0.17533334045E+02  0.51100000000E-03 0.  1.
        -11    1    3    3    0    0 -0.76184471714E+01 -0.21705610310E+01  0.32420753047E+01  0.85593881227E+01  0.51100000000E-03 0. -1.
         12    1    3    3    0    0  0.36695091807E+01 -0.23855460138E+02 -0.38179465359E+01  0.24436141098E+02  0.00000000000E+00 0. -1.
</event>
<event>
 7    1  0.2661323E-011  0.5052886E+02  0.7816164E-02  0.1300439E+00
        -11   -1    0    0    0    0  0.00000000000E+00  0.00000000000E+00  0.45593999997E+02  0.45594000000E+02  0.51100000000E-03 0.  1.
         11   -1    0    0    0    0 -0.00000000000E+00 -0.00000000000E+00 -0.45593999997E+02  0.45594000000E+02  0.51100000000E-03 0. -1.
    9900012    2    1    2    0    0 -0.18800846653E+02  0.25281813382E+02  0.25700657761E+02  0.50528859182E+02  0.29999997969E+02 0.  0.
         12    1    1    2    0    0  0.18800846653E+02 -0.25281813382E+02 -0.25700657761E+02  0.40659140818E+02  0.00000000000E+00 0. -1.
         11    1    3    3    0    0 -0.15834828559E+01  0.59731129843E+01  0.47741875135E+01  0.78088644087E+01  0.51100000000E-03 0. -1.
        -11    1    3    3    0    0 -0.18767174797E+02  0.11361632825E+02  0.25324719484E+02  0.33505745292E+02  0.51100000000E-03 0.  1.
         12    1    3    3    0    0  0.15498110007E+01  0.79470675733E+01 -0.43982492372E+01  0.92142494814E+01  0.00000000000E+00 0. -1.
</event>
<event>
 7    1  0.2671665E-011  0.5052887E+02  0.7816164E-02  0.1300439E+00
        -11   -1    0    0    0    0  0.00000000000E+00  0.00000000000E+00  0.45593999997E+02  0.45594000000E+02  0.51100000000E-03 0. -1.
         11   -1    0    0    0    0 -0.00000000000E+00 -0.00000000000E+00 -0.45593999997E+02  0.45594000000E+02  0.51100000000E-03 0.  1.
    9900012    2    1    2    0    0 -0.38593114152E+02  0.87082867496E+01 -0.93756293803E+01  0.50528866409E+02  0.30000019937E+02 0.  0.
         12    1    1    2    0    0  0.38593114152E+02 -0.87082867496E+01  0.93756293803E+01  0.40659133591E+02  0.00000000000E+00 0. -1.
         11    1    3    3    0    0 -0.36007492853E+01 -0.57070106625E+01 -0.34968459451E+00  0.67570441537E+01  0.51100000000E-03 0. -1.
        -11    1    3    3    0    0 -0.30213132676E+02  0.33313887951E+01 -0.38522594027E+01  0.30639377281E+02  0.51100000000E-03 0.  1.
         12    1    3    3    0    0 -0.47792321911E+01  0.11083908617E+02 -0.51736853831E+01  0.13132444975E+02  0.00000000000E+00 0. -1.
</event>
<event>
 7    1  0.2661323E-011  0.5052888E+02  0.7816164E-02  0.1300439E+00
        -11   -1    0    0    0    0  0.00000000000E+00  0.00000000000E+00  0.45593999997E+02  0.45594000000E+02  0.51100000000E-03 0.  1.
         11   -1    0    0    0    0 -0.00000000000E+00 -0.00000000000E+00 -0.45593999997E+02  0.45594000000E+02  0.51100000000E-03 0. -1.
    9900012    2    1    2    0    0  0.31554399713E+02 -0.22364069968E+02  0.12543224146E+02  0.50528877546E+02  0.30000053788E+02 0.  0.
         12    1    1    2    0    0 -0.31554399713E+02  0.22364069968E+02 -0.12543224146E+02  0.40659122454E+02  0.00000000000E+00 0. -1.
         11    1    3    3    0    0  0.26205291628E+01 -0.25126712147E+01 -0.72129625763E+01  0.80751172818E+01  0.51100000000E-03 0. -1.
        -11    1    3    3    0    0  0.14059685268E+02 -0.10979687129E+02  0.25139944717E+01  0.18015228218E+02  0.51100000000E-03 0.  1.
        -12    1    3    3    0    0  0.14874185282E+02 -0.88717116241E+01  0.17242192251E+02  0.24438532046E+02  0.00000000000E+00 0.  1.
</event>
<event>
 7    1  0.2661323E-011  0.5052885E+02  0.7816164E-02  0.1300439E+00
        -11   -1    0    0    0    0  0.00000000000E+00  0.00000000000E+00  0.45593999997E+02  0.45594000000E+02  0.51100000000E-03 0.  1.
         11   -1    0    0    0    0 -0.00000000000E+00 -0.00000000000E+00 -0.45593999997E+02  0.45594000000E+02  0.51100000000E-03 0. -1.
    9900012    2    1    2    0    0  0.13646583487E+02 -0.38278884749E+02  0.12898981557E+01  0.50528854710E+02  0.29999984376E+02 0.  0.
         12    1    1    2    0    0 -0.13646583487E+02  0.38278884749E+02 -0.12898981557E+01  0.40659145290E+02  0.00000000000E+00 0. -1.
         11    1    3    3    0    0 -0.20230026759E+01 -0.30424676130E+01  0.15830328836E+00  0.36570765913E+01  0.51100000000E-03 0. -1.
        -11    1    3    3    0    0 -0.69046608863E+01 -0.13916064950E+02 -0.20016600889E+01  0.15663264316E+02  0.51100000000E-03 0.  1.
         12    1    3    3    0    0  0.22574247049E+02 -0.21320352186E+02  0.31332549563E+01  0.31208513803E+02  0.00000000000E+00 0. -1.
</event>
<event>
 7    1  0.2661323E-011  0.5052886E+02  0.7816164E-02  0.1300439E+00
        -11   -1    0    0    0    0  0.00000000000E+00  0.00000000000E+00  0.45593999997E+02  0.45594000000E+02  0.51100000000E-03 0.  1.
         11   -1    0    0    0    0 -0.00000000000E+00 -0.00000000000E+00 -0.45593999997E+02  0.45594000000E+02  0.51100000000E-03 0. -1.
    9900012    2    1    2    0    0 -0.95862757335E+00  0.22348305001E+02  0.33952907220E+02  0.50528860659E+02  0.30000002461E+02 0.  0.
         12    1    1    2    0    0  0.95862757335E+00 -0.22348305001E+02 -0.33952907220E+02  0.40659139341E+02  0.00000000000E+00 0. -1.
         11    1    3    3    0    0 -0.36009404024E+01 -0.99097945122E+00 -0.90906158177E-01  0.37359170555E+01  0.51100000000E-03 0. -1.
        -11    1    3    3    0    0 -0.89241344278E+01  0.12399134178E+02  0.11173646430E+02  0.18926940547E+02  0.51100000000E-03 0.  1.
        -12    1    3    3    0    0  0.11566447257E+02  0.10940150274E+02  0.22870166948E+02  0.27866003057E+02  0.00000000000E+00 0.  1.
</event>
<event>
 7    1  0.2661323E-011  0.5052886E+02  0.7816164E-02  0.1300439E+00
        -11   -1    0    0    0    0  0.00000000000E+00  0.00000000000E+00  0.45593999997E+02  0.45594000000E+02  0.51100000000E-03 0.  1.
         11   -1    0    0    0    0 -0.00000000000E+00 -0.00000000000E+00 -0.45593999997E+02  0.45594000000E+02  0.51100000000E-03 0. -1.
    9900012    2    1    2    0    0 -0.10426012735E+02  0.23777171304E+02  0.31290738487E+02  0.50528856725E+02  0.29999990502E+02 0.  0.
         12    1    1    2    0    0  0.10426012735E+02 -0.23777171304E+02 -0.31290738487E+02  0.40659143275E+02  0.00000000000E+00 0. -1.
         11    1    3    3    0    0 -0.16828899622E+01 -0.83484338886E+00  0.36443653637E+01  0.41000586915E+01  0.51100000000E-03 0. -1.
        -11    1    3    3    0    0  0.62943678246E+01 -0.19335792486E+01  0.68785503288E+01  0.95221977458E+01  0.51100000000E-03 0.  1.
         12    1    3    3    0    0 -0.15037490597E+02  0.26545593942E+02  0.20767822794E+02  0.36906600288E+02  0.00000000000E+00 0. -1.
</event>
<event>
 7    1  0.2661323E-011  0.5052886E+02  0.7816164E-02  0.1300439E+00
        -11   -1    0    0    0    0  0.00000000000E+00  0.00000000000E+00  0.45593999997E+02  0.45594000000E+02  0.51100000000E-03 0.  1.
         11   -1    0    0    0    0 -0.00000000000E+00 -0.00000000000E+00 -0.45593999997E+02  0.45594000000E+02  0.51100000000E-03 0. -1.
    9900012    2    1    2    0    0  0.31163637734E+02 -0.21380175538E+01  0.26027334847E+02  0.50528860866E+02  0.30000003087E+02 0.  0.
         12    1    1    2    0    0 -0.31163637734E+02  0.21380175538E+01 -0.26027334847E+02  0.40659139134E+02  0.00000000000E+00 0. -1.
         11    1    3    3    0    0  0.10210793494E+02  0.98915285291E+01  0.68870685496E+01  0.15796656415E+02  0.51100000000E-03 0. -1.
        -11    1    3    3    0    0  0.16305864716E+02 -0.27720644850E+01  0.17782170600E+02  0.24285204491E+02  0.51100000000E-03 0.  1.
         12    1    3    3    0    0  0.46469795243E+01 -0.92574815980E+01  0.13580956973E+01  0.10446999960E+02  0.00000000000E+00 0. -1.
</event>
<event>
 7    1  0.2661323E-011  0.5052885E+02  0.7816164E-02  0.1300439E+00
        -11   -1    0    0    0    0  0.00000000000E+00  0.00000000000E+00  0.45593999997E+02  0.45594000000E+02  0.51100000000E-03 0.  1.
         11   -1    0    0    0    0 -0.00000000000E+00 -0.00000000000E+00 -0.45593999997E+02  0.45594000000E+02  0.51100000000E-03 0. -1.
    9900012    2    1    2    0    0  0.10297328857E+01  0.74796458086E+01  0.39951983306E+02  0.50528850706E+02  0.29999972205E+02 0.  0.
         12    1    1    2    0    0 -0.10297328857E+01 -0.74796458086E+01 -0.39951983306E+02  0.40659149294E+02  0.00000000000E+00 0. -1.
         11    1    3    3    0    0  0.41360720172E+01 -0.59363815365E+01  0.14215986436E+02  0.15951237823E+02  0.51100000000E-03 0. -1.
        -11    1    3    3    0    0 -0.34874151223E+00 -0.34027847777E+00  0.19014354000E+02  0.19020595900E+02  0.51100000000E-03 0.  1.
        -12    1    3    3    0    0 -0.27575976193E+01  0.13756305823E+02  0.67216428699E+01  0.15557016982E+02  0.00000000000E+00 0.  1.
</event>
<event>
 7    1  0.2661323E-011  0.5052885E+02  0.7816164E-02  0.1300439E+00
        -11   -1    0    0    0    0  0.00000000000E+00  0.00000000000E+00  0.45593999997E+02  0.45594000000E+02  0.51100000000E-03 0.  1.
         11   -1    0    0    0    0 -0.00000000000E+00 -0.00000000000E+00 -0.45593999997E+02  0.45594000000E+02  0.51100000000E-03 0. -1.
    9900012    2    1    2    0    0 -0.26596278972E+02  0.84551488762E+01  0.29568809526E+02  0.50528854726E+02  0.29999984424E+02 0.  0.
         12    1    1    2    0    0  0.26596278972E+02 -0.84551488762E+01 -0.29568809526E+02  0.40659145274E+02  0.00000000000E+00 0. -1.
         11    1    3    3    0    0 -0.19259179744E+02  0.85495613711E+01  0.72606163479E+01  0.22287385537E+02  0.51100000000E-03 0. -1.
        -11    1    3    3    0    0  0.19674850484E+01  0.47609753930E+01  0.22872806424E+01  0.56364472061E+01  0.51100000000E-03 0.  1.
        -12    1    3    3    0    0 -0.93045842768E+01 -0.48553878880E+01  0.20020912535E+02  0.22605021983E+02  0.00000000000E+00 0.  1.
</event>
<event>
 7    1  0.2661323E-011  0.5052884E+02  0.7816164E-02  0.1300439E+00
        -11   -1    0    0    0    0  0.00000000000E+00  0.00000000000E+00  0.45593999997E+02  0.45594000000E+02  0.51100000000E-03 0. -1.
         11   -1    0    0    0    0 -0.00000000000E+00 -0.00000000000E+00 -0.45593999997E+02  0.45594000000E+02  0.51100000000E-03 0.  1.
    9900012    2    1    2    0    0  0.32248726529E+02 -0.23451104707E+02 -0.79518993300E+01  0.50528838946E+02  0.29999936459E+02 0.  0.
         12    1    1    2    0    0 -0.32248726529E+02  0.23451104707E+02  0.79518993300E+01  0.40659161054E+02  0.00000000000E+00 0. -1.
         11    1    3    3    0    0  0.13908674848E+02 -0.52182645229E+01  0.25727883787E+01  0.15076496973E+02  0.51100000000E-03 0. -1.
        -11    1    3    3    0    0  0.17576160011E+02 -0.15002138026E+02  0.13253161135E+01  0.23146101381E+02  0.51100000000E-03 0.  1.
         12    1    3    3    0    0  0.76389166931E+00 -0.32307021581E+01 -0.11850003822E+02  0.12306240592E+02  0.00000000000E+00 0. -1.
</event>
<event>
 7    1  0.2661323E-011  0.5052886E+02  0.7816164E-02  0.1300439E+00
        -11   -1    0    0    0    0  0.00000000000E+00  0.00000000000E+00  0.45593999997E+02  0.45594000000E+02  0.51100000000E-03 0. -1.
         11   -1    0    0    0    0 -0.00000000000E+00 -0.00000000000E+00 -0.45593999997E+02  0.45594000000E+02  0.51100000000E-03 0.  1.
    9900012    2    1    2    0    0  0.27815457584E+01  0.33038161471E+02 -0.23535264453E+02  0.50528858555E+02  0.29999996062E+02 0.  0.
         12    1    1    2    0    0 -0.27815457584E+01 -0.33038161471E+02  0.23535264453E+02  0.40659141445E+02  0.00000000000E+00 0. -1.
         11    1    3    3    0    0  0.32016533619E+01  0.11515298084E+02 -0.66630194028E+01  0.13683877449E+02  0.51100000000E-03 0. -1.
        -11    1    3    3    0    0 -0.80155148514E+00  0.17589998725E+02 -0.23357359930E+02  0.29250928243E+02  0.51100000000E-03 0.  1.
        -12    1    3    3    0    0  0.38144388165E+00  0.39328646616E+01  0.64851148791E+01  0.75940528624E+01  0.00000000000E+00 0.  1.
</event>
<event>
 7    1  0.2661323E-011  0.5052887E+02  0.7816164E-02  0.1300439E+00
        -11   -1    0    0    0    0  0.00000000000E+00  0.00000000000E+00  0.45593999997E+02  0.45594000000E+02  0.51100000000E-03 0. -1.
         11   -1    0    0    0    0 -0.00000000000E+00 -0.00000000000E+00 -0.45593999997E+02  0.45594000000E+02  0.51100000000E-03 0.  1.
    9900012    2    1    2    0    0  0.24467776076E+02 -0.28237889629E+02  0.16034795123E+02  0.50528866568E+02  0.30000020421E+02 0.  0.
         12    1    1    2    0    0 -0.24467776076E+02  0.28237889629E+02 -0.16034795123E+02  0.40659133432E+02  0.00000000000E+00 0. -1.
         11    1    3    3    0    0  0.52392830108E+01 -0.10845221353E+02  0.30644986232E+01  0.12428196359E+02  0.51100000000E-03 0. -1.
        -11    1    3    3    0    0  0.75743663115E+01 -0.30265437119E+01 -0.70940153720E+01  0.10809997512E+02  0.51100000000E-03 0.  1.
         12    1    3    3    0    0  0.11654126754E+02 -0.14366124564E+02  0.20064311871E+02  0.27290672697E+02  0.00000000000E+00 0. -1.
</event>
<event>
 7    1  0.2661323E-011  0.5052885E+02  0.7816164E-02  0.1300439E+00
        -11   -1    0    0    0    0  0.00000000000E+00  0.00000000000E+00  0.45593999997E+02  0.45594000000E+02  0.51100000000E-03 0. -1.
         11   -1    0    0    0    0 -0.00000000000E+00 -0.00000000000E+00 -0.45593999997E+02  0.45594000000E+02  0.51100000000E-03 0.  1.
    9900012    2    1    2    0    0 -0.18619718251E+01 -0.13164768586E+01 -0.40595152307E+02  0.50528850462E+02  0.29999971463E+02 0.  0.
         12    1    1    2    0    0  0.18619718251E+01  0.13164768586E+01  0.40595152307E+02  0.40659149538E+02  0.00000000000E+00 0. -1.
         11    1    3    3    0    0  0.90859048648E+00 -0.90802445522E+01 -0.66635664154E+01  0.11299535187E+02  0.51100000000E-03 0. -1.
        -11    1    3    3    0    0  0.41724426627E+01 -0.41548843114E+01 -0.10577425986E+02  0.12105960605E+02  0.51100000000E-03 0.  1.
         12    1    3    3    0    0 -0.69430049742E+01  0.11918652005E+02 -0.23354159905E+02  0.27123354670E+02  0.00000000000E+00 0. -1.
</event>
<event>
 7    1  0.2661323E-011  0.5052887E+02  0.7816164E-02  0.1300439E+00
        -11   -1    0    0    0    0  0.00000000000E+00  0.00000000000E+00  0.45593999997E+02  0.45594000000E+02  0.51100000000E-03 0.  1.
         11   -1    0    0    0    0 -0.00000000000E+00 -0.00000000000E+00 -0.45593999997E+02  0.45594000000E+02  0.51100000000E-03 0. -1.
    9900012    2    1    2    0    0  0.16912253688E+02 -0.91087192723E+01  0.35835337653E+02  0.50528874132E+02  0.30000043412E+02 0.  0.
         12    1    1    2    0    0 -0.16912253688E+02  0.91087192723E+01 -0.35835337653E+02  0.40659125868E+02  0.00000000000E+00 0. -1.
         11    1    3    3    0    0  0.30829740827E+01  0.33664392131E+00 -0.22628062044E+01  0.38390559391E+01  0.51100000000E-03 0. -1.
        -11    1    3    3    0    0 -0.35779622956E+00  0.59283058051E+01  0.66120919450E+01  0.88877774506E+01  0.51100000000E-03 0.  1.
        -12    1    3    3    0    0  0.14187075835E+02 -0.15373668999E+02  0.31486051913E+02  0.37802040742E+02  0.00000000000E+00 0.  1.
</event>
<event>
 7    1  0.2661323E-011  0.5052886E+02  0.7816164E-02  0.1300439E+00
        -11   -1    0    0    0    0  0.00000000000E+00  0.00000000000E+00  0.45593999997E+02  0.45594000000E+02  0.51100000000E-03 0. -1.
         11   -1    0    0    0    0 -0.00000000000E+00 -0.00000000000E+00 -0.45593999997E+02  0.45594000000E+02  0.51100000000E-03 0.  1.
    9900012    2    1    2    0    0  0.24070789081E+02 -0.95866823209E+01 -0.31334621642E+02  0.50528857382E+02  0.29999992500E+02 0.  0.
         12    1    1    2    0    0 -0.24070789081E+02  0.95866823209E+01  0.31334621642E+02  0.40659142618E+02  0.00000000000E+00 0. -1.
         11    1    3    3    0    0  0.12923626221E+02 -0.62192631440E+01 -0.26923163432E+02  0.30505017263E+02  0.51100000000E-03 0. -1.
        -11    1    3    3    0    0 -0.41416759661E+00  0.17399295345E+01 -0.69120072047E+01  0.71396591965E+01  0.51100000000E-03 0.  1.
         12    1    3    3    0    0  0.11561330457E+02 -0.51073487114E+01  0.25005489942E+01  0.12884180923E+02  0.00000000000E+00 0. -1.
</event>
<event>
 7    1  0.2661323E-011  0.5052886E+02  0.7816164E-02  0.1300439E+00
        -11   -1    0    0    0    0  0.00000000000E+00  0.00000000000E+00  0.45593999997E+02  0.45594000000E+02  0.51100000000E-03 0. -1.
         11   -1    0    0    0    0 -0.00000000000E+00 -0.00000000000E+00 -0.45593999997E+02  0.45594000000E+02  0.51100000000E-03 0.  1.
    9900012    2    1    2    0    0 -0.14031106515E+02  0.27700243363E+02 -0.26248626339E+02  0.50528858136E+02  0.29999994791E+02 0.  0.
         12    1    1    2    0    0  0.14031106515E+02 -0.27700243363E+02  0.26248626339E+02  0.40659141864E+02  0.00000000000E+00 0. -1.
         11    1    3    3    0    0 -0.26919503451E+00  0.63238973783E+01  0.11155542785E+01  0.64271771118E+01  0.51100000000E-03 0. -1.
        -11    1    3    3    0    0 -0.88941991636E+01  0.22282915965E+02 -0.99095035538E+01  0.25958300862E+02  0.51100000000E-03 0.  1.
        -12    1    3    3    0    0 -0.48677123170E+01 -0.90656998048E+00 -0.17454677064E+02  0.18143380163E+02  0.00000000000E+00 0.  1.
</event>
<event>
 7    1  0.2661323E-011  0.5052885E+02  0.7816164E-02  0.1300439E+00
        -11   -1    0    0    0    0  0.00000000000E+00  0.00000000000E+00  0.45593999997E+02  0.45594000000E+02  0.51100000000E-03 0. -1.
         11   -1    0    0    0    0 -0.00000000000E+00 -0.00000000000E+00 -0.45593999997E+02  0.45594000000E+02  0.51100000000E-03 0.  1.
    9900012    2    1    2    0    0 -0.24604285927E+02 -0.31957349058E+02 -0.51500642293E+01  0.50528853350E+02  0.29999980241E+02 0.  0.
         12    1    1    2    0    0  0.24604285927E+02  0.31957349058E+02  0.51500642293E+01  0.40659146650E+02  0.00000000000E+00 0. -1.
         11    1    3    3    0    0  0.19598454039E+01 -0.12173583169E+02  0.43008697689E+01  0.13058889778E+02  0.51100000000E-03 0. -1.
        -11    1    3    3    0    0 -0.43360980641E+01 -0.83490916616E+01  0.25417230473E+01  0.97452262316E+01  0.51100000000E-03 0.  1.
        -12    1    3    3    0    0 -0.22228033267E+02 -0.11434674227E+02 -0.11992657046E+02  0.27724737340E+02  0.00000000000E+00 0.  1.
</event>
<event>
 7    1  0.2661323E-011  0.5052885E+02  0.7816164E-02  0.1300439E+00
        -11   -1    0    0    0    0  0.00000000000E+00  0.00000000000E+00  0.45593999997E+02  0.45594000000E+02  0.51100000000E-03 0. -1.
         11   -1    0    0    0    0 -0.00000000000E+00 -0.00000000000E+00 -0.45593999997E+02  0.45594000000E+02  0.51100000000E-03 0.  1.
    9900012    2    1    2    0    0 -0.22447882439E+02 -0.28608338335E+02 -0.18188504109E+02  0.50528854289E+02  0.29999983095E+02 0.  0.
         12    1    1    2    0    0  0.22447882439E+02  0.28608338335E+02  0.18188504109E+02  0.40659145711E+02  0.00000000000E+00 0. -1.
         11    1    3    3    0    0  0.14368846562E+01  0.17087914634E+01 -0.24083948264E+01  0.32840480632E+01  0.51100000000E-03 0. -1.
        -11    1    3    3    0    0 -0.25350577150E+02 -0.20214735180E+02 -0.17574345304E+02  0.36880142264E+02  0.51100000000E-03 0.  1.
         12    1    3    3    0    0  0.14658100548E+01 -0.10102394618E+02  0.17942360223E+01  0.10364663962E+02  0.00000000000E+00 0. -1.
</event>
<event>
 7    1  0.2661323E-011  0.5052886E+02  0.7816164E-02  0.1300439E+00
        -11   -1    0    0    0    0  0.00000000000E+00  0.00000000000E+00  0.45593999997E+02  0.45594000000E+02  0.51100000000E-03 0.  1.
         11   -1    0    0    0    0 -0.00000000000E+00 -0.00000000000E+00 -0.45593999997E+02  0.45594000000E+02  0.51100000000E-03 0. -1.
    9900012    2    1    2    0    0 -0.55761664275E+01  0.25769627628E+02  0.30951550763E+02  0.50528857919E+02  0.29999994129E+02 0.  0.
         12    1    1    2    0    0  0.55761664275E+01 -0.25769627628E+02 -0.30951550763E+02  0.40659142081E+02  0.00000000000E+00 0. -1.
         11    1    3    3    0    0 -0.20980702364E+01  0.45240551156E+01  0.36837231977E+01  0.61999024399E+01  0.51100000000E-03 0. -1.
        -11    1    3    3    0    0  0.19312576229E+01  0.23455656460E+02  0.29789528995E+02  0.37964636361E+02  0.51100000000E-03 0.  1.
         12    1    3    3    0    0 -0.54093538140E+01 -0.22100839474E+01 -0.25217014291E+01  0.63643191181E+01  0.00000000000E+00 0. -1.
</event>
<event>
 7    1  0.2661323E-011  0.5052887E+02  0.7816164E-02  0.1300439E+00
        -11   -1    0    0    0    0  0.00000000000E+00  0.00000000000E+00  0.45593999997E+02  0.45594000000E+02  0.51100000000E-03 0. -1.
         11   -1    0    0    0    0 -0.00000000000E+00 -0.00000000000E+00 -0.45593999997E+02  0.45594000000E+02  0.51100000000E-03 0.  1.
    9900012    2    1    2    0    0 -0.29149284024E+02  0.28301626422E+02  0.15818535721E+01  0.50528867225E+02  0.30000022418E+02 0.  0.
         12    1    1    2    0    0  0.29149284024E+02 -0.28301626422E+02 -0.15818535721E+01  0.40659132775E+02  0.00000000000E+00 0. -1.
         11    1    3    3    0    0 -0.10613785802E+02  0.71802450558E+01 -0.87481746324E+01  0.15515763848E+02  0.51100000000E-03 0. -1.
        -11    1    3    3    0    0 -0.19079709640E+02  0.19531046760E+02  0.29714689667E+01  0.27465009295E+02  0.51100000000E-03 0.  1.
         12    1    3    3    0    0  0.54421141787E+00  0.15903346061E+01  0.73585592377E+01  0.75480940827E+01  0.00000000000E+00 0. -1.
</event>
<event>
 7    1  0.2661323E-011  0.5052886E+02  0.7816164E-02  0.1300439E+00
        -11   -1    0    0    0    0  0.00000000000E+00  0.00000000000E+00  0.45593999997E+02  0.45594000000E+02  0.51100000000E-03 0.  1.
         11   -1    0    0    0    0 -0.00000000000E+00 -0.00000000000E+00 -0.45593999997E+02  0.45594000000E+02  0.51100000000E-03 0. -1.
    9900012    2    1    2    0    0  0.34243483261E+02  0.21807745712E+02  0.22297619421E+01  0.50528858873E+02  0.29999997031E+02 0.  0.
         12    1    1    2    0    0 -0.34243483261E+02 -0.21807745712E+02 -0.22297619421E+01  0.40659141127E+02  0.00000000000E+00 0. -1.
         11    1    3    3    0    0  0.40515593469E-01 -0.28175746468E+00  0.86872075296E+00  0.91416890669E+00  0.51100000000E-03 0. -1.
        -11    1    3    3    0    0  0.32951696228E+02  0.28078749493E+02 -0.22866739370E+00  0.43292987266E+02  0.51100000000E-03 0.  1.
        -12    1    3    3    0    0  0.12512714389E+01 -0.59892463163E+01  0.15897085828E+01  0.63217027001E+01  0.00000000000E+00 0.  1.
</event>
<event>
 7    1  0.2661323E-011  0.5052886E+02  0.7816164E-02  0.1300439E+00
        -11   -1    0    0    0    0  0.00000000000E+00  0.00000000000E+00  0.45593999997E+02  0.45594000000E+02  0.51100000000E-03 0.  1.
         11   -1    0    0    0    0 -0.00000000000E+00 -0.00000000000E+00 -0.45593999997E+02  0.45594000000E+02  0.51100000000E-03 0. -1.
    9900012    2    1    2    0    0 -0.15830402760E+02  0.34279918456E+02  0.15081485749E+02  0.50528859904E+02  0.30000000166E+02 0.  0.
         12    1    1    2    0    0  0.15830402760E+02 -0.34279918456E+02 -0.15081485749E+02  0.40659140096E+02  0.00000000000E+00 0. -1.
         11    1    3    3    0    0 -0.59413545303E+01  0.95852404698E+01  0.83634941928E+01  0.14040105551E+02  0.51100000000E-03 0. -1.
        -11    1    3    3    0    0 -0.67976658717E+01  0.18204597231E+01  0.10955386150E+02  0.13020860988E+02  0.51100000000E-03 0.  1.
         12    1    3    3    0    0 -0.30913823582E+01  0.22874218263E+02 -0.42373945945E+01  0.23467893365E+02  0.00000000000E+00 0. -1.
</event>
<event>
 7    1  0.2661323E-011  0.5052887E+02  0.7816164E-02  0.1300439E+00
        -11   -1    0    0    0    0  0.00000000000E+00  0.00000000000E+00  0.45593999997E+02  0.45594000000E+02  0.51100000000E-03 0. -1.
         11   -1    0    0    0    0 -0.00000000000E+00 -0.00000000000E+00 -0.45593999997E+02  0.45594000000E+02  0.51100000000E-03 0.  1.
    9900012    2    1    2    0    0 -0.24156940371E+02 -0.19454441730E+02  0.26289390814E+02  0.50528866456E+02  0.30000020081E+02 0.  0.
         12    1    1    2    0    0  0.24156940371E+02  0.19454441730E+02 -0.26289390814E+02  0.40659133544E+02  0.00000000000E+00 0. -1.
         11    1    3    3    0    0  0.16169357898E+00 -0.35887067214E+01  0.15647270530E+02  0.16054346329E+02  0.51100000000E-03 0. -1.
        -11    1    3    3    0    0 -0.18761643259E+01 -0.84026418348E+01  0.17591631905E+00  0.86113488603E+01  0.51100000000E-03 0.  1.
        -12    1    3    3    0    0 -0.22442469624E+02 -0.74630931739E+01  0.10466203965E+02  0.25863171267E+02  0.00000000000E+00 0.  1.
</event>
<event>
 7    1  0.2661323E-011  0.5052886E+02  0.7816164E-02  0.1300439E+00
        -11   -1    0    0    0    0  0.00000000000E+00  0.00000000000E+00  0.45593999997E+02  0.45594000000E+02  0.51100000000E-03 0.  1.
         11   -1    0    0    0    0 -0.00000000000E+00 -0.00000000000E+00 -0.45593999997E+02  0.45594000000E+02  0.51100000000E-03 0. -1.
    9900012    2    1    2    0    0 -0.14936122832E+02 -0.13420991923E+02  0.35354700290E+02  0.50528860535E+02  0.30000002082E+02 0.  0.
         12    1    1    2    0    0  0.14936122832E+02  0.13420991923E+02 -0.35354700290E+02  0.40659139465E+02  0.00000000000E+00 0. -1.
         11    1    3    3    0    0 -0.26335439478E+00 -0.14380417967E+02  0.29942076895E+02  0.33217371140E+02  0.51100000000E-03 0. -1.
        -11    1    3    3    0    0 -0.18316825737E+01 -0.12481087099E+01  0.34994254391E+01  0.41423200103E+01  0.51100000000E-03 0.  1.
         12    1    3    3    0    0 -0.12841085864E+02  0.22075347545E+01  0.19131979558E+01  0.13169169384E+02  0.00000000000E+00 0. -1.
</event>
<event>
 7    1  0.2661323E-011  0.5052886E+02  0.7816164E-02  0.1300439E+00
        -11   -1    0    0    0    0  0.00000000000E+00  0.00000000000E+00  0.45593999997E+02  0.45594000000E+02  0.51100000000E-03 0.  1.
         11   -1    0    0    0    0 -0.00000000000E+00 -0.00000000000E+00 -0.45593999997E+02  0.45594000000E+02  0.51100000000E-03 0. -1.
    9900012    2    1    2    0    0 -0.38505978242E+02  0.12947644541E+02  0.16773514614E+01  0.50528863666E+02  0.30000011599E+02 0.  0.
         12    1    1    2    0    0  0.38505978242E+02 -0.12947644541E+02 -0.16773514614E+01  0.40659136334E+02  0.00000000000E+00 0. -1.
         11    1    3    3    0    0 -0.15123992256E+01  0.49318604896E+01  0.35818062437E+01  0.62801222547E+01  0.51100000000E-03 0.  1.
        -11    1    3    3    0    0 -0.90288275843E+01  0.10128131218E+02  0.63980987416E+01  0.15001147866E+02  0.51100000000E-03 0. -1.
         12    1    3    3    0    0 -0.27964751432E+02 -0.21123471669E+01 -0.83025535239E+01  0.29247593546E+02  0.00000000000E+00 0. -1.
</event>
<event>
 7    1  0.2661323E-011  0.5052887E+02  0.7816164E-02  0.1300439E+00
        -11   -1    0    0    0    0  0.00000000000E+00  0.00000000000E+00  0.45593999997E+02  0.45594000000E+02  0.51100000000E-03 0.  1.
         11   -1    0    0    0    0 -0.00000000000E+00 -0.00000000000E+00 -0.45593999997E+02  0.45594000000E+02  0.51100000000E-03 0. -1.
    9900012    2    1    2    0    0  0.35777018284E+02 -0.13255420175E+02 -0.14052189612E+02  0.50528865304E+02  0.30000016579E+02 0.  0.
         12    1    1    2    0    0 -0.35777018284E+02  0.13255420175E+02  0.14052189612E+02  0.40659134696E+02  0.00000000000E+00 0. -1.
         11    1    3    3    0    0  0.13118390050E+02 -0.93209573019E+01 -0.66936866402E+01  0.17429223839E+02  0.51100000000E-03 0. -1.
        -11    1    3    3    0    0  0.21792850113E+02 -0.89403908444E+01  0.70868357411E+00  0.23566101442E+02  0.51100000000E-03 0.  1.
         12    1    3    3    0    0  0.86577812057E+00  0.50059279709E+01 -0.80671865463E+01  0.95335400234E+01  0.00000000000E+00 0. -1.
</event>
<event>
 7    1  0.2661323E-011  0.5052891E+02  0.7816164E-02  0.1300439E+00
        -11   -1    0    0    0    0  0.00000000000E+00  0.00000000000E+00  0.45593999997E+02  0.45594000000E+02  0.51100000000E-03 0.  1.
         11   -1    0    0    0    0 -0.00000000000E+00 -0.00000000000E+00 -0.45593999997E+02  0.45594000000E+02  0.51100000000E-03 0. -1.
    9900012    2    1    2    0    0 -0.14983657741E+02 -0.11696364793E+02  0.35942266804E+02  0.50528911327E+02  0.30000156470E+02 0.  0.
         12    1    1    2    0    0  0.14983657741E+02  0.11696364793E+02 -0.35942266804E+02  0.40659088673E+02  0.00000000000E+00 0. -1.
         11    1    3    3    0    0 -0.42018681454E+01  0.83234196255E+00  0.60080416637E+01  0.73786891754E+01  0.51100000000E-03 0. -1.
        -11    1    3    3    0    0 -0.13184765338E+02 -0.66042685831E+01  0.24700873137E+01  0.14951780233E+02  0.51100000000E-03 0.  1.
         12    1    3    3    0    0  0.24029757420E+01 -0.59244381730E+01  0.27464137827E+02  0.28198441919E+02  0.00000000000E+00 0. -1.
</event>
<event>
 7    1  0.2661323E-011  0.5052885E+02  0.7816164E-02  0.1300439E+00
        -11   -1    0    0    0    0  0.00000000000E+00  0.00000000000E+00  0.45593999997E+02  0.45594000000E+02  0.51100000000E-03 0.  1.
         11   -1    0    0    0    0 -0.00000000000E+00 -0.00000000000E+00 -0.45593999997E+02  0.45594000000E+02  0.51100000000E-03 0. -1.
    9900012    2    1    2    0    0  0.37312548064E+01 -0.11038821558E+02  0.38953674457E+02  0.50528848540E+02  0.29999965621E+02 0.  0.
         12    1    1    2    0    0 -0.37312548064E+01  0.11038821558E+02 -0.38953674457E+02  0.40659151460E+02  0.00000000000E+00 0. -1.
         11    1    3    3    0    0  0.69675522111E+01  0.19261523412E+01  0.29405007661E+02  0.30280543629E+02  0.51100000000E-03 0. -1.
        -11    1    3    3    0    0 -0.18163105627E+01 -0.24276442764E+01  0.91159535846E+01  0.96069272305E+01  0.51100000000E-03 0.  1.
         12    1    3    3    0    0 -0.14199868420E+01 -0.10537329623E+02  0.43271321083E+00  0.10641377680E+02  0.00000000000E+00 0. -1.
</event>
<event>
 7    1  0.2661323E-011  0.5052886E+02  0.7816164E-02  0.1300439E+00
        -11   -1    0    0    0    0  0.00000000000E+00  0.00000000000E+00  0.45593999997E+02  0.45594000000E+02  0.51100000000E-03 0. -1.
         11   -1    0    0    0    0 -0.00000000000E+00 -0.00000000000E+00 -0.45593999997E+02  0.45594000000E+02  0.51100000000E-03 0.  1.
    9900012    2    1    2    0    0  0.22595632357E+02  0.22969245137E+02 -0.24799538380E+02  0.50528856776E+02  0.29999990657E+02 0.  0.
         12    1    1    2    0    0 -0.22595632357E+02 -0.22969245137E+02  0.24799538380E+02  0.40659143224E+02  0.00000000000E+00 0. -1.
         11    1    3    3    0    0  0.12683814855E+02  0.13997336999E+02 -0.18033492950E+02  0.26115349329E+02  0.51100000000E-03 0. -1.
        -11    1    3    3    0    0  0.84600080356E+01  0.91776054622E+01 -0.12992454493E+02  0.18016771409E+02  0.51100000000E-03 0.  1.
         12    1    3    3    0    0  0.14518094671E+01 -0.20569732351E+00  0.62264090632E+01  0.63967360381E+01  0.00000000000E+00 0. -1.
</event>
<event>
 7    1  0.2661323E-011  0.5052885E+02  0.7816164E-02  0.1300439E+00
        -11   -1    0    0    0    0  0.00000000000E+00  0.00000000000E+00  0.45593999997E+02  0.45594000000E+02  0.51100000000E-03 0. -1.
         11   -1    0    0    0    0 -0.00000000000E+00 -0.00000000000E+00 -0.45593999997E+02  0.45594000000E+02  0.51100000000E-03 0.  1.
    9900012    2    1    2    0    0  0.26720316981E+02 -0.17125332599E+02 -0.25414833952E+02  0.50528854153E+02  0.29999982684E+02 0.  0.
         12    1    1    2    0    0 -0.26720316981E+02  0.17125332599E+02  0.25414833952E+02  0.40659145847E+02  0.00000000000E+00 0. -1.
         11    1    3    3    0    0  0.86783208353E+01 -0.93002587241E+01 -0.65364016940E+01  0.14301489860E+02  0.51100000000E-03 0. -1.
        -11    1    3    3    0    0  0.32979230959E+01 -0.14236953311E+02 -0.11187904827E+02  0.18404791523E+02  0.51100000000E-03 0.  1.
        -12    1    3    3    0    0  0.14744073050E+02  0.64118794357E+01 -0.76905274312E+01  0.17822572771E+02  0.00000000000E+00 0.  1.
</event>
<event>
 7    1  0.2661323E-011  0.5052888E+02  0.7816164E-02  0.1300439E+00
        -11   -1    0    0    0    0  0.00000000000E+00  0.00000000000E+00  0.45593999997E+02  0.45594000000E+02  0.51100000000E-03 0.  1.
         11   -1    0    0    0    0 -0.00000000000E+00 -0.00000000000E+00 -0.45593999997E+02  0.45594000000E+02  0.51100000000E-03 0. -1.
    9900012    2    1    2    0    0 -0.11322939333E+02 -0.90494292788E+01  0.37987667460E+02  0.50528880427E+02  0.30000062546E+02 0.  0.
         12    1    1    2    0    0  0.11322939333E+02  0.90494292788E+01 -0.37987667460E+02  0.40659119573E+02  0.00000000000E+00 0. -1.
         11    1    3    3    0    0 -0.92685753904E+01 -0.52937299003E+01  0.14606602205E+02  0.18090961673E+02  0.51100000000E-03 0. -1.
        -11    1    3    3    0    0 -0.10843549149E+02  0.19409275533E+01  0.16728999954E+02  0.20030207129E+02  0.51100000000E-03 0.  1.
         12    1    3    3    0    0  0.87891852064E+01 -0.56966269319E+01  0.66520653008E+01  0.12407711625E+02  0.00000000000E+00 0. -1.
</event>
<event>
 7    1  0.2661323E-011  0.5052886E+02  0.7816164E-02  0.1300439E+00
        -11   -1    0    0    0    0  0.00000000000E+00  0.00000000000E+00  0.45593999997E+02  0.45594000000E+02  0.51100000000E-03 0.  1.
         11   -1    0    0    0    0 -0.00000000000E+00 -0.00000000000E+00 -0.45593999997E+02  0.45594000000E+02  0.51100000000E-03 0. -1.
    9900012    2    1    2    0    0  0.29306671585E+02 -0.23591842357E+02  0.15417841009E+02  0.50528857774E+02  0.29999993689E+02 0.  0.
         12    1    1    2    0    0 -0.29306671585E+02  0.23591842357E+02 -0.15417841009E+02  0.40659142226E+02  0.00000000000E+00 0. -1.
         11    1    3    3    0    0  0.80971506387E+01 -0.29404392771E+01  0.79349061339E-01  0.86148899089E+01  0.51100000000E-03 0. -1.
        -11    1    3    3    0    0  0.14262905663E+02  0.28098904457E+01  0.55447882142E+01  0.15558619440E+02  0.51100000000E-03 0.  1.
        -12    1    3    3    0    0  0.69466152829E+01 -0.23461293525E+02  0.97937037339E+01  0.26355348425E+02  0.00000000000E+00 0.  1.
</event>
<event>
 7    1  0.2661323E-011  0.5052880E+02  0.7816164E-02  0.1300439E+00
        -11   -1    0    0    0    0  0.00000000000E+00  0.00000000000E+00  0.45593999997E+02  0.45594000000E+02  0.51100000000E-03 0. -1.
         11   -1    0    0    0    0 -0.00000000000E+00 -0.00000000000E+00 -0.45593999997E+02  0.45594000000E+02  0.51100000000E-03 0.  1.
    9900012    2    1    2    0    0 -0.12555281145E+02 -0.37920188438E+02 -0.75890955727E+01  0.50528804885E+02  0.29999832927E+02 0.  0.
         12    1    1    2    0    0  0.12555281145E+02  0.37920188438E+02  0.75890955727E+01  0.40659195115E+02  0.00000000000E+00 0. -1.
         11    1    3    3    0    0  0.78929701773E+00  0.69493240083E+00  0.65085676771E+01  0.65929791667E+01  0.51100000000E-03 0. -1.
        -11    1    3    3    0    0  0.31301145206E+00 -0.59220798602E+01 -0.38207473612E+00  0.59426414502E+01  0.51100000000E-03 0.  1.
        -12    1    3    3    0    0 -0.13657589615E+02 -0.32693040979E+02 -0.13715588514E+02  0.37993184268E+02  0.00000000000E+00 0.  1.
</event>
<event>
 7    1  0.2661323E-011  0.5052887E+02  0.7816164E-02  0.1300439E+00
        -11   -1    0    0    0    0  0.00000000000E+00  0.00000000000E+00  0.45593999997E+02  0.45594000000E+02  0.51100000000E-03 0.  1.
         11   -1    0    0    0    0 -0.00000000000E+00 -0.00000000000E+00 -0.45593999997E+02  0.45594000000E+02  0.51100000000E-03 0. -1.
    9900012    2    1    2    0    0  0.39070074424E+02 -0.86802692836E+01  0.71657130555E+01  0.50528865308E+02  0.30000016591E+02 0.  0.
         12    1    1    2    0    0 -0.39070074424E+02  0.86802692836E+01 -0.71657130555E+01  0.40659134692E+02  0.00000000000E+00 0. -1.
         11    1    3    3    0    0  0.18316855301E+01 -0.29371702171E+01  0.26729317780E+01  0.43733974570E+01  0.51100000000E-03 0. -1.
        -11    1    3    3    0    0  0.32110308805E+01 -0.62844509793E+01  0.94185175006E+01  0.11769176505E+02  0.51100000000E-03 0.  1.
        -12    1    3    3    0    0  0.34027358013E+02  0.54135191281E+00 -0.49257362231E+01  0.34386291347E+02  0.00000000000E+00 0.  1.
</event>
<event>
 7    1  0.2661323E-011  0.5052885E+02  0.7816164E-02  0.1300439E+00
        -11   -1    0    0    0    0  0.00000000000E+00  0.00000000000E+00  0.45593999997E+02  0.45594000000E+02  0.51100000000E-03 0.  1.
         11   -1    0    0    0    0 -0.00000000000E+00 -0.00000000000E+00 -0.45593999997E+02  0.45594000000E+02  0.51100000000E-03 0. -1.
    9900012    2    1    2    0    0  0.20764542723E+02 -0.13550260081E+02  0.32224075564E+02  0.50528845696E+02  0.29999956979E+02 0.  0.
         12    1    1    2    0    0 -0.20764542723E+02  0.13550260081E+02 -0.32224075564E+02  0.40659154304E+02  0.00000000000E+00 0. -1.
         11    1    3    3    0    0  0.12508737926E+02 -0.13195207285E+02  0.62387769705E+01  0.19222496148E+02  0.51100000000E-03 0. -1.
        -11    1    3    3    0    0  0.11783857451E+02  0.16755262356E+01  0.12674652963E+02  0.17387165168E+02  0.51100000000E-03 0.  1.
        -12    1    3    3    0    0 -0.35280526544E+01 -0.20305790315E+01  0.13310645630E+02  0.13919184381E+02  0.00000000000E+00 0.  1.
</event>
<event>
 7    1  0.2661323E-011  0.5052886E+02  0.7816164E-02  0.1300439E+00
        -11   -1    0    0    0    0  0.00000000000E+00  0.00000000000E+00  0.45593999997E+02  0.45594000000E+02  0.51100000000E-03 0.  1.
         11   -1    0    0    0    0 -0.00000000000E+00 -0.00000000000E+00 -0.45593999997E+02  0.45594000000E+02  0.51100000000E-03 0. -1.
    9900012    2    1    2    0    0  0.71063232975E+01 -0.18441247633E+02  0.35532887807E+02  0.50528861285E+02  0.30000004363E+02 0.  0.
         12    1    1    2    0    0 -0.71063232975E+01  0.18441247633E+02 -0.35532887807E+02  0.40659138715E+02  0.00000000000E+00 0. -1.
         11    1    3    3    0    0 -0.19286937941E+01 -0.26231013843E+01 -0.14142382899E+01  0.35497310920E+01  0.51100000000E-03 0. -1.
        -11    1    3    3    0    0  0.18297488015E+01 -0.39745241926E+01 -0.25882090999E+01  0.50836650008E+01  0.51100000000E-03 0.  1.
        -12    1    3    3    0    0  0.72052682902E+01 -0.11843622056E+02  0.39535335197E+02  0.41895465193E+02  0.00000000000E+00 0.  1.
</event>
<event>
 7    1  0.2661323E-011  0.5052886E+02  0.7816164E-02  0.1300439E+00
        -11   -1    0    0    0    0  0.00000000000E+00  0.00000000000E+00  0.45593999997E+02  0.45594000000E+02  0.51100000000E-03 0.  1.
         11   -1    0    0    0    0 -0.00000000000E+00 -0.00000000000E+00 -0.45593999997E+02  0.45594000000E+02  0.51100000000E-03 0. -1.
    9900012    2    1    2    0    0 -0.15005071479E+02 -0.37711014299E+02 -0.24275725350E+01  0.50528857388E+02  0.29999992516E+02 0.  0.
         12    1    1    2    0    0  0.15005071479E+02  0.37711014299E+02  0.24275725350E+01  0.40659142612E+02  0.00000000000E+00 0. -1.
         11    1    3    3    0    0 -0.58741420543E+01  0.28830981721E+01  0.14580335391E+01  0.67040034313E+01  0.51100000000E-03 0. -1.
        -11    1    3    3    0    0 -0.69250918961E+01 -0.65560834193E+01 -0.53364018092E+00  0.95511203360E+01  0.51100000000E-03 0.  1.
         12    1    3    3    0    0 -0.22058375281E+01 -0.34038029052E+02 -0.33519658932E+01  0.34273733621E+02  0.00000000000E+00 0. -1.
</event>
<event>
 7    1  0.2661323E-011  0.5052886E+02  0.7816164E-02  0.1300439E+00
        -11   -1    0    0    0    0  0.00000000000E+00  0.00000000000E+00  0.45593999997E+02  0.45594000000E+02  0.51100000000E-03 0.  1.
         11   -1    0    0    0    0 -0.00000000000E+00 -0.00000000000E+00 -0.45593999997E+02  0.45594000000E+02  0.51100000000E-03 0. -1.
    9900012    2    1    2    0    0 -0.34296727348E+02  0.18720882706E+02 -0.11244056431E+02  0.50528858825E+02  0.29999996884E+02 0.  0.
         12    1    1    2    0    0  0.34296727348E+02 -0.18720882706E+02  0.11244056431E+02  0.40659141175E+02  0.00000000000E+00 0. -1.
         11    1    3    3    0    0 -0.15341378060E+02  0.37360478784E+01 -0.14384168631E+02  0.21359312770E+02  0.51100000000E-03 0. -1.
        -11    1    3    3    0    0 -0.17408770226E+02  0.45000725363E+01 -0.43012642889E+00  0.17986131953E+02  0.51100000000E-03 0.  1.
        -12    1    3    3    0    0 -0.15465790616E+01  0.10484762291E+02  0.35702386296E+01  0.11183414102E+02  0.00000000000E+00 0.  1.
</event>
<event>
 7    1  0.2661323E-011  0.5052886E+02  0.7816164E-02  0.1300439E+00
        -11   -1    0    0    0    0  0.00000000000E+00  0.00000000000E+00  0.45593999997E+02  0.45594000000E+02  0.51100000000E-03 0.  1.
         11   -1    0    0    0    0 -0.00000000000E+00 -0.00000000000E+00 -0.45593999997E+02  0.45594000000E+02  0.51100000000E-03 0. -1.
    9900012    2    1    2    0    0 -0.37498565407E+02  0.66181607642E+01 -0.14255640557E+02  0.50528858996E+02  0.29999997404E+02 0.  0.
         12    1    1    2    0    0  0.37498565407E+02 -0.66181607642E+01  0.14255640557E+02  0.40659141004E+02  0.00000000000E+00 0. -1.
         11    1    3    3    0    0 -0.56709309117E-01 -0.22946122113E+01 -0.28115185768E+01  0.36294762866E+01  0.51100000000E-03 0. -1.
        -11    1    3    3    0    0 -0.17561861834E+02 -0.78842373251E+01 -0.70737126820E+01  0.20508963910E+02  0.51100000000E-03 0.  1.
         12    1    3    3    0    0 -0.19879994264E+02  0.16797010301E+02 -0.43704092981E+01  0.26390418800E+02  0.00000000000E+00 0. -1.
</event>
<event>
 7    1  0.2661323E-011  0.5052887E+02  0.7816164E-02  0.1300439E+00
        -11   -1    0    0    0    0  0.00000000000E+00  0.00000000000E+00  0.45593999997E+02  0.45594000000E+02  0.51100000000E-03 0.  1.
         11   -1    0    0    0    0 -0.00000000000E+00 -0.00000000000E+00 -0.45593999997E+02  0.45594000000E+02  0.51100000000E-03 0. -1.
    9900012    2    1    2    0    0 -0.79118509229E+00 -0.11993509683E+02  0.38841922048E+02  0.50528866257E+02  0.30000019474E+02 0.  0.
         12    1    1    2    0    0  0.79118509229E+00  0.11993509683E+02 -0.38841922048E+02  0.40659133743E+02  0.00000000000E+00 0. -1.
         11    1    3    3    0    0  0.46636094624E+01 -0.14889549034E+02  0.20183818538E+02  0.25511457322E+02  0.51100000000E-03 0. -1.
        -11    1    3    3    0    0 -0.29402022913E-01  0.37684357842E+01  0.19134156683E+02  0.19501741588E+02  0.51100000000E-03 0.  1.
         12    1    3    3    0    0 -0.54253925318E+01 -0.87239643275E+00 -0.47605317242E+00  0.55156673470E+01  0.00000000000E+00 0. -1.
</event>
<event>
 7    1  0.2661323E-011  0.5052885E+02  0.7816164E-02  0.1300439E+00
        -11   -1    0    0    0    0  0.00000000000E+00  0.00000000000E+00  0.45593999997E+02  0.45594000000E+02  0.51100000000E-03 0. -1.
         11   -1    0    0    0    0 -0.00000000000E+00 -0.00000000000E+00 -0.45593999997E+02  0.45594000000E+02  0.51100000000E-03 0.  1.
    9900012    2    1    2    0    0 -0.53127975290E+01  0.40002232205E+02 -0.49761270547E+01  0.50528852942E+02  0.29999979003E+02 0.  0.
         12    1    1    2    0    0  0.53127975290E+01 -0.40002232205E+02  0.49761270547E+01  0.40659147058E+02  0.00000000000E+00 0. -1.
         11    1    3    3    0    0  0.61824018094E+01  0.32402988297E+01 -0.22170586262E+01  0.73237270465E+01  0.51100000000E-03 0. -1.
        -11    1    3    3    0    0 -0.70525173356E+01  0.19040505464E+02 -0.11078449591E+02  0.23130302521E+02  0.51100000000E-03 0.  1.
        -12    1    3    3    0    0 -0.44426820028E+01  0.17721427911E+02  0.83193811627E+01  0.20074823375E+02  0.00000000000E+00 0.  1.
</event>
<event>
 7    1  0.2661323E-011  0.5052883E+02  0.7816164E-02  0.1300439E+00
        -11   -1    0    0    0    0  0.00000000000E+00  0.00000000000E+00  0.45593999997E+02  0.45594000000E+02  0.51100000000E-03 0.  1.
         11   -1    0    0    0    0 -0.00000000000E+00 -0.00000000000E+00 -0.45593999997E+02  0.45594000000E+02  0.51100000000E-03 0. -1.
    9900012    2    1    2    0    0  0.27725712904E+02 -0.11895080206E+02  0.27257287245E+02  0.50528833788E+02  0.29999920781E+02 0.  0.
         12    1    1    2    0    0 -0.27725712904E+02  0.11895080206E+02 -0.27257287245E+02  0.40659166212E+02  0.00000000000E+00 0. -1.
         11    1    3    3    0    0  0.11378131518E+02 -0.39120122373E+01  0.91566352618E+01  0.15119844118E+02  0.51100000000E-03 0. -1.
        -11    1    3    3    0    0  0.19710714842E+02 -0.77817754015E+01  0.21802001872E+02  0.30403874652E+02  0.51100000000E-03 0.  1.
        -12    1    3    3    0    0 -0.33631334558E+01 -0.20129256715E+00 -0.37013498887E+01  0.50051150174E+01  0.00000000000E+00 0.  1.
</event>
<event>
 7    1  0.2661323E-011  0.5052892E+02  0.7816164E-02  0.1300439E+00
        -11   -1    0    0    0    0  0.00000000000E+00  0.00000000000E+00  0.45593999997E+02  0.45594000000E+02  0.51100000000E-03 0.  1.
         11   -1    0    0    0    0 -0.00000000000E+00 -0.00000000000E+00 -0.45593999997E+02  0.45594000000E+02  0.51100000000E-03 0. -1.
    9900012    2    1    2    0    0 -0.22813016553E+02  0.97627677407E+01  0.32208930753E+02  0.50528922558E+02  0.30000190607E+02 0.  0.
         12    1    1    2    0    0  0.22813016553E+02 -0.97627677407E+01 -0.32208930753E+02  0.40659077442E+02  0.00000000000E+00 0. -1.
         11    1    3    3    0    0 -0.10805735694E+01 -0.86266335738E+00  0.18325338401E+01  0.22956497649E+01  0.51100000000E-03 0. -1.
        -11    1    3    3    0    0 -0.89709530221E+01 -0.94026583914E+01  0.15427866697E+02  0.20171937290E+02  0.51100000000E-03 0.  1.
         12    1    3    3    0    0 -0.12761489961E+02  0.20028089489E+02  0.14948530215E+02  0.28061335503E+02  0.00000000000E+00 0. -1.
</event>
<event>
 7    1  0.2661323E-011  0.5052887E+02  0.7816164E-02  0.1300439E+00
        -11   -1    0    0    0    0  0.00000000000E+00  0.00000000000E+00  0.45593999997E+02  0.45594000000E+02  0.51100000000E-03 0. -1.
         11   -1    0    0    0    0 -0.00000000000E+00 -0.00000000000E+00 -0.45593999997E+02  0.45594000000E+02  0.51100000000E-03 0.  1.
    9900012    2    1    2    0    0  0.16758007131E-01 -0.14425649168E+02 -0.38014014974E+02  0.50528868564E+02  0.30000026486E+02 0.  0.
         12    1    1    2    0    0 -0.16758007131E-01  0.14425649168E+02  0.38014014974E+02  0.40659131436E+02  0.00000000000E+00 0. -1.
         11    1    3    3    0    0 -0.81549619471E+01 -0.31122592333E+01 -0.15694829069E+02  0.17958764480E+02  0.51100000000E-03 0. -1.
        -11    1    3    3    0    0  0.43336282869E+01 -0.16579157567E+02 -0.17245885903E+02  0.24311918489E+02  0.51100000000E-03 0.  1.
        -12    1    3    3    0    0  0.38380916673E+01  0.52657676325E+01 -0.50733000015E+01  0.82581855944E+01  0.00000000000E+00 0.  1.
</event>
<event>
 7    1  0.2661323E-011  0.5052886E+02  0.7816164E-02  0.1300439E+00
        -11   -1    0    0    0    0  0.00000000000E+00  0.00000000000E+00  0.45593999997E+02  0.45594000000E+02  0.51100000000E-03 0.  1.
         11   -1    0    0    0    0 -0.00000000000E+00 -0.00000000000E+00 -0.45593999997E+02  0.45594000000E+02  0.51100000000E-03 0. -1.
    9900012    2    1    2    0    0  0.66215755618E+01 -0.34624126380E+02  0.20260550923E+02  0.50528864321E+02  0.30000013589E+02 0.  0.
         12    1    1    2    0    0 -0.66215755618E+01  0.34624126380E+02 -0.20260550923E+02  0.40659135679E+02  0.00000000000E+00 0. -1.
         11    1    3    3    0    0 -0.42794754639E+01  0.10941053318E+01 -0.12213070744E+01  0.45828558731E+01  0.51100000000E-03 0. -1.
        -11    1    3    3    0    0 -0.38688605666E+01 -0.43455486014E+01  0.43791875482E+01  0.72821122330E+01  0.51100000000E-03 0.  1.
         12    1    3    3    0    0  0.14769911592E+02 -0.31372683111E+02  0.17102670449E+02  0.38663896214E+02  0.00000000000E+00 0. -1.
</event>
<event>
 7    1  0.2661323E-011  0.5052886E+02  0.7816164E-02  0.1300439E+00
        -11   -1    0    0    0    0  0.00000000000E+00  0.00000000000E+00  0.45593999997E+02  0.45594000000E+02  0.51100000000E-03 0.  1.
         11   -1    0    0    0    0 -0.00000000000E+00 -0.00000000000E+00 -0.45593999997E+02  0.45594000000E+02  0.51100000000E-03 0. -1.
    9900012    2    1    2    0    0  0.18424628397E+02  0.16496894647E+02  0.32273072583E+02  0.50528859840E+02  0.29999999970E+02 0.  0.
         12    1    1    2    0    0 -0.18424628397E+02 -0.16496894647E+02 -0.32273072583E+02  0.40659140160E+02  0.00000000000E+00 0. -1.
         11    1    3    3    0    0 -0.36626772407E+01 -0.22089203382E+01  0.69449831028E+01  0.81564283966E+01  0.51100000000E-03 0. -1.
        -11    1    3    3    0    0  0.64753322535E+01  0.40302867305E+00  0.14708865712E+02  0.16076165298E+02  0.51100000000E-03 0.  1.
         12    1    3    3    0    0  0.15611973384E+02  0.18302786313E+02  0.10619223769E+02  0.26296266145E+02  0.00000000000E+00 0. -1.
</event>
<event>
 7    1  0.2661323E-011  0.5052878E+02  0.7816164E-02  0.1300439E+00
        -11   -1    0    0    0    0  0.00000000000E+00  0.00000000000E+00  0.45593999997E+02  0.45594000000E+02  0.51100000000E-03 0. -1.
         11   -1    0    0    0    0 -0.00000000000E+00 -0.00000000000E+00 -0.45593999997E+02  0.45594000000E+02  0.51100000000E-03 0.  1.
    9900012    2    1    2    0    0 -0.35087241983E+02  0.19121918535E+02 -0.75106658608E+01  0.50528776937E+02  0.29999747976E+02 0.  0.
         12    1    1    2    0    0  0.35087241983E+02 -0.19121918535E+02  0.75106658608E+01  0.40659223063E+02  0.00000000000E+00 0. -1.
         11    1    3    3    0    0 -0.77720621747E+01  0.14786471228E+00  0.42284970831E+01  0.88491243783E+01  0.51100000000E-03 0. -1.
        -11    1    3    3    0    0 -0.25158472059E+02  0.71481590172E+01 -0.20399517804E+01  0.26233686306E+02  0.51100000000E-03 0.  1.
         12    1    3    3    0    0 -0.21567077495E+01  0.11825894806E+02 -0.96992111635E+01  0.15445966252E+02  0.00000000000E+00 0. -1.
</event>
<event>
 7    1  0.2661323E-011  0.5052886E+02  0.7816164E-02  0.1300439E+00
        -11   -1    0    0    0    0  0.00000000000E+00  0.00000000000E+00  0.45593999997E+02  0.45594000000E+02  0.51100000000E-03 0.  1.
         11   -1    0    0    0    0 -0.00000000000E+00 -0.00000000000E+00 -0.45593999997E+02  0.45594000000E+02  0.51100000000E-03 0. -1.
    9900012    2    1    2    0    0 -0.70414170155E+01  0.19526701261E+02  0.34961290753E+02  0.50528862443E+02  0.30000007883E+02 0.  0.
         12    1    1    2    0    0  0.70414170155E+01 -0.19526701261E+02 -0.34961290753E+02  0.40659137557E+02  0.00000000000E+00 0. -1.
         11    1    3    3    0    0 -0.45161976301E+00  0.52317408057E+01  0.16029843175E+02  0.16868045077E+02  0.51100000000E-03 0. -1.
        -11    1    3    3    0    0  0.73582201079E+01  0.34239591392E+00  0.88213739241E+01  0.11492487820E+02  0.51100000000E-03 0.  1.
         12    1    3    3    0    0 -0.13948017360E+02  0.13952564541E+02  0.10110073655E+02  0.22168329546E+02  0.00000000000E+00 0. -1.
</event>
<event>
 7    1  0.2661323E-011  0.5052886E+02  0.7816164E-02  0.1300439E+00
        -11   -1    0    0    0    0  0.00000000000E+00  0.00000000000E+00  0.45593999997E+02  0.45594000000E+02  0.51100000000E-03 0.  1.
         11   -1    0    0    0    0 -0.00000000000E+00 -0.00000000000E+00 -0.45593999997E+02  0.45594000000E+02  0.51100000000E-03 0. -1.
    9900012    2    1    2    0    0  0.34238453205E+01 -0.16550289191E+02  0.36980143897E+02  0.50528857956E+02  0.29999994244E+02 0.  0.
         12    1    1    2    0    0 -0.34238453205E+01  0.16550289191E+02 -0.36980143897E+02  0.40659142044E+02  0.00000000000E+00 0. -1.
         11    1    3    3    0    0  0.39277036159E+01 -0.55767690681E+00  0.81053566913E+00  0.40490526742E+01  0.51100000000E-03 0. -1.
        -11    1    3    3    0    0  0.79268399068E+01 -0.14483436624E+02  0.10864698111E+02  0.19764776565E+02  0.51100000000E-03 0.  1.
        -12    1    3    3    0    0 -0.84306982022E+01 -0.15091756600E+01  0.25304910116E+02  0.26715028717E+02  0.00000000000E+00 0.  1.
</event>
<event>
 7    1  0.2661323E-011  0.5052887E+02  0.7816164E-02  0.1300439E+00
        -11   -1    0    0    0    0  0.00000000000E+00  0.00000000000E+00  0.45593999997E+02  0.45594000000E+02  0.51100000000E-03 0. -1.
         11   -1    0    0    0    0 -0.00000000000E+00 -0.00000000000E+00 -0.45593999997E+02  0.45594000000E+02  0.51100000000E-03 0.  1.
    9900012    2    1    2    0    0  0.15951791026E+02 -0.35103167837E+02 -0.12902450415E+02  0.50528865039E+02  0.30000015771E+02 0.  0.
         12    1    1    2    0    0 -0.15951791026E+02  0.35103167837E+02  0.12902450415E+02  0.40659134961E+02  0.00000000000E+00 0. -1.
         11    1    3    3    0    0  0.22004024541E+01  0.14512368536E+01 -0.50209038403E+01  0.56707437784E+01  0.51100000000E-03 0. -1.
        -11    1    3    3    0    0  0.98945799650E+01 -0.14140480528E+02 -0.12925601301E+02  0.21562167597E+02  0.51100000000E-03 0.  1.
         12    1    3    3    0    0  0.38568086067E+01 -0.22413924163E+02  0.50440547260E+01  0.23295953663E+02  0.00000000000E+00 0. -1.
</event>
<event>
 7    1  0.2661323E-011  0.5052889E+02  0.7816164E-02  0.1300439E+00
        -11   -1    0    0    0    0  0.00000000000E+00  0.00000000000E+00  0.45593999997E+02  0.45594000000E+02  0.51100000000E-03 0.  1.
         11   -1    0    0    0    0 -0.00000000000E+00 -0.00000000000E+00 -0.45593999997E+02  0.45594000000E+02  0.51100000000E-03 0. -1.
    9900012    2    1    2    0    0 -0.27621734392E+02 -0.29746783528E+02  0.23091151428E+01  0.50528888428E+02  0.30000086867E+02 0.  0.
         12    1    1    2    0    0  0.27621734392E+02  0.29746783528E+02 -0.23091151428E+01  0.40659111572E+02  0.00000000000E+00 0. -1.
         11    1    3    3    0    0  0.10653927861E+00 -0.34725682142E+01 -0.46212035902E+01  0.57814880008E+01  0.51100000000E-03 0. -1.
        -11    1    3    3    0    0 -0.58203234583E+01 -0.24028540188E+01 -0.70558390020E+01  0.94569940720E+01  0.51100000000E-03 0.  1.
        -12    1    3    3    0    0 -0.21907950212E+02 -0.23871361295E+02  0.13986157735E+02  0.35290406356E+02  0.00000000000E+00 0.  1.
</event>
<event>
 7    1  0.2661323E-011  0.5052888E+02  0.7816164E-02  0.1300439E+00
        -11   -1    0    0    0    0  0.00000000000E+00  0.00000000000E+00  0.45593999997E+02  0.45594000000E+02  0.51100000000E-03 0.  1.
         11   -1    0    0    0    0 -0.00000000000E+00 -0.00000000000E+00 -0.45593999997E+02  0.45594000000E+02  0.51100000000E-03 0. -1.
    9900012    2    1    2    0    0  0.72765102445E+01 -0.28604656618E+02  0.27964087007E+02  0.50528878714E+02  0.30000057340E+02 0.  0.
         12    1    1    2    0    0 -0.72765102445E+01  0.28604656618E+02 -0.27964087007E+02  0.40659121286E+02  0.00000000000E+00 0. -1.
         11    1    3    3    0    0 -0.23627328252E+01  0.33991931260E+01  0.11809350433E+02  0.12513903396E+02  0.51100000000E-03 0. -1.
        -11    1    3    3    0    0  0.48868925990E+00 -0.13205863903E+02  0.38873168498E+01  0.13774791874E+02  0.51100000000E-03 0.  1.
        -12    1    3    3    0    0  0.91505538098E+01 -0.18797985841E+02  0.12267419725E+02  0.24240183444E+02  0.00000000000E+00 0.  1.
</event>
<event>
 7    1  0.2661323E-011  0.5052885E+02  0.7816164E-02  0.1300439E+00
        -11   -1    0    0    0    0  0.00000000000E+00  0.00000000000E+00  0.45593999997E+02  0.45594000000E+02  0.51100000000E-03 0.  1.
         11   -1    0    0    0    0 -0.00000000000E+00 -0.00000000000E+00 -0.45593999997E+02  0.45594000000E+02  0.51100000000E-03 0. -1.
    9900012    2    1    2    0    0  0.27914471366E+02 -0.37670724663E+01  0.29321623610E+02  0.50528853948E+02  0.29999982060E+02 0.  0.
         12    1    1    2    0    0 -0.27914471366E+02  0.37670724663E+01 -0.29321623610E+02  0.40659146052E+02  0.00000000000E+00 0. -1.
         11    1    3    3    0    0  0.22726524219E+01  0.60004095187E+01  0.11484318534E+02  0.13155205657E+02  0.51100000000E-03 0. -1.
        -11    1    3    3    0    0  0.99020166680E+01 -0.12927370326E+02  0.12243060526E+02  0.20373005889E+02  0.51100000000E-03 0.  1.
         12    1    3    3    0    0  0.15739802276E+02  0.31598883406E+01  0.55942445491E+01  0.17000642402E+02  0.00000000000E+00 0. -1.
</event>
<event>
 7    1  0.2661323E-011  0.5052888E+02  0.7816164E-02  0.1300439E+00
        -11   -1    0    0    0    0  0.00000000000E+00  0.00000000000E+00  0.45593999997E+02  0.45594000000E+02  0.51100000000E-03 0. -1.
         11   -1    0    0    0    0 -0.00000000000E+00 -0.00000000000E+00 -0.45593999997E+02  0.45594000000E+02  0.51100000000E-03 0.  1.
    9900012    2    1    2    0    0  0.31218040672E+02 -0.19638207075E+02  0.17115462437E+02  0.50528876854E+02  0.30000051686E+02 0.  0.
         12    1    1    2    0    0 -0.31218040672E+02  0.19638207075E+02 -0.17115462437E+02  0.40659123146E+02  0.00000000000E+00 0. -1.
         11    1    3    3    0    0  0.35808333036E+01  0.36271819751E+01  0.14967355901E+01  0.53121590635E+01  0.51100000000E-03 0. -1.
        -11    1    3    3    0    0  0.12002643463E+02 -0.22028986301E+01 -0.35719807151E+01  0.12715158629E+02  0.51100000000E-03 0.  1.
        -12    1    3    3    0    0  0.15634563906E+02 -0.21062490420E+02  0.19190707562E+02  0.32501559162E+02  0.00000000000E+00 0.  1.
</event>
<event>
 7    1  0.2661323E-011  0.5052886E+02  0.7816164E-02  0.1300439E+00
        -11   -1    0    0    0    0  0.00000000000E+00  0.00000000000E+00  0.45593999997E+02  0.45594000000E+02  0.51100000000E-03 0. -1.
         11   -1    0    0    0    0 -0.00000000000E+00 -0.00000000000E+00 -0.45593999997E+02  0.45594000000E+02  0.51100000000E-03 0.  1.
    9900012    2    1    2    0    0 -0.39647365671E+02  0.84413377816E+01 -0.31616285807E+01  0.50528859780E+02  0.29999999786E+02 0.  0.
         12    1    1    2    0    0  0.39647365671E+02 -0.84413377816E+01  0.31616285807E+01  0.40659140220E+02  0.00000000000E+00 0. -1.
         11    1    3    3    0    0  0.25631068311E+01 -0.18922143833E+01 -0.11429322123E+01  0.33847136072E+01  0.51100000000E-03 0. -1.
        -11    1    3    3    0    0 -0.72138799102E+01 -0.49755949043E+01  0.10320805030E+01  0.88239332747E+01  0.51100000000E-03 0.  1.
         12    1    3    3    0    0 -0.34996592592E+02  0.15309147069E+02 -0.30507768713E+01  0.38320212898E+02  0.00000000000E+00 0. -1.
</event>
<event>
 7    1  0.2661323E-011  0.5052884E+02  0.7816164E-02  0.1300439E+00
        -11   -1    0    0    0    0  0.00000000000E+00  0.00000000000E+00  0.45593999997E+02  0.45594000000E+02  0.51100000000E-03 0.  1.
         11   -1    0    0    0    0 -0.00000000000E+00 -0.00000000000E+00 -0.45593999997E+02  0.45594000000E+02  0.51100000000E-03 0. -1.
    9900012    2    1    2    0    0  0.25772343212E+02  0.31432481796E+02  0.97622648390E+00  0.50528836154E+02  0.29999927974E+02 0.  0.
         12    1    1    2    0    0 -0.25772343212E+02 -0.31432481796E+02 -0.97622648390E+00  0.40659163846E+02  0.00000000000E+00 0. -1.
         11    1    3    3    0    0  0.17567743166E+02  0.22723274342E+02  0.94242822663E+00  0.28737796853E+02  0.51100000000E-03 0. -1.
        -11    1    3    3    0    0  0.10484895450E+02  0.13047783575E+02  0.11016982954E+01  0.16774725876E+02  0.51100000000E-03 0.  1.
         12    1    3    3    0    0 -0.22802954043E+01 -0.43385761206E+01 -0.10679000381E+01  0.50163134249E+01  0.00000000000E+00 0. -1.
</event>
<event>
 7    1  0.2661323E-011  0.5052886E+02  0.7816164E-02  0.1300439E+00
        -11   -1    0    0    0    0  0.00000000000E+00  0.00000000000E+00  0.45593999997E+02  0.45594000000E+02  0.51100000000E-03 0. -1.
         11   -1    0    0    0    0 -0.00000000000E+00 -0.00000000000E+00 -0.45593999997E+02  0.45594000000E+02  0.51100000000E-03 0.  1.
    9900012    2    1    2    0    0  0.96839318644E+01 -0.22853045418E+02 -0.32204432742E+02  0.50528859459E+02  0.29999998813E+02 0.  0.
         12    1    1    2    0    0 -0.96839318644E+01  0.22853045418E+02  0.32204432742E+02  0.40659140541E+02  0.00000000000E+00 0. -1.
         11    1    3    3    0    0  0.86466930303E+00 -0.17103120553E+02 -0.19885932459E+01  0.17240037384E+02  0.51100000000E-03 0. -1.
        -11    1    3    3    0    0 -0.31544018840E+00 -0.98121666276E+00  0.30543661954E+00  0.10749792749E+01  0.51100000000E-03 0.  1.
        -12    1    3    3    0    0  0.91347027497E+01 -0.47687082031E+01 -0.30521276116E+02  0.32213842801E+02  0.00000000000E+00 0.  1.
</event>
<event>
 7    1  0.2661323E-011  0.5052886E+02  0.7816164E-02  0.1300439E+00
        -11   -1    0    0    0    0  0.00000000000E+00  0.00000000000E+00  0.45593999997E+02  0.45594000000E+02  0.51100000000E-03 0.  1.
         11   -1    0    0    0    0 -0.00000000000E+00 -0.00000000000E+00 -0.45593999997E+02  0.45594000000E+02  0.51100000000E-03 0. -1.
    9900012    2    1    2    0    0 -0.35903788210E+02  0.14255931221E+02  0.12682748082E+02  0.50528859801E+02  0.29999999852E+02 0.  0.
         12    1    1    2    0    0  0.35903788210E+02 -0.14255931221E+02 -0.12682748082E+02  0.40659140199E+02  0.00000000000E+00 0. -1.
         11    1    3    3    0    0 -0.14518282623E+01  0.27101017638E+01  0.20791352813E+00  0.30815069641E+01  0.51100000000E-03 0. -1.
        -11    1    3    3    0    0 -0.56899490146E+01  0.15056279543E+02  0.52394179181E+00  0.16104086088E+02  0.51100000000E-03 0.  1.
        -12    1    3    3    0    0 -0.28762010933E+02 -0.35104500857E+01  0.11950892762E+02  0.31343266749E+02  0.00000000000E+00 0.  1.
</event>
<event>
 7    1  0.2661323E-011  0.5052886E+02  0.7816164E-02  0.1300439E+00
        -11   -1    0    0    0    0  0.00000000000E+00  0.00000000000E+00  0.45593999997E+02  0.45594000000E+02  0.51100000000E-03 0.  1.
         11   -1    0    0    0    0 -0.00000000000E+00 -0.00000000000E+00 -0.45593999997E+02  0.45594000000E+02  0.51100000000E-03 0. -1.
    9900012    2    1    2    0    0 -0.34050429104E+02  0.39868113728E+01  0.21859538215E+02  0.50528858370E+02  0.29999995502E+02 0.  0.
         12    1    1    2    0    0  0.34050429104E+02 -0.39868113728E+01 -0.21859538215E+02  0.40659141630E+02  0.00000000000E+00 0. -1.
         11    1    3    3    0    0 -0.54019229168E+01  0.55902358435E+01 -0.40800159896E+01  0.87794099301E+01  0.51100000000E-03 0. -1.
        -11    1    3    3    0    0 -0.21545446589E+01  0.49392167312E+01  0.35818496630E+01  0.64705155803E+01  0.51100000000E-03 0.  1.
        -12    1    3    3    0    0 -0.26493961528E+02 -0.65426412018E+01  0.22357704542E+02  0.35278932860E+02  0.00000000000E+00 0.  1.
</event>
<event>
 7    1  0.2661323E-011  0.5052886E+02  0.7816164E-02  0.1300439E+00
        -11   -1    0    0    0    0  0.00000000000E+00  0.00000000000E+00  0.45593999997E+02  0.45594000000E+02  0.51100000000E-03 0.  1.
         11   -1    0    0    0    0 -0.00000000000E+00 -0.00000000000E+00 -0.45593999997E+02  0.45594000000E+02  0.51100000000E-03 0. -1.
    9900012    2    1    2    0    0 -0.74705346070E+00  0.17155616185E+02  0.36855018878E+02  0.50528859920E+02  0.30000000212E+02 0.  0.
         12    1    1    2    0    0  0.74705346070E+00 -0.17155616185E+02 -0.36855018878E+02  0.40659140080E+02  0.00000000000E+00 0. -1.
         11    1    3    3    0    0 -0.80546105172E+00  0.23272334800E+00  0.10036011614E+00  0.84439331865E+00  0.51100000000E-03 0. -1.
        -11    1    3    3    0    0 -0.11068438263E+02  0.14076484974E+02  0.33097447820E+02  0.37631088309E+02  0.51100000000E-03 0.  1.
         12    1    3    3    0    0  0.11126845854E+02  0.28464078635E+01  0.36572109412E+01  0.12053378292E+02  0.00000000000E+00 0. -1.
</event>
<event>
 7    1  0.2661323E-011  0.5052885E+02  0.7816164E-02  0.1300439E+00
        -11   -1    0    0    0    0  0.00000000000E+00  0.00000000000E+00  0.45593999997E+02  0.45594000000E+02  0.51100000000E-03 0. -1.
         11   -1    0    0    0    0 -0.00000000000E+00 -0.00000000000E+00 -0.45593999997E+02  0.45594000000E+02  0.51100000000E-03 0.  1.
    9900012    2    1    2    0    0  0.21746441248E+02  0.80037085149E+01 -0.33409576803E+02  0.50528845076E+02  0.29999955093E+02 0.  0.
         12    1    1    2    0    0 -0.21746441248E+02 -0.80037085149E+01  0.33409576803E+02  0.40659154924E+02  0.00000000000E+00 0. -1.
         11    1    3    3    0    0  0.17796736353E+02  0.80889159262E+00 -0.15638703316E+02  0.23705424951E+02  0.51100000000E-03 0. -1.
        -11    1    3    3    0    0  0.10958797840E+02  0.48287252063E+01 -0.14299516129E+02  0.18651755922E+02  0.51100000000E-03 0.  1.
         12    1    3    3    0    0 -0.70090929457E+01  0.23660917160E+01 -0.34713573591E+01  0.81716642029E+01  0.00000000000E+00 0. -1.
</event>
<event>
 7    1  0.2661323E-011  0.5052887E+02  0.7816164E-02  0.1300439E+00
        -11   -1    0    0    0    0  0.00000000000E+00  0.00000000000E+00  0.45593999997E+02  0.45594000000E+02  0.51100000000E-03 0.  1.
         11   -1    0    0    0    0 -0.00000000000E+00 -0.00000000000E+00 -0.45593999997E+02  0.45594000000E+02  0.51100000000E-03 0. -1.
    9900012    2    1    2    0    0  0.11857620835E+02 -0.75580226949E+01  0.38150199714E+02  0.50528872892E+02  0.30000039643E+02 0.  0.
         12    1    1    2    0    0 -0.11857620835E+02  0.75580226949E+01 -0.38150199714E+02  0.40659127108E+02  0.00000000000E+00 0. -1.
         11    1    3    3    0    0 -0.25786210433E+01 -0.69429986919E+01 -0.14708309834E+01  0.75510172403E+01  0.51100000000E-03 0.  1.
        -11    1    3    3    0    0  0.17500407852E+01  0.24925347970E-01  0.16540445284E+02  0.16632786732E+02  0.51100000000E-03 0. -1.
        -12    1    3    3    0    0  0.12686201093E+02 -0.63994935097E+00  0.23080585414E+02  0.26345068920E+02  0.00000000000E+00 0.  1.
</event>
<event>
 7    1  0.2661323E-011  0.5052886E+02  0.7816164E-02  0.1300439E+00
        -11   -1    0    0    0    0  0.00000000000E+00  0.00000000000E+00  0.45593999997E+02  0.45594000000E+02  0.51100000000E-03 0. -1.
         11   -1    0    0    0    0 -0.00000000000E+00 -0.00000000000E+00 -0.45593999997E+02  0.45594000000E+02  0.51100000000E-03 0.  1.
    9900012    2    1    2    0    0  0.49375150098E+01 -0.72599656971E+01 -0.39699865786E+02  0.50528862038E+02  0.30000006650E+02 0.  0.
         12    1    1    2    0    0 -0.49375150098E+01  0.72599656971E+01  0.39699865786E+02  0.40659137962E+02  0.00000000000E+00 0. -1.
         11    1    3    3    0    0 -0.10993263371E+02 -0.24117706922E+01 -0.14947272121E+02  0.18710676672E+02  0.51100000000E-03 0. -1.
        -11    1    3    3    0    0  0.93526763066E+01 -0.63292478827E+01 -0.82330012958E+01  0.13975487235E+02  0.51100000000E-03 0.  1.
        -12    1    3    3    0    0  0.65781020742E+01  0.14810528778E+01 -0.16519592369E+02  0.17842698130E+02  0.00000000000E+00 0.  1.
</event>
<event>
 7    1  0.2661323E-011  0.5052887E+02  0.7816164E-02  0.1300439E+00
        -11   -1    0    0    0    0  0.00000000000E+00  0.00000000000E+00  0.45593999997E+02  0.45594000000E+02  0.51100000000E-03 0.  1.
         11   -1    0    0    0    0 -0.00000000000E+00 -0.00000000000E+00 -0.45593999997E+02  0.45594000000E+02  0.51100000000E-03 0. -1.
    9900012    2    1    2    0    0  0.77883928849E+01  0.19083324783E+02  0.35047577609E+02  0.50528867634E+02  0.30000023660E+02 0.  0.
         12    1    1    2    0    0 -0.77883928849E+01 -0.19083324783E+02 -0.35047577609E+02  0.40659132366E+02  0.00000000000E+00 0. -1.
         11    1    3    3    0    0 -0.74435739957E+00 -0.16035967479E+01  0.20042310141E+01  0.26725517183E+01  0.51100000000E-03 0. -1.
        -11    1    3    3    0    0 -0.74067084719E+01  0.23971463967E+01  0.17202201450E+02  0.18881773652E+02  0.51100000000E-03 0.  1.
        -12    1    3    3    0    0  0.15939458756E+02  0.18289775134E+02  0.15841145145E+02  0.28974542264E+02  0.00000000000E+00 0.  1.
</event>
<event>
 7    1  0.2661323E-011  0.5052885E+02  0.7816164E-02  0.1300439E+00
        -11   -1    0    0    0    0  0.00000000000E+00  0.00000000000E+00  0.45593999997E+02  0.45594000000E+02  0.51100000000E-03 0.  1.
         11   -1    0    0    0    0 -0.00000000000E+00 -0.00000000000E+00 -0.45593999997E+02  0.45594000000E+02  0.51100000000E-03 0. -1.
    9900012    2    1    2    0    0  0.15060361359E+02 -0.29397835043E+02  0.23709060006E+02  0.50528847084E+02  0.29999961197E+02 0.  0.
         12    1    1    2    0    0 -0.15060361359E+02  0.29397835043E+02 -0.23709060006E+02  0.40659152916E+02  0.00000000000E+00 0. -1.
         11    1    3    3    0    0  0.43258433140E+01 -0.10076355332E+01 -0.19024867159E+01  0.48319463687E+01  0.51100000000E-03 0.  1.
        -11    1    3    3    0    0  0.15744616473E+02 -0.14647609475E+02  0.83438482536E+01  0.23066538864E+02  0.51100000000E-03 0. -1.
        -12    1    3    3    0    0 -0.50100984287E+01 -0.13742590035E+02  0.17267698468E+02  0.22630361851E+02  0.00000000000E+00 0.  1.
</event>
<event>
 7    1  0.2661323E-011  0.5052886E+02  0.7816164E-02  0.1300439E+00
        -11   -1    0    0    0    0  0.00000000000E+00  0.00000000000E+00  0.45593999997E+02  0.45594000000E+02  0.51100000000E-03 0.  1.
         11   -1    0    0    0    0 -0.00000000000E+00 -0.00000000000E+00 -0.45593999997E+02  0.45594000000E+02  0.51100000000E-03 0. -1.
    9900012    2    1    2    0    0 -0.27858456236E+02  0.24285473870E+02 -0.16949571129E+02  0.50528858514E+02  0.29999995938E+02 0.  0.
         12    1    1    2    0    0  0.27858456236E+02 -0.24285473870E+02  0.16949571129E+02  0.40659141486E+02  0.00000000000E+00 0. -1.
         11    1    3    3    0    0  0.45204329968E+00  0.34800765593E+01  0.76793841197E+00  0.35923537784E+01  0.51100000000E-03 0. -1.
        -11    1    3    3    0    0 -0.15904380837E+02  0.25605466507E+02 -0.12927741834E+02  0.32798105952E+02  0.51100000000E-03 0.  1.
         12    1    3    3    0    0 -0.12406118699E+02 -0.48000691964E+01 -0.47897677064E+01  0.14138398783E+02  0.00000000000E+00 0. -1.
</event>
<event>
 7    1  0.2661323E-011  0.5052886E+02  0.7816164E-02  0.1300439E+00
        -11   -1    0    0    0    0  0.00000000000E+00  0.00000000000E+00  0.45593999997E+02  0.45594000000E+02  0.51100000000E-03 0. -1.
         11   -1    0    0    0    0 -0.00000000000E+00 -0.00000000000E+00 -0.45593999997E+02  0.45594000000E+02  0.51100000000E-03 0.  1.
    9900012    2    1    2    0    0  0.56918852518E+01 -0.33327490498E+01 -0.40120577617E+02  0.50528861762E+02  0.30000005812E+02 0.  0.
         12    1    1    2    0    0 -0.56918852518E+01  0.33327490498E+01  0.40120577617E+02  0.40659138238E+02  0.00000000000E+00 0. -1.
         11    1    3    3    0    0 -0.75177887590E+00 -0.59433681552E+01 -0.13431705602E+02  0.14707124537E+02  0.51100000000E-03 0. -1.
        -11    1    3    3    0    0  0.29270328908E+01 -0.76376679626E+01 -0.22943388369E+02  0.24357761875E+02  0.51100000000E-03 0.  1.
         12    1    3    3    0    0  0.35166312368E+01  0.10248287068E+02 -0.37454836457E+01  0.11463975350E+02  0.00000000000E+00 0. -1.
</event>
<event>
 7    1  0.2661323E-011  0.5052887E+02  0.7816164E-02  0.1300439E+00
        -11   -1    0    0    0    0  0.00000000000E+00  0.00000000000E+00  0.45593999997E+02  0.45594000000E+02  0.51100000000E-03 0.  1.
         11   -1    0    0    0    0 -0.00000000000E+00 -0.00000000000E+00 -0.45593999997E+02  0.45594000000E+02  0.51100000000E-03 0. -1.
    9900012    2    1    2    0    0  0.19380048485E+02  0.29116855473E+02  0.20731316652E+02  0.50528867668E+02  0.30000023762E+02 0.  0.
         12    1    1    2    0    0 -0.19380048485E+02 -0.29116855473E+02 -0.20731316652E+02  0.40659132332E+02  0.00000000000E+00 0. -1.
         11    1    3    3    0    0  0.69597565069E+01 -0.69910713396E+00 -0.41138619154E+00  0.70068680792E+01  0.51100000000E-03 0. -1.
        -11    1    3    3    0    0  0.14115245872E+02  0.98383984981E+01  0.54078273080E+01  0.18035488557E+02  0.51100000000E-03 0.  1.
        -12    1    3    3    0    0 -0.16949538943E+01  0.19977564109E+02  0.15734875535E+02  0.25486511031E+02  0.00000000000E+00 0.  1.
</event>
<event>
 7    1  0.2661323E-011  0.5052886E+02  0.7816164E-02  0.1300439E+00
        -11   -1    0    0    0    0  0.00000000000E+00  0.00000000000E+00  0.45593999997E+02  0.45594000000E+02  0.51100000000E-03 0.  1.
         11   -1    0    0    0    0 -0.00000000000E+00 -0.00000000000E+00 -0.45593999997E+02  0.45594000000E+02  0.51100000000E-03 0. -1.
    9900012    2    1    2    0    0 -0.15913383496E+02 -0.66848023108E+01  0.36813628055E+02  0.50528861214E+02  0.30000004146E+02 0.  0.
         12    1    1    2    0    0  0.15913383496E+02  0.66848023108E+01 -0.36813628055E+02  0.40659138786E+02  0.00000000000E+00 0. -1.
         11    1    3    3    0    0 -0.79544116197E+01 -0.19877265410E+01  0.78639634772E+01  0.11360706089E+02  0.51100000000E-03 0. -1.
        -11    1    3    3    0    0 -0.84289772760E+01  0.64161401136E+01  0.25354467934E+02  0.27478419830E+02  0.51100000000E-03 0.  1.
         12    1    3    3    0    0  0.47000540007E+00 -0.11113215883E+02  0.35951966438E+01  0.11689735294E+02  0.00000000000E+00 0. -1.
</event>
<event>
 7    1  0.2661323E-011  0.5052888E+02  0.7816164E-02  0.1300439E+00
        -11   -1    0    0    0    0  0.00000000000E+00  0.00000000000E+00  0.45593999997E+02  0.45594000000E+02  0.51100000000E-03 0.  1.
         11   -1    0    0    0    0 -0.00000000000E+00 -0.00000000000E+00 -0.45593999997E+02  0.45594000000E+02  0.51100000000E-03 0. -1.
    9900012    2    1    2    0    0 -0.20451961616E+02 -0.30039241327E+02  0.18235271008E+02  0.50528882176E+02  0.30000067863E+02 0.  0.
         12    1    1    2    0    0  0.20451961616E+02  0.30039241327E+02 -0.18235271008E+02  0.40659117824E+02  0.00000000000E+00 0. -1.
         11    1    3    3    0    0 -0.11401900561E+02 -0.21628761626E+02  0.36667526587E+01  0.24723505843E+02  0.51100000000E-03 0. -1.
        -11    1    3    3    0    0 -0.56859839559E+01 -0.13773802541E+02  0.92674264530E+01  0.17548026764E+02  0.51100000000E-03 0.  1.
         12    1    3    3    0    0 -0.33640770986E+01  0.53633228396E+01  0.53010918967E+01  0.82573495690E+01  0.00000000000E+00 0. -1.
</event>
<event>
 7    1  0.2661323E-011  0.5052886E+02  0.7816164E-02  0.1300439E+00
        -11   -1    0    0    0    0  0.00000000000E+00  0.00000000000E+00  0.45593999997E+02  0.45594000000E+02  0.51100000000E-03 0. -1.
         11   -1    0    0    0    0 -0.00000000000E+00 -0.00000000000E+00 -0.45593999997E+02  0.45594000000E+02  0.51100000000E-03 0.  1.
    9900012    2    1    2    0    0 -0.29674968620E+02  0.14889764875E+02 -0.23470342191E+02  0.50528858061E+02  0.29999994563E+02 0.  0.
         12    1    1    2    0    0  0.29674968620E+02 -0.14889764875E+02  0.23470342191E+02  0.40659141939E+02  0.00000000000E+00 0. -1.
         11    1    3    3    0    0 -0.97246805326E+01 -0.34592873319E+01 -0.11079257701E+02  0.15142193757E+02  0.51100000000E-03 0. -1.
        -11    1    3    3    0    0 -0.16304198746E+02  0.31818285074E+01 -0.10550771615E+02  0.19679169478E+02  0.51100000000E-03 0.  1.
         12    1    3    3    0    0 -0.36460893418E+01  0.15167223700E+02 -0.18403128745E+01  0.15707494827E+02  0.00000000000E+00 0. -1.
</event>
<event>
 7    1  0.2661323E-011  0.5052887E+02  0.7816164E-02  0.1300439E+00
        -11   -1    0    0    0    0  0.00000000000E+00  0.00000000000E+00  0.45593999997E+02  0.45594000000E+02  0.51100000000E-03 0.  1.
         11   -1    0    0    0    0 -0.00000000000E+00 -0.00000000000E+00 -0.45593999997E+02  0.45594000000E+02  0.51100000000E-03 0. -1.
    9900012    2    1    2    0    0  0.22335948434E+02 -0.26010546367E+02  0.21856842810E+02  0.50528871968E+02  0.30000036833E+02 0.  0.
         12    1    1    2    0    0 -0.22335948434E+02  0.26010546367E+02 -0.21856842810E+02  0.40659128032E+02  0.00000000000E+00 0. -1.
         11    1    3    3    0    0  0.68465355818E+01 -0.15140758742E+02  0.40985359875E+01  0.17114777891E+02  0.51100000000E-03 0. -1.
        -11    1    3    3    0    0  0.91400771966E+01 -0.16706371259E+02  0.15350829804E+02  0.24460004655E+02  0.51100000000E-03 0.  1.
         12    1    3    3    0    0  0.63493356556E+01  0.58365836340E+01  0.24074770184E+01  0.89540894221E+01  0.00000000000E+00 0. -1.
</event>
<event>
 7    1  0.2661323E-011  0.5052886E+02  0.7816164E-02  0.1300439E+00
        -11   -1    0    0    0    0  0.00000000000E+00  0.00000000000E+00  0.45593999997E+02  0.45594000000E+02  0.51100000000E-03 0.  1.
         11   -1    0    0    0    0 -0.00000000000E+00 -0.00000000000E+00 -0.45593999997E+02  0.45594000000E+02  0.51100000000E-03 0. -1.
    9900012    2    1    2    0    0 -0.12108778877E+02  0.37605582221E+01  0.38631615488E+02  0.50528855405E+02  0.29999986488E+02 0.  0.
         12    1    1    2    0    0  0.12108778877E+02 -0.37605582221E+01 -0.38631615488E+02  0.40659144595E+02  0.00000000000E+00 0. -1.
         11    1    3    3    0    0 -0.32274197732E+01 -0.81975553037E+01  0.16348824503E+02  0.18571489285E+02  0.51100000000E-03 0. -1.
        -11    1    3    3    0    0 -0.11237068451E+02  0.80012174685E+00  0.87776526004E+01  0.14281424565E+02  0.51100000000E-03 0.  1.
         12    1    3    3    0    0  0.23557093474E+01  0.11157991779E+02  0.13505138384E+02  0.17675941555E+02  0.00000000000E+00 0. -1.
</event>
<event>
 7    1  0.2661323E-011  0.5052886E+02  0.7816164E-02  0.1300439E+00
        -11   -1    0    0    0    0  0.00000000000E+00  0.00000000000E+00  0.45593999997E+02  0.45594000000E+02  0.51100000000E-03 0.  1.
         11   -1    0    0    0    0 -0.00000000000E+00 -0.00000000000E+00 -0.45593999997E+02  0.45594000000E+02  0.51100000000E-03 0. -1.
    9900012    2    1    2    0    0  0.12994758241E+02 -0.10307322195E+02  0.37122246238E+02  0.50528858367E+02  0.29999995493E+02 0.  0.
         12    1    1    2    0    0 -0.12994758241E+02  0.10307322195E+02 -0.37122246238E+02  0.40659141633E+02  0.00000000000E+00 0. -1.
         11    1    3    3    0    0 -0.54824994860E+01 -0.74929921969E+01  0.59680927477E+01  0.11037248932E+02  0.51100000000E-03 0. -1.
        -11    1    3    3    0    0  0.32081292456E+01 -0.25565847984E+01  0.20413152326E+02  0.20821263344E+02  0.51100000000E-03 0.  1.
         12    1    3    3    0    0  0.15269128481E+02 -0.25774519970E+00  0.10741001164E+02  0.18670346092E+02  0.00000000000E+00 0. -1.
</event>
<event>
 7    1  0.2661323E-011  0.5052887E+02  0.7816164E-02  0.1300439E+00
        -11   -1    0    0    0    0  0.00000000000E+00  0.00000000000E+00  0.45593999997E+02  0.45594000000E+02  0.51100000000E-03 0.  1.
         11   -1    0    0    0    0 -0.00000000000E+00 -0.00000000000E+00 -0.45593999997E+02  0.45594000000E+02  0.51100000000E-03 0. -1.
    9900012    2    1    2    0    0  0.37708831145E+02  0.14706416132E+02 -0.38640050838E+01  0.50528866253E+02  0.30000019462E+02 0.  0.
         12    1    1    2    0    0 -0.37708831145E+02 -0.14706416132E+02  0.38640050838E+01  0.40659133747E+02  0.00000000000E+00 0. -1.
         11    1    3    3    0    0  0.52348283100E+01 -0.62951932562E+01 -0.22281969574E+01  0.84851486440E+01  0.51100000000E-03 0.  1.
        -11    1    3    3    0    0  0.19095841714E+02  0.55236551898E+01 -0.66830525010E+01  0.20972008211E+02  0.51100000000E-03 0. -1.
        -12    1    3    3    0    0  0.13378161121E+02  0.15477954198E+02  0.50472443746E+01  0.21071709398E+02  0.00000000000E+00 0.  1.
</event>
<event>
 7    1  0.2661323E-011  0.5052886E+02  0.7816164E-02  0.1300439E+00
        -11   -1    0    0    0    0  0.00000000000E+00  0.00000000000E+00  0.45593999997E+02  0.45594000000E+02  0.51100000000E-03 0.  1.
         11   -1    0    0    0    0 -0.00000000000E+00 -0.00000000000E+00 -0.45593999997E+02  0.45594000000E+02  0.51100000000E-03 0. -1.
    9900012    2    1    2    0    0  0.25264959289E+02 -0.29298094188E+02  0.12508755220E+02  0.50528862674E+02  0.30000008583E+02 0.  0.
         12    1    1    2    0    0 -0.25264959289E+02  0.29298094188E+02 -0.12508755220E+02  0.40659137326E+02  0.00000000000E+00 0. -1.
         11    1    3    3    0    0  0.54526811978E+00 -0.29258527777E+01  0.45326743759E+01  0.54224596872E+01  0.51100000000E-03 0. -1.
        -11    1    3    3    0    0  0.29619757419E+02 -0.25150512315E+02  0.91538367858E+01  0.39920809454E+02  0.51100000000E-03 0.  1.
         12    1    3    3    0    0 -0.49000662495E+01 -0.12217290957E+01 -0.11777559418E+01  0.51855935332E+01  0.00000000000E+00 0. -1.
</event>
<event>
 7    1  0.2661323E-011  0.5052887E+02  0.7816164E-02  0.1300439E+00
        -11   -1    0    0    0    0  0.00000000000E+00  0.00000000000E+00  0.45593999997E+02  0.45594000000E+02  0.51100000000E-03 0. -1.
         11   -1    0    0    0    0 -0.00000000000E+00 -0.00000000000E+00 -0.45593999997E+02  0.45594000000E+02  0.51100000000E-03 0.  1.
    9900012    2    1    2    0    0  0.59704259387E+01 -0.32790496507E+02 -0.23287382371E+02  0.50528870339E+02  0.30000031883E+02 0.  0.
         12    1    1    2    0    0 -0.59704259387E+01  0.32790496507E+02  0.23287382371E+02  0.40659129661E+02  0.00000000000E+00 0. -1.
         11    1    3    3    0    0  0.91184765427E+01 -0.23139978820E+02 -0.14623010679E+02  0.28851996046E+02  0.51100000000E-03 0. -1.
        -11    1    3    3    0    0  0.22477591674E+01 -0.10929757495E+02 -0.10991626690E+02  0.15662946010E+02  0.51100000000E-03 0.  1.
        -12    1    3    3    0    0 -0.53958097714E+01  0.12792398073E+01  0.23272549974E+01  0.60139282833E+01  0.00000000000E+00 0.  1.
</event>
<event>
 7    1  0.2661323E-011  0.5052886E+02  0.7816164E-02  0.1300439E+00
        -11   -1    0    0    0    0  0.00000000000E+00  0.00000000000E+00  0.45593999997E+02  0.45594000000E+02  0.51100000000E-03 0. -1.
         11   -1    0    0    0    0 -0.00000000000E+00 -0.00000000000E+00 -0.45593999997E+02  0.45594000000E+02  0.51100000000E-03 0.  1.
    9900012    2    1    2    0    0 -0.20183018227E+02  0.27925502340E+02 -0.21586521204E+02  0.50528858305E+02  0.29999995303E+02 0.  0.
         12    1    1    2    0    0  0.20183018227E+02 -0.27925502340E+02  0.21586521204E+02  0.40659141695E+02  0.00000000000E+00 0. -1.
         11    1    3    3    0    0 -0.15423799593E+02  0.19057391052E+02 -0.14445205581E+02  0.28455960924E+02  0.51100000000E-03 0. -1.
        -11    1    3    3    0    0 -0.69975351203E+01  0.97600778580E+01 -0.11794705220E+02  0.16832697022E+02  0.51100000000E-03 0.  1.
         12    1    3    3    0    0  0.22383164859E+01 -0.89196656940E+00  0.46533895971E+01  0.52402003582E+01  0.00000000000E+00 0. -1.
</event>
<event>
 7    1  0.2661323E-011  0.5052889E+02  0.7816164E-02  0.1300439E+00
        -11   -1    0    0    0    0  0.00000000000E+00  0.00000000000E+00  0.45593999997E+02  0.45594000000E+02  0.51100000000E-03 0. -1.
         11   -1    0    0    0    0 -0.00000000000E+00 -0.00000000000E+00 -0.45593999997E+02  0.45594000000E+02  0.51100000000E-03 0.  1.
    9900012    2    1    2    0    0 -0.36111909910E+02 -0.44272290339E+01 -0.18151946505E+02  0.50528885939E+02  0.30000079300E+02 0.  0.
         12    1    1    2    0    0  0.36111909910E+02  0.44272290339E+01  0.18151946505E+02  0.40659114061E+02  0.00000000000E+00 0. -1.
         11    1    3    3    0    0 -0.14771801346E+02 -0.12276528467E+02 -0.36877981887E+01  0.19558096072E+02  0.51100000000E-03 0. -1.
        -11    1    3    3    0    0 -0.56962832919E+01 -0.44059320095E+01 -0.59894583166E+01  0.93666157924E+01  0.51100000000E-03 0.  1.
         12    1    3    3    0    0 -0.15643825273E+02  0.12255231443E+02 -0.84746899999E+01  0.21604174075E+02  0.00000000000E+00 0. -1.
</event>
<event>
 7    1  0.2661323E-011  0.5052886E+02  0.7816164E-02  0.1300439E+00
        -11   -1    0    0    0    0  0.00000000000E+00  0.00000000000E+00  0.45593999997E+02  0.45594000000E+02  0.51100000000E-03 0. -1.
         11   -1    0    0    0    0 -0.00000000000E+00 -0.00000000000E+00 -0.45593999997E+02  0.45594000000E+02  0.51100000000E-03 0.  1.
    9900012    2    1    2    0    0 -0.97871900722E+01 -0.39382539159E+02  0.25282072397E+01  0.50528864348E+02  0.30000013671E+02 0.  0.
         12    1    1    2    0    0  0.97871900722E+01  0.39382539159E+02 -0.25282072397E+01  0.40659135652E+02  0.00000000000E+00 0. -1.
         11    1    3    3    0    0  0.31922494122E+01  0.28667106169E+01  0.14515142219E+01  0.45293906730E+01  0.51100000000E-03 0. -1.
        -11    1    3    3    0    0 -0.23987440210E+01 -0.19254493055E+01 -0.27623482665E+01  0.41342346465E+01  0.51100000000E-03 0.  1.
        -12    1    3    3    0    0 -0.10580695463E+02 -0.40323800471E+02  0.38390412842E+01  0.41865239028E+02  0.00000000000E+00 0.  1.
</event>
<event>
 7    1  0.2661323E-011  0.5052886E+02  0.7816164E-02  0.1300439E+00
        -11   -1    0    0    0    0  0.00000000000E+00  0.00000000000E+00  0.45593999997E+02  0.45594000000E+02  0.51100000000E-03 0.  1.
         11   -1    0    0    0    0 -0.00000000000E+00 -0.00000000000E+00 -0.45593999997E+02  0.45594000000E+02  0.51100000000E-03 0. -1.
    9900012    2    1    2    0    0 -0.12589133592E+02 -0.32164175133E+02  0.21450995289E+02  0.50528860247E+02  0.30000001207E+02 0.  0.
         12    1    1    2    0    0  0.12589133592E+02  0.32164175133E+02 -0.21450995289E+02  0.40659139753E+02  0.00000000000E+00 0. -1.
         11    1    3    3    0    0  0.68663733022E+01 -0.23666372563E+01  0.49922714376E+00  0.72799232297E+01  0.51100000000E-03 0.  1.
        -11    1    3    3    0    0  0.17737289151E+01 -0.10608908774E+01  0.70894217184E+00  0.21849949616E+01  0.51100000000E-03 0. -1.
        -12    1    3    3    0    0 -0.21229235810E+02 -0.28736646999E+02  0.20242825973E+02  0.41063942056E+02  0.00000000000E+00 0.  1.
</event>
<event>
 7    1  0.2661323E-011  0.5052887E+02  0.7816164E-02  0.1300439E+00
        -11   -1    0    0    0    0  0.00000000000E+00  0.00000000000E+00  0.45593999997E+02  0.45594000000E+02  0.51100000000E-03 0. -1.
         11   -1    0    0    0    0 -0.00000000000E+00 -0.00000000000E+00 -0.45593999997E+02  0.45594000000E+02  0.51100000000E-03 0.  1.
    9900012    2    1    2    0    0 -0.31718905756E+02 -0.23429417613E+02 -0.99064845968E+01  0.50528867827E+02  0.30000024246E+02 0.  0.
         12    1    1    2    0    0  0.31718905756E+02  0.23429417613E+02  0.99064845968E+01  0.40659132173E+02  0.00000000000E+00 0. -1.
         11    1    3    3    0    0 -0.54666256423E+01 -0.74430713475E+01 -0.10435267724E+02  0.13934780936E+02  0.51100000000E-03 0. -1.
        -11    1    3    3    0    0 -0.30375735916E+01 -0.32599545165E+01  0.79376098664E+01  0.91027362604E+01  0.51100000000E-03 0.  1.
        -12    1    3    3    0    0 -0.23214706522E+02 -0.12726391749E+02 -0.74088267387E+01  0.27491350630E+02  0.00000000000E+00 0.  1.
</event>
<event>
 7    1  0.2661323E-011  0.5052886E+02  0.7816164E-02  0.1300439E+00
        -11   -1    0    0    0    0  0.00000000000E+00  0.00000000000E+00  0.45593999997E+02  0.45594000000E+02  0.51100000000E-03 0.  1.
         11   -1    0    0    0    0 -0.00000000000E+00 -0.00000000000E+00 -0.45593999997E+02  0.45594000000E+02  0.51100000000E-03 0. -1.
    9900012    2    1    2    0    0  0.73443726281E+01  0.17753614023E+02  0.35833433252E+02  0.50528861313E+02  0.30000004447E+02 0.  0.
         12    1    1    2    0    0 -0.73443726281E+01 -0.17753614023E+02 -0.35833433252E+02  0.40659138687E+02  0.00000000000E+00 0. -1.
         11    1    3    3    0    0  0.21375220708E+01  0.76739174625E+01  0.12458145512E+02  0.14787271543E+02  0.51100000000E-03 0. -1.
        -11    1    3    3    0    0 -0.70365779081E+01  0.93791495323E+01  0.19724230761E+02  0.22946179507E+02  0.51100000000E-03 0.  1.
         12    1    3    3    0    0  0.12243428465E+02  0.70054702786E+00  0.36510569787E+01  0.12795410263E+02  0.00000000000E+00 0. -1.
</event>
<event>
 7    1  0.2661323E-011  0.5052886E+02  0.7816164E-02  0.1300439E+00
        -11   -1    0    0    0    0  0.00000000000E+00  0.00000000000E+00  0.45593999997E+02  0.45594000000E+02  0.51100000000E-03 0.  1.
         11   -1    0    0    0    0 -0.00000000000E+00 -0.00000000000E+00 -0.45593999997E+02  0.45594000000E+02  0.51100000000E-03 0. -1.
    9900012    2    1    2    0    0 -0.97803275013E+01 -0.26450617452E+02  0.29289515555E+02  0.50528859686E+02  0.29999999503E+02 0.  0.
         12    1    1    2    0    0  0.97803275013E+01  0.26450617452E+02 -0.29289515555E+02  0.40659140314E+02  0.00000000000E+00 0. -1.
         11    1    3    3    0    0 -0.60524726907E+01 -0.15736687320E+02  0.92262309586E+01  0.19219757840E+02  0.51100000000E-03 0. -1.
        -11    1    3    3    0    0 -0.11253353733E+02 -0.77818269638E+00  0.11971829381E+02  0.16448958555E+02  0.51100000000E-03 0.  1.
         12    1    3    3    0    0  0.75254989226E+01 -0.99357474353E+01  0.80914552148E+01  0.14860143291E+02  0.00000000000E+00 0. -1.
</event>
<event>
 7    1  0.2661323E-011  0.5052877E+02  0.7816164E-02  0.1300439E+00
        -11   -1    0    0    0    0  0.00000000000E+00  0.00000000000E+00  0.45593999997E+02  0.45594000000E+02  0.51100000000E-03 0. -1.
         11   -1    0    0    0    0 -0.00000000000E+00 -0.00000000000E+00 -0.45593999997E+02  0.45594000000E+02  0.51100000000E-03 0.  1.
    9900012    2    1    2    0    0  0.36980490887E+02  0.15226085533E+02  0.73336583444E+01  0.50528770647E+02  0.29999728856E+02 0.  0.
         12    1    1    2    0    0 -0.36980490887E+02 -0.15226085533E+02 -0.73336583444E+01  0.40659229353E+02  0.00000000000E+00 0. -1.
         11    1    3    3    0    0  0.28575880037E+02  0.12005606345E+02  0.23130386593E+01  0.31081596672E+02  0.51100000000E-03 0. -1.
        -11    1    3    3    0    0  0.12252997858E+02  0.63464881226E+01  0.41810547106E+01  0.14418567431E+02  0.51100000000E-03 0.  1.
         12    1    3    3    0    0 -0.38483870082E+01 -0.31260089346E+01  0.83956497440E+00  0.50286065436E+01  0.00000000000E+00 0. -1.
</event>
<event>
 7    1  0.2661323E-011  0.5052887E+02  0.7816164E-02  0.1300439E+00
        -11   -1    0    0    0    0  0.00000000000E+00  0.00000000000E+00  0.45593999997E+02  0.45594000000E+02  0.51100000000E-03 0.  1.
         11   -1    0    0    0    0 -0.00000000000E+00 -0.00000000000E+00 -0.45593999997E+02  0.45594000000E+02  0.51100000000E-03 0. -1.
    9900012    2    1    2    0    0  0.16596336797E+02  0.36789426836E+02 -0.49259411164E+01  0.50528865505E+02  0.30000017190E+02 0.  0.
         12    1    1    2    0    0 -0.16596336797E+02 -0.36789426836E+02  0.49259411164E+01  0.40659134495E+02  0.00000000000E+00 0. -1.
         11    1    3    3    0    0  0.26820911124E+01  0.73250960783E+01 -0.68238656458E+01  0.10364158813E+02  0.51100000000E-03 0. -1.
        -11    1    3    3    0    0  0.13484253618E+02  0.32793574049E+02 -0.13642106856E+01  0.35483864863E+02  0.51100000000E-03 0.  1.
        -12    1    3    3    0    0  0.42999206597E+00 -0.33292432913E+01  0.32621352150E+01  0.46808418292E+01  0.00000000000E+00 0.  1.
</event>
<event>
 7    1  0.2661323E-011  0.5052891E+02  0.7816164E-02  0.1300439E+00
        -11   -1    0    0    0    0  0.00000000000E+00  0.00000000000E+00  0.45593999997E+02  0.45594000000E+02  0.51100000000E-03 0. -1.
         11   -1    0    0    0    0 -0.00000000000E+00 -0.00000000000E+00 -0.45593999997E+02  0.45594000000E+02  0.51100000000E-03 0.  1.
    9900012    2    1    2    0    0 -0.24726819986E+02 -0.34824390205E+01 -0.32087664611E+02  0.50528914566E+02  0.30000166314E+02 0.  0.
         12    1    1    2    0    0  0.24726819986E+02  0.34824390205E+01  0.32087664611E+02  0.40659085434E+02  0.00000000000E+00 0. -1.
         11    1    3    3    0    0 -0.31020861557E+00  0.73188193158E+01 -0.19985690431E+01  0.75931300558E+01  0.51100000000E-03 0. -1.
        -11    1    3    3    0    0 -0.21437902092E+02 -0.41075331202E+01 -0.16028247256E+02  0.27080623789E+02  0.51100000000E-03 0.  1.
        -12    1    3    3    0    0 -0.29787092786E+01 -0.66937252161E+01 -0.14060848312E+02  0.15855160721E+02  0.00000000000E+00 0.  1.
</event>
<event>
 7    1  0.2661323E-011  0.5052887E+02  0.7816164E-02  0.1300439E+00
        -11   -1    0    0    0    0  0.00000000000E+00  0.00000000000E+00  0.45593999997E+02  0.45594000000E+02  0.51100000000E-03 0. -1.
         11   -1    0    0    0    0 -0.00000000000E+00 -0.00000000000E+00 -0.45593999997E+02  0.45594000000E+02  0.51100000000E-03 0.  1.
    9900012    2    1    2    0    0 -0.18231741020E+02 -0.15658027063E+02 -0.32796263933E+02  0.50528866708E+02  0.30000020844E+02 0.  0.
         12    1    1    2    0    0  0.18231741020E+02  0.15658027063E+02  0.32796263933E+02  0.40659133292E+02  0.00000000000E+00 0. -1.
         11    1    3    3    0    0 -0.20081377351E+02 -0.11748748794E+02 -0.13417372926E+02  0.26857414452E+02  0.51100000000E-03 0. -1.
        -11    1    3    3    0    0 -0.44451127143E+01 -0.80353971066E+00 -0.20221618774E+01  0.49491253802E+01  0.51100000000E-03 0.  1.
        -12    1    3    3    0    0  0.62947490458E+01 -0.31057385582E+01 -0.17356729130E+02  0.18722326875E+02  0.00000000000E+00 0.  1.
</event>
<event>
 7    1  0.2661323E-011  0.5052886E+02  0.7816164E-02  0.1300439E+00
        -11   -1    0    0    0    0  0.00000000000E+00  0.00000000000E+00  0.45593999997E+02  0.45594000000E+02  0.51100000000E-03 0.  1.
         11   -1    0    0    0    0 -0.00000000000E+00 -0.00000000000E+00 -0.45593999997E+02  0.45594000000E+02  0.51100000000E-03 0. -1.
    9900012    2    1    2    0    0 -0.10312007108E+02 -0.38636750449E+02 -0.73504790453E+01  0.50528861814E+02  0.30000005970E+02 0.  0.
         12    1    1    2    0    0  0.10312007108E+02  0.38636750449E+02  0.73504790453E+01  0.40659138186E+02  0.00000000000E+00 0. -1.
         11    1    3    3    0    0 -0.52917910303E+01 -0.23083538180E+02 -0.12850838912E+02  0.26944328684E+02  0.51100000000E-03 0. -1.
        -11    1    3    3    0    0  0.34458601875E+01 -0.72087575977E+01 -0.34515480243E+01  0.87036384668E+01  0.51100000000E-03 0.  1.
         12    1    3    3    0    0 -0.84660762654E+01 -0.83444546706E+01  0.89519078911E+01  0.14880894663E+02  0.00000000000E+00 0. -1.
</event>
<event>
 7    1  0.2661323E-011  0.5052887E+02  0.7816164E-02  0.1300439E+00
        -11   -1    0    0    0    0  0.00000000000E+00  0.00000000000E+00  0.45593999997E+02  0.45594000000E+02  0.51100000000E-03 0. -1.
         11   -1    0    0    0    0 -0.00000000000E+00 -0.00000000000E+00 -0.45593999997E+02  0.45594000000E+02  0.51100000000E-03 0.  1.
    9900012    2    1    2    0    0 -0.23354481837E+02 -0.30576402483E+02 -0.13145981650E+02  0.50528867640E+02  0.30000023679E+02 0.  0.
         12    1    1    2    0    0  0.23354481837E+02  0.30576402483E+02  0.13145981650E+02  0.40659132360E+02  0.00000000000E+00 0. -1.
         11    1    3    3    0    0 -0.20197330658E+01 -0.15964089202E+02 -0.64373653825E+01  0.17331218625E+02  0.51100000000E-03 0. -1.
        -11    1    3    3    0    0  0.74893970975E-01 -0.10229084845E+02 -0.46826845111E+01  0.11250214237E+02  0.51100000000E-03 0.  1.
         12    1    3    3    0    0 -0.21409642742E+02 -0.43832284362E+01 -0.20259317568E+01  0.21947434778E+02  0.00000000000E+00 0. -1.
</event>
<event>
 7    1  0.2661323E-011  0.5052886E+02  0.7816164E-02  0.1300439E+00
        -11   -1    0    0    0    0  0.00000000000E+00  0.00000000000E+00  0.45593999997E+02  0.45594000000E+02  0.51100000000E-03 0.  1.
         11   -1    0    0    0    0 -0.00000000000E+00 -0.00000000000E+00 -0.45593999997E+02  0.45594000000E+02  0.51100000000E-03 0. -1.
    9900012    2    1    2    0    0  0.24093123081E+02 -0.14227432687E+02  0.29500289523E+02  0.50528862004E+02  0.30000006547E+02 0.  0.
         12    1    1    2    0    0 -0.24093123081E+02  0.14227432687E+02 -0.29500289523E+02  0.40659137996E+02  0.00000000000E+00 0. -1.
         11    1    3    3    0    0 -0.18928218530E+01 -0.42661977024E+01 -0.11659330692E+01  0.48106774561E+01  0.51100000000E-03 0. -1.
        -11    1    3    3    0    0 -0.77664074589E+00 -0.64801330456E+01  0.34198033990E+01  0.73681986052E+01  0.51100000000E-03 0.  1.
         12    1    3    3    0    0  0.26762585679E+02 -0.34811019392E+01  0.27246419193E+02  0.38349985943E+02  0.00000000000E+00 0. -1.
</event>
<event>
 7    1  0.2661323E-011  0.5052886E+02  0.7816164E-02  0.1300439E+00
        -11   -1    0    0    0    0  0.00000000000E+00  0.00000000000E+00  0.45593999997E+02  0.45594000000E+02  0.51100000000E-03 0.  1.
         11   -1    0    0    0    0 -0.00000000000E+00 -0.00000000000E+00 -0.45593999997E+02  0.45594000000E+02  0.51100000000E-03 0. -1.
    9900012    2    1    2    0    0  0.11822492734E+02  0.36683244052E+01  0.38729027705E+02  0.50528861724E+02  0.30000005695E+02 0.  0.
         12    1    1    2    0    0 -0.11822492734E+02 -0.36683244052E+01 -0.38729027705E+02  0.40659138276E+02  0.00000000000E+00 0. -1.
         11    1    3    3    0    0  0.12254877156E+02 -0.84583508784E+00  0.14956591209E+02  0.19354510378E+02  0.51100000000E-03 0. -1.
        -11    1    3    3    0    0  0.36537063702E+01 -0.62751328077E+01  0.15053140333E+02  0.16712985854E+02  0.51100000000E-03 0.  1.
         12    1    3    3    0    0 -0.40860907928E+01  0.10789292301E+02  0.87192961628E+01  0.14461365492E+02  0.00000000000E+00 0. -1.
</event>
<event>
 7    1  0.2661323E-011  0.5052885E+02  0.7816164E-02  0.1300439E+00
        -11   -1    0    0    0    0  0.00000000000E+00  0.00000000000E+00  0.45593999997E+02  0.45594000000E+02  0.51100000000E-03 0.  1.
         11   -1    0    0    0    0 -0.00000000000E+00 -0.00000000000E+00 -0.45593999997E+02  0.45594000000E+02  0.51100000000E-03 0. -1.
    9900012    2    1    2    0    0 -0.82914573947E+01 -0.66128984355E+01  0.39251596006E+02  0.50528849979E+02  0.29999969996E+02 0.  0.
         12    1    1    2    0    0  0.82914573947E+01  0.66128984355E+01 -0.39251596006E+02  0.40659150021E+02  0.00000000000E+00 0. -1.
         11    1    3    3    0    0  0.27525883997E+01  0.26303203174E+01  0.10019209512E+02  0.10718203552E+02  0.51100000000E-03 0. -1.
        -11    1    3    3    0    0  0.10065204061E+01  0.66216953402E+01  0.45779169671E+01  0.81127835251E+01  0.51100000000E-03 0.  1.
        -12    1    3    3    0    0 -0.12050566201E+02 -0.15864914093E+02  0.24654469527E+02  0.31697862902E+02  0.00000000000E+00 0.  1.
</event>
<event>
 7    1  0.2661323E-011  0.5052885E+02  0.7816164E-02  0.1300439E+00
        -11   -1    0    0    0    0  0.00000000000E+00  0.00000000000E+00  0.45593999997E+02  0.45594000000E+02  0.51100000000E-03 0.  1.
         11   -1    0    0    0    0 -0.00000000000E+00 -0.00000000000E+00 -0.45593999997E+02  0.45594000000E+02  0.51100000000E-03 0. -1.
    9900012    2    1    2    0    0  0.23249056492E+02  0.77041234332E+01  0.32454492946E+02  0.50528852713E+02  0.29999978308E+02 0.  0.
         12    1    1    2    0    0 -0.23249056492E+02 -0.77041234332E+01 -0.32454492946E+02  0.40659147287E+02  0.00000000000E+00 0. -1.
         11    1    3    3    0    0  0.12270310895E+02 -0.68229805035E+01  0.26426295481E+02  0.29924282540E+02  0.51100000000E-03 0. -1.
        -11    1    3    3    0    0  0.48731518029E+01  0.12697397717E+01  0.23232559774E+01  0.55459323995E+01  0.51100000000E-03 0.  1.
        -12    1    3    3    0    0  0.61055937940E+01  0.13257364165E+02  0.37049414882E+01  0.15058637774E+02  0.00000000000E+00 0.  1.
</event>
<event>
 7    1  0.2661323E-011  0.5052886E+02  0.7816164E-02  0.1300439E+00
        -11   -1    0    0    0    0  0.00000000000E+00  0.00000000000E+00  0.45593999997E+02  0.45594000000E+02  0.51100000000E-03 0.  1.
         11   -1    0    0    0    0 -0.00000000000E+00 -0.00000000000E+00 -0.45593999997E+02  0.45594000000E+02  0.51100000000E-03 0. -1.
    9900012    2    1    2    0    0  0.10436505170E+02  0.39107814811E+02  0.38501903795E+01  0.50528858526E+02  0.29999995975E+02 0.  0.
         12    1    1    2    0    0 -0.10436505170E+02 -0.39107814811E+02 -0.38501903795E+01  0.40659141474E+02  0.00000000000E+00 0. -1.
         11    1    3    3    0    0 -0.99851263009E+00 -0.18725460077E+01 -0.50159186248E+01  0.54463653876E+01  0.51100000000E-03 0. -1.
        -11    1    3    3    0    0  0.11120250630E+01  0.75179918964E+01 -0.29086839615E+01  0.81373978976E+01  0.51100000000E-03 0.  1.
        -12    1    3    3    0    0  0.10322992737E+02  0.33462368922E+02  0.11774792966E+02  0.36945095241E+02  0.00000000000E+00 0.  1.
</event>
<event>
 7    1  0.2661323E-011  0.5052886E+02  0.7816164E-02  0.1300439E+00
        -11   -1    0    0    0    0  0.00000000000E+00  0.00000000000E+00  0.45593999997E+02  0.45594000000E+02  0.51100000000E-03 0.  1.
         11   -1    0    0    0    0 -0.00000000000E+00 -0.00000000000E+00 -0.45593999997E+02  0.45594000000E+02  0.51100000000E-03 0. -1.
    9900012    2    1    2    0    0 -0.31171099043E+02  0.25747701070E+02  0.43109646415E+01  0.50528856599E+02  0.29999990120E+02 0.  0.
         12    1    1    2    0    0  0.31171099043E+02 -0.25747701070E+02 -0.43109646415E+01  0.40659143401E+02  0.00000000000E+00 0. -1.
         11    1    3    3    0    0 -0.26902503871E+02  0.23809145916E+02  0.10167739928E+02  0.37336350642E+02  0.51100000000E-03 0.  1.
        -11    1    3    3    0    0 -0.67067388916E+00  0.11561329229E+01  0.31718465508E+01  0.34419554913E+01  0.51100000000E-03 0. -1.
         12    1    3    3    0    0 -0.35979212829E+01  0.78242223129E+00 -0.90286218376E+01  0.97505504661E+01  0.00000000000E+00 0. -1.
</event>
<event>
 7    1  0.2661323E-011  0.5052885E+02  0.7816164E-02  0.1300439E+00
        -11   -1    0    0    0    0  0.00000000000E+00  0.00000000000E+00  0.45593999997E+02  0.45594000000E+02  0.51100000000E-03 0. -1.
         11   -1    0    0    0    0 -0.00000000000E+00 -0.00000000000E+00 -0.45593999997E+02  0.45594000000E+02  0.51100000000E-03 0.  1.
    9900012    2    1    2    0    0 -0.83070836888E+01 -0.24326401648E+02 -0.31502139889E+02  0.50528852516E+02  0.29999977707E+02 0.  0.
         12    1    1    2    0    0  0.83070836888E+01  0.24326401648E+02  0.31502139889E+02  0.40659147484E+02  0.00000000000E+00 0. -1.
         11    1    3    3    0    0 -0.49322195611E+01 -0.78603243213E+01 -0.17061778256E+01  0.94351752113E+01  0.51100000000E-03 0. -1.
        -11    1    3    3    0    0 -0.12744153439E+02 -0.11265024594E+02 -0.14127043833E+02  0.22110802647E+02  0.51100000000E-03 0.  1.
         12    1    3    3    0    0  0.93692893115E+01 -0.52010527321E+01 -0.15668918231E+02  0.18982874657E+02  0.00000000000E+00 0. -1.
</event>
<event>
 7    1  0.2661323E-011  0.5052886E+02  0.7816164E-02  0.1300439E+00
        -11   -1    0    0    0    0  0.00000000000E+00  0.00000000000E+00  0.45593999997E+02  0.45594000000E+02  0.51100000000E-03 0.  1.
         11   -1    0    0    0    0 -0.00000000000E+00 -0.00000000000E+00 -0.45593999997E+02  0.45594000000E+02  0.51100000000E-03 0. -1.
    9900012    2    1    2    0    0 -0.12182880380E+02 -0.28683477127E+00  0.38789954741E+02  0.50528862806E+02  0.30000008986E+02 0.  0.
         12    1    1    2    0    0  0.12182880380E+02  0.28683477127E+00 -0.38789954741E+02  0.40659137194E+02  0.00000000000E+00 0. -1.
         11    1    3    3    0    0 -0.60153759010E+01  0.64294479778E+01  0.65222898454E+01  0.10957317811E+02  0.51100000000E-03 0. -1.
        -11    1    3    3    0    0 -0.10392752858E+02 -0.25603722850E+01  0.31883915491E+02  0.33632556928E+02  0.51100000000E-03 0.  1.
        -12    1    3    3    0    0  0.42252483790E+01 -0.41559104641E+01  0.38374940408E+00  0.59389880665E+01  0.00000000000E+00 0.  1.
</event>
<event>
 7    1  0.2661323E-011  0.5052887E+02  0.7816164E-02  0.1300439E+00
        -11   -1    0    0    0    0  0.00000000000E+00  0.00000000000E+00  0.45593999997E+02  0.45594000000E+02  0.51100000000E-03 0. -1.
         11   -1    0    0    0    0 -0.00000000000E+00 -0.00000000000E+00 -0.45593999997E+02  0.45594000000E+02  0.51100000000E-03 0.  1.
    9900012    2    1    2    0    0  0.25097030440E+02  0.30356604466E+02  0.10088617860E+02  0.50528873325E+02  0.30000040959E+02 0.  0.
         12    1    1    2    0    0 -0.25097030440E+02 -0.30356604466E+02 -0.10088617860E+02  0.40659126675E+02  0.00000000000E+00 0. -1.
         11    1    3    3    0    0  0.59337997912E+01  0.11339357702E+01  0.55335923537E+01  0.81924620774E+01  0.51100000000E-03 0. -1.
        -11    1    3    3    0    0  0.22692636829E+02  0.15083860446E+02  0.52397071823E+01  0.27747669160E+02  0.51100000000E-03 0.  1.
         12    1    3    3    0    0 -0.35294061799E+01  0.14138808250E+02 -0.68468167557E+00  0.14588742088E+02  0.00000000000E+00 0. -1.
</event>
<event>
 7    1  0.2661323E-011  0.5052884E+02  0.7816164E-02  0.1300439E+00
        -11   -1    0    0    0    0  0.00000000000E+00  0.00000000000E+00  0.45593999997E+02  0.45594000000E+02  0.51100000000E-03 0. -1.
         11   -1    0    0    0    0 -0.00000000000E+00 -0.00000000000E+00 -0.45593999997E+02  0.45594000000E+02  0.51100000000E-03 0.  1.
    9900012    2    1    2    0    0 -0.33409849595E+02 -0.10045831297E+02 -0.20881339635E+02  0.50528842098E+02  0.29999946040E+02 0.  0.
         12    1    1    2    0    0  0.33409849595E+02  0.10045831297E+02  0.20881339635E+02  0.40659157902E+02  0.00000000000E+00 0. -1.
         11    1    3    3    0    0 -0.15756475985E+02 -0.17211249893E+02 -0.12120825160E+02  0.26294639400E+02  0.51100000000E-03 0. -1.
        -11    1    3    3    0    0  0.99914286333E+00 -0.10840510973E+01  0.83506879059E+00  0.16943415798E+01  0.51100000000E-03 0.  1.
        -12    1    3    3    0    0 -0.18652516474E+02  0.82494696941E+01 -0.95955832654E+01  0.22539861118E+02  0.00000000000E+00 0.  1.
</event>
<event>
 7    1  0.2661323E-011  0.5052886E+02  0.7816164E-02  0.1300439E+00
        -11   -1    0    0    0    0  0.00000000000E+00  0.00000000000E+00  0.45593999997E+02  0.45594000000E+02  0.51100000000E-03 0.  1.
         11   -1    0    0    0    0 -0.00000000000E+00 -0.00000000000E+00 -0.45593999997E+02  0.45594000000E+02  0.51100000000E-03 0. -1.
    9900012    2    1    2    0    0  0.23500217729E+00 -0.28353913861E+02  0.29140446923E+02  0.50528864444E+02  0.30000013964E+02 0.  0.
         12    1    1    2    0    0 -0.23500217729E+00  0.28353913861E+02 -0.29140446923E+02  0.40659135556E+02  0.00000000000E+00 0. -1.
         11    1    3    3    0    0  0.10958265334E+02 -0.85392898065E+01  0.56034870891E+01  0.14980057321E+02  0.51100000000E-03 0. -1.
        -11    1    3    3    0    0  0.28571088747E+01 -0.83635975033E+01  0.87348516101E+01  0.12426200837E+02  0.51100000000E-03 0.  1.
         12    1    3    3    0    0 -0.13580372031E+02 -0.11451026551E+02  0.14802108224E+02  0.23122606286E+02  0.00000000000E+00 0. -1.
</event>
<event>
 7    1  0.2661323E-011  0.5052885E+02  0.7816164E-02  0.1300439E+00
        -11   -1    0    0    0    0  0.00000000000E+00  0.00000000000E+00  0.45593999997E+02  0.45594000000E+02  0.51100000000E-03 0.  1.
         11   -1    0    0    0    0 -0.00000000000E+00 -0.00000000000E+00 -0.45593999997E+02  0.45594000000E+02  0.51100000000E-03 0. -1.
    9900012    2    1    2    0    0  0.11861747298E+02 -0.26298050467E+01  0.38801408574E+02  0.50528853048E+02  0.29999979324E+02 0.  0.
         12    1    1    2    0    0 -0.11861747298E+02  0.26298050467E+01 -0.38801408574E+02  0.40659146952E+02  0.00000000000E+00 0. -1.
         11    1    3    3    0    0  0.17706190227E+01 -0.18814653724E+01 -0.18159937785E+01  0.31579799455E+01  0.51100000000E-03 0. -1.
        -11    1    3    3    0    0  0.47655599464E+01 -0.11348935943E+02  0.23739558986E+02  0.26740896951E+02  0.51100000000E-03 0.  1.
         12    1    3    3    0    0  0.53255683290E+01  0.10600596269E+02  0.16877843367E+02  0.20629976151E+02  0.00000000000E+00 0. -1.
</event>
<event>
 7    1  0.2661323E-011  0.5052886E+02  0.7816164E-02  0.1300439E+00
        -11   -1    0    0    0    0  0.00000000000E+00  0.00000000000E+00  0.45593999997E+02  0.45594000000E+02  0.51100000000E-03 0.  1.
         11   -1    0    0    0    0 -0.00000000000E+00 -0.00000000000E+00 -0.45593999997E+02  0.45594000000E+02  0.51100000000E-03 0. -1.
    9900012    2    1    2    0    0  0.12050733336E+02  0.12373982500E+02  0.36808015532E+02  0.50528860508E+02  0.30000001999E+02 0.  0.
         12    1    1    2    0    0 -0.12050733336E+02 -0.12373982500E+02 -0.36808015532E+02  0.40659139492E+02  0.00000000000E+00 0. -1.
         11    1    3    3    0    0  0.11072779939E+00  0.94964493018E+01  0.10598211598E+02  0.14230843240E+02  0.51100000000E-03 0. -1.
        -11    1    3    3    0    0  0.66172888715E+01  0.11010713486E+02  0.66711121993E+01  0.14475084169E+02  0.51100000000E-03 0.  1.
        -12    1    3    3    0    0  0.53227166650E+01 -0.81331802878E+01  0.19538691735E+02  0.21822933098E+02  0.00000000000E+00 0.  1.
</event>
<event>
 7    1  0.2661323E-011  0.5052886E+02  0.7816164E-02  0.1300439E+00
        -11   -1    0    0    0    0  0.00000000000E+00  0.00000000000E+00  0.45593999997E+02  0.45594000000E+02  0.51100000000E-03 0.  1.
         11   -1    0    0    0    0 -0.00000000000E+00 -0.00000000000E+00 -0.45593999997E+02  0.45594000000E+02  0.51100000000E-03 0. -1.
    9900012    2    1    2    0    0 -0.13707336300E+02  0.11102035144E+02  0.36633582891E+02  0.50528860213E+02  0.30000001104E+02 0.  0.
         12    1    1    2    0    0  0.13707336300E+02 -0.11102035144E+02 -0.36633582891E+02  0.40659139787E+02  0.00000000000E+00 0. -1.
         11    1    3    3    0    0 -0.77822252233E+01 -0.24347502250E+01 -0.44464164694E+00  0.81663176855E+01  0.51100000000E-03 0. -1.
        -11    1    3    3    0    0 -0.51720646453E+01  0.57673982899E+01  0.47096878875E+01  0.90661069918E+01  0.51100000000E-03 0.  1.
         12    1    3    3    0    0 -0.75304643095E+00  0.77693870794E+01  0.32368536650E+02  0.33296435536E+02  0.00000000000E+00 0. -1.
</event>
<event>
 7    1  0.2661323E-011  0.5052887E+02  0.7816164E-02  0.1300439E+00
        -11   -1    0    0    0    0  0.00000000000E+00  0.00000000000E+00  0.45593999997E+02  0.45594000000E+02  0.51100000000E-03 0. -1.
         11   -1    0    0    0    0 -0.00000000000E+00 -0.00000000000E+00 -0.45593999997E+02  0.45594000000E+02  0.51100000000E-03 0.  1.
    9900012    2    1    2    0    0  0.22200845134E+02  0.95915575680E+01 -0.32684699221E+02  0.50528867392E+02  0.30000022925E+02 0.  0.
         12    1    1    2    0    0 -0.22200845134E+02 -0.95915575680E+01  0.32684699221E+02  0.40659132608E+02  0.00000000000E+00 0. -1.
         11    1    3    3    0    0  0.12387091058E+02  0.22862330678E+01 -0.32650849054E+02  0.34996354535E+02  0.51100000000E-03 0. -1.
        -11    1    3    3    0    0 -0.15619946720E+01  0.59535504370E+00 -0.14976731959E+01  0.22443930685E+01  0.51100000000E-03 0.  1.
         12    1    3    3    0    0  0.11375748748E+02  0.67099694565E+01  0.14638230282E+01  0.13288119789E+02  0.00000000000E+00 0. -1.
</event>
<event>
 7    1  0.2661323E-011  0.5052885E+02  0.7816164E-02  0.1300439E+00
        -11   -1    0    0    0    0  0.00000000000E+00  0.00000000000E+00  0.45593999997E+02  0.45594000000E+02  0.51100000000E-03 0.  1.
         11   -1    0    0    0    0 -0.00000000000E+00 -0.00000000000E+00 -0.45593999997E+02  0.45594000000E+02  0.51100000000E-03 0. -1.
    9900012    2    1    2    0    0 -0.28949741585E+02 -0.19309488305E+02  0.21029083183E+02  0.50528853231E+02  0.29999979881E+02 0.  0.
         12    1    1    2    0    0  0.28949741585E+02  0.19309488305E+02 -0.21029083183E+02  0.40659146769E+02  0.00000000000E+00 0. -1.
         11    1    3    3    0    0 -0.14174425062E+02  0.28359748224E+01  0.25177311861E+01  0.14672970034E+02  0.51100000000E-03 0. -1.
        -11    1    3    3    0    0  0.20934761646E+01 -0.16363881228E+01  0.58739735364E+01  0.64470127895E+01  0.51100000000E-03 0.  1.
        -12    1    3    3    0    0 -0.16868792688E+02 -0.20509075005E+02  0.12637378461E+02  0.29408870408E+02  0.00000000000E+00 0.  1.
</event>
<event>
 7    1  0.2661323E-011  0.5052886E+02  0.7816164E-02  0.1300439E+00
        -11   -1    0    0    0    0  0.00000000000E+00  0.00000000000E+00  0.45593999997E+02  0.45594000000E+02  0.51100000000E-03 0.  1.
         11   -1    0    0    0    0 -0.00000000000E+00 -0.00000000000E+00 -0.45593999997E+02  0.45594000000E+02  0.51100000000E-03 0. -1.
    9900012    2    1    2    0    0 -0.35361117430E+02  0.97259802620E+01  0.17554549859E+02  0.50528861560E+02  0.30000005196E+02 0.  0.
         12    1    1    2    0    0  0.35361117430E+02 -0.97259802620E+01 -0.17554549859E+02  0.40659138440E+02  0.00000000000E+00 0. -1.
         11    1    3    3    0    0 -0.60968917805E+01  0.13424944324E+02  0.56944138839E+01  0.15805934621E+02  0.51100000000E-03 0. -1.
        -11    1    3    3    0    0 -0.27986364898E+00 -0.35056167629E+01  0.34253131988E+00  0.35334120219E+01  0.51100000000E-03 0.  1.
        -12    1    3    3    0    0 -0.28984362001E+02 -0.19334729927E+00  0.11517604656E+02  0.31189514917E+02  0.00000000000E+00 0.  1.
</event>
<event>
 7    1  0.2661323E-011  0.5052887E+02  0.7816164E-02  0.1300439E+00
        -11   -1    0    0    0    0  0.00000000000E+00  0.00000000000E+00  0.45593999997E+02  0.45594000000E+02  0.51100000000E-03 0.  1.
         11   -1    0    0    0    0 -0.00000000000E+00 -0.00000000000E+00 -0.45593999997E+02  0.45594000000E+02  0.51100000000E-03 0. -1.
    9900012    2    1    2    0    0 -0.37297289220E+02  0.47700324365E+01  0.15470097283E+02  0.50528869383E+02  0.30000028977E+02 0.  0.
         12    1    1    2    0    0  0.37297289220E+02 -0.47700324365E+01 -0.15470097283E+02  0.40659130617E+02  0.00000000000E+00 0. -1.
         11    1    3    3    0    0 -0.70558757726E+01 -0.23379916259E+01  0.93944310442E+00  0.74922721099E+01  0.51100000000E-03 0. -1.
        -11    1    3    3    0    0 -0.22469316729E+02 -0.65861201884E+01  0.31881414692E+01  0.23630730410E+02  0.51100000000E-03 0.  1.
        -12    1    3    3    0    0 -0.77720967179E+01  0.13694144251E+02  0.11342512709E+02  0.19405866863E+02  0.00000000000E+00 0.  1.
</event>
<event>
 7    1  0.2661323E-011  0.5052886E+02  0.7816164E-02  0.1300439E+00
        -11   -1    0    0    0    0  0.00000000000E+00  0.00000000000E+00  0.45593999997E+02  0.45594000000E+02  0.51100000000E-03 0. -1.
         11   -1    0    0    0    0 -0.00000000000E+00 -0.00000000000E+00 -0.45593999997E+02  0.45594000000E+02  0.51100000000E-03 0.  1.
    9900012    2    1    2    0    0  0.50880178392E+01  0.26299886391E+02 -0.30587479873E+02  0.50528857428E+02  0.29999992638E+02 0.  0.
         12    1    1    2    0    0 -0.50880178392E+01 -0.26299886391E+02  0.30587479873E+02  0.40659142572E+02  0.00000000000E+00 0. -1.
         11    1    3    3    0    0 -0.51760305038E+01  0.40855511170E+01 -0.34150855948E+01  0.74260238073E+01  0.51100000000E-03 0. -1.
        -11    1    3    3    0    0  0.22152916380E+01  0.20755738751E+02 -0.81716352108E+01  0.22416151106E+02  0.51100000000E-03 0.  1.
        -12    1    3    3    0    0  0.80487567050E+01  0.14585965233E+01 -0.19000759068E+02  0.20686682514E+02  0.00000000000E+00 0.  1.
</event>
<event>
 7    1  0.2661323E-011  0.5052891E+02  0.7816164E-02  0.1300439E+00
        -11   -1    0    0    0    0  0.00000000000E+00  0.00000000000E+00  0.45593999997E+02  0.45594000000E+02  0.51100000000E-03 0.  1.
         11   -1    0    0    0    0 -0.00000000000E+00 -0.00000000000E+00 -0.45593999997E+02  0.45594000000E+02  0.51100000000E-03 0. -1.
    9900012    2    1    2    0    0 -0.22166348605E+01 -0.24921317177E+02  0.32049592352E+02  0.50528906431E+02  0.30000141586E+02 0.  0.
         12    1    1    2    0    0  0.22166348605E+01  0.24921317177E+02 -0.32049592352E+02  0.40659093569E+02  0.00000000000E+00 0. -1.
         11    1    3    3    0    0 -0.16515185428E+01  0.32680534871E+01  0.52087436508E+01  0.63670006889E+01  0.51100000000E-03 0. -1.
        -11    1    3    3    0    0 -0.32088132319E+01 -0.66871774818E+01  0.20175364113E+02  0.21495584253E+02  0.51100000000E-03 0.  1.
         12    1    3    3    0    0  0.26436969143E+01 -0.21502193182E+02  0.66654845880E+01  0.22666321488E+02  0.00000000000E+00 0. -1.
</event>
<event>
 7    1  0.2661323E-011  0.5052886E+02  0.7816164E-02  0.1300439E+00
        -11   -1    0    0    0    0  0.00000000000E+00  0.00000000000E+00  0.45593999997E+02  0.45594000000E+02  0.51100000000E-03 0.  1.
         11   -1    0    0    0    0 -0.00000000000E+00 -0.00000000000E+00 -0.45593999997E+02  0.45594000000E+02  0.51100000000E-03 0. -1.
    9900012    2    1    2    0    0  0.27938865333E+02  0.10532010011E+02  0.27598230027E+02  0.50528859188E+02  0.29999997989E+02 0.  0.
         12    1    1    2    0    0 -0.27938865333E+02 -0.10532010011E+02 -0.27598230027E+02  0.40659140812E+02  0.00000000000E+00 0. -1.
         11    1    3    3    0    0  0.18589932149E+02  0.16097322058E+02  0.22516287976E+02  0.33342054215E+02  0.51100000000E-03 0. -1.
        -11    1    3    3    0    0 -0.75035196500E+00  0.18708463369E+01  0.41463458853E+01  0.46103447322E+01  0.51100000000E-03 0.  1.
         12    1    3    3    0    0  0.10099285148E+02 -0.74361583843E+01  0.93559616486E+00  0.12576460241E+02  0.00000000000E+00 0. -1.
</event>
<event>
 7    1  0.2661323E-011  0.5052886E+02  0.7816164E-02  0.1300439E+00
        -11   -1    0    0    0    0  0.00000000000E+00  0.00000000000E+00  0.45593999997E+02  0.45594000000E+02  0.51100000000E-03 0.  1.
         11   -1    0    0    0    0 -0.00000000000E+00 -0.00000000000E+00 -0.45593999997E+02  0.45594000000E+02  0.51100000000E-03 0. -1.
    9900012    2    1    2    0    0  0.31783541989E+02  0.15848891833E+02 -0.19793547067E+02  0.50528863029E+02  0.30000009663E+02 0.  0.
         12    1    1    2    0    0 -0.31783541989E+02 -0.15848891833E+02  0.19793547067E+02  0.40659136971E+02  0.00000000000E+00 0. -1.
         11    1    3    3    0    0  0.93816090568E+01 -0.38029302057E+01  0.37960224222E+01  0.10811413096E+02  0.51100000000E-03 0.  1.
        -11    1    3    3    0    0 -0.88661061147E-01 -0.94486950794E+00  0.28071765670E+00  0.98966753746E+00  0.51100000000E-03 0. -1.
         12    1    3    3    0    0  0.22490593994E+02  0.20596691546E+02 -0.23870287146E+02  0.38727782396E+02  0.00000000000E+00 0. -1.
</event>
<event>
 7    1  0.2661323E-011  0.5052886E+02  0.7816164E-02  0.1300439E+00
        -11   -1    0    0    0    0  0.00000000000E+00  0.00000000000E+00  0.45593999997E+02  0.45594000000E+02  0.51100000000E-03 0.  1.
         11   -1    0    0    0    0 -0.00000000000E+00 -0.00000000000E+00 -0.45593999997E+02  0.45594000000E+02  0.51100000000E-03 0. -1.
    9900012    2    1    2    0    0  0.32826694919E+02 -0.21475428759E+02  0.10694838160E+02  0.50528861999E+02  0.30000006534E+02 0.  0.
         12    1    1    2    0    0 -0.32826694919E+02  0.21475428759E+02 -0.10694838160E+02  0.40659138001E+02  0.00000000000E+00 0. -1.
         11    1    3    3    0    0 -0.84010361431E+00 -0.63119512519E+01  0.14463983069E+01  0.65298216678E+01  0.51100000000E-03 0. -1.
        -11    1    3    3    0    0  0.17177882591E+02 -0.19405842931E+02  0.43195862474E+01  0.26274040721E+02  0.51100000000E-03 0.  1.
        -12    1    3    3    0    0  0.16488915942E+02  0.42423654245E+01  0.49288536056E+01  0.17724999611E+02  0.00000000000E+00 0.  1.
</event>
<event>
 7    1  0.2661323E-011  0.5052886E+02  0.7816164E-02  0.1300439E+00
        -11   -1    0    0    0    0  0.00000000000E+00  0.00000000000E+00  0.45593999997E+02  0.45594000000E+02  0.51100000000E-03 0. -1.
         11   -1    0    0    0    0 -0.00000000000E+00 -0.00000000000E+00 -0.45593999997E+02  0.45594000000E+02  0.51100000000E-03 0.  1.
    9900012    2    1    2    0    0 -0.34506399894E+02  0.59675741816E+01  0.20660640889E+02  0.50528860103E+02  0.30000000769E+02 0.  0.
         12    1    1    2    0    0  0.34506399894E+02 -0.59675741816E+01 -0.20660640889E+02  0.40659139897E+02  0.00000000000E+00 0. -1.
         11    1    3    3    0    0 -0.26284078025E+01  0.60939389901E+01  0.84839465960E+01  0.10771349502E+02  0.51100000000E-03 0. -1.
        -11    1    3    3    0    0 -0.67698254089E+01  0.79138168356E+01 -0.65826918046E+00  0.10435149810E+02  0.51100000000E-03 0.  1.
        -12    1    3    3    0    0 -0.25108166682E+02 -0.80401816441E+01  0.12834963473E+02  0.29322360791E+02  0.00000000000E+00 0.  1.
</event>
<event>
 7    1  0.2661323E-011  0.5052886E+02  0.7816164E-02  0.1300439E+00
        -11   -1    0    0    0    0  0.00000000000E+00  0.00000000000E+00  0.45593999997E+02  0.45594000000E+02  0.51100000000E-03 0. -1.
         11   -1    0    0    0    0 -0.00000000000E+00 -0.00000000000E+00 -0.45593999997E+02  0.45594000000E+02  0.51100000000E-03 0.  1.
    9900012    2    1    2    0    0 -0.35619982572E+02 -0.19525960829E+02  0.17660874478E+01  0.50528863639E+02  0.30000011519E+02 0.  0.
         12    1    1    2    0    0  0.35619982572E+02  0.19525960829E+02 -0.17660874478E+01  0.40659136361E+02  0.00000000000E+00 0. -1.
         11    1    3    3    0    0  0.75189165114E+00 -0.36410331572E+01  0.40112762306E+01  0.54692596177E+01  0.51100000000E-03 0. -1.
        -11    1    3    3    0    0  0.39857244828E+00 -0.47353760146E+01  0.39000747655E+01  0.61476198185E+01  0.51100000000E-03 0.  1.
        -12    1    3    3    0    0 -0.36770446671E+02 -0.11149551658E+02 -0.61452635483E+01  0.38911984203E+02  0.00000000000E+00 0.  1.
</event>
<event>
 7    1  0.2661323E-011  0.5052886E+02  0.7816164E-02  0.1300439E+00
        -11   -1    0    0    0    0  0.00000000000E+00  0.00000000000E+00  0.45593999997E+02  0.45594000000E+02  0.51100000000E-03 0.  1.
         11   -1    0    0    0    0 -0.00000000000E+00 -0.00000000000E+00 -0.45593999997E+02  0.45594000000E+02  0.51100000000E-03 0. -1.
    9900012    2    1    2    0    0 -0.59952925506E+01  0.98515830378E+01  0.38989339899E+02  0.50528857770E+02  0.29999993677E+02 0.  0.
         12    1    1    2    0    0  0.59952925506E+01 -0.98515830378E+01 -0.38989339899E+02  0.40659142230E+02  0.00000000000E+00 0. -1.
         11    1    3    3    0    0 -0.14287219398E+01  0.29955077140E+01  0.43611930203E-01  0.33190684096E+01  0.51100000000E-03 0. -1.
        -11    1    3    3    0    0 -0.13125557321E+02 -0.26620924836E+01  0.15395546795E+02  0.20405632869E+02  0.51100000000E-03 0.  1.
        -12    1    3    3    0    0  0.85589867105E+01  0.95181678074E+01  0.23550181174E+02  0.26804156492E+02  0.00000000000E+00 0.  1.
</event>
<event>
 7    1  0.2661323E-011  0.5052885E+02  0.7816164E-02  0.1300439E+00
        -11   -1    0    0    0    0  0.00000000000E+00  0.00000000000E+00  0.45593999997E+02  0.45594000000E+02  0.51100000000E-03 0. -1.
         11   -1    0    0    0    0 -0.00000000000E+00 -0.00000000000E+00 -0.45593999997E+02  0.45594000000E+02  0.51100000000E-03 0.  1.
    9900012    2    1    2    0    0 -0.15056542569E+02  0.32987668271E+02  0.18392405621E+02  0.50528851993E+02  0.29999976118E+02 0.  0.
         12    1    1    2    0    0  0.15056542569E+02 -0.32987668271E+02 -0.18392405621E+02  0.40659148007E+02  0.00000000000E+00 0. -1.
         11    1    3    3    0    0 -0.84114943579E+01  0.24676990246E+02  0.19378500673E+02  0.32484355828E+02  0.51100000000E-03 0. -1.
        -11    1    3    3    0    0 -0.51934490438E+01  0.11838771936E+02  0.21506598550E+01  0.13105486332E+02  0.51100000000E-03 0.  1.
         12    1    3    3    0    0 -0.14515991670E+01 -0.35280939108E+01 -0.31367549072E+01  0.49390098332E+01  0.00000000000E+00 0. -1.
</event>
<event>
 7    1  0.2661323E-011  0.5052895E+02  0.7816164E-02  0.1300438E+00
        -11   -1    0    0    0    0  0.00000000000E+00  0.00000000000E+00  0.45593999997E+02  0.45594000000E+02  0.51100000000E-03 0.  1.
         11   -1    0    0    0    0 -0.00000000000E+00 -0.00000000000E+00 -0.45593999997E+02  0.45594000000E+02  0.51100000000E-03 0. -1.
    9900012    2    1    2    0    0 -0.23030168184E+02 -0.27391926277E+02  0.19299010279E+02  0.50528953411E+02  0.30000284387E+02 0.  0.
         12    1    1    2    0    0  0.23030168184E+02  0.27391926277E+02 -0.19299010279E+02  0.40659046589E+02  0.00000000000E+00 0. -1.
         11    1    3    3    0    0 -0.13463922231E+02 -0.20607557598E+02  0.12151908469E+02  0.27452094851E+02  0.51100000000E-03 0. -1.
        -11    1    3    3    0    0 -0.42560393724E+01 -0.99324578424E+01 -0.29864882777E+01  0.11211008091E+02  0.51100000000E-03 0.  1.
         12    1    3    3    0    0 -0.53102065801E+01  0.31480891625E+01  0.10133590087E+02  0.11865850469E+02  0.00000000000E+00 0. -1.
</event>
<event>
 7    1  0.2661323E-011  0.5052886E+02  0.7816164E-02  0.1300439E+00
        -11   -1    0    0    0    0  0.00000000000E+00  0.00000000000E+00  0.45593999997E+02  0.45594000000E+02  0.51100000000E-03 0.  1.
         11   -1    0    0    0    0 -0.00000000000E+00 -0.00000000000E+00 -0.45593999997E+02  0.45594000000E+02  0.51100000000E-03 0. -1.
    9900012    2    1    2    0    0 -0.39202646214E+01 -0.36533207556E+02 -0.17410387728E+02  0.50528864128E+02  0.30000013003E+02 0.  0.
         12    1    1    2    0    0  0.39202646214E+01  0.36533207556E+02  0.17410387728E+02  0.40659135872E+02  0.00000000000E+00 0. -1.
         11    1    3    3    0    0 -0.54641958572E+00 -0.15905329189E+02 -0.62423198791E+01  0.17095163898E+02  0.51100000000E-03 0. -1.
        -11    1    3    3    0    0  0.38894088945E+01 -0.22246231813E+02 -0.36883781110E+01  0.22882885849E+02  0.51100000000E-03 0.  1.
         12    1    3    3    0    0 -0.72632539303E+01  0.16183534455E+01 -0.74796897383E+01  0.10550814381E+02  0.00000000000E+00 0. -1.
</event>
<event>
 7    1  0.2661323E-011  0.5052886E+02  0.7816164E-02  0.1300439E+00
        -11   -1    0    0    0    0  0.00000000000E+00  0.00000000000E+00  0.45593999997E+02  0.45594000000E+02  0.51100000000E-03 0.  1.
         11   -1    0    0    0    0 -0.00000000000E+00 -0.00000000000E+00 -0.45593999997E+02  0.45594000000E+02  0.51100000000E-03 0. -1.
    9900012    2    1    2    0    0  0.41936330508E+00 -0.40235714389E+02  0.58375446996E+01  0.50528861960E+02  0.30000006415E+02 0.  0.
         12    1    1    2    0    0 -0.41936330508E+00  0.40235714389E+02 -0.58375446996E+01  0.40659138040E+02  0.00000000000E+00 0. -1.
         11    1    3    3    0    0  0.29424281819E+01 -0.23154397022E+02  0.10752691397E+02  0.25698333752E+02  0.51100000000E-03 0. -1.
        -11    1    3    3    0    0  0.43240618379E+01 -0.14015932164E+02  0.17800635922E+01  0.14775401580E+02  0.51100000000E-03 0.  1.
         12    1    3    3    0    0 -0.68471267147E+01 -0.30653852027E+01 -0.66952102896E+01  0.10055126628E+02  0.00000000000E+00 0. -1.
</event>
<event>
 7    1  0.2661323E-011  0.5052886E+02  0.7816164E-02  0.1300439E+00
        -11   -1    0    0    0    0  0.00000000000E+00  0.00000000000E+00  0.45593999997E+02  0.45594000000E+02  0.51100000000E-03 0.  1.
         11   -1    0    0    0    0 -0.00000000000E+00 -0.00000000000E+00 -0.45593999997E+02  0.45594000000E+02  0.51100000000E-03 0. -1.
    9900012    2    1    2    0    0 -0.10977362910E+02  0.27865301912E+02  0.27498879913E+02  0.50528856581E+02  0.29999990063E+02 0.  0.
         12    1    1    2    0    0  0.10977362910E+02 -0.27865301912E+02 -0.27498879913E+02  0.40659143419E+02  0.00000000000E+00 0. -1.
         11    1    3    3    0    0  0.35414435171E+01 -0.22591759323E+01  0.17647979713E+01  0.45563373688E+01  0.51100000000E-03 0. -1.
        -11    1    3    3    0    0  0.56600802833E+00  0.13994624034E+01  0.96357146232E+01  0.97532485187E+01  0.51100000000E-03 0.  1.
        -12    1    3    3    0    0 -0.15084814455E+02  0.28725015441E+02  0.16098367318E+02  0.36219270693E+02  0.00000000000E+00 0.  1.
</event>
<event>
 7    1  0.2661323E-011  0.5052888E+02  0.7816164E-02  0.1300439E+00
        -11   -1    0    0    0    0  0.00000000000E+00  0.00000000000E+00  0.45593999997E+02  0.45594000000E+02  0.51100000000E-03 0.  1.
         11   -1    0    0    0    0 -0.00000000000E+00 -0.00000000000E+00 -0.45593999997E+02  0.45594000000E+02  0.51100000000E-03 0. -1.
    9900012    2    1    2    0    0  0.10528950884E+02 -0.35167868989E+02  0.17479306092E+02  0.50528881005E+02  0.30000064304E+02 0.  0.
         12    1    1    2    0    0 -0.10528950884E+02  0.35167868989E+02 -0.17479306092E+02  0.40659118995E+02  0.00000000000E+00 0. -1.
         11    1    3    3    0    0 -0.50201815915E+01 -0.19875472125E+02  0.95815056707E+01  0.22628342109E+02  0.51100000000E-03 0. -1.
        -11    1    3    3    0    0  0.29921191521E+01 -0.13376934391E+02  0.63414457109E+01  0.15103280593E+02  0.51100000000E-03 0.  1.
         12    1    3    3    0    0  0.12557013323E+02 -0.19154624729E+01  0.15563547107E+01  0.12797258303E+02  0.00000000000E+00 0. -1.
</event>
<event>
 7    1  0.2661323E-011  0.5052888E+02  0.7816164E-02  0.1300439E+00
        -11   -1    0    0    0    0  0.00000000000E+00  0.00000000000E+00  0.45593999997E+02  0.45594000000E+02  0.51100000000E-03 0.  1.
         11   -1    0    0    0    0 -0.00000000000E+00 -0.00000000000E+00 -0.45593999997E+02  0.45594000000E+02  0.51100000000E-03 0. -1.
    9900012    2    1    2    0    0 -0.77038432374E+01  0.69125912968E+01  0.39319595316E+02  0.50528884234E+02  0.30000074119E+02 0.  0.
         12    1    1    2    0    0  0.77038432374E+01 -0.69125912968E+01 -0.39319595316E+02  0.40659115766E+02  0.00000000000E+00 0. -1.
         11    1    3    3    0    0 -0.53705064719E+01 -0.39479140663E+01  0.14140003259E+02  0.15632276151E+02  0.51100000000E-03 0. -1.
        -11    1    3    3    0    0  0.87449769766E+01  0.64417099947E+01  0.17857862750E+02  0.20901519376E+02  0.51100000000E-03 0.  1.
         12    1    3    3    0    0 -0.11078313742E+02  0.44187953684E+01  0.73217293064E+01  0.13995088707E+02  0.00000000000E+00 0. -1.
</event>
<event>
 7    1  0.2661323E-011  0.5052886E+02  0.7816164E-02  0.1300439E+00
        -11   -1    0    0    0    0  0.00000000000E+00  0.00000000000E+00  0.45593999997E+02  0.45594000000E+02  0.51100000000E-03 0.  1.
         11   -1    0    0    0    0 -0.00000000000E+00 -0.00000000000E+00 -0.45593999997E+02  0.45594000000E+02  0.51100000000E-03 0. -1.
    9900012    2    1    2    0    0  0.78556202012E+01  0.31791844539E+02  0.24098414660E+02  0.50528859121E+02  0.29999997783E+02 0.  0.
         12    1    1    2    0    0 -0.78556202012E+01 -0.31791844539E+02 -0.24098414660E+02  0.40659140879E+02  0.00000000000E+00 0. -1.
         11    1    3    3    0    0  0.14825672760E+02  0.17792748151E+02  0.10869922663E+02  0.25583933992E+02  0.51100000000E-03 0. -1.
        -11    1    3    3    0    0  0.37197805593E+01  0.79601669744E+01  0.44290994001E+01  0.98396111421E+01  0.51100000000E-03 0.  1.
        -12    1    3    3    0    0 -0.10689833118E+02  0.60389294129E+01  0.87993925976E+01  0.15105313986E+02  0.00000000000E+00 0.  1.
</event>
<event>
 7    1  0.2661323E-011  0.5052886E+02  0.7816164E-02  0.1300439E+00
        -11   -1    0    0    0    0  0.00000000000E+00  0.00000000000E+00  0.45593999997E+02  0.45594000000E+02  0.51100000000E-03 0.  1.
         11   -1    0    0    0    0 -0.00000000000E+00 -0.00000000000E+00 -0.45593999997E+02  0.45594000000E+02  0.51100000000E-03 0. -1.
    9900012    2    1    2    0    0 -0.96931411673E+01  0.34346352204E+02 -0.19481702208E+02  0.50528860605E+02  0.30000002296E+02 0.  0.
         12    1    1    2    0    0  0.96931411673E+01 -0.34346352204E+02  0.19481702208E+02  0.40659139395E+02  0.00000000000E+00 0. -1.
         11    1    3    3    0    0  0.14711700555E+01  0.22819117011E+00 -0.68193141068E+01  0.69799324990E+01  0.51100000000E-03 0. -1.
        -11    1    3    3    0    0 -0.18582974826E+01  0.31981752079E+02 -0.85804801332E+01  0.33164896730E+02  0.51100000000E-03 0.  1.
         12    1    3    3    0    0 -0.93060137402E+01  0.21364089551E+01 -0.40819079676E+01  0.10384031376E+02  0.00000000000E+00 0. -1.
</event>
<event>
 7    1  0.2661323E-011  0.5052886E+02  0.7816164E-02  0.1300439E+00
        -11   -1    0    0    0    0  0.00000000000E+00  0.00000000000E+00  0.45593999997E+02  0.45594000000E+02  0.51100000000E-03 0.  1.
         11   -1    0    0    0    0 -0.00000000000E+00 -0.00000000000E+00 -0.45593999997E+02  0.45594000000E+02  0.51100000000E-03 0. -1.
    9900012    2    1    2    0    0  0.45469778983E+01  0.14318919737E+02  0.37781729851E+02  0.50528861040E+02  0.30000003618E+02 0.  0.
         12    1    1    2    0    0 -0.45469778983E+01 -0.14318919737E+02 -0.37781729851E+02  0.40659138960E+02  0.00000000000E+00 0. -1.
         11    1    3    3    0    0 -0.66338537316E+01 -0.31334627331E+01  0.13954432330E+02  0.15765556950E+02  0.51100000000E-03 0. -1.
        -11    1    3    3    0    0 -0.25178443666E+01 -0.10995855428E+00  0.49989751795E+01  0.55983376322E+01  0.51100000000E-03 0.  1.
        -12    1    3    3    0    0  0.13698675996E+02  0.17562341024E+02  0.18828322341E+02  0.29164966458E+02  0.00000000000E+00 0.  1.
</event>
<event>
 7    1  0.2661323E-011  0.5052885E+02  0.7816164E-02  0.1300439E+00
        -11   -1    0    0    0    0  0.00000000000E+00  0.00000000000E+00  0.45593999997E+02  0.45594000000E+02  0.51100000000E-03 0. -1.
         11   -1    0    0    0    0 -0.00000000000E+00 -0.00000000000E+00 -0.45593999997E+02  0.45594000000E+02  0.51100000000E-03 0.  1.
    9900012    2    1    2    0    0 -0.35550522470E+01 -0.11003131405E+02 -0.38980236488E+02  0.50528854241E+02  0.29999982951E+02 0.  0.
         12    1    1    2    0    0  0.35550522470E+01  0.11003131405E+02  0.38980236488E+02  0.40659145759E+02  0.00000000000E+00 0. -1.
         11    1    3    3    0    0 -0.34763556611E+01 -0.88376393792E+00  0.80404038001E+00  0.36759445826E+01  0.51100000000E-03 0. -1.
        -11    1    3    3    0    0 -0.96605914069E+01 -0.93989603922E+01 -0.31124409434E+02  0.33917493210E+02  0.51100000000E-03 0.  1.
        -12    1    3    3    0    0  0.95818948210E+01 -0.72040707472E+00 -0.86598674345E+01  0.12935416449E+02  0.00000000000E+00 0.  1.
</event>
<event>
 7    1  0.2661323E-011  0.5052886E+02  0.7816164E-02  0.1300439E+00
        -11   -1    0    0    0    0  0.00000000000E+00  0.00000000000E+00  0.45593999997E+02  0.45594000000E+02  0.51100000000E-03 0. -1.
         11   -1    0    0    0    0 -0.00000000000E+00 -0.00000000000E+00 -0.45593999997E+02  0.45594000000E+02  0.51100000000E-03 0.  1.
    9900012    2    1    2    0    0 -0.21190418717E+02  0.27949249749E+02 -0.20566264545E+02  0.50528860261E+02  0.30000001250E+02 0.  0.
         12    1    1    2    0    0  0.21190418717E+02 -0.27949249749E+02  0.20566264545E+02  0.40659139739E+02  0.00000000000E+00 0. -1.
         11    1    3    3    0    0  0.21663452417E+01 -0.80045851512E+00 -0.58289469279E+01  0.62698012800E+01  0.51100000000E-03 0. -1.
        -11    1    3    3    0    0 -0.11253560391E+02  0.17099261376E+02 -0.17866662127E+02  0.27170663902E+02  0.51100000000E-03 0.  1.
        -12    1    3    3    0    0 -0.12103203568E+02  0.11650446889E+02  0.31293445102E+01  0.17088395079E+02  0.00000000000E+00 0.  1.
</event>
<event>
 7    1  0.2661323E-011  0.5052886E+02  0.7816164E-02  0.1300439E+00
        -11   -1    0    0    0    0  0.00000000000E+00  0.00000000000E+00  0.45593999997E+02  0.45594000000E+02  0.51100000000E-03 0.  1.
         11   -1    0    0    0    0 -0.00000000000E+00 -0.00000000000E+00 -0.45593999997E+02  0.45594000000E+02  0.51100000000E-03 0. -1.
    9900012    2    1    2    0    0 -0.38262889350E+02  0.12638621421E+02 -0.54205652411E+01  0.50528856129E+02  0.29999988690E+02 0.  0.
         12    1    1    2    0    0  0.38262889350E+02 -0.12638621421E+02  0.54205652411E+01  0.40659143871E+02  0.00000000000E+00 0. -1.
         11    1    3    3    0    0  0.31135037796E+01 -0.18009703279E+01 -0.27299777484E+01  0.45155485464E+01  0.51100000000E-03 0. -1.
        -11    1    3    3    0    0 -0.25137895613E+01 -0.24395566398E+01 -0.84408496705E+00  0.36032005565E+01  0.51100000000E-03 0.  1.
        -12    1    3    3    0    0 -0.38862603568E+02  0.16879148388E+02 -0.18465025256E+01  0.42410107026E+02  0.00000000000E+00 0.  1.
</event>
<event>
 7    1  0.2661323E-011  0.5052888E+02  0.7816164E-02  0.1300439E+00
        -11   -1    0    0    0    0  0.00000000000E+00  0.00000000000E+00  0.45593999997E+02  0.45594000000E+02  0.51100000000E-03 0. -1.
         11   -1    0    0    0    0 -0.00000000000E+00 -0.00000000000E+00 -0.45593999997E+02  0.45594000000E+02  0.51100000000E-03 0.  1.
    9900012    2    1    2    0    0 -0.36527981409E+02  0.15545278260E+02 -0.87872255305E+01  0.50528875138E+02  0.30000046471E+02 0.  0.
         12    1    1    2    0    0  0.36527981409E+02 -0.15545278260E+02  0.87872255305E+01  0.40659124862E+02  0.00000000000E+00 0. -1.
         11    1    3    3    0    0 -0.17807214121E+02  0.35982903682E+01  0.73917389352E+01  0.19613321317E+02  0.51100000000E-03 0. -1.
        -11    1    3    3    0    0 -0.20007618950E+02  0.96613233319E+01 -0.10323451385E+02  0.24499380264E+02  0.51100000000E-03 0.  1.
        -12    1    3    3    0    0  0.12868516622E+01  0.22856645598E+01 -0.58555130805E+01  0.64161735573E+01  0.00000000000E+00 0.  1.
</event>
<event>
 7    1  0.2661323E-011  0.5052886E+02  0.7816164E-02  0.1300439E+00
        -11   -1    0    0    0    0  0.00000000000E+00  0.00000000000E+00  0.45593999997E+02  0.45594000000E+02  0.51100000000E-03 0.  1.
         11   -1    0    0    0    0 -0.00000000000E+00 -0.00000000000E+00 -0.45593999997E+02  0.45594000000E+02  0.51100000000E-03 0. -1.
    9900012    2    1    2    0    0 -0.98827131224E+01 -0.25734186051E+02  0.29887278088E+02  0.50528859061E+02  0.29999997603E+02 0.  0.
         12    1    1    2    0    0  0.98827131224E+01  0.25734186051E+02 -0.29887278088E+02  0.40659140939E+02  0.00000000000E+00 0. -1.
         11    1    3    3    0    0 -0.12082447756E+02 -0.15589914286E+02  0.95305199447E+01  0.21905747691E+02  0.51100000000E-03 0. -1.
        -11    1    3    3    0    0 -0.45950795923E+01 -0.12052156328E+02  0.14862773242E+02  0.19679208758E+02  0.51100000000E-03 0.  1.
         12    1    3    3    0    0  0.67948142258E+01  0.19078845622E+01  0.54939849007E+01  0.89439026133E+01  0.00000000000E+00 0. -1.
</event>
<event>
 7    1  0.2661323E-011  0.5052886E+02  0.7816164E-02  0.1300439E+00
        -11   -1    0    0    0    0  0.00000000000E+00  0.00000000000E+00  0.45593999997E+02  0.45594000000E+02  0.51100000000E-03 0.  1.
         11   -1    0    0    0    0 -0.00000000000E+00 -0.00000000000E+00 -0.45593999997E+02  0.45594000000E+02  0.51100000000E-03 0. -1.
    9900012    2    1    2    0    0  0.76954190496E+01  0.12219567081E+02  0.38008263613E+02  0.50528863304E+02  0.30000010499E+02 0.  0.
         12    1    1    2    0    0 -0.76954190496E+01 -0.12219567081E+02 -0.38008263613E+02  0.40659136696E+02  0.00000000000E+00 0. -1.
         11    1    3    3    0    0  0.44464371193E+01  0.13909338466E+02  0.50577465714E+01  0.15453844190E+02  0.51100000000E-03 0. -1.
        -11    1    3    3    0    0 -0.26693049688E+01  0.29191787662E+01  0.16920538584E+02  0.17376749406E+02  0.51100000000E-03 0.  1.
        -12    1    3    3    0    0  0.59182868991E+01 -0.46089501509E+01  0.16029978458E+02  0.17698269708E+02  0.00000000000E+00 0.  1.
</event>
<event>
 7    1  0.2661323E-011  0.5052887E+02  0.7816164E-02  0.1300439E+00
        -11   -1    0    0    0    0  0.00000000000E+00  0.00000000000E+00  0.45593999997E+02  0.45594000000E+02  0.51100000000E-03 0.  1.
         11   -1    0    0    0    0 -0.00000000000E+00 -0.00000000000E+00 -0.45593999997E+02  0.45594000000E+02  0.51100000000E-03 0. -1.
    9900012    2    1    2    0    0 -0.29646808702E+02 -0.23778351487E+02  0.14450659976E+02  0.50528870159E+02  0.30000031336E+02 0.  0.
         12    1    1    2    0    0  0.29646808702E+02  0.23778351487E+02 -0.14450659976E+02  0.40659129841E+02  0.00000000000E+00 0. -1.
         11    1    3    3    0    0 -0.32075596070E+02 -0.16517861210E+02  0.62884591890E+01  0.36622784185E+02  0.51100000000E-03 0.  1.
        -11    1    3    3    0    0 -0.12419827432E+01 -0.24033338183E+01  0.72647033263E+01  0.77520609684E+01  0.51100000000E-03 0. -1.
        -12    1    3    3    0    0  0.36707701120E+01 -0.48571564587E+01  0.89749746116E+00  0.61540250058E+01  0.00000000000E+00 0.  1.
</event>
<event>
 7    1  0.2661323E-011  0.5052886E+02  0.7816164E-02  0.1300439E+00
        -11   -1    0    0    0    0  0.00000000000E+00  0.00000000000E+00  0.45593999997E+02  0.45594000000E+02  0.51100000000E-03 0. -1.
         11   -1    0    0    0    0 -0.00000000000E+00 -0.00000000000E+00 -0.45593999997E+02  0.45594000000E+02  0.51100000000E-03 0.  1.
    9900012    2    1    2    0    0  0.18424830699E+01 -0.15339267332E+02 -0.37609544665E+02  0.50528859379E+02  0.29999998570E+02 0.  0.
         12    1    1    2    0    0 -0.18424830699E+01  0.15339267332E+02  0.37609544665E+02  0.40659140621E+02  0.00000000000E+00 0. -1.
         11    1    3    3    0    0  0.13194297890E+01 -0.24579628112E+01 -0.27615647510E+02  0.27756196854E+02  0.51100000000E-03 0. -1.
        -11    1    3    3    0    0 -0.51664742784E+00 -0.75961946907E+01 -0.14083397213E+02  0.16009721287E+02  0.51100000000E-03 0.  1.
         12    1    3    3    0    0  0.10397007087E+01 -0.52851098296E+01  0.40895000584E+01  0.67629412390E+01  0.00000000000E+00 0. -1.
</event>
<event>
 7    1  0.2661323E-011  0.5052886E+02  0.7816164E-02  0.1300439E+00
        -11   -1    0    0    0    0  0.00000000000E+00  0.00000000000E+00  0.45593999997E+02  0.45594000000E+02  0.51100000000E-03 0.  1.
         11   -1    0    0    0    0 -0.00000000000E+00 -0.00000000000E+00 -0.45593999997E+02  0.45594000000E+02  0.51100000000E-03 0. -1.
    9900012    2    1    2    0    0 -0.93707742019E+01 -0.30993784205E+02 -0.24591445716E+02  0.50528864853E+02  0.30000015208E+02 0.  0.
         12    1    1    2    0    0  0.93707742019E+01  0.30993784205E+02  0.24591445716E+02  0.40659135147E+02  0.00000000000E+00 0. -1.
         11    1    3    3    0    0  0.39746001450E+01 -0.21250375389E+02 -0.12789447179E+02  0.25118635709E+02  0.51100000000E-03 0. -1.
        -11    1    3    3    0    0 -0.90349387697E+00 -0.93928764620E+01 -0.80687441609E+01  0.12415597529E+02  0.51100000000E-03 0.  1.
         12    1    3    3    0    0 -0.12441880470E+02 -0.35053235362E+00 -0.37332543763E+01  0.12994631614E+02  0.00000000000E+00 0. -1.
</event>
<event>
 7    1  0.2661323E-011  0.5052886E+02  0.7816164E-02  0.1300439E+00
        -11   -1    0    0    0    0  0.00000000000E+00  0.00000000000E+00  0.45593999997E+02  0.45594000000E+02  0.51100000000E-03 0.  1.
         11   -1    0    0    0    0 -0.00000000000E+00 -0.00000000000E+00 -0.45593999997E+02  0.45594000000E+02  0.51100000000E-03 0. -1.
    9900012    2    1    2    0    0  0.28538364873E+01 -0.20280359993E+02  0.35124468835E+02  0.50528859636E+02  0.29999999350E+02 0.  0.
         12    1    1    2    0    0 -0.28538364873E+01  0.20280359993E+02 -0.35124468835E+02  0.40659140364E+02  0.00000000000E+00 0. -1.
         11    1    3    3    0    0 -0.21424890999E+01 -0.22878996750E+01  0.43759947612E+01  0.53827571817E+01  0.51100000000E-03 0. -1.
        -11    1    3    3    0    0 -0.76252859111E+01  0.22429665133E+01  0.28514879148E+01  0.84443393818E+01  0.51100000000E-03 0.  1.
        -12    1    3    3    0    0  0.12621611498E+02 -0.20235426831E+02  0.27896986159E+02  0.36701763073E+02  0.00000000000E+00 0.  1.
</event>
<event>
 7    1  0.2661323E-011  0.5052886E+02  0.7816164E-02  0.1300439E+00
        -11   -1    0    0    0    0  0.00000000000E+00  0.00000000000E+00  0.45593999997E+02  0.45594000000E+02  0.51100000000E-03 0.  1.
         11   -1    0    0    0    0 -0.00000000000E+00 -0.00000000000E+00 -0.45593999997E+02  0.45594000000E+02  0.51100000000E-03 0. -1.
    9900012    2    1    2    0    0  0.11326480760E+02  0.25972254560E+02  0.29160217660E+02  0.50528862438E+02  0.30000007866E+02 0.  0.
         12    1    1    2    0    0 -0.11326480760E+02 -0.25972254560E+02 -0.29160217660E+02  0.40659137562E+02  0.00000000000E+00 0. -1.
         11    1    3    3    0    0  0.61078170322E+01  0.63195868858E+01  0.16796335081E+02  0.18956779255E+02  0.51100000000E-03 0.  1.
        -11    1    3    3    0    0  0.12278504845E+02  0.77376746932E+01  0.29060313824E+01  0.14801294185E+02  0.51100000000E-03 0. -1.
        -12    1    3    3    0    0 -0.70598411178E+01  0.11914992981E+02  0.94578511957E+01  0.16770788997E+02  0.00000000000E+00 0.  1.
</event>
<event>
 7    1  0.2661323E-011  0.5052885E+02  0.7816164E-02  0.1300439E+00
        -11   -1    0    0    0    0  0.00000000000E+00  0.00000000000E+00  0.45593999997E+02  0.45594000000E+02  0.51100000000E-03 0. -1.
         11   -1    0    0    0    0 -0.00000000000E+00 -0.00000000000E+00 -0.45593999997E+02  0.45594000000E+02  0.51100000000E-03 0.  1.
    9900012    2    1    2    0    0 -0.31861518331E+02 -0.25205020953E+02  0.16482749930E+01  0.50528852911E+02  0.29999978908E+02 0.  0.
         12    1    1    2    0    0  0.31861518331E+02  0.25205020953E+02 -0.16482749930E+01  0.40659147089E+02  0.00000000000E+00 0. -1.
         11    1    3    3    0    0 -0.61763805556E+01 -0.41000907956E+01  0.10885189862E+02  0.13169881544E+02  0.51100000000E-03 0. -1.
        -11    1    3    3    0    0 -0.55422642743E+01 -0.17604370910E+01  0.33664622825E+01  0.67192931621E+01  0.51100000000E-03 0.  1.
        -12    1    3    3    0    0 -0.20142873501E+02 -0.19344493066E+02 -0.12603377151E+02  0.30639678204E+02  0.00000000000E+00 0.  1.
</event>
<event>
 7    1  0.2661323E-011  0.5052886E+02  0.7816164E-02  0.1300439E+00
        -11   -1    0    0    0    0  0.00000000000E+00  0.00000000000E+00  0.45593999997E+02  0.45594000000E+02  0.51100000000E-03 0.  1.
         11   -1    0    0    0    0 -0.00000000000E+00 -0.00000000000E+00 -0.45593999997E+02  0.45594000000E+02  0.51100000000E-03 0. -1.
    9900012    2    1    2    0    0  0.19403508051E+02 -0.16129698066E+02  0.31882633176E+02  0.50528861020E+02  0.30000003556E+02 0.  0.
         12    1    1    2    0    0 -0.19403508051E+02  0.16129698066E+02 -0.31882633176E+02  0.40659138980E+02  0.00000000000E+00 0. -1.
         11    1    3    3    0    0  0.61924770757E+00 -0.48150765950E+01 -0.22669448571E+01  0.53579351980E+01  0.51100000000E-03 0. -1.
        -11    1    3    3    0    0  0.95980826588E+01  0.48490300636E+01  0.15246586694E+02  0.18657295875E+02  0.51100000000E-03 0.  1.
         12    1    3    3    0    0  0.91861776843E+01 -0.16163651535E+02  0.18902991339E+02  0.26513629947E+02  0.00000000000E+00 0. -1.
</event>
<event>
 7    1  0.2661323E-011  0.5052886E+02  0.7816164E-02  0.1300439E+00
        -11   -1    0    0    0    0  0.00000000000E+00  0.00000000000E+00  0.45593999997E+02  0.45594000000E+02  0.51100000000E-03 0.  1.
         11   -1    0    0    0    0 -0.00000000000E+00 -0.00000000000E+00 -0.45593999997E+02  0.45594000000E+02  0.51100000000E-03 0. -1.
    9900012    2    1    2    0    0 -0.22583747337E+02 -0.74588807676E+01  0.32977341666E+02  0.50528860690E+02  0.30000002553E+02 0.  0.
         12    1    1    2    0    0  0.22583747337E+02  0.74588807676E+01 -0.32977341666E+02  0.40659139310E+02  0.00000000000E+00 0. -1.
         11    1    3    3    0    0  0.24862573937E+01  0.95496923681E+00 -0.31500177118E+01  0.41250519896E+01  0.51100000000E-03 0. -1.
        -11    1    3    3    0    0 -0.27445635106E+01 -0.10564685435E+01 -0.39845460436E+00  0.29677467850E+01  0.51100000000E-03 0.  1.
        -12    1    3    3    0    0 -0.22325441220E+02 -0.73573814610E+01  0.36525813982E+02  0.43436061915E+02  0.00000000000E+00 0.  1.
</event>
<event>
 7    1  0.2661323E-011  0.5052886E+02  0.7816164E-02  0.1300439E+00
        -11   -1    0    0    0    0  0.00000000000E+00  0.00000000000E+00  0.45593999997E+02  0.45594000000E+02  0.51100000000E-03 0. -1.
         11   -1    0    0    0    0 -0.00000000000E+00 -0.00000000000E+00 -0.45593999997E+02  0.45594000000E+02  0.51100000000E-03 0.  1.
    9900012    2    1    2    0    0  0.23647350568E+02 -0.30599820443E+02  0.12554655750E+02  0.50528861040E+02  0.30000003616E+02 0.  0.
         12    1    1    2    0    0 -0.23647350568E+02  0.30599820443E+02 -0.12554655750E+02  0.40659138960E+02  0.00000000000E+00 0. -1.
         11    1    3    3    0    0 -0.19490300977E+01  0.22706621080E+01  0.29627572043E+01  0.42110040660E+01  0.51100000000E-03 0. -1.
        -11    1    3    3    0    0  0.39483597018E+01  0.18540195212E+01  0.41507211501E+00  0.43816912079E+01  0.51100000000E-03 0.  1.
        -12    1    3    3    0    0  0.21648020964E+02 -0.34724502072E+02  0.91768264302E+01  0.41936165766E+02  0.00000000000E+00 0.  1.
</event>
<event>
 7    1  0.2661323E-011  0.5052889E+02  0.7816164E-02  0.1300439E+00
        -11   -1    0    0    0    0  0.00000000000E+00  0.00000000000E+00  0.45593999997E+02  0.45594000000E+02  0.51100000000E-03 0.  1.
         11   -1    0    0    0    0 -0.00000000000E+00 -0.00000000000E+00 -0.45593999997E+02  0.45594000000E+02  0.51100000000E-03 0. -1.
    9900012    2    1    2    0    0 -0.24313150877E+02 -0.23953283454E+02  0.22096928073E+02  0.50528888794E+02  0.30000087978E+02 0.  0.
         12    1    1    2    0    0  0.24313150877E+02  0.23953283454E+02 -0.22096928073E+02  0.40659111206E+02  0.00000000000E+00 0. -1.
         11    1    3    3    0    0 -0.21966865306E+01 -0.33691438666E+01  0.93982890724E+01  0.10222739352E+02  0.51100000000E-03 0. -1.
        -11    1    3    3    0    0 -0.19312956648E+02 -0.16976588306E+02  0.19389091969E+02  0.32204529692E+02  0.51100000000E-03 0.  1.
         12    1    3    3    0    0 -0.28035076981E+01 -0.36075512813E+01 -0.66904529683E+01  0.81016197505E+01  0.00000000000E+00 0. -1.
</event>
<event>
 7    1  0.2661323E-011  0.5052887E+02  0.7816164E-02  0.1300439E+00
        -11   -1    0    0    0    0  0.00000000000E+00  0.00000000000E+00  0.45593999997E+02  0.45594000000E+02  0.51100000000E-03 0.  1.
         11   -1    0    0    0    0 -0.00000000000E+00 -0.00000000000E+00 -0.45593999997E+02  0.45594000000E+02  0.51100000000E-03 0. -1.
    9900012    2    1    2    0    0 -0.60484887289E+01  0.44547353119E+01  0.39959181544E+02  0.50528867295E+02  0.30000022631E+02 0.  0.
         12    1    1    2    0    0  0.60484887289E+01 -0.44547353119E+01 -0.39959181544E+02  0.40659132705E+02  0.00000000000E+00 0. -1.
         11    1    3    3    0    0 -0.10059180151E+02  0.78336033194E+01  0.22254397433E+02  0.25647819627E+02  0.51100000000E-03 0. -1.
        -11    1    3    3    0    0 -0.63111045889E+01  0.74247469756E+00  0.59857053273E+01  0.87298326636E+01  0.51100000000E-03 0.  1.
        -12    1    3    3    0    0  0.10321796011E+02 -0.41213427050E+01  0.11719078784E+02  0.16151215004E+02  0.00000000000E+00 0.  1.
</event>
<event>
 7    1  0.2661323E-011  0.5052886E+02  0.7816164E-02  0.1300439E+00
        -11   -1    0    0    0    0  0.00000000000E+00  0.00000000000E+00  0.45593999997E+02  0.45594000000E+02  0.51100000000E-03 0.  1.
         11   -1    0    0    0    0 -0.00000000000E+00 -0.00000000000E+00 -0.45593999997E+02  0.45594000000E+02  0.51100000000E-03 0. -1.
    9900012    2    1    2    0    0 -0.22209584430E+02  0.89001448367E+01  0.32873815289E+02  0.50528856498E+02  0.29999989810E+02 0.  0.
         12    1    1    2    0    0  0.22209584430E+02 -0.89001448367E+01 -0.32873815289E+02  0.40659143502E+02  0.00000000000E+00 0. -1.
         11    1    3    3    0    0  0.13377842109E+01 -0.11469331063E+01 -0.19788447561E+01  0.26497073376E+01  0.51100000000E-03 0. -1.
        -11    1    3    3    0    0 -0.74083101901E+01  0.11972267045E+02  0.72238786277E+01  0.15824116429E+02  0.51100000000E-03 0.  1.
        -12    1    3    3    0    0 -0.16139058451E+02 -0.19251891021E+01  0.27628781418E+02  0.32055032731E+02  0.00000000000E+00 0.  1.
</event>
<event>
 7    1  0.2661323E-011  0.5052886E+02  0.7816164E-02  0.1300439E+00
        -11   -1    0    0    0    0  0.00000000000E+00  0.00000000000E+00  0.45593999997E+02  0.45594000000E+02  0.51100000000E-03 0.  1.
         11   -1    0    0    0    0 -0.00000000000E+00 -0.00000000000E+00 -0.45593999997E+02  0.45594000000E+02  0.51100000000E-03 0. -1.
    9900012    2    1    2    0    0 -0.10156927079E+02 -0.28805664846E+01  0.39264547396E+02  0.50528861873E+02  0.30000006150E+02 0.  0.
         12    1    1    2    0    0  0.10156927079E+02  0.28805664846E+01 -0.39264547396E+02  0.40659138127E+02  0.00000000000E+00 0. -1.
         11    1    3    3    0    0  0.12383943531E+01  0.38830935722E+01  0.51988222678E+01  0.66060418934E+01  0.51100000000E-03 0. -1.
        -11    1    3    3    0    0  0.58294699654E+01  0.39781050152E+01  0.12143327681E+02  0.14045228621E+02  0.51100000000E-03 0.  1.
         12    1    3    3    0    0 -0.17224791398E+02 -0.10741765072E+02  0.21922397447E+02  0.29877591359E+02  0.00000000000E+00 0. -1.
</event>
<event>
 7    1  0.2661323E-011  0.5052886E+02  0.7816164E-02  0.1300439E+00
        -11   -1    0    0    0    0  0.00000000000E+00  0.00000000000E+00  0.45593999997E+02  0.45594000000E+02  0.51100000000E-03 0. -1.
         11   -1    0    0    0    0 -0.00000000000E+00 -0.00000000000E+00 -0.45593999997E+02  0.45594000000E+02  0.51100000000E-03 0.  1.
    9900012    2    1    2    0    0 -0.36359666113E+02 -0.15786258758E+02  0.90517615693E+01  0.50528859909E+02  0.30000000180E+02 0.  0.
         12    1    1    2    0    0  0.36359666113E+02  0.15786258758E+02 -0.90517615693E+01  0.40659140091E+02  0.00000000000E+00 0. -1.
         11    1    3    3    0    0 -0.89340748651E+01  0.59123006979E+01  0.39797322647E+01  0.11428528444E+02  0.51100000000E-03 0. -1.
        -11    1    3    3    0    0 -0.30222902075E+01 -0.98105553419E+00  0.63100040874E+01  0.70649033896E+01  0.51100000000E-03 0.  1.
        -12    1    3    3    0    0 -0.24403301041E+02 -0.20717503921E+02 -0.12379747828E+01  0.32035428075E+02  0.00000000000E+00 0.  1.
</event>
<event>
 7    1  0.2661323E-011  0.5052886E+02  0.7816164E-02  0.1300439E+00
        -11   -1    0    0    0    0  0.00000000000E+00  0.00000000000E+00  0.45593999997E+02  0.45594000000E+02  0.51100000000E-03 0.  1.
         11   -1    0    0    0    0 -0.00000000000E+00 -0.00000000000E+00 -0.45593999997E+02  0.45594000000E+02  0.51100000000E-03 0. -1.
    9900012    2    1    2    0    0  0.13603414584E+02  0.46669714176E+01  0.38030672990E+02  0.50528860823E+02  0.30000002958E+02 0.  0.
         12    1    1    2    0    0 -0.13603414584E+02 -0.46669714176E+01 -0.38030672990E+02  0.40659139177E+02  0.00000000000E+00 0. -1.
         11    1    3    3    0    0 -0.16159421084E+01  0.36706394541E+01 -0.95857805697E+00  0.41235585424E+01  0.51100000000E-03 0. -1.
        -11    1    3    3    0    0  0.72382526148E+00  0.69614243093E+00 -0.23723587949E+01  0.25761645534E+01  0.51100000000E-03 0.  1.
        -12    1    3    3    0    0  0.14495531431E+02  0.30018953258E+00  0.41361609842E+02  0.43829137727E+02  0.00000000000E+00 0.  1.
</event>
<event>
 7    1  0.2661323E-011  0.5052886E+02  0.7816164E-02  0.1300439E+00
        -11   -1    0    0    0    0  0.00000000000E+00  0.00000000000E+00  0.45593999997E+02  0.45594000000E+02  0.51100000000E-03 0.  1.
         11   -1    0    0    0    0 -0.00000000000E+00 -0.00000000000E+00 -0.45593999997E+02  0.45594000000E+02  0.51100000000E-03 0. -1.
    9900012    2    1    2    0    0  0.60896393175E+01  0.29042409151E+02  0.27796054046E+02  0.50528857647E+02  0.29999993305E+02 0.  0.
         12    1    1    2    0    0 -0.60896393175E+01 -0.29042409151E+02 -0.27796054046E+02  0.40659142353E+02  0.00000000000E+00 0. -1.
         11    1    3    3    0    0  0.76091966390E-02  0.35019605577E+01  0.30813290527E+01  0.46645872957E+01  0.51100000000E-03 0.  1.
        -11    1    3    3    0    0 -0.31035814446E+01  0.19537358178E+02  0.10863266417E+01  0.19812134872E+02  0.51100000000E-03 0. -1.
         12    1    3    3    0    0  0.91856115654E+01  0.60030904151E+01  0.23628398352E+02  0.26052135479E+02  0.00000000000E+00 0. -1.
</event>
<event>
 7    1  0.2661323E-011  0.5052886E+02  0.7816164E-02  0.1300439E+00
        -11   -1    0    0    0    0  0.00000000000E+00  0.00000000000E+00  0.45593999997E+02  0.45594000000E+02  0.51100000000E-03 0. -1.
         11   -1    0    0    0    0 -0.00000000000E+00 -0.00000000000E+00 -0.45593999997E+02  0.45594000000E+02  0.51100000000E-03 0.  1.
    9900012    2    1    2    0    0 -0.23135767107E+02  0.13610117165E+02 -0.30539586997E+02  0.50528863476E+02  0.30000011023E+02 0.  0.
         12    1    1    2    0    0  0.23135767107E+02 -0.13610117165E+02  0.30539586997E+02  0.40659136524E+02  0.00000000000E+00 0. -1.
         11    1    3    3    0    0 -0.14176506256E+02 -0.61172938757E+00 -0.13991783743E+02  0.19927808586E+02  0.51100000000E-03 0. -1.
        -11    1    3    3    0    0 -0.61748102851E+01  0.60064312403E+00 -0.15456849810E+02  0.16655427360E+02  0.51100000000E-03 0.  1.
        -12    1    3    3    0    0 -0.27844505666E+01  0.13621203429E+02 -0.10909534435E+01  0.13945627531E+02  0.00000000000E+00 0.  1.
</event>
<event>
 7    1  0.2661323E-011  0.5052886E+02  0.7816164E-02  0.1300439E+00
        -11   -1    0    0    0    0  0.00000000000E+00  0.00000000000E+00  0.45593999997E+02  0.45594000000E+02  0.51100000000E-03 0. -1.
         11   -1    0    0    0    0 -0.00000000000E+00 -0.00000000000E+00 -0.45593999997E+02  0.45594000000E+02  0.51100000000E-03 0.  1.
    9900012    2    1    2    0    0 -0.21368167456E+02 -0.28590939679E+02 -0.19471129453E+02  0.50528864565E+02  0.30000014331E+02 0.  0.
         12    1    1    2    0    0  0.21368167456E+02  0.28590939679E+02  0.19471129453E+02  0.40659135435E+02  0.00000000000E+00 0. -1.
         11    1    3    3    0    0 -0.54497132683E+01 -0.64635299641E+01 -0.17412369166E+02  0.19356321823E+02  0.51100000000E-03 0. -1.
        -11    1    3    3    0    0 -0.77205463858E+01 -0.86337524782E+01 -0.82428113041E+01  0.14215922651E+02  0.51100000000E-03 0.  1.
        -12    1    3    3    0    0 -0.81979078020E+01 -0.13493657236E+02  0.61840510164E+01  0.16956620091E+02  0.00000000000E+00 0.  1.
</event>
<event>
 7    1  0.2661323E-011  0.5052881E+02  0.7816164E-02  0.1300439E+00
        -11   -1    0    0    0    0  0.00000000000E+00  0.00000000000E+00  0.45593999997E+02  0.45594000000E+02  0.51100000000E-03 0.  1.
         11   -1    0    0    0    0 -0.00000000000E+00 -0.00000000000E+00 -0.45593999997E+02  0.45594000000E+02  0.51100000000E-03 0. -1.
    9900012    2    1    2    0    0  0.37243337526E+02 -0.38734825900E+01 -0.15846134247E+02  0.50528806353E+02  0.29999837389E+02 0.  0.
         12    1    1    2    0    0 -0.37243337526E+02  0.38734825900E+01  0.15846134247E+02  0.40659193647E+02  0.00000000000E+00 0. -1.
         11    1    3    3    0    0  0.25743895066E+01  0.34208052479E+01 -0.83773531349E-01  0.42821032381E+01  0.51100000000E-03 0.  1.
        -11    1    3    3    0    0  0.63355076328E+01  0.76080607173E+01  0.12742941927E+01  0.99822377648E+01  0.51100000000E-03 0. -1.
        -12    1    3    3    0    0  0.28333440387E+02 -0.14902348555E+02 -0.17036654909E+02  0.36264465350E+02  0.00000000000E+00 0.  1.
</event>
<event>
 7    1  0.2661323E-011  0.5052884E+02  0.7816164E-02  0.1300439E+00
        -11   -1    0    0    0    0  0.00000000000E+00  0.00000000000E+00  0.45593999997E+02  0.45594000000E+02  0.51100000000E-03 0.  1.
         11   -1    0    0    0    0 -0.00000000000E+00 -0.00000000000E+00 -0.45593999997E+02  0.45594000000E+02  0.51100000000E-03 0. -1.
    9900012    2    1    2    0    0 -0.10783832393E+02  0.10314994418E+00  0.39202874227E+02  0.50528843237E+02  0.29999949504E+02 0.  0.
         12    1    1    2    0    0  0.10783832393E+02 -0.10314994418E+00 -0.39202874227E+02  0.40659156763E+02  0.00000000000E+00 0. -1.
         11    1    3    3    0    0 -0.22106470845E+01 -0.15773005980E+01  0.84421928360E+00  0.28438607857E+01  0.51100000000E-03 0. -1.
        -11    1    3    3    0    0 -0.17480022773E+02 -0.21889490184E+01  0.18312123950E+02  0.25410166819E+02  0.51100000000E-03 0.  1.
         12    1    3    3    0    0  0.89068374645E+01  0.38693995606E+01  0.20046530994E+02  0.22274815633E+02  0.00000000000E+00 0. -1.
</event>
<event>
 7    1  0.2661323E-011  0.5052887E+02  0.7816164E-02  0.1300439E+00
        -11   -1    0    0    0    0  0.00000000000E+00  0.00000000000E+00  0.45593999997E+02  0.45594000000E+02  0.51100000000E-03 0.  1.
         11   -1    0    0    0    0 -0.00000000000E+00 -0.00000000000E+00 -0.45593999997E+02  0.45594000000E+02  0.51100000000E-03 0. -1.
    9900012    2    1    2    0    0  0.25827181016E+02  0.26726743580E+02  0.16486433954E+02  0.50528873028E+02  0.30000040055E+02 0.  0.
         12    1    1    2    0    0 -0.25827181016E+02 -0.26726743580E+02 -0.16486433954E+02  0.40659126972E+02  0.00000000000E+00 0. -1.
         11    1    3    3    0    0  0.40584298982E+01  0.14386366647E+02  0.13710673591E+02  0.20283514713E+02  0.51100000000E-03 0. -1.
        -11    1    3    3    0    0  0.57604882951E+01  0.59769651872E+01  0.87034626331E+01  0.12027368803E+02  0.51100000000E-03 0.  1.
         12    1    3    3    0    0  0.16008262823E+02  0.63634117463E+01 -0.59277022702E+01  0.18217989512E+02  0.00000000000E+00 0. -1.
</event>
<event>
 7    1  0.2661323E-011  0.5052888E+02  0.7816164E-02  0.1300439E+00
        -11   -1    0    0    0    0  0.00000000000E+00  0.00000000000E+00  0.45593999997E+02  0.45594000000E+02  0.51100000000E-03 0.  1.
         11   -1    0    0    0    0 -0.00000000000E+00 -0.00000000000E+00 -0.45593999997E+02  0.45594000000E+02  0.51100000000E-03 0. -1.
    9900012    2    1    2    0    0  0.32587233855E+02 -0.23852206918E+02  0.47232218567E+01  0.50528875441E+02  0.30000047390E+02 0.  0.
         12    1    1    2    0    0 -0.32587233855E+02  0.23852206918E+02 -0.47232218567E+01  0.40659124559E+02  0.00000000000E+00 0. -1.
         11    1    3    3    0    0  0.16717575713E+02 -0.46169801726E+01  0.29363476295E+01  0.17590224026E+02  0.51100000000E-03 0. -1.
        -11    1    3    3    0    0  0.12153316839E+02  0.97875259570E+00 -0.82524189667E+00  0.12220560187E+02  0.51100000000E-03 0.  1.
         12    1    3    3    0    0  0.37163413038E+01 -0.20213979341E+02  0.26121161238E+01  0.20718091228E+02  0.00000000000E+00 0. -1.
</event>
<event>
 7    1  0.2661323E-011  0.5052886E+02  0.7816164E-02  0.1300439E+00
        -11   -1    0    0    0    0  0.00000000000E+00  0.00000000000E+00  0.45593999997E+02  0.45594000000E+02  0.51100000000E-03 0. -1.
         11   -1    0    0    0    0 -0.00000000000E+00 -0.00000000000E+00 -0.45593999997E+02  0.45594000000E+02  0.51100000000E-03 0.  1.
    9900012    2    1    2    0    0  0.12937392739E+02  0.37238897974E+02 -0.99525915660E+01  0.50528859182E+02  0.29999997969E+02 0.  0.
         12    1    1    2    0    0 -0.12937392739E+02 -0.37238897974E+02  0.99525915660E+01  0.40659140818E+02  0.00000000000E+00 0. -1.
         11    1    3    3    0    0  0.32308029043E+01 -0.18388714018E+01  0.11948833946E+01  0.39047768216E+01  0.51100000000E-03 0. -1.
        -11    1    3    3    0    0  0.25177068730E+01  0.10934682140E+02  0.61715397577E+01  0.12806015174E+02  0.51100000000E-03 0.  1.
        -12    1    3    3    0    0  0.71888829616E+01  0.28143087236E+02 -0.17319014718E+02  0.33818067186E+02  0.00000000000E+00 0.  1.
</event>
<event>
 7    1  0.2661323E-011  0.5052886E+02  0.7816164E-02  0.1300439E+00
        -11   -1    0    0    0    0  0.00000000000E+00  0.00000000000E+00  0.45593999997E+02  0.45594000000E+02  0.51100000000E-03 0.  1.
         11   -1    0    0    0    0 -0.00000000000E+00 -0.00000000000E+00 -0.45593999997E+02  0.45594000000E+02  0.51100000000E-03 0. -1.
    9900012    2    1    2    0    0 -0.30628071787E+01 -0.38498357494E+02 -0.12714598698E+02  0.50528864033E+02  0.30000012716E+02 0.  0.
         12    1    1    2    0    0  0.30628071787E+01  0.38498357494E+02  0.12714598698E+02  0.40659135967E+02  0.00000000000E+00 0. -1.
         11    1    3    3    0    0 -0.26672772993E+01 -0.18073214112E+02 -0.11642512558E+02  0.21663414676E+02  0.51100000000E-03 0. -1.
        -11    1    3    3    0    0  0.78595503608E+01 -0.10186142279E+02  0.57001064094E+01  0.14072001980E+02  0.51100000000E-03 0.  1.
         12    1    3    3    0    0 -0.82550802402E+01 -0.10239001103E+02 -0.67721925490E+01  0.14793447377E+02  0.00000000000E+00 0. -1.
</event>
<event>
 7    1  0.2661323E-011  0.5052886E+02  0.7816164E-02  0.1300439E+00
        -11   -1    0    0    0    0  0.00000000000E+00  0.00000000000E+00  0.45593999997E+02  0.45594000000E+02  0.51100000000E-03 0. -1.
         11   -1    0    0    0    0 -0.00000000000E+00 -0.00000000000E+00 -0.45593999997E+02  0.45594000000E+02  0.51100000000E-03 0.  1.
    9900012    2    1    2    0    0  0.27043012176E+02  0.13070559751E+02 -0.27404402198E+02  0.50528864500E+02  0.30000014134E+02 0.  0.
         12    1    1    2    0    0 -0.27043012176E+02 -0.13070559751E+02  0.27404402198E+02  0.40659135500E+02  0.00000000000E+00 0. -1.
         11    1    3    3    0    0  0.37634654007E+01 -0.40575523664E+01 -0.18642462740E+01  0.58397617640E+01  0.51100000000E-03 0. -1.
        -11    1    3    3    0    0 -0.13894052411E+01 -0.34942538957E+01 -0.59476433250E+01  0.70366695669E+01  0.51100000000E-03 0.  1.
         12    1    3    3    0    0  0.24668952017E+02  0.20622366013E+02 -0.19592512599E+02  0.37652433169E+02  0.00000000000E+00 0. -1.
</event>
<event>
 7    1  0.2661323E-011  0.5052882E+02  0.7816164E-02  0.1300439E+00
        -11   -1    0    0    0    0  0.00000000000E+00  0.00000000000E+00  0.45593999997E+02  0.45594000000E+02  0.51100000000E-03 0. -1.
         11   -1    0    0    0    0 -0.00000000000E+00 -0.00000000000E+00 -0.45593999997E+02  0.45594000000E+02  0.51100000000E-03 0.  1.
    9900012    2    1    2    0    0 -0.22774668488E+02  0.32669066750E+02  0.81985140580E+01  0.50528818014E+02  0.29999872834E+02 0.  0.
         12    1    1    2    0    0  0.22774668488E+02 -0.32669066750E+02 -0.81985140580E+01  0.40659181986E+02  0.00000000000E+00 0. -1.
         11    1    3    3    0    0 -0.19927746820E+02  0.17986320492E+02  0.58597857145E+01  0.27476533752E+02  0.51100000000E-03 0. -1.
        -11    1    3    3    0    0 -0.95946070425E+01  0.12455101893E+02  0.58424297267E+00  0.15733003133E+02  0.51100000000E-03 0.  1.
         12    1    3    3    0    0  0.67476853741E+01  0.22276443649E+01  0.17544853707E+01  0.73192811287E+01  0.00000000000E+00 0. -1.
</event>
<event>
 7    1  0.2661323E-011  0.5052887E+02  0.7816164E-02  0.1300439E+00
        -11   -1    0    0    0    0  0.00000000000E+00  0.00000000000E+00  0.45593999997E+02  0.45594000000E+02  0.51100000000E-03 0.  1.
         11   -1    0    0    0    0 -0.00000000000E+00 -0.00000000000E+00 -0.45593999997E+02  0.45594000000E+02  0.51100000000E-03 0. -1.
    9900012    2    1    2    0    0  0.47114426890E+01  0.25595594782E+02  0.31238324154E+02  0.50528867442E+02  0.30000023076E+02 0.  0.
         12    1    1    2    0    0 -0.47114426890E+01 -0.25595594782E+02 -0.31238324154E+02  0.40659132558E+02  0.00000000000E+00 0. -1.
         11    1    3    3    0    0 -0.83859235572E+00  0.97749964847E+01  0.24127272095E+01  0.10103219599E+02  0.51100000000E-03 0. -1.
        -11    1    3    3    0    0 -0.69149757279E+01  0.13160522443E+02  0.10916648923E+02  0.18444225770E+02  0.51100000000E-03 0.  1.
        -12    1    3    3    0    0  0.12465010773E+02  0.26600758546E+01  0.17908948021E+02  0.21981422073E+02  0.00000000000E+00 0.  1.
</event>
<event>
 7    1  0.2661323E-011  0.5052885E+02  0.7816164E-02  0.1300439E+00
        -11   -1    0    0    0    0  0.00000000000E+00  0.00000000000E+00  0.45593999997E+02  0.45594000000E+02  0.51100000000E-03 0.  1.
         11   -1    0    0    0    0 -0.00000000000E+00 -0.00000000000E+00 -0.45593999997E+02  0.45594000000E+02  0.51100000000E-03 0. -1.
    9900012    2    1    2    0    0  0.16438943748E+02  0.18572250092E+01  0.37141330155E+02  0.50528848976E+02  0.29999966949E+02 0.  0.
         12    1    1    2    0    0 -0.16438943748E+02 -0.18572250092E+01 -0.37141330155E+02  0.40659151024E+02  0.00000000000E+00 0. -1.
         11    1    3    3    0    0 -0.40590234265E+01  0.32271413329E+01 -0.20027956896E+01  0.55588940623E+01  0.51100000000E-03 0. -1.
        -11    1    3    3    0    0  0.36174719442E+01  0.40813883891E+00  0.20528790665E+01  0.41793532157E+01  0.51100000000E-03 0.  1.
        -12    1    3    3    0    0  0.16880495231E+02 -0.17780551626E+01  0.37091246778E+02  0.40790601698E+02  0.00000000000E+00 0.  1.
</event>
<event>
 7    1  0.2661323E-011  0.5052889E+02  0.7816164E-02  0.1300439E+00
        -11   -1    0    0    0    0  0.00000000000E+00  0.00000000000E+00  0.45593999997E+02  0.45594000000E+02  0.51100000000E-03 0. -1.
         11   -1    0    0    0    0 -0.00000000000E+00 -0.00000000000E+00 -0.45593999997E+02  0.45594000000E+02  0.51100000000E-03 0.  1.
    9900012    2    1    2    0    0 -0.31393035698E+02 -0.25833698374E+02  0.51071311525E+00  0.50528886754E+02  0.30000081778E+02 0.  0.
         12    1    1    2    0    0  0.31393035698E+02  0.25833698374E+02 -0.51071311525E+00  0.40659113246E+02  0.00000000000E+00 0. -1.
         11    1    3    3    0    0 -0.51591290638E+01  0.35358879201E+01  0.32334506392E+01  0.70409033069E+01  0.51100000000E-03 0. -1.
        -11    1    3    3    0    0 -0.23973792886E+02 -0.14456683244E+02  0.76903037710E+00  0.28005889447E+02  0.51100000000E-03 0.  1.
        -12    1    3    3    0    0 -0.22601137487E+01 -0.14912903051E+02 -0.34917679010E+01  0.15482094000E+02  0.00000000000E+00 0.  1.
</event>
<event>
 7    1  0.2661323E-011  0.5052886E+02  0.7816164E-02  0.1300439E+00
        -11   -1    0    0    0    0  0.00000000000E+00  0.00000000000E+00  0.45593999997E+02  0.45594000000E+02  0.51100000000E-03 0. -1.
         11   -1    0    0    0    0 -0.00000000000E+00 -0.00000000000E+00 -0.45593999997E+02  0.45594000000E+02  0.51100000000E-03 0.  1.
    9900012    2    1    2    0    0  0.33405670137E+02  0.39815509138E+01 -0.22833624340E+02  0.50528856557E+02  0.29999989991E+02 0.  0.
         12    1    1    2    0    0 -0.33405670137E+02 -0.39815509138E+01  0.22833624340E+02  0.40659143443E+02  0.00000000000E+00 0. -1.
         11    1    3    3    0    0  0.61955736991E+01  0.42515396080E+01  0.27231167620E+01  0.79922517265E+01  0.51100000000E-03 0. -1.
        -11    1    3    3    0    0  0.98939461080E+01  0.27823061732E+01  0.13790437236E+01  0.10369819626E+02  0.51100000000E-03 0.  1.
         12    1    3    3    0    0  0.17316150330E+02 -0.30522948673E+01 -0.26935784825E+02  0.32166785204E+02  0.00000000000E+00 0. -1.
</event>
<event>
 7    1  0.2661323E-011  0.5052887E+02  0.7816164E-02  0.1300439E+00
        -11   -1    0    0    0    0  0.00000000000E+00  0.00000000000E+00  0.45593999997E+02  0.45594000000E+02  0.51100000000E-03 0. -1.
         11   -1    0    0    0    0 -0.00000000000E+00 -0.00000000000E+00 -0.45593999997E+02  0.45594000000E+02  0.51100000000E-03 0.  1.
    9900012    2    1    2    0    0 -0.28151764422E+02 -0.14909689601E+02 -0.25265481751E+02  0.50528865083E+02  0.30000015907E+02 0.  0.
         12    1    1    2    0    0  0.28151764422E+02  0.14909689601E+02  0.25265481751E+02  0.40659134917E+02  0.00000000000E+00 0. -1.
         11    1    3    3    0    0 -0.25426416318E+01  0.12404057534E+00 -0.47816085122E+01  0.54170280373E+01  0.51100000000E-03 0. -1.
        -11    1    3    3    0    0 -0.34057417326E+01 -0.11296880633E+02 -0.19230031066E+02  0.22561309444E+02  0.51100000000E-03 0.  1.
         12    1    3    3    0    0 -0.22203381058E+02 -0.37368495431E+01 -0.12538421728E+01  0.22550527601E+02  0.00000000000E+00 0. -1.
</event>
<event>
 7    1  0.2661323E-011  0.5052886E+02  0.7816164E-02  0.1300439E+00
        -11   -1    0    0    0    0  0.00000000000E+00  0.00000000000E+00  0.45593999997E+02  0.45594000000E+02  0.51100000000E-03 0.  1.
         11   -1    0    0    0    0 -0.00000000000E+00 -0.00000000000E+00 -0.45593999997E+02  0.45594000000E+02  0.51100000000E-03 0. -1.
    9900012    2    1    2    0    0 -0.18353275693E+02 -0.27586719595E+01  0.36176129281E+02  0.50528864134E+02  0.30000013022E+02 0.  0.
         12    1    1    2    0    0  0.18353275693E+02  0.27586719595E+01 -0.36176129281E+02  0.40659135866E+02  0.00000000000E+00 0. -1.
         11    1    3    3    0    0  0.32218244733E+01 -0.38424404329E+01  0.10711568811E+01  0.51275607010E+01  0.51100000000E-03 0. -1.
        -11    1    3    3    0    0 -0.11453691214E+01  0.49712968488E+01  0.63103541085E+00  0.51404152297E+01  0.51100000000E-03 0.  1.
         12    1    3    3    0    0 -0.20429731045E+02 -0.38875283753E+01  0.34473936989E+02  0.40260888203E+02  0.00000000000E+00 0. -1.
</event>
<event>
 7    1  0.2661323E-011  0.5052886E+02  0.7816164E-02  0.1300439E+00
        -11   -1    0    0    0    0  0.00000000000E+00  0.00000000000E+00  0.45593999997E+02  0.45594000000E+02  0.51100000000E-03 0.  1.
         11   -1    0    0    0    0 -0.00000000000E+00 -0.00000000000E+00 -0.45593999997E+02  0.45594000000E+02  0.51100000000E-03 0. -1.
    9900012    2    1    2    0    0 -0.23945778416E+02  0.38124849833E+00  0.32857575556E+02  0.50528856800E+02  0.29999990729E+02 0.  0.
         12    1    1    2    0    0  0.23945778416E+02 -0.38124849833E+00 -0.32857575556E+02  0.40659143200E+02  0.00000000000E+00 0. -1.
         11    1    3    3    0    0  0.46848882878E+01  0.17994949809E+01  0.12977547882E+01  0.51836790223E+01  0.51100000000E-03 0. -1.
        -11    1    3    3    0    0 -0.97990980390E+01  0.12476894081E+01  0.18211229554E+01  0.10044677213E+02  0.51100000000E-03 0.  1.
         12    1    3    3    0    0 -0.18831568665E+02 -0.26659358907E+01  0.29738697812E+02  0.35300500565E+02  0.00000000000E+00 0. -1.
</event>
<event>
 7    1  0.2661323E-011  0.5052885E+02  0.7816164E-02  0.1300439E+00
        -11   -1    0    0    0    0  0.00000000000E+00  0.00000000000E+00  0.45593999997E+02  0.45594000000E+02  0.51100000000E-03 0.  1.
         11   -1    0    0    0    0 -0.00000000000E+00 -0.00000000000E+00 -0.45593999997E+02  0.45594000000E+02  0.51100000000E-03 0. -1.
    9900012    2    1    2    0    0 -0.90894605113E+00  0.53005235167E+01  0.40301917661E+02  0.50528852203E+02  0.29999976756E+02 0.  0.
         12    1    1    2    0    0  0.90894605113E+00 -0.53005235167E+01 -0.40301917661E+02  0.40659147797E+02  0.00000000000E+00 0. -1.
         11    1    3    3    0    0  0.45044031766E+01  0.69394623044E+01  0.85653763379E+01  0.11908461577E+02  0.51100000000E-03 0. -1.
        -11    1    3    3    0    0 -0.12123982658E+01  0.59797298468E+01  0.41779904829E+00  0.61156876066E+01  0.51100000000E-03 0.  1.
        -12    1    3    3    0    0 -0.42009509620E+01 -0.76186686345E+01  0.31318742274E+02  0.32504703020E+02  0.00000000000E+00 0.  1.
</event>
<event>
 7    1  0.2661323E-011  0.5052885E+02  0.7816164E-02  0.1300439E+00
        -11   -1    0    0    0    0  0.00000000000E+00  0.00000000000E+00  0.45593999997E+02  0.45594000000E+02  0.51100000000E-03 0.  1.
         11   -1    0    0    0    0 -0.00000000000E+00 -0.00000000000E+00 -0.45593999997E+02  0.45594000000E+02  0.51100000000E-03 0. -1.
    9900012    2    1    2    0    0 -0.18555060579E+02 -0.12249259797E+02  0.34041614438E+02  0.50528854015E+02  0.29999982264E+02 0.  0.
         12    1    1    2    0    0  0.18555060579E+02  0.12249259797E+02 -0.34041614438E+02  0.40659145985E+02  0.00000000000E+00 0. -1.
         11    1    3    3    0    0 -0.84608875697E+00 -0.44296879289E+01  0.45421198337E+01  0.64006916952E+01  0.51100000000E-03 0. -1.
        -11    1    3    3    0    0 -0.21616853865E+02 -0.10914138461E+02  0.30600716552E+02  0.39023206469E+02  0.51100000000E-03 0.  1.
        -12    1    3    3    0    0  0.39078820436E+01  0.30945665927E+01 -0.11012219469E+01  0.51049558509E+01  0.00000000000E+00 0.  1.
</event>
<event>
 7    1  0.2661323E-011  0.5052886E+02  0.7816164E-02  0.1300439E+00
        -11   -1    0    0    0    0  0.00000000000E+00  0.00000000000E+00  0.45593999997E+02  0.45594000000E+02  0.51100000000E-03 0.  1.
         11   -1    0    0    0    0 -0.00000000000E+00 -0.00000000000E+00 -0.45593999997E+02  0.45594000000E+02  0.51100000000E-03 0. -1.
    9900012    2    1    2    0    0 -0.15454151485E+02 -0.37786585356E+01  0.37417326825E+02  0.50528863202E+02  0.30000010188E+02 0.  0.
         12    1    1    2    0    0  0.15454151485E+02  0.37786585356E+01 -0.37417326825E+02  0.40659136798E+02  0.00000000000E+00 0. -1.
         11    1    3    3    0    0 -0.18433954100E+02 -0.70791955652E+01  0.26508396407E+02  0.33054814384E+02  0.51100000000E-03 0. -1.
        -11    1    3    3    0    0 -0.35971623615E+01 -0.16731175145E+01  0.76308688398E+01  0.86005266573E+01  0.51100000000E-03 0.  1.
         12    1    3    3    0    0  0.65769649767E+01  0.49736545441E+01  0.32780615782E+01  0.88735221609E+01  0.00000000000E+00 0. -1.
</event>
<event>
 7    1  0.2661323E-011  0.5052887E+02  0.7816164E-02  0.1300439E+00
        -11   -1    0    0    0    0  0.00000000000E+00  0.00000000000E+00  0.45593999997E+02  0.45594000000E+02  0.51100000000E-03 0.  1.
         11   -1    0    0    0    0 -0.00000000000E+00 -0.00000000000E+00 -0.45593999997E+02  0.45594000000E+02  0.51100000000E-03 0. -1.
    9900012    2    1    2    0    0  0.21476960315E+02 -0.34600884158E+01  0.34350155887E+02  0.50528865164E+02  0.30000016151E+02 0.  0.
         12    1    1    2    0    0 -0.21476960315E+02  0.34600884158E+01 -0.34350155887E+02  0.40659134836E+02  0.00000000000E+00 0. -1.
         11    1    3    3    0    0  0.56443238677E+00 -0.16948055318E+00  0.91515299204E+01  0.91704856862E+01  0.51100000000E-03 0. -1.
        -11    1    3    3    0    0  0.76455380972E+01 -0.11642819026E+02  0.20876134963E+02  0.25096264641E+02  0.51100000000E-03 0.  1.
        -12    1    3    3    0    0  0.13266989831E+02  0.83522111632E+01  0.43224910034E+01  0.16262114837E+02  0.00000000000E+00 0.  1.
</event>
<event>
 7    1  0.2661323E-011  0.5052886E+02  0.7816164E-02  0.1300439E+00
        -11   -1    0    0    0    0  0.00000000000E+00  0.00000000000E+00  0.45593999997E+02  0.45594000000E+02  0.51100000000E-03 0.  1.
         11   -1    0    0    0    0 -0.00000000000E+00 -0.00000000000E+00 -0.45593999997E+02  0.45594000000E+02  0.51100000000E-03 0. -1.
    9900012    2    1    2    0    0  0.25727147917E+02  0.12600764815E+02  0.28853074584E+02  0.50528864165E+02  0.30000013117E+02 0.  0.
         12    1    1    2    0    0 -0.25727147917E+02 -0.12600764815E+02 -0.28853074584E+02  0.40659135835E+02  0.00000000000E+00 0. -1.
         11    1    3    3    0    0 -0.38576330151E+01  0.38630223651E+01  0.11610499075E+02  0.12829963496E+02  0.51100000000E-03 0. -1.
        -11    1    3    3    0    0 -0.50515878178E+00  0.22807958016E+01  0.29611526739E+01  0.37716893169E+01  0.51100000000E-03 0.  1.
         12    1    3    3    0    0  0.30089939714E+02  0.64569466478E+01  0.14281422836E+02  0.33927211353E+02  0.00000000000E+00 0. -1.
</event>
<event>
 7    1  0.2661323E-011  0.5052879E+02  0.7816164E-02  0.1300439E+00
        -11   -1    0    0    0    0  0.00000000000E+00  0.00000000000E+00  0.45593999997E+02  0.45594000000E+02  0.51100000000E-03 0. -1.
         11   -1    0    0    0    0 -0.00000000000E+00 -0.00000000000E+00 -0.45593999997E+02  0.45594000000E+02  0.51100000000E-03 0.  1.
    9900012    2    1    2    0    0 -0.10320941196E+02 -0.39312748588E+02 -0.10756906215E+01  0.50528792691E+02  0.29999795863E+02 0.  0.
         12    1    1    2    0    0  0.10320941196E+02  0.39312748588E+02  0.10756906215E+01  0.40659207309E+02  0.00000000000E+00 0. -1.
         11    1    3    3    0    0 -0.11474513619E+02 -0.19790201393E+02 -0.10600376999E+02  0.25212784986E+02  0.51100000000E-03 0. -1.
        -11    1    3    3    0    0  0.47949184253E+00 -0.64821195634E+01 -0.30571525207E+01  0.71828941421E+01  0.51100000000E-03 0.  1.
         12    1    3    3    0    0  0.67408058110E+00 -0.13040427631E+02  0.12581838898E+02  0.18133113563E+02  0.00000000000E+00 0. -1.
</event>
<event>
 7    1  0.2661323E-011  0.5052886E+02  0.7816164E-02  0.1300439E+00
        -11   -1    0    0    0    0  0.00000000000E+00  0.00000000000E+00  0.45593999997E+02  0.45594000000E+02  0.51100000000E-03 0.  1.
         11   -1    0    0    0    0 -0.00000000000E+00 -0.00000000000E+00 -0.45593999997E+02  0.45594000000E+02  0.51100000000E-03 0. -1.
    9900012    2    1    2    0    0 -0.61969320053E+01 -0.19595116179E+02  0.35082684657E+02  0.50528864408E+02  0.30000013855E+02 0.  0.
         12    1    1    2    0    0  0.61969320053E+01  0.19595116179E+02 -0.35082684657E+02  0.40659135592E+02  0.00000000000E+00 0. -1.
         11    1    3    3    0    0  0.51429530765E+01 -0.14331641656E+02  0.45269731787E+01  0.15885194532E+02  0.51100000000E-03 0. -1.
        -11    1    3    3    0    0 -0.16096520799E+01  0.24198485303E+01  0.20442634338E+01  0.35532604711E+01  0.51100000000E-03 0.  1.
        -12    1    3    3    0    0 -0.97302330019E+01 -0.76833230537E+01  0.28511448044E+02  0.31090409405E+02  0.00000000000E+00 0.  1.
</event>
<event>
 7    1  0.2661323E-011  0.5052886E+02  0.7816164E-02  0.1300439E+00
        -11   -1    0    0    0    0  0.00000000000E+00  0.00000000000E+00  0.45593999997E+02  0.45594000000E+02  0.51100000000E-03 0.  1.
         11   -1    0    0    0    0 -0.00000000000E+00 -0.00000000000E+00 -0.45593999997E+02  0.45594000000E+02  0.51100000000E-03 0. -1.
    9900012    2    1    2    0    0  0.18043225572E+02 -0.27568479504E+02 -0.23824069291E+02  0.50528864141E+02  0.30000013043E+02 0.  0.
         12    1    1    2    0    0 -0.18043225572E+02  0.27568479504E+02  0.23824069291E+02  0.40659135859E+02  0.00000000000E+00 0. -1.
         11    1    3    3    0    0  0.56440779397E+01 -0.11277947340E+02 -0.11544687006E+02  0.17097587851E+02  0.51100000000E-03 0. -1.
        -11    1    3    3    0    0  0.30501021119E+01 -0.45675292407E+01 -0.16876676285E+02  0.17747891394E+02  0.51100000000E-03 0.  1.
        -12    1    3    3    0    0  0.93490455207E+01 -0.11723002923E+02  0.45972939996E+01  0.15683384896E+02  0.00000000000E+00 0.  1.
</event>
<event>
 7    1  0.2661323E-011  0.5052886E+02  0.7816164E-02  0.1300439E+00
        -11   -1    0    0    0    0  0.00000000000E+00  0.00000000000E+00  0.45593999997E+02  0.45594000000E+02  0.51100000000E-03 0. -1.
         11   -1    0    0    0    0 -0.00000000000E+00 -0.00000000000E+00 -0.45593999997E+02  0.45594000000E+02  0.51100000000E-03 0.  1.
    9900012    2    1    2    0    0  0.12375237329E+02 -0.49205420101E+01 -0.38416241949E+02  0.50528857386E+02  0.29999992510E+02 0.  0.
         12    1    1    2    0    0 -0.12375237329E+02  0.49205420101E+01  0.38416241949E+02  0.40659142614E+02  0.00000000000E+00 0. -1.
         11    1    3    3    0    0  0.88699321946E+01  0.82227018307E+01 -0.10731385575E+02  0.16169451418E+02  0.51100000000E-03 0. -1.
        -11    1    3    3    0    0 -0.27351250691E+01  0.10006205359E+01 -0.11954336031E+02  0.12303995319E+02  0.51100000000E-03 0.  1.
        -12    1    3    3    0    0  0.62404302037E+01 -0.14143864377E+02 -0.15730520343E+02  0.22055410649E+02  0.00000000000E+00 0.  1.
</event>
<event>
 7    1  0.2661323E-011  0.5052886E+02  0.7816164E-02  0.1300439E+00
        -11   -1    0    0    0    0  0.00000000000E+00  0.00000000000E+00  0.45593999997E+02  0.45594000000E+02  0.51100000000E-03 0. -1.
         11   -1    0    0    0    0 -0.00000000000E+00 -0.00000000000E+00 -0.45593999997E+02  0.45594000000E+02  0.51100000000E-03 0.  1.
    9900012    2    1    2    0    0  0.72231086988E+01 -0.39157077100E+02 -0.82289477254E+01  0.50528861212E+02  0.30000004141E+02 0.  0.
         12    1    1    2    0    0 -0.72231086988E+01  0.39157077100E+02  0.82289477254E+01  0.40659138788E+02  0.00000000000E+00 0. -1.
         11    1    3    3    0    0 -0.16240724949E+01 -0.14000971566E+01  0.46989416684E+01  0.51650688844E+01  0.51100000000E-03 0. -1.
        -11    1    3    3    0    0 -0.20660133384E+01 -0.89654546885E+01  0.42181080271E+01  0.10121275832E+02  0.51100000000E-03 0.  1.
        -12    1    3    3    0    0  0.10913194532E+02 -0.28791525255E+02 -0.17145997421E+02  0.35242516496E+02  0.00000000000E+00 0.  1.
</event>
<event>
 7    1  0.2661323E-011  0.5052885E+02  0.7816164E-02  0.1300439E+00
        -11   -1    0    0    0    0  0.00000000000E+00  0.00000000000E+00  0.45593999997E+02  0.45594000000E+02  0.51100000000E-03 0. -1.
         11   -1    0    0    0    0 -0.00000000000E+00 -0.00000000000E+00 -0.45593999997E+02  0.45594000000E+02  0.51100000000E-03 0.  1.
    9900012    2    1    2    0    0  0.21004004932E+02 -0.33397187721E+02 -0.98298659630E+01  0.50528848070E+02  0.29999964192E+02 0.  0.
         12    1    1    2    0    0 -0.21004004932E+02  0.33397187721E+02  0.98298659630E+01  0.40659151930E+02  0.00000000000E+00 0. -1.
         11    1    3    3    0    0  0.62334270391E+01 -0.19135765771E+01 -0.79591195550E+01  0.10289070527E+02  0.51100000000E-03 0.  1.
        -11    1    3    3    0    0  0.29675405246E+01 -0.11551069364E+02  0.87145851669E+01  0.14770832580E+02  0.51100000000E-03 0. -1.
         12    1    3    3    0    0  0.11803037368E+02 -0.19932541780E+02 -0.10585331575E+02  0.25468944962E+02  0.00000000000E+00 0. -1.
</event>
<event>
 7    1  0.2661323E-011  0.5052886E+02  0.7816164E-02  0.1300439E+00
        -11   -1    0    0    0    0  0.00000000000E+00  0.00000000000E+00  0.45593999997E+02  0.45594000000E+02  0.51100000000E-03 0. -1.
         11   -1    0    0    0    0 -0.00000000000E+00 -0.00000000000E+00 -0.45593999997E+02  0.45594000000E+02  0.51100000000E-03 0.  1.
    9900012    2    1    2    0    0 -0.23987380695E+02 -0.15801830489E+02 -0.28776262047E+02  0.50528861584E+02  0.30000005270E+02 0.  0.
         12    1    1    2    0    0  0.23987380695E+02  0.15801830489E+02  0.28776262047E+02  0.40659138416E+02  0.00000000000E+00 0. -1.
         11    1    3    3    0    0  0.18438194951E+01  0.30239247152E+01  0.28725841333E+00  0.35533517516E+01  0.51100000000E-03 0. -1.
        -11    1    3    3    0    0 -0.91870505185E+00 -0.10032580913E+02 -0.11306152770E+02  0.15143506512E+02  0.51100000000E-03 0.  1.
        -12    1    3    3    0    0 -0.24912495138E+02 -0.87931742906E+01 -0.17757367690E+02  0.31832003320E+02  0.00000000000E+00 0.  1.
</event>
<event>
 7    1  0.2661323E-011  0.5052886E+02  0.7816164E-02  0.1300439E+00
        -11   -1    0    0    0    0  0.00000000000E+00  0.00000000000E+00  0.45593999997E+02  0.45594000000E+02  0.51100000000E-03 0. -1.
         11   -1    0    0    0    0 -0.00000000000E+00 -0.00000000000E+00 -0.45593999997E+02  0.45594000000E+02  0.51100000000E-03 0.  1.
    9900012    2    1    2    0    0 -0.16081986794E+02 -0.45649860021E+01 -0.37063408537E+02  0.50528860205E+02  0.30000001080E+02 0.  0.
         12    1    1    2    0    0  0.16081986794E+02  0.45649860021E+01  0.37063408537E+02  0.40659139795E+02  0.00000000000E+00 0. -1.
         11    1    3    3    0    0  0.10030535771E+01  0.31276778681E+01 -0.18664250129E+02  0.18951061144E+02  0.51100000000E-03 0. -1.
        -11    1    3    3    0    0  0.27424360349E+01  0.17405779784E+01 -0.46466213682E+01  0.56693612960E+01  0.51100000000E-03 0.  1.
        -12    1    3    3    0    0 -0.19827476406E+02 -0.94332418487E+01 -0.13752537040E+02  0.25908437766E+02  0.00000000000E+00 0.  1.
</event>
<event>
 7    1  0.2661323E-011  0.5052886E+02  0.7816164E-02  0.1300439E+00
        -11   -1    0    0    0    0  0.00000000000E+00  0.00000000000E+00  0.45593999997E+02  0.45594000000E+02  0.51100000000E-03 0.  1.
         11   -1    0    0    0    0 -0.00000000000E+00 -0.00000000000E+00 -0.45593999997E+02  0.45594000000E+02  0.51100000000E-03 0. -1.
    9900012    2    1    2    0    0 -0.20369685168E+02 -0.19340141806E+02  0.29397286625E+02  0.50528860562E+02  0.30000002164E+02 0.  0.
         12    1    1    2    0    0  0.20369685168E+02  0.19340141806E+02 -0.29397286625E+02  0.40659139438E+02  0.00000000000E+00 0. -1.
         11    1    3    3    0    0 -0.19459428513E+02 -0.87203850689E+01  0.12449043560E+02  0.24691965487E+02  0.51100000000E-03 0. -1.
        -11    1    3    3    0    0 -0.74048219060E+01 -0.75871208127E+00  0.45919323461E+01  0.87460204901E+01  0.51100000000E-03 0.  1.
         12    1    3    3    0    0  0.64945652504E+01 -0.98610446558E+01  0.12356310719E+02  0.17090874585E+02  0.00000000000E+00 0. -1.
</event>
<event>
 7    1  0.2661323E-011  0.5052886E+02  0.7816164E-02  0.1300439E+00
        -11   -1    0    0    0    0  0.00000000000E+00  0.00000000000E+00  0.45593999997E+02  0.45594000000E+02  0.51100000000E-03 0.  1.
         11   -1    0    0    0    0 -0.00000000000E+00 -0.00000000000E+00 -0.45593999997E+02  0.45594000000E+02  0.51100000000E-03 0. -1.
    9900012    2    1    2    0    0 -0.25347618354E+02 -0.23550222504E+02 -0.21355345443E+02  0.50528861849E+02  0.30000006078E+02 0.  0.
         12    1    1    2    0    0  0.25347618354E+02  0.23550222504E+02  0.21355345443E+02  0.40659138151E+02  0.00000000000E+00 0. -1.
         11    1    3    3    0    0 -0.81662990897E+01 -0.13509022047E+02 -0.12061948744E+01  0.15831519947E+02  0.51100000000E-03 0. -1.
        -11    1    3    3    0    0 -0.46988208579E+01 -0.13705432240E+02 -0.66232654295E+01  0.15930644543E+02  0.51100000000E-03 0.  1.
         12    1    3    3    0    0 -0.12482498406E+02  0.36642317831E+01 -0.13525885139E+02  0.18766697360E+02  0.00000000000E+00 0. -1.
</event>
<event>
 7    1  0.2661323E-011  0.5052886E+02  0.7816164E-02  0.1300439E+00
        -11   -1    0    0    0    0  0.00000000000E+00  0.00000000000E+00  0.45593999997E+02  0.45594000000E+02  0.51100000000E-03 0.  1.
         11   -1    0    0    0    0 -0.00000000000E+00 -0.00000000000E+00 -0.45593999997E+02  0.45594000000E+02  0.51100000000E-03 0. -1.
    9900012    2    1    2    0    0  0.88194540261E+00  0.32907254128E+02  0.23864200629E+02  0.50528864820E+02  0.30000015106E+02 0.  0.
         12    1    1    2    0    0 -0.88194540261E+00 -0.32907254128E+02 -0.23864200629E+02  0.40659135180E+02  0.00000000000E+00 0. -1.
         11    1    3    3    0    0  0.44048532375E+01 -0.36853718719E+00 -0.76231358993E+00  0.44854959562E+01  0.51100000000E-03 0. -1.
        -11    1    3    3    0    0  0.81632027817E+01  0.11700850424E+02  0.74764019533E+01  0.16107276825E+02  0.51100000000E-03 0.  1.
        -12    1    3    3    0    0 -0.11686110617E+02  0.21574940891E+02  0.17150112266E+02  0.29936092038E+02  0.00000000000E+00 0.  1.
</event>
<event>
 7    1  0.2661323E-011  0.5052888E+02  0.7816164E-02  0.1300439E+00
        -11   -1    0    0    0    0  0.00000000000E+00  0.00000000000E+00  0.45593999997E+02  0.45594000000E+02  0.51100000000E-03 0.  1.
         11   -1    0    0    0    0 -0.00000000000E+00 -0.00000000000E+00 -0.45593999997E+02  0.45594000000E+02  0.51100000000E-03 0. -1.
    9900012    2    1    2    0    0 -0.23817552558E+01  0.23775999868E+02  0.32896704159E+02  0.50528879592E+02  0.30000060008E+02 0.  0.
         12    1    1    2    0    0  0.23817552558E+01 -0.23775999868E+02 -0.32896704159E+02  0.40659120408E+02  0.00000000000E+00 0. -1.
         11    1    3    3    0    0 -0.83735933499E+01  0.76289491534E+01  0.88167748788E+01  0.14354562003E+02  0.51100000000E-03 0. -1.
        -11    1    3    3    0    0 -0.70021009198E+01  0.46680600589E+01  0.31259807486E+01  0.89773023735E+01  0.51100000000E-03 0.  1.
        -12    1    3    3    0    0  0.12993939014E+02  0.11478990656E+02  0.20953948532E+02  0.27197015216E+02  0.00000000000E+00 0.  1.
</event>
<event>
 7    1  0.2661323E-011  0.5052887E+02  0.7816164E-02  0.1300439E+00
        -11   -1    0    0    0    0  0.00000000000E+00  0.00000000000E+00  0.45593999997E+02  0.45594000000E+02  0.51100000000E-03 0.  1.
         11   -1    0    0    0    0 -0.00000000000E+00 -0.00000000000E+00 -0.45593999997E+02  0.45594000000E+02  0.51100000000E-03 0. -1.
    9900012    2    1    2    0    0  0.21114545235E+02 -0.21270607858E+02  0.27475475726E+02  0.50528873774E+02  0.30000042323E+02 0.  0.
         12    1    1    2    0    0 -0.21114545235E+02  0.21270607858E+02 -0.27475475726E+02  0.40659126226E+02  0.00000000000E+00 0. -1.
         11    1    3    3    0    0  0.71727345302E+01 -0.16086888120E+02  0.62196297054E+01  0.18679397313E+02  0.51100000000E-03 0. -1.
        -11    1    3    3    0    0 -0.31210745515E+01 -0.44392856615E+01  0.10052558484E+02  0.11423760146E+02  0.51100000000E-03 0.  1.
        -12    1    3    3    0    0  0.17062885256E+02 -0.74443407602E+00  0.11203287536E+02  0.20425716315E+02  0.00000000000E+00 0.  1.
</event>
<event>
 7    1  0.2661323E-011  0.5052886E+02  0.7816164E-02  0.1300439E+00
        -11   -1    0    0    0    0  0.00000000000E+00  0.00000000000E+00  0.45593999997E+02  0.45594000000E+02  0.51100000000E-03 0. -1.
         11   -1    0    0    0    0 -0.00000000000E+00 -0.00000000000E+00 -0.45593999997E+02  0.45594000000E+02  0.51100000000E-03 0.  1.
    9900012    2    1    2    0    0  0.25490349043E+02 -0.31562157217E+02 -0.26904055680E+01  0.50528856568E+02  0.29999990024E+02 0.  0.
         12    1    1    2    0    0 -0.25490349043E+02  0.31562157217E+02  0.26904055680E+01  0.40659143432E+02  0.00000000000E+00 0. -1.
         11    1    3    3    0    0  0.20591696109E+01  0.23180040351E+01 -0.88597609106E+00  0.32246358071E+01  0.51100000000E-03 0. -1.
        -11    1    3    3    0    0  0.24162284487E+02 -0.30586474301E+02 -0.84201203996E+01  0.39877899012E+02  0.51100000000E-03 0.  1.
         12    1    3    3    0    0 -0.73110505560E+00 -0.32936869516E+01  0.66156909226E+01  0.74263217491E+01  0.00000000000E+00 0. -1.
</event>
<event>
 7    1  0.2661323E-011  0.5052887E+02  0.7816164E-02  0.1300439E+00
        -11   -1    0    0    0    0  0.00000000000E+00  0.00000000000E+00  0.45593999997E+02  0.45594000000E+02  0.51100000000E-03 0. -1.
         11   -1    0    0    0    0 -0.00000000000E+00 -0.00000000000E+00 -0.45593999997E+02  0.45594000000E+02  0.51100000000E-03 0.  1.
    9900012    2    1    2    0    0 -0.26440974703E+02 -0.11399970240E+02 -0.28706797352E+02  0.50528872133E+02  0.30000037335E+02 0.  0.
         12    1    1    2    0    0  0.26440974703E+02  0.11399970240E+02  0.28706797352E+02  0.40659127867E+02  0.00000000000E+00 0. -1.
         11    1    3    3    0    0 -0.33668692153E+01 -0.43484348178E+01  0.13221680051E+01  0.56562197776E+01  0.51100000000E-03 0. -1.
        -11    1    3    3    0    0 -0.27776231414E+02 -0.52406186282E+01 -0.24684849526E+02  0.37527655290E+02  0.51100000000E-03 0.  1.
         12    1    3    3    0    0  0.47021259270E+01 -0.18109167942E+01 -0.53441158310E+01  0.73449970650E+01  0.00000000000E+00 0. -1.
</event>
<event>
 7    1  0.2661323E-011  0.5052886E+02  0.7816164E-02  0.1300439E+00
        -11   -1    0    0    0    0  0.00000000000E+00  0.00000000000E+00  0.45593999997E+02  0.45594000000E+02  0.51100000000E-03 0.  1.
         11   -1    0    0    0    0 -0.00000000000E+00 -0.00000000000E+00 -0.45593999997E+02  0.45594000000E+02  0.51100000000E-03 0. -1.
    9900012    2    1    2    0    0 -0.17708067648E+02  0.35761651055E+02  0.77906460506E+01  0.50528861889E+02  0.30000006198E+02 0.  0.
         12    1    1    2    0    0  0.17708067648E+02 -0.35761651055E+02 -0.77906460506E+01  0.40659138111E+02  0.00000000000E+00 0. -1.
         11    1    3    3    0    0  0.22060117151E+01  0.12657874736E+01 -0.60547472478E+01  0.65672421999E+01  0.51100000000E-03 0. -1.
        -11    1    3    3    0    0 -0.34860733108E+01  0.19800995212E+00  0.24370373577E+01  0.42580589960E+01  0.51100000000E-03 0.  1.
        -12    1    3    3    0    0 -0.16428006052E+02  0.34297853630E+02  0.11408355941E+02  0.39703560693E+02  0.00000000000E+00 0.  1.
</event>
<event>
 7    1  0.2661323E-011  0.5052884E+02  0.7816164E-02  0.1300439E+00
        -11   -1    0    0    0    0  0.00000000000E+00  0.00000000000E+00  0.45593999997E+02  0.45594000000E+02  0.51100000000E-03 0. -1.
         11   -1    0    0    0    0 -0.00000000000E+00 -0.00000000000E+00 -0.45593999997E+02  0.45594000000E+02  0.51100000000E-03 0.  1.
    9900012    2    1    2    0    0 -0.20989384432E+02 -0.23801451489E+02 -0.25418571780E+02  0.50528841829E+02  0.29999945223E+02 0.  0.
         12    1    1    2    0    0  0.20989384432E+02  0.23801451489E+02  0.25418571780E+02  0.40659158171E+02  0.00000000000E+00 0. -1.
         11    1    3    3    0    0 -0.79137145361E-01  0.16071321325E+01  0.15197311311E+01  0.22133050741E+01  0.51100000000E-03 0.  1.
        -11    1    3    3    0    0  0.41482176432E+01 -0.70532120135E+01 -0.18547242347E+01  0.83902033093E+01  0.51100000000E-03 0. -1.
        -12    1    3    3    0    0 -0.25058464930E+02 -0.18355371608E+02 -0.25083578677E+02  0.39925333446E+02  0.00000000000E+00 0.  1.
</event>
<event>
 7    1  0.2661323E-011  0.5052885E+02  0.7816164E-02  0.1300439E+00
        -11   -1    0    0    0    0  0.00000000000E+00  0.00000000000E+00  0.45593999997E+02  0.45594000000E+02  0.51100000000E-03 0. -1.
         11   -1    0    0    0    0 -0.00000000000E+00 -0.00000000000E+00 -0.45593999997E+02  0.45594000000E+02  0.51100000000E-03 0.  1.
    9900012    2    1    2    0    0  0.27321518631E+02  0.27123948345E+02  0.13076397604E+02  0.50528854308E+02  0.29999983154E+02 0.  0.
         12    1    1    2    0    0 -0.27321518631E+02 -0.27123948345E+02 -0.13076397604E+02  0.40659145692E+02  0.00000000000E+00 0. -1.
         11    1    3    3    0    0  0.23037525985E+02  0.15807056454E+02  0.67980726094E+01  0.28754207148E+02  0.51100000000E-03 0. -1.
        -11    1    3    3    0    0  0.92449875205E+01  0.31742620380E+01 -0.93396931889E+00  0.98192684396E+01  0.51100000000E-03 0.  1.
         12    1    3    3    0    0 -0.49609948746E+01  0.81426298532E+01  0.72122943136E+01  0.11955378720E+02  0.00000000000E+00 0. -1.
</event>
<event>
 7    1  0.2661323E-011  0.5052887E+02  0.7816164E-02  0.1300439E+00
        -11   -1    0    0    0    0  0.00000000000E+00  0.00000000000E+00  0.45593999997E+02  0.45594000000E+02  0.51100000000E-03 0.  1.
         11   -1    0    0    0    0 -0.00000000000E+00 -0.00000000000E+00 -0.45593999997E+02  0.45594000000E+02  0.51100000000E-03 0. -1.
    9900012    2    1    2    0    0  0.26602311725E+01 -0.17710756957E+02  0.36502284542E+02  0.50528874103E+02  0.30000043324E+02 0.  0.
         12    1    1    2    0    0 -0.26602311725E+01  0.17710756957E+02 -0.36502284542E+02  0.40659125897E+02  0.00000000000E+00 0. -1.
         11    1    3    3    0    0 -0.30847551941E+01  0.26355227210E+01  0.83474270107E-01  0.40581600308E+01  0.51100000000E-03 0. -1.
        -11    1    3    3    0    0 -0.74750910057E+00  0.19085115564E+01  0.14242736747E+02  0.14389466166E+02  0.51100000000E-03 0.  1.
        -12    1    3    3    0    0  0.64924954671E+01 -0.22254791235E+02  0.22176073525E+02  0.32081247907E+02  0.00000000000E+00 0.  1.
</event>
<event>
 7    1  0.2661323E-011  0.5052886E+02  0.7816164E-02  0.1300439E+00
        -11   -1    0    0    0    0  0.00000000000E+00  0.00000000000E+00  0.45593999997E+02  0.45594000000E+02  0.51100000000E-03 0.  1.
         11   -1    0    0    0    0 -0.00000000000E+00 -0.00000000000E+00 -0.45593999997E+02  0.45594000000E+02  0.51100000000E-03 0. -1.
    9900012    2    1    2    0    0  0.34782503394E+02 -0.45504726785E+01  0.20558111930E+02  0.50528864372E+02  0.30000013744E+02 0.  0.
         12    1    1    2    0    0 -0.34782503394E+02  0.45504726785E+01 -0.20558111930E+02  0.40659135628E+02  0.00000000000E+00 0. -1.
         11    1    3    3    0    0  0.12227072331E+02 -0.10898644468E+02  0.17382691241E+02  0.23883879586E+02  0.51100000000E-03 0. -1.
        -11    1    3    3    0    0  0.20010713038E+01 -0.31738132518E+01  0.10300604156E+01  0.38908098953E+01  0.51100000000E-03 0.  1.
         12    1    3    3    0    0  0.20554359759E+02  0.95219850416E+01  0.21453602727E+01  0.22754174890E+02  0.00000000000E+00 0. -1.
</event>
<event>
 7    1  0.2661323E-011  0.5052887E+02  0.7816164E-02  0.1300439E+00
        -11   -1    0    0    0    0  0.00000000000E+00  0.00000000000E+00  0.45593999997E+02  0.45594000000E+02  0.51100000000E-03 0.  1.
         11   -1    0    0    0    0 -0.00000000000E+00 -0.00000000000E+00 -0.45593999997E+02  0.45594000000E+02  0.51100000000E-03 0. -1.
    9900012    2    1    2    0    0 -0.31763371955E+02  0.24609641953E+02  0.62143820020E+01  0.50528870414E+02  0.30000032112E+02 0.  0.
         12    1    1    2    0    0  0.31763371955E+02 -0.24609641953E+02 -0.62143820020E+01  0.40659129586E+02  0.00000000000E+00 0. -1.
         11    1    3    3    0    0 -0.12342165946E+02  0.48027384189E+01  0.48700975809E+01  0.14110747935E+02  0.51100000000E-03 0. -1.
        -11    1    3    3    0    0 -0.18994943077E+02  0.24867111827E+02  0.16079160187E+01  0.31333153485E+02  0.51100000000E-03 0.  1.
        -12    1    3    3    0    0 -0.42626293097E+00 -0.50602082932E+01 -0.26363159759E+00  0.50849689946E+01  0.00000000000E+00 0.  1.
</event>
<event>
 7    1  0.2661323E-011  0.5052886E+02  0.7816164E-02  0.1300439E+00
        -11   -1    0    0    0    0  0.00000000000E+00  0.00000000000E+00  0.45593999997E+02  0.45594000000E+02  0.51100000000E-03 0. -1.
         11   -1    0    0    0    0 -0.00000000000E+00 -0.00000000000E+00 -0.45593999997E+02  0.45594000000E+02  0.51100000000E-03 0.  1.
    9900012    2    1    2    0    0 -0.34670597696E+02  0.18906015641E+02  0.96787264990E+01  0.50528861806E+02  0.30000005946E+02 0.  0.
         12    1    1    2    0    0  0.34670597696E+02 -0.18906015641E+02 -0.96787264990E+01  0.40659138194E+02  0.00000000000E+00 0. -1.
         11    1    3    3    0    0 -0.22865325132E+02  0.11607831899E+02  0.93244290864E+01  0.27285707483E+02  0.51100000000E-03 0. -1.
        -11    1    3    3    0    0 -0.87381185736E+01  0.19561289794E+01  0.89551411877E+01  0.12663953204E+02  0.51100000000E-03 0.  1.
         12    1    3    3    0    0 -0.30671539906E+01  0.53420547625E+01 -0.86008437751E+01  0.10579201120E+02  0.00000000000E+00 0. -1.
</event>
<event>
 7    1  0.2661323E-011  0.5052886E+02  0.7816164E-02  0.1300439E+00
        -11   -1    0    0    0    0  0.00000000000E+00  0.00000000000E+00  0.45593999997E+02  0.45594000000E+02  0.51100000000E-03 0. -1.
         11   -1    0    0    0    0 -0.00000000000E+00 -0.00000000000E+00 -0.45593999997E+02  0.45594000000E+02  0.51100000000E-03 0.  1.
    9900012    2    1    2    0    0 -0.28362879458E+02 -0.27407159797E+02 -0.98772718725E+01  0.50528857868E+02  0.29999993976E+02 0.  0.
         12    1    1    2    0    0  0.28362879458E+02  0.27407159797E+02  0.98772718725E+01  0.40659142132E+02  0.00000000000E+00 0. -1.
         11    1    3    3    0    0 -0.10229215307E+01 -0.70461436796E+00  0.32531393365E+01  0.34822070113E+01  0.51100000000E-03 0. -1.
        -11    1    3    3    0    0  0.55577713804E+00 -0.33252081801E+01  0.52758928352E+01  0.62610656551E+01  0.51100000000E-03 0.  1.
        -12    1    3    3    0    0 -0.27895735065E+02 -0.23377337249E+02 -0.18406304044E+02  0.40785585202E+02  0.00000000000E+00 0.  1.
</event>
<event>
 7    1  0.2661323E-011  0.5052887E+02  0.7816164E-02  0.1300439E+00
        -11   -1    0    0    0    0  0.00000000000E+00  0.00000000000E+00  0.45593999997E+02  0.45594000000E+02  0.51100000000E-03 0.  1.
         11   -1    0    0    0    0 -0.00000000000E+00 -0.00000000000E+00 -0.45593999997E+02  0.45594000000E+02  0.51100000000E-03 0. -1.
    9900012    2    1    2    0    0 -0.26903116491E+02  0.27484642092E+02  0.13190210621E+02  0.50528869610E+02  0.30000029666E+02 0.  0.
         12    1    1    2    0    0  0.26903116491E+02 -0.27484642092E+02 -0.13190210621E+02  0.40659130390E+02  0.00000000000E+00 0. -1.
         11    1    3    3    0    0 -0.13028461663E+02  0.87808028623E+01  0.14012757842E+02  0.21052332289E+02  0.51100000000E-03 0. -1.
        -11    1    3    3    0    0 -0.63321785030E+01  0.55874869033E+01  0.82736304558E+01  0.11822413276E+02  0.51100000000E-03 0.  1.
         12    1    3    3    0    0 -0.75424763249E+01  0.13116352327E+02 -0.90961776763E+01  0.17654124045E+02  0.00000000000E+00 0. -1.
</event>
<event>
 7    1  0.2661323E-011  0.5052886E+02  0.7816164E-02  0.1300439E+00
        -11   -1    0    0    0    0  0.00000000000E+00  0.00000000000E+00  0.45593999997E+02  0.45594000000E+02  0.51100000000E-03 0.  1.
         11   -1    0    0    0    0 -0.00000000000E+00 -0.00000000000E+00 -0.45593999997E+02  0.45594000000E+02  0.51100000000E-03 0. -1.
    9900012    2    1    2    0    0 -0.28388768651E+02 -0.26305980438E+02  0.12459493826E+02  0.50528858608E+02  0.29999996225E+02 0.  0.
         12    1    1    2    0    0  0.28388768651E+02  0.26305980438E+02 -0.12459493826E+02  0.40659141392E+02  0.00000000000E+00 0. -1.
         11    1    3    3    0    0 -0.20065244607E+02 -0.89036986042E+01 -0.24381666256E+01  0.22086976858E+02  0.51100000000E-03 0. -1.
        -11    1    3    3    0    0 -0.51886723539E+01 -0.38148843449E+01 -0.18004288115E+01  0.66870926065E+01  0.51100000000E-03 0.  1.
        -12    1    3    3    0    0 -0.31348516904E+01 -0.13587397489E+02  0.16698089263E+02  0.21754789143E+02  0.00000000000E+00 0.  1.
</event>
<event>
 7    1  0.2661323E-011  0.5052887E+02  0.7816164E-02  0.1300439E+00
        -11   -1    0    0    0    0  0.00000000000E+00  0.00000000000E+00  0.45593999997E+02  0.45594000000E+02  0.51100000000E-03 0.  1.
         11   -1    0    0    0    0 -0.00000000000E+00 -0.00000000000E+00 -0.45593999997E+02  0.45594000000E+02  0.51100000000E-03 0. -1.
    9900012    2    1    2    0    0 -0.46264097156E+01 -0.40177900467E+02  0.41830068446E+01  0.50528869426E+02  0.30000029108E+02 0.  0.
         12    1    1    2    0    0  0.46264097156E+01  0.40177900467E+02 -0.41830068446E+01  0.40659130574E+02  0.00000000000E+00 0. -1.
         11    1    3    3    0    0  0.32433728509E-01 -0.22850968164E+02 -0.26150974960E+01  0.23000142024E+02  0.51100000000E-03 0.  1.
        -11    1    3    3    0    0 -0.32654188686E+01 -0.18229951079E+02 -0.19518036762E+01  0.18622664003E+02  0.51100000000E-03 0. -1.
         12    1    3    3    0    0 -0.13934245755E+01  0.90301877602E+00  0.87499080169E+01  0.89060633987E+01  0.00000000000E+00 0. -1.
</event>
<event>
 7    1  0.2661323E-011  0.5052886E+02  0.7816164E-02  0.1300439E+00
        -11   -1    0    0    0    0  0.00000000000E+00  0.00000000000E+00  0.45593999997E+02  0.45594000000E+02  0.51100000000E-03 0.  1.
         11   -1    0    0    0    0 -0.00000000000E+00 -0.00000000000E+00 -0.45593999997E+02  0.45594000000E+02  0.51100000000E-03 0. -1.
    9900012    2    1    2    0    0  0.72955230825E+01  0.28082518996E+02  0.28483557391E+02  0.50528861152E+02  0.30000003959E+02 0.  0.
         12    1    1    2    0    0 -0.72955230825E+01 -0.28082518996E+02 -0.28483557391E+02  0.40659138848E+02  0.00000000000E+00 0. -1.
         11    1    3    3    0    0 -0.22776655476E+00  0.75768036525E+01 -0.10835391808E+01  0.76572768403E+01  0.51100000000E-03 0. -1.
        -11    1    3    3    0    0 -0.70371133347E+01  0.23834005048E+01  0.10170904431E+02  0.12595588881E+02  0.51100000000E-03 0.  1.
         12    1    3    3    0    0  0.14560402972E+02  0.18122314838E+02  0.19396192141E+02  0.30275995432E+02  0.00000000000E+00 0. -1.
</event>
<event>
 7    1  0.2661323E-011  0.5052888E+02  0.7816164E-02  0.1300439E+00
        -11   -1    0    0    0    0  0.00000000000E+00  0.00000000000E+00  0.45593999997E+02  0.45594000000E+02  0.51100000000E-03 0.  1.
         11   -1    0    0    0    0 -0.00000000000E+00 -0.00000000000E+00 -0.45593999997E+02  0.45594000000E+02  0.51100000000E-03 0. -1.
    9900012    2    1    2    0    0  0.67975441182E+01  0.21296320049E+02  0.33962095224E+02  0.50528883364E+02  0.30000071472E+02 0.  0.
         12    1    1    2    0    0 -0.67975441182E+01 -0.21296320049E+02 -0.33962095224E+02  0.40659116636E+02  0.00000000000E+00 0. -1.
         11    1    3    3    0    0 -0.11974173076E+01 -0.53087111134E+01  0.31785381816E+01  0.63023271200E+01  0.51100000000E-03 0. -1.
        -11    1    3    3    0    0 -0.40883509969E+01  0.47872148776E+01  0.32793104893E+01  0.70983038612E+01  0.51100000000E-03 0.  1.
        -12    1    3    3    0    0  0.12083312423E+02  0.21817816284E+02  0.27504246553E+02  0.37128252382E+02  0.00000000000E+00 0.  1.
</event>
<event>
 7    1  0.2661323E-011  0.5052886E+02  0.7816164E-02  0.1300439E+00
        -11   -1    0    0    0    0  0.00000000000E+00  0.00000000000E+00  0.45593999997E+02  0.45594000000E+02  0.51100000000E-03 0. -1.
         11   -1    0    0    0    0 -0.00000000000E+00 -0.00000000000E+00 -0.45593999997E+02  0.45594000000E+02  0.51100000000E-03 0.  1.
    9900012    2    1    2    0    0 -0.37241818629E+02 -0.41794442873E+01 -0.15771646026E+02  0.50528860466E+02  0.30000001871E+02 0.  0.
         12    1    1    2    0    0  0.37241818629E+02  0.41794442873E+01  0.15771646026E+02  0.40659139534E+02  0.00000000000E+00 0. -1.
         11    1    3    3    0    0 -0.15536854872E+01 -0.88639855747E+01 -0.83382971031E+01  0.12268307858E+02  0.51100000000E-03 0. -1.
        -11    1    3    3    0    0 -0.11819533148E+02 -0.30968479968E+01 -0.55846732844E+00  0.12231259844E+02  0.51100000000E-03 0.  1.
        -12    1    3    3    0    0 -0.23868599993E+02  0.77813892842E+01 -0.68748815943E+01  0.26029292763E+02  0.00000000000E+00 0.  1.
</event>
<event>
 7    1  0.2661323E-011  0.5052886E+02  0.7816164E-02  0.1300439E+00
        -11   -1    0    0    0    0  0.00000000000E+00  0.00000000000E+00  0.45593999997E+02  0.45594000000E+02  0.51100000000E-03 0.  1.
         11   -1    0    0    0    0 -0.00000000000E+00 -0.00000000000E+00 -0.45593999997E+02  0.45594000000E+02  0.51100000000E-03 0. -1.
    9900012    2    1    2    0    0  0.36438399314E+02 -0.14439496646E+01  0.17981207588E+02  0.50528858820E+02  0.29999996868E+02 0.  0.
         12    1    1    2    0    0 -0.36438399314E+02  0.14439496646E+01 -0.17981207588E+02  0.40659141180E+02  0.00000000000E+00 0. -1.
         11    1    3    3    0    0 -0.25399488868E+01 -0.44537781927E+01 -0.12934492861E+01  0.52877681355E+01  0.51100000000E-03 0. -1.
        -11    1    3    3    0    0  0.66086303075E+01  0.51234403491E+01  0.54376546893E+01  0.99745538413E+01  0.51100000000E-03 0.  1.
        -12    1    3    3    0    0  0.32369717893E+02 -0.21136118210E+01  0.13837002184E+02  0.35266536843E+02  0.00000000000E+00 0.  1.
</event>
